<event>
 7    1  0.5456331E-013  0.5052887E+02  0.7816164E-02  0.1300439E+00
        -11   -1    0    0    0    0  0.00000000000E+00  0.00000000000E+00  0.45593999997E+02  0.45594000000E+02  0.51100000000E-03 0.  1.
         11   -1    0    0    0    0 -0.00000000000E+00 -0.00000000000E+00 -0.45593999997E+02  0.45594000000E+02  0.51100000000E-03 0. -1.
    9900012    2    1    2    0    0  0.18330928930E+02  0.34669303011E+02  0.10732258591E+02  0.50528869399E+02  0.30000029026E+02 0.  0.
         12    1    1    2    0    0 -0.18330928930E+02 -0.34669303011E+02 -0.10732258591E+02  0.40659130601E+02  0.00000000000E+00 0. -1.
         11    1    3    3    0    0  0.58932294966E+01  0.30510673245E+02  0.31147170233E+01  0.31230318573E+02  0.51100000000E-03 0. -1.
        -11    1    3    3    0    0  0.29577185842E+01  0.71590982745E+01  0.26790110059E+01  0.81962117810E+01  0.51100000000E-03 0.  1.
        -12    1    3    3    0    0  0.94799808493E+01 -0.30004685081E+01  0.49385305619E+01  0.11102339046E+02  0.00000000000E+00 0.  1.
</event>
<event>
 7    1  0.5456331E-013  0.5052881E+02  0.7816164E-02  0.1300439E+00
        -11   -1    0    0    0    0  0.00000000000E+00  0.00000000000E+00  0.45593999997E+02  0.45594000000E+02  0.51100000000E-03 0.  1.
         11   -1    0    0    0    0 -0.00000000000E+00 -0.00000000000E+00 -0.45593999997E+02  0.45594000000E+02  0.51100000000E-03 0. -1.
    9900012    2    1    2    0    0  0.31013916087E+02 -0.19355279659E+02  0.17795501691E+02  0.50528810115E+02  0.29999848825E+02 0.  0.
         12    1    1    2    0    0 -0.31013916087E+02  0.19355279659E+02 -0.17795501691E+02  0.40659189885E+02  0.00000000000E+00 0. -1.
         11    1    3    3    0    0 -0.90258602977E+00 -0.41841965615E-01 -0.47928702214E+00  0.10228042833E+01  0.51100000000E-03 0. -1.
        -11    1    3    3    0    0  0.17763756155E+02  0.44731359136E+01  0.67096540623E+01  0.19508445236E+02  0.51100000000E-03 0.  1.
        -12    1    3    3    0    0  0.14152745962E+02 -0.23786573607E+02  0.11565134650E+02  0.29997560596E+02  0.00000000000E+00 0.  1.
</event>
<event>
 7    1  0.5456331E-013  0.5052885E+02  0.7816164E-02  0.1300439E+00
        -11   -1    0    0    0    0  0.00000000000E+00  0.00000000000E+00  0.45593999997E+02  0.45594000000E+02  0.51100000000E-03 0. -1.
         11   -1    0    0    0    0 -0.00000000000E+00 -0.00000000000E+00 -0.45593999997E+02  0.45594000000E+02  0.51100000000E-03 0.  1.
    9900012    2    1    2    0    0 -0.39506291932E+02 -0.50417734970E+01 -0.81853271381E+01  0.50528853888E+02  0.29999981878E+02 0.  0.
         12    1    1    2    0    0  0.39506291932E+02  0.50417734970E+01  0.81853271381E+01  0.40659146112E+02  0.00000000000E+00 0. -1.
         11    1    3    3    0    0 -0.76828787254E+01 -0.93246252476E+00 -0.99829951317E+01  0.12631559838E+02  0.51100000000E-03 0. -1.
        -11    1    3    3    0    0 -0.59853204799E+01 -0.59421345254E+01 -0.65539875589E+01  0.10681188003E+02  0.51100000000E-03 0.  1.
         12    1    3    3    0    0 -0.25838092727E+02  0.18328235532E+01  0.83516555525E+01  0.27216106048E+02  0.00000000000E+00 0. -1.
</event>
<event>
 7    1  0.5456331E-013  0.5052886E+02  0.7816164E-02  0.1300439E+00
        -11   -1    0    0    0    0  0.00000000000E+00  0.00000000000E+00  0.45593999997E+02  0.45594000000E+02  0.51100000000E-03 0.  1.
         11   -1    0    0    0    0 -0.00000000000E+00 -0.00000000000E+00 -0.45593999997E+02  0.45594000000E+02  0.51100000000E-03 0. -1.
    9900012    2    1    2    0    0 -0.15235893797E+02  0.49210776430E+01  0.37374009037E+02  0.50528855684E+02  0.29999987338E+02 0.  0.
         12    1    1    2    0    0  0.15235893797E+02 -0.49210776430E+01 -0.37374009037E+02  0.40659144316E+02  0.00000000000E+00 0. -1.
         11    1    3    3    0    0 -0.10519684189E+01 -0.13683210516E+01  0.23103723115E+02  0.23168102255E+02  0.51100000000E-03 0. -1.
        -11    1    3    3    0    0 -0.94219801670E+01 -0.52683981711E+01  0.57283606134E+01  0.12220631945E+02  0.51100000000E-03 0.  1.
         12    1    3    3    0    0 -0.47619452109E+01  0.11557796866E+02  0.85419253091E+01  0.15140121485E+02  0.00000000000E+00 0. -1.
</event>
<event>
 7    1  0.5456331E-013  0.5052885E+02  0.7816164E-02  0.1300439E+00
        -11   -1    0    0    0    0  0.00000000000E+00  0.00000000000E+00  0.45593999997E+02  0.45594000000E+02  0.51100000000E-03 0.  1.
         11   -1    0    0    0    0 -0.00000000000E+00 -0.00000000000E+00 -0.45593999997E+02  0.45594000000E+02  0.51100000000E-03 0. -1.
    9900012    2    1    2    0    0 -0.15960174427E+02  0.39749808125E+01  0.37183846477E+02  0.50528854915E+02  0.29999985000E+02 0.  0.
         12    1    1    2    0    0  0.15960174427E+02 -0.39749808125E+01 -0.37183846477E+02  0.40659145085E+02  0.00000000000E+00 0. -1.
         11    1    3    3    0    0  0.18042539808E+01 -0.12097887630E+01 -0.26144369040E+00  0.21879840819E+01  0.51100000000E-03 0. -1.
        -11    1    3    3    0    0 -0.36164537600E+01 -0.79085760496E+01  0.36435220790E+01  0.94286566557E+01  0.51100000000E-03 0.  1.
        -12    1    3    3    0    0 -0.14147974648E+02  0.13093345625E+02  0.33801768088E+02  0.38912214178E+02  0.00000000000E+00 0.  1.
</event>
<event>
 7    1  0.5456331E-013  0.5052886E+02  0.7816164E-02  0.1300439E+00
        -11   -1    0    0    0    0  0.00000000000E+00  0.00000000000E+00  0.45593999997E+02  0.45594000000E+02  0.51100000000E-03 0.  1.
         11   -1    0    0    0    0 -0.00000000000E+00 -0.00000000000E+00 -0.45593999997E+02  0.45594000000E+02  0.51100000000E-03 0. -1.
    9900012    2    1    2    0    0  0.24253190494E+02 -0.25832370935E+02  0.19940842720E+02  0.50528857785E+02  0.29999993723E+02 0.  0.
         12    1    1    2    0    0 -0.24253190494E+02  0.25832370935E+02 -0.19940842720E+02  0.40659142215E+02  0.00000000000E+00 0. -1.
         11    1    3    3    0    0  0.15703790202E+02 -0.17085221820E+02  0.18178639937E+02  0.29478412128E+02  0.51100000000E-03 0. -1.
        -11    1    3    3    0    0  0.44882881361E+01 -0.90248104999E+01  0.84957211039E+01  0.13182155070E+02  0.51100000000E-03 0.  1.
         12    1    3    3    0    0  0.40611121562E+01  0.27766138450E+00 -0.67335183208E+01  0.78682905873E+01  0.00000000000E+00 0. -1.
</event>
<event>
 7    1  0.5456331E-013  0.5052886E+02  0.7816164E-02  0.1300439E+00
        -11   -1    0    0    0    0  0.00000000000E+00  0.00000000000E+00  0.45593999997E+02  0.45594000000E+02  0.51100000000E-03 0. -1.
         11   -1    0    0    0    0 -0.00000000000E+00 -0.00000000000E+00 -0.45593999997E+02  0.45594000000E+02  0.51100000000E-03 0.  1.
    9900012    2    1    2    0    0 -0.16621438866E+02 -0.36958240898E+02 -0.33138460035E+01  0.50528863566E+02  0.30000011295E+02 0.  0.
         12    1    1    2    0    0  0.16621438866E+02  0.36958240898E+02  0.33138460035E+01  0.40659136434E+02  0.00000000000E+00 0. -1.
         11    1    3    3    0    0  0.17762704479E+01 -0.39819599412E+01 -0.33788600255E+01  0.55161433095E+01  0.51100000000E-03 0. -1.
        -11    1    3    3    0    0 -0.84382883803E+01 -0.28877136833E+02 -0.84884561340E+01  0.31259360682E+02  0.51100000000E-03 0.  1.
        -12    1    3    3    0    0 -0.99594209333E+01 -0.40991441236E+01  0.85534701560E+01  0.13753359574E+02  0.00000000000E+00 0.  1.
</event>
<event>
 7    1  0.5456331E-013  0.5052884E+02  0.7816164E-02  0.1300439E+00
        -11   -1    0    0    0    0  0.00000000000E+00  0.00000000000E+00  0.45593999997E+02  0.45594000000E+02  0.51100000000E-03 0.  1.
         11   -1    0    0    0    0 -0.00000000000E+00 -0.00000000000E+00 -0.45593999997E+02  0.45594000000E+02  0.51100000000E-03 0. -1.
    9900012    2    1    2    0    0  0.13385698786E+02 -0.37423423034E+02  0.85719072272E+01  0.50528842150E+02  0.29999946199E+02 0.  0.
         12    1    1    2    0    0 -0.13385698786E+02  0.37423423034E+02 -0.85719072272E+01  0.40659157850E+02  0.00000000000E+00 0. -1.
         11    1    3    3    0    0  0.32146843348E+01 -0.48696109971E+01 -0.72992010491E+01  0.93448190380E+01  0.51100000000E-03 0. -1.
        -11    1    3    3    0    0  0.43862547938E+01 -0.79535373812E+01  0.12845488775E+02  0.15732277970E+02  0.51100000000E-03 0.  1.
         12    1    3    3    0    0  0.57847596576E+01 -0.24600274655E+02  0.30256195013E+01  0.25451745142E+02  0.00000000000E+00 0. -1.
</event>
<event>
 7    1  0.5456331E-013  0.5052887E+02  0.7816164E-02  0.1300439E+00
        -11   -1    0    0    0    0  0.00000000000E+00  0.00000000000E+00  0.45593999997E+02  0.45594000000E+02  0.51100000000E-03 0.  1.
         11   -1    0    0    0    0 -0.00000000000E+00 -0.00000000000E+00 -0.45593999997E+02  0.45594000000E+02  0.51100000000E-03 0. -1.
    9900012    2    1    2    0    0  0.10658487509E+02 -0.30573718575E+02  0.24592870797E+02  0.50528869199E+02  0.30000028417E+02 0.  0.
         12    1    1    2    0    0 -0.10658487509E+02  0.30573718575E+02 -0.24592870797E+02  0.40659130801E+02  0.00000000000E+00 0. -1.
         11    1    3    3    0    0 -0.34415829991E+01 -0.90218566601E+01  0.29579841271E+01  0.10098913877E+02  0.51100000000E-03 0. -1.
        -11    1    3    3    0    0  0.13314097232E+01 -0.19853114659E+02  0.73925363991E+01  0.21226596717E+02  0.51100000000E-03 0.  1.
        -12    1    3    3    0    0  0.12768660785E+02 -0.16987472560E+01  0.14242350270E+02  0.19203358605E+02  0.00000000000E+00 0.  1.
</event>
<event>
 7    1  0.5456331E-013  0.5052887E+02  0.7816164E-02  0.1300439E+00
        -11   -1    0    0    0    0  0.00000000000E+00  0.00000000000E+00  0.45593999997E+02  0.45594000000E+02  0.51100000000E-03 0.  1.
         11   -1    0    0    0    0 -0.00000000000E+00 -0.00000000000E+00 -0.45593999997E+02  0.45594000000E+02  0.51100000000E-03 0. -1.
    9900012    2    1    2    0    0  0.21187902530E+02 -0.29739235229E+02  0.17883395802E+02  0.50528866081E+02  0.30000018939E+02 0.  0.
         12    1    1    2    0    0 -0.21187902530E+02  0.29739235229E+02 -0.17883395802E+02  0.40659133919E+02  0.00000000000E+00 0. -1.
         11    1    3    3    0    0  0.20701966650E+02 -0.19412852785E+02  0.14245428515E+02  0.31754724219E+02  0.51100000000E-03 0. -1.
        -11    1    3    3    0    0  0.76362000137E+01 -0.66109203293E+01  0.35799398516E+01  0.10715959493E+02  0.51100000000E-03 0.  1.
        -12    1    3    3    0    0 -0.71502641332E+01 -0.37154621152E+01  0.58027435419E-01  0.80581823687E+01  0.00000000000E+00 0.  1.
</event>
<event>
 7    1  0.5456331E-013  0.5052886E+02  0.7816164E-02  0.1300439E+00
        -11   -1    0    0    0    0  0.00000000000E+00  0.00000000000E+00  0.45593999997E+02  0.45594000000E+02  0.51100000000E-03 0. -1.
         11   -1    0    0    0    0 -0.00000000000E+00 -0.00000000000E+00 -0.45593999997E+02  0.45594000000E+02  0.51100000000E-03 0.  1.
    9900012    2    1    2    0    0  0.32925265827E+02 -0.41617837908E+01 -0.23489825433E+02  0.50528862368E+02  0.30000007654E+02 0.  0.
         12    1    1    2    0    0 -0.32925265827E+02  0.41617837908E+01  0.23489825433E+02  0.40659137632E+02  0.00000000000E+00 0. -1.
         11    1    3    3    0    0  0.78754717608E+01  0.46566665979E+01 -0.86620789425E+01  0.12599175018E+02  0.51100000000E-03 0. -1.
        -11    1    3    3    0    0  0.21583761281E+02  0.37191347102E+01 -0.91269214881E+01  0.23727440025E+02  0.51100000000E-03 0.  1.
         12    1    3    3    0    0  0.34660327847E+01 -0.12537585099E+02 -0.57008250026E+01  0.14202247325E+02  0.00000000000E+00 0. -1.
</event>
<event>
 7    1  0.5456331E-013  0.5052886E+02  0.7816164E-02  0.1300439E+00
        -11   -1    0    0    0    0  0.00000000000E+00  0.00000000000E+00  0.45593999997E+02  0.45594000000E+02  0.51100000000E-03 0.  1.
         11   -1    0    0    0    0 -0.00000000000E+00 -0.00000000000E+00 -0.45593999997E+02  0.45594000000E+02  0.51100000000E-03 0. -1.
    9900012    2    1    2    0    0  0.24266415045E+02 -0.31310174750E+02 -0.91640455339E+01  0.50528859913E+02  0.30000000192E+02 0.  0.
         12    1    1    2    0    0 -0.24266415045E+02  0.31310174750E+02  0.91640455339E+01  0.40659140087E+02  0.00000000000E+00 0. -1.
         11    1    3    3    0    0  0.14644826750E+02 -0.87510689984E+01  0.52793951655E+01  0.17858448217E+02  0.51100000000E-03 0. -1.
        -11    1    3    3    0    0  0.55625953656E+01  0.19032102388E-01 -0.61117698902E+01  0.82641733327E+01  0.51100000000E-03 0.  1.
        -12    1    3    3    0    0  0.40589929303E+01 -0.22578137854E+02 -0.83316708092E+01  0.24406238363E+02  0.00000000000E+00 0.  1.
</event>
<event>
 7    1  0.5456331E-013  0.5052885E+02  0.7816164E-02  0.1300439E+00
        -11   -1    0    0    0    0  0.00000000000E+00  0.00000000000E+00  0.45593999997E+02  0.45594000000E+02  0.51100000000E-03 0. -1.
         11   -1    0    0    0    0 -0.00000000000E+00 -0.00000000000E+00 -0.45593999997E+02  0.45594000000E+02  0.51100000000E-03 0.  1.
    9900012    2    1    2    0    0  0.33331392627E+02 -0.23283480280E+02  0.25280567169E+00  0.50528854669E+02  0.29999984251E+02 0.  0.
         12    1    1    2    0    0 -0.33331392627E+02  0.23283480280E+02 -0.25280567169E+00  0.40659145331E+02  0.00000000000E+00 0. -1.
         11    1    3    3    0    0  0.89219108930E+00 -0.33141715314E+01  0.49167267569E+01  0.59961604500E+01  0.51100000000E-03 0. -1.
        -11    1    3    3    0    0  0.24275855086E+02 -0.24787917562E+02 -0.23485510390E+01  0.34774612715E+02  0.51100000000E-03 0.  1.
         12    1    3    3    0    0  0.81633464514E+01  0.48186088137E+01 -0.23153700462E+01  0.97580815039E+01  0.00000000000E+00 0. -1.
</event>
<event>
 7    1  0.5456331E-013  0.5052898E+02  0.7816164E-02  0.1300438E+00
        -11   -1    0    0    0    0  0.00000000000E+00  0.00000000000E+00  0.45593999997E+02  0.45594000000E+02  0.51100000000E-03 0.  1.
         11   -1    0    0    0    0 -0.00000000000E+00 -0.00000000000E+00 -0.45593999997E+02  0.45594000000E+02  0.51100000000E-03 0. -1.
    9900012    2    1    2    0    0  0.61183309295E+01  0.39780224359E+02  0.57667449337E+01  0.50528984142E+02  0.30000377795E+02 0.  0.
         12    1    1    2    0    0 -0.61183309295E+01 -0.39780224359E+02 -0.57667449337E+01  0.40659015858E+02  0.00000000000E+00 0. -1.
         11    1    3    3    0    0  0.35876182046E+01  0.21891005863E+02  0.44271823314E+01  0.22620501447E+02  0.51100000000E-03 0. -1.
        -11    1    3    3    0    0 -0.30337949013E+01  0.21132937060E+02  0.19513097485E+01  0.21438576218E+02  0.51100000000E-03 0.  1.
         12    1    3    3    0    0  0.55645076262E+01 -0.32437185636E+01 -0.61174714620E+00  0.64699064763E+01  0.00000000000E+00 0. -1.
</event>
<event>
 7    1  0.5456331E-013  0.5052886E+02  0.7816164E-02  0.1300439E+00
        -11   -1    0    0    0    0  0.00000000000E+00  0.00000000000E+00  0.45593999997E+02  0.45594000000E+02  0.51100000000E-03 0.  1.
         11   -1    0    0    0    0 -0.00000000000E+00 -0.00000000000E+00 -0.45593999997E+02  0.45594000000E+02  0.51100000000E-03 0. -1.
    9900012    2    1    2    0    0  0.32210776261E+02 -0.65397087701E+01  0.23934577200E+02  0.50528857315E+02  0.29999992296E+02 0.  0.
         12    1    1    2    0    0 -0.32210776261E+02  0.65397087701E+01 -0.23934577200E+02  0.40659142685E+02  0.00000000000E+00 0. -1.
         11    1    3    3    0    0 -0.44612113679E+01  0.10850886546E+00 -0.32507785482E-01  0.44626492199E+01  0.51100000000E-03 0. -1.
        -11    1    3    3    0    0  0.15339182708E+02 -0.31049674052E+01  0.17538246860E+02  0.23505774863E+02  0.51100000000E-03 0.  1.
         12    1    3    3    0    0  0.21332804921E+02 -0.35432502303E+01  0.64288381250E+01  0.22560433232E+02  0.00000000000E+00 0. -1.
</event>
<event>
 7    1  0.5456331E-013  0.5052887E+02  0.7816164E-02  0.1300439E+00
        -11   -1    0    0    0    0  0.00000000000E+00  0.00000000000E+00  0.45593999997E+02  0.45594000000E+02  0.51100000000E-03 0. -1.
         11   -1    0    0    0    0 -0.00000000000E+00 -0.00000000000E+00 -0.45593999997E+02  0.45594000000E+02  0.51100000000E-03 0.  1.
    9900012    2    1    2    0    0 -0.37969229750E+02 -0.52904424836E+01 -0.13546716340E+02  0.50528871713E+02  0.30000036059E+02 0.  0.
         12    1    1    2    0    0  0.37969229750E+02  0.52904424836E+01  0.13546716340E+02  0.40659128287E+02  0.00000000000E+00 0. -1.
         11    1    3    3    0    0 -0.13598804408E+02 -0.40912483266E+01  0.32435632672E+01  0.14566622708E+02  0.51100000000E-03 0. -1.
        -11    1    3    3    0    0 -0.27852238996E+02  0.71750344448E-01 -0.13276042207E+02  0.30854588996E+02  0.51100000000E-03 0.  1.
        -12    1    3    3    0    0  0.34818136543E+01 -0.12709445014E+01 -0.35142374011E+01  0.51076600083E+01  0.00000000000E+00 0.  1.
</event>
<event>
 7    1  0.5456331E-013  0.5052886E+02  0.7816164E-02  0.1300439E+00
        -11   -1    0    0    0    0  0.00000000000E+00  0.00000000000E+00  0.45593999997E+02  0.45594000000E+02  0.51100000000E-03 0. -1.
         11   -1    0    0    0    0 -0.00000000000E+00 -0.00000000000E+00 -0.45593999997E+02  0.45594000000E+02  0.51100000000E-03 0.  1.
    9900012    2    1    2    0    0 -0.18796412525E+02 -0.17437721891E+02 -0.31556077879E+02  0.50528864254E+02  0.30000013386E+02 0.  0.
         12    1    1    2    0    0  0.18796412525E+02  0.17437721891E+02  0.31556077879E+02  0.40659135746E+02  0.00000000000E+00 0. -1.
         11    1    3    3    0    0 -0.35361556831E+00 -0.98944557832E-01 -0.12085003292E+02  0.12090580582E+02  0.51100000000E-03 0. -1.
        -11    1    3    3    0    0  0.11558911172E+01 -0.45365084264E+01 -0.13486452144E+02  0.14275867212E+02  0.51100000000E-03 0.  1.
        -12    1    3    3    0    0 -0.19598688074E+02 -0.12802268907E+02 -0.59846224433E+01  0.24162416459E+02  0.00000000000E+00 0.  1.
</event>
<event>
 7    1  0.5456331E-013  0.5052885E+02  0.7816164E-02  0.1300439E+00
        -11   -1    0    0    0    0  0.00000000000E+00  0.00000000000E+00  0.45593999997E+02  0.45594000000E+02  0.51100000000E-03 0. -1.
         11   -1    0    0    0    0 -0.00000000000E+00 -0.00000000000E+00 -0.45593999997E+02  0.45594000000E+02  0.51100000000E-03 0.  1.
    9900012    2    1    2    0    0 -0.13629683624E+02 -0.32147643156E+02 -0.20830929047E+02  0.50528845544E+02  0.29999956515E+02 0.  0.
         12    1    1    2    0    0  0.13629683624E+02  0.32147643156E+02  0.20830929047E+02  0.40659154456E+02  0.00000000000E+00 0. -1.
         11    1    3    3    0    0 -0.61706049275E+01  0.14653610065E+01 -0.10920120052E+01  0.64355371595E+01  0.51100000000E-03 0. -1.
        -11    1    3    3    0    0 -0.85655916282E+01 -0.39500180399E+01 -0.24645472633E+01  0.97491536007E+01  0.51100000000E-03 0.  1.
        -12    1    3    3    0    0  0.11065129317E+01 -0.29662986122E+02 -0.17274369778E+02  0.34344154783E+02  0.00000000000E+00 0.  1.
</event>
<event>
 7    1  0.5456331E-013  0.5052886E+02  0.7816164E-02  0.1300439E+00
        -11   -1    0    0    0    0  0.00000000000E+00  0.00000000000E+00  0.45593999997E+02  0.45594000000E+02  0.51100000000E-03 0.  1.
         11   -1    0    0    0    0 -0.00000000000E+00 -0.00000000000E+00 -0.45593999997E+02  0.45594000000E+02  0.51100000000E-03 0. -1.
    9900012    2    1    2    0    0  0.26120066459E+02  0.28012646614E+02  0.13645490587E+02  0.50528860123E+02  0.30000000830E+02 0.  0.
         12    1    1    2    0    0 -0.26120066459E+02 -0.28012646614E+02 -0.13645490587E+02  0.40659139877E+02  0.00000000000E+00 0. -1.
         11    1    3    3    0    0  0.54982480020E+01  0.31871837039E+01  0.50757011871E+01  0.81333642397E+01  0.51100000000E-03 0. -1.
        -11    1    3    3    0    0  0.23367207439E+02  0.28411533187E+02  0.62340024474E+01  0.37310915136E+02  0.51100000000E-03 0.  1.
         12    1    3    3    0    0 -0.27453889821E+01 -0.35860702762E+01  0.23357869526E+01  0.50845807474E+01  0.00000000000E+00 0. -1.
</event>
<event>
 7    1  0.5456331E-013  0.5052886E+02  0.7816164E-02  0.1300439E+00
        -11   -1    0    0    0    0  0.00000000000E+00  0.00000000000E+00  0.45593999997E+02  0.45594000000E+02  0.51100000000E-03 0. -1.
         11   -1    0    0    0    0 -0.00000000000E+00 -0.00000000000E+00 -0.45593999997E+02  0.45594000000E+02  0.51100000000E-03 0.  1.
    9900012    2    1    2    0    0  0.20466842744E+02 -0.31452290149E+02  0.15653347988E+02  0.50528861904E+02  0.30000006242E+02 0.  0.
         12    1    1    2    0    0 -0.20466842744E+02  0.31452290149E+02 -0.15653347988E+02  0.40659138096E+02  0.00000000000E+00 0. -1.
         11    1    3    3    0    0  0.28583629028E+01 -0.82858563954E+01  0.33468695533E+01  0.93822806799E+01  0.51100000000E-03 0. -1.
        -11    1    3    3    0    0  0.79222173346E+01 -0.15302085898E+02  0.20069475466E+02  0.26451828029E+02  0.51100000000E-03 0.  1.
         12    1    3    3    0    0  0.96862625066E+01 -0.78643478555E+01 -0.77629970317E+01  0.14694753195E+02  0.00000000000E+00 0. -1.
</event>
<event>
 7    1  0.5456331E-013  0.5052887E+02  0.7816164E-02  0.1300439E+00
        -11   -1    0    0    0    0  0.00000000000E+00  0.00000000000E+00  0.45593999997E+02  0.45594000000E+02  0.51100000000E-03 0.  1.
         11   -1    0    0    0    0 -0.00000000000E+00 -0.00000000000E+00 -0.45593999997E+02  0.45594000000E+02  0.51100000000E-03 0. -1.
    9900012    2    1    2    0    0  0.37710980392E+02 -0.14992572236E+02  0.25038984502E+01  0.50528870991E+02  0.30000033863E+02 0.  0.
         12    1    1    2    0    0 -0.37710980392E+02  0.14992572236E+02 -0.25038984502E+01  0.40659129009E+02  0.00000000000E+00 0. -1.
         11    1    3    3    0    0  0.46778900565E+00 -0.10319709348E+00 -0.59491569848E+01  0.59684122918E+01  0.51100000000E-03 0. -1.
        -11    1    3    3    0    0  0.16234559766E+02 -0.88209921032E+01 -0.46702559364E+01  0.19057337780E+02  0.51100000000E-03 0.  1.
        -12    1    3    3    0    0  0.21008631620E+02 -0.60683830398E+01  0.13123311371E+02  0.25503120919E+02  0.00000000000E+00 0.  1.
</event>
<event>
 7    1  0.5456331E-013  0.5052886E+02  0.7816164E-02  0.1300439E+00
        -11   -1    0    0    0    0  0.00000000000E+00  0.00000000000E+00  0.45593999997E+02  0.45594000000E+02  0.51100000000E-03 0.  1.
         11   -1    0    0    0    0 -0.00000000000E+00 -0.00000000000E+00 -0.45593999997E+02  0.45594000000E+02  0.51100000000E-03 0. -1.
    9900012    2    1    2    0    0 -0.19816239122E+02  0.59430737802E+01  0.35002320747E+02  0.50528856913E+02  0.29999991073E+02 0.  0.
         12    1    1    2    0    0  0.19816239122E+02 -0.59430737802E+01 -0.35002320747E+02  0.40659143087E+02  0.00000000000E+00 0. -1.
         11    1    3    3    0    0 -0.36858553900E+01  0.63112305252E+01 -0.31598111131E+01  0.79625101086E+01  0.51100000000E-03 0. -1.
        -11    1    3    3    0    0 -0.42107378016E+01 -0.16710395805E+01  0.30447449343E+01  0.54583109191E+01  0.51100000000E-03 0.  1.
        -12    1    3    3    0    0 -0.11919645931E+02  0.13028828355E+01  0.35117386926E+02  0.37108035885E+02  0.00000000000E+00 0.  1.
</event>
<event>
 7    1  0.5456331E-013  0.5052888E+02  0.7816164E-02  0.1300439E+00
        -11   -1    0    0    0    0  0.00000000000E+00  0.00000000000E+00  0.45593999997E+02  0.45594000000E+02  0.51100000000E-03 0.  1.
         11   -1    0    0    0    0 -0.00000000000E+00 -0.00000000000E+00 -0.45593999997E+02  0.45594000000E+02  0.51100000000E-03 0. -1.
    9900012    2    1    2    0    0 -0.12926758436E+02 -0.38427675501E+02 -0.30621067563E+01  0.50528882623E+02  0.30000069221E+02 0.  0.
         12    1    1    2    0    0  0.12926758436E+02  0.38427675501E+02  0.30621067563E+01  0.40659117377E+02  0.00000000000E+00 0. -1.
         11    1    3    3    0    0 -0.12495138610E+01  0.13239348153E+00  0.17662534494E+01  0.21675941574E+01  0.51100000000E-03 0. -1.
        -11    1    3    3    0    0 -0.17593760625E+02 -0.24115801583E+02  0.44825267432E+01  0.30186178049E+02  0.51100000000E-03 0.  1.
         12    1    3    3    0    0  0.59165160500E+01 -0.14444267399E+02 -0.93108869489E+01  0.18175110416E+02  0.00000000000E+00 0. -1.
</event>
<event>
 7    1  0.5456331E-013  0.5052886E+02  0.7816164E-02  0.1300439E+00
        -11   -1    0    0    0    0  0.00000000000E+00  0.00000000000E+00  0.45593999997E+02  0.45594000000E+02  0.51100000000E-03 0.  1.
         11   -1    0    0    0    0 -0.00000000000E+00 -0.00000000000E+00 -0.45593999997E+02  0.45594000000E+02  0.51100000000E-03 0. -1.
    9900012    2    1    2    0    0 -0.23616701221E+02  0.88118459095E+01  0.31902485266E+02  0.50528858703E+02  0.29999996513E+02 0.  0.
         12    1    1    2    0    0  0.23616701221E+02 -0.88118459095E+01 -0.31902485266E+02  0.40659141297E+02  0.00000000000E+00 0. -1.
         11    1    3    3    0    0 -0.10417288246E+02  0.74781478527E+01  0.57277450832E+01  0.14044559577E+02  0.51100000000E-03 0. -1.
        -11    1    3    3    0    0 -0.64706677853E+01 -0.99181911870E+01  0.89822226177E+01  0.14863390644E+02  0.51100000000E-03 0.  1.
         12    1    3    3    0    0 -0.67287451892E+01  0.11251889244E+02  0.17192517565E+02  0.21620908482E+02  0.00000000000E+00 0. -1.
</event>
<event>
 7    1  0.5456331E-013  0.5052886E+02  0.7816164E-02  0.1300439E+00
        -11   -1    0    0    0    0  0.00000000000E+00  0.00000000000E+00  0.45593999997E+02  0.45594000000E+02  0.51100000000E-03 0.  1.
         11   -1    0    0    0    0 -0.00000000000E+00 -0.00000000000E+00 -0.45593999997E+02  0.45594000000E+02  0.51100000000E-03 0. -1.
    9900012    2    1    2    0    0  0.21215031481E+02  0.34409354537E+02  0.43685549656E+01  0.50528861877E+02  0.30000006163E+02 0.  0.
         12    1    1    2    0    0 -0.21215031481E+02 -0.34409354537E+02 -0.43685549656E+01  0.40659138123E+02  0.00000000000E+00 0. -1.
         11    1    3    3    0    0  0.14253979015E+02  0.17933552953E+02  0.58004694313E+01  0.23631201517E+02  0.51100000000E-03 0. -1.
        -11    1    3    3    0    0 -0.63855157956E+01  0.66555832710E+01 -0.41361232195E+01  0.10108368622E+02  0.51100000000E-03 0.  1.
         12    1    3    3    0    0  0.13346568262E+02  0.98202183129E+01  0.27042087538E+01  0.16789291738E+02  0.00000000000E+00 0. -1.
</event>
<event>
 7    1  0.5456331E-013  0.5052886E+02  0.7816164E-02  0.1300439E+00
        -11   -1    0    0    0    0  0.00000000000E+00  0.00000000000E+00  0.45593999997E+02  0.45594000000E+02  0.51100000000E-03 0.  1.
         11   -1    0    0    0    0 -0.00000000000E+00 -0.00000000000E+00 -0.45593999997E+02  0.45594000000E+02  0.51100000000E-03 0. -1.
    9900012    2    1    2    0    0 -0.24592386373E+02  0.28619542227E+02  0.15142710393E+02  0.50528863968E+02  0.30000012517E+02 0.  0.
         12    1    1    2    0    0  0.24592386373E+02 -0.28619542227E+02 -0.15142710393E+02  0.40659136032E+02  0.00000000000E+00 0. -1.
         11    1    3    3    0    0 -0.47824915418E+00  0.16788763711E+01 -0.81419794167E+00  0.19262052518E+01  0.51100000000E-03 0. -1.
        -11    1    3    3    0    0 -0.18755982458E+02  0.29443564542E+02  0.38412997930E+01  0.35120733980E+02  0.51100000000E-03 0.  1.
         12    1    3    3    0    0 -0.53581547610E+01 -0.25028986854E+01  0.12115608541E+02  0.13481924736E+02  0.00000000000E+00 0. -1.
</event>
<event>
 7    1  0.5456331E-013  0.5052886E+02  0.7816164E-02  0.1300439E+00
        -11   -1    0    0    0    0  0.00000000000E+00  0.00000000000E+00  0.45593999997E+02  0.45594000000E+02  0.51100000000E-03 0.  1.
         11   -1    0    0    0    0 -0.00000000000E+00 -0.00000000000E+00 -0.45593999997E+02  0.45594000000E+02  0.51100000000E-03 0. -1.
    9900012    2    1    2    0    0  0.29827884995E+02  0.25064188277E+02  0.11629692427E+02  0.50528855847E+02  0.29999987834E+02 0.  0.
         12    1    1    2    0    0 -0.29827884995E+02 -0.25064188277E+02 -0.11629692427E+02  0.40659144153E+02  0.00000000000E+00 0. -1.
         11    1    3    3    0    0  0.19256064596E+02  0.10616014899E+02  0.13611979770E+02  0.25860815718E+02  0.51100000000E-03 0. -1.
        -11    1    3    3    0    0  0.97599491578E+01  0.11531395464E+02  0.59044517673E+01  0.16220118367E+02  0.51100000000E-03 0.  1.
         12    1    3    3    0    0  0.81187124100E+00  0.29167779144E+01 -0.78867391104E+01  0.84479217627E+01  0.00000000000E+00 0. -1.
</event>
<event>
 7    1  0.5456331E-013  0.5052885E+02  0.7816164E-02  0.1300439E+00
        -11   -1    0    0    0    0  0.00000000000E+00  0.00000000000E+00  0.45593999997E+02  0.45594000000E+02  0.51100000000E-03 0.  1.
         11   -1    0    0    0    0 -0.00000000000E+00 -0.00000000000E+00 -0.45593999997E+02  0.45594000000E+02  0.51100000000E-03 0. -1.
    9900012    2    1    2    0    0  0.31001711246E+02 -0.25700948980E+02  0.56143757355E+01  0.50528854737E+02  0.29999984459E+02 0.  0.
         12    1    1    2    0    0 -0.31001711246E+02  0.25700948980E+02 -0.56143757355E+01  0.40659145263E+02  0.00000000000E+00 0. -1.
         11    1    3    3    0    0  0.38488082097E+01 -0.21846894052E+01  0.54098785153E+01  0.69894905568E+01  0.51100000000E-03 0. -1.
        -11    1    3    3    0    0 -0.14107821759E+00  0.44406117516E+01  0.46780302141E+00  0.44674126427E+01  0.51100000000E-03 0.  1.
         12    1    3    3    0    0  0.27293981254E+02 -0.27956871326E+02 -0.26330580119E+00  0.39071951538E+02  0.00000000000E+00 0. -1.
</event>
<event>
 7    1  0.5456331E-013  0.5052886E+02  0.7816164E-02  0.1300439E+00
        -11   -1    0    0    0    0  0.00000000000E+00  0.00000000000E+00  0.45593999997E+02  0.45594000000E+02  0.51100000000E-03 0.  1.
         11   -1    0    0    0    0 -0.00000000000E+00 -0.00000000000E+00 -0.45593999997E+02  0.45594000000E+02  0.51100000000E-03 0. -1.
    9900012    2    1    2    0    0  0.90903926225E+01  0.10687889826E+02  0.38161496041E+02  0.50528855800E+02  0.29999987689E+02 0.  0.
         12    1    1    2    0    0 -0.90903926225E+01 -0.10687889826E+02 -0.38161496041E+02  0.40659144200E+02  0.00000000000E+00 0. -1.
         11    1    3    3    0    0 -0.26464560360E+01 -0.62913272452E+01  0.73404299203E+01  0.10023294854E+02  0.51100000000E-03 0. -1.
        -11    1    3    3    0    0  0.24647320250E+01 -0.18212089457E+01  0.11827374663E+02  0.12217957999E+02  0.51100000000E-03 0.  1.
        -12    1    3    3    0    0  0.92721166334E+01  0.18800426017E+02  0.18993691458E+02  0.28287602947E+02  0.00000000000E+00 0.  1.
</event>
<event>
 7    1  0.5456331E-013  0.5052885E+02  0.7816164E-02  0.1300439E+00
        -11   -1    0    0    0    0  0.00000000000E+00  0.00000000000E+00  0.45593999997E+02  0.45594000000E+02  0.51100000000E-03 0.  1.
         11   -1    0    0    0    0 -0.00000000000E+00 -0.00000000000E+00 -0.45593999997E+02  0.45594000000E+02  0.51100000000E-03 0. -1.
    9900012    2    1    2    0    0 -0.39887985185E+02 -0.11318304043E+01 -0.77996137254E+01  0.50528851258E+02  0.29999973882E+02 0.  0.
         12    1    1    2    0    0  0.39887985185E+02  0.11318304043E+01  0.77996137254E+01  0.40659148742E+02  0.00000000000E+00 0. -1.
         11    1    3    3    0    0 -0.95339760039E+01 -0.13881258601E+01 -0.12578880924E+02  0.15844615407E+02  0.51100000000E-03 0. -1.
        -11    1    3    3    0    0 -0.13545875484E+02 -0.78271608058E+01  0.11788110620E+01  0.15689002030E+02  0.51100000000E-03 0.  1.
        -12    1    3    3    0    0 -0.16808133697E+02  0.80834562616E+01  0.36004561361E+01  0.18995233820E+02  0.00000000000E+00 0.  1.
</event>
<event>
 7    1  0.5456331E-013  0.5052885E+02  0.7816164E-02  0.1300439E+00
        -11   -1    0    0    0    0  0.00000000000E+00  0.00000000000E+00  0.45593999997E+02  0.45594000000E+02  0.51100000000E-03 0.  1.
         11   -1    0    0    0    0 -0.00000000000E+00 -0.00000000000E+00 -0.45593999997E+02  0.45594000000E+02  0.51100000000E-03 0. -1.
    9900012    2    1    2    0    0  0.55455894539E+01  0.12074974418E+01  0.40261079864E+02  0.50528853867E+02  0.29999981815E+02 0.  0.
         12    1    1    2    0    0 -0.55455894539E+01 -0.12074974418E+01 -0.40261079864E+02  0.40659146133E+02  0.00000000000E+00 0. -1.
         11    1    3    3    0    0  0.72467608045E+01 -0.15012189271E+01  0.21959252318E+01  0.77195393846E+01  0.51100000000E-03 0. -1.
        -11    1    3    3    0    0  0.68504351036E+01  0.54067556347E+01  0.28002740847E+02  0.29331126177E+02  0.51100000000E-03 0.  1.
         12    1    3    3    0    0 -0.85516064543E+01 -0.26980392657E+01  0.10062413785E+02  0.13478188306E+02  0.00000000000E+00 0. -1.
</event>
<event>
 7    1  0.5456331E-013  0.5052885E+02  0.7816164E-02  0.1300439E+00
        -11   -1    0    0    0    0  0.00000000000E+00  0.00000000000E+00  0.45593999997E+02  0.45594000000E+02  0.51100000000E-03 0.  1.
         11   -1    0    0    0    0 -0.00000000000E+00 -0.00000000000E+00 -0.45593999997E+02  0.45594000000E+02  0.51100000000E-03 0. -1.
    9900012    2    1    2    0    0 -0.24353399882E+02  0.25332042501E+01  0.32460147437E+02  0.50528851199E+02  0.29999973704E+02 0.  0.
         12    1    1    2    0    0  0.24353399882E+02 -0.25332042501E+01 -0.32460147437E+02  0.40659148801E+02  0.00000000000E+00 0. -1.
         11    1    3    3    0    0  0.30040588021E+01  0.58704729173E+01  0.65435845514E+01  0.92900656941E+01  0.51100000000E-03 0. -1.
        -11    1    3    3    0    0  0.16408426878E+01  0.70273212208E+00 -0.44693126452E+00  0.18400937416E+01  0.51100000000E-03 0.  1.
        -12    1    3    3    0    0 -0.28998301372E+02 -0.40400007893E+01  0.26363494150E+02  0.39398691763E+02  0.00000000000E+00 0.  1.
</event>
<event>
 7    1  0.5456331E-013  0.5052873E+02  0.7816164E-02  0.1300439E+00
        -11   -1    0    0    0    0  0.00000000000E+00  0.00000000000E+00  0.45593999997E+02  0.45594000000E+02  0.51100000000E-03 0. -1.
         11   -1    0    0    0    0 -0.00000000000E+00 -0.00000000000E+00 -0.45593999997E+02  0.45594000000E+02  0.51100000000E-03 0.  1.
    9900012    2    1    2    0    0  0.13409737162E+02 -0.20618766290E+02  0.32376245345E+02  0.50528734922E+02  0.29999620266E+02 0.  0.
         12    1    1    2    0    0 -0.13409737162E+02  0.20618766290E+02 -0.32376245345E+02  0.40659265078E+02  0.00000000000E+00 0. -1.
         11    1    3    3    0    0 -0.39172402847E+01 -0.27639418711E+01  0.38898296418E+00  0.48099328605E+01  0.51100000000E-03 0. -1.
        -11    1    3    3    0    0  0.80643267406E+01 -0.20145571513E+02  0.15490941312E+02  0.26661708129E+02  0.51100000000E-03 0.  1.
        -12    1    3    3    0    0  0.92626507059E+01  0.22907470940E+01  0.16496321068E+02  0.19057093932E+02  0.00000000000E+00 0.  1.
</event>
<event>
 7    1  0.5456331E-013  0.5052886E+02  0.7816164E-02  0.1300439E+00
        -11   -1    0    0    0    0  0.00000000000E+00  0.00000000000E+00  0.45593999997E+02  0.45594000000E+02  0.51100000000E-03 0.  1.
         11   -1    0    0    0    0 -0.00000000000E+00 -0.00000000000E+00 -0.45593999997E+02  0.45594000000E+02  0.51100000000E-03 0. -1.
    9900012    2    1    2    0    0 -0.26954269195E+02  0.30364012220E+02  0.21586552440E+01  0.50528860088E+02  0.30000000722E+02 0.  0.
         12    1    1    2    0    0  0.26954269195E+02 -0.30364012220E+02 -0.21586552440E+01  0.40659139912E+02  0.00000000000E+00 0. -1.
         11    1    3    3    0    0  0.89847716715E+00  0.24297436596E+01 -0.32633369822E+01  0.41665674112E+01  0.51100000000E-03 0. -1.
        -11    1    3    3    0    0  0.31855919994E+01  0.88601867836E+00  0.39698209856E+01  0.51664789174E+01  0.51100000000E-03 0.  1.
        -12    1    3    3    0    0 -0.31038338362E+02  0.27048249882E+02  0.14521712406E+01  0.41195813759E+02  0.00000000000E+00 0.  1.
</event>
<event>
 7    1  0.5456331E-013  0.5052885E+02  0.7816164E-02  0.1300439E+00
        -11   -1    0    0    0    0  0.00000000000E+00  0.00000000000E+00  0.45593999997E+02  0.45594000000E+02  0.51100000000E-03 0.  1.
         11   -1    0    0    0    0 -0.00000000000E+00 -0.00000000000E+00 -0.45593999997E+02  0.45594000000E+02  0.51100000000E-03 0. -1.
    9900012    2    1    2    0    0 -0.38795686416E+02 -0.12133350408E+02 -0.91836200718E+00  0.50528845245E+02  0.29999955608E+02 0.  0.
         12    1    1    2    0    0  0.38795686416E+02  0.12133350408E+02  0.91836200718E+00  0.40659154755E+02  0.00000000000E+00 0. -1.
         11    1    3    3    0    0 -0.12925507607E+02  0.36669995394E+01 -0.59744132825E+01  0.14704055456E+02  0.51100000000E-03 0.  1.
        -11    1    3    3    0    0 -0.87195081321E+01 -0.48463604804E+00 -0.57113518833E+01  0.10434760887E+02  0.51100000000E-03 0. -1.
        -12    1    3    3    0    0 -0.17150670677E+02 -0.15315713900E+02  0.10767403159E+02  0.25390028903E+02  0.00000000000E+00 0.  1.
</event>
<event>
 7    1  0.5456331E-013  0.5052886E+02  0.7816164E-02  0.1300439E+00
        -11   -1    0    0    0    0  0.00000000000E+00  0.00000000000E+00  0.45593999997E+02  0.45594000000E+02  0.51100000000E-03 0.  1.
         11   -1    0    0    0    0 -0.00000000000E+00 -0.00000000000E+00 -0.45593999997E+02  0.45594000000E+02  0.51100000000E-03 0. -1.
    9900012    2    1    2    0    0 -0.15701373084E+02 -0.34921673670E+02 -0.13678794891E+02  0.50528857876E+02  0.29999993999E+02 0.  0.
         12    1    1    2    0    0  0.15701373084E+02  0.34921673670E+02  0.13678794891E+02  0.40659142124E+02  0.00000000000E+00 0. -1.
         11    1    3    3    0    0 -0.25227665883E+01 -0.60586669482E+00 -0.58333643215E+01  0.63843218340E+01  0.51100000000E-03 0. -1.
        -11    1    3    3    0    0 -0.26490197929E+01 -0.18754338598E+02 -0.14875116155E+02  0.24083430050E+02  0.51100000000E-03 0.  1.
        -12    1    3    3    0    0 -0.10529586703E+02 -0.15561468377E+02  0.70296855853E+01  0.20061105992E+02  0.00000000000E+00 0.  1.
</event>
<event>
 7    1  0.5456331E-013  0.5052888E+02  0.7816164E-02  0.1300439E+00
        -11   -1    0    0    0    0  0.00000000000E+00  0.00000000000E+00  0.45593999997E+02  0.45594000000E+02  0.51100000000E-03 0.  1.
         11   -1    0    0    0    0 -0.00000000000E+00 -0.00000000000E+00 -0.45593999997E+02  0.45594000000E+02  0.51100000000E-03 0. -1.
    9900012    2    1    2    0    0 -0.10654287005E+02 -0.39335887333E+01  0.39040711586E+02  0.50528879091E+02  0.30000058486E+02 0.  0.
         12    1    1    2    0    0  0.10654287005E+02  0.39335887333E+01 -0.39040711586E+02  0.40659120909E+02  0.00000000000E+00 0. -1.
         11    1    3    3    0    0 -0.44230614589E+01  0.44910402321E+01  0.14479442246E+02  0.15791996804E+02  0.51100000000E-03 0.  1.
        -11    1    3    3    0    0 -0.90201001148E-01 -0.12199943580E+00  0.24408331054E+02  0.24408802616E+02  0.51100000000E-03 0. -1.
         12    1    3    3    0    0 -0.61410245447E+01 -0.83026295296E+01  0.15293828634E+00  0.10328079671E+02  0.00000000000E+00 0. -1.
</event>
<event>
 7    1  0.5456331E-013  0.5052886E+02  0.7816164E-02  0.1300439E+00
        -11   -1    0    0    0    0  0.00000000000E+00  0.00000000000E+00  0.45593999997E+02  0.45594000000E+02  0.51100000000E-03 0.  1.
         11   -1    0    0    0    0 -0.00000000000E+00 -0.00000000000E+00 -0.45593999997E+02  0.45594000000E+02  0.51100000000E-03 0. -1.
    9900012    2    1    2    0    0 -0.19025676700E+02  0.75718258920E+01  0.35126296784E+02  0.50528860228E+02  0.30000001149E+02 0.  0.
         12    1    1    2    0    0  0.19025676700E+02 -0.75718258920E+01 -0.35126296784E+02  0.40659139772E+02  0.00000000000E+00 0. -1.
         11    1    3    3    0    0 -0.72553308581E+01  0.99818490069E+00  0.11521984415E+02  0.13652557419E+02  0.51100000000E-03 0. -1.
        -11    1    3    3    0    0 -0.15152316613E+02 -0.43385405681E+01  0.84048390836E+01  0.17862165415E+02  0.51100000000E-03 0.  1.
        -12    1    3    3    0    0  0.33819707717E+01  0.10912181559E+02  0.15199473286E+02  0.19014137394E+02  0.00000000000E+00 0.  1.
</event>
<event>
 7    1  0.5456331E-013  0.5052886E+02  0.7816164E-02  0.1300439E+00
        -11   -1    0    0    0    0  0.00000000000E+00  0.00000000000E+00  0.45593999997E+02  0.45594000000E+02  0.51100000000E-03 0.  1.
         11   -1    0    0    0    0 -0.00000000000E+00 -0.00000000000E+00 -0.45593999997E+02  0.45594000000E+02  0.51100000000E-03 0. -1.
    9900012    2    1    2    0    0 -0.30686324054E+02 -0.21801257093E+02  0.15369453091E+02  0.50528863473E+02  0.30000011013E+02 0.  0.
         12    1    1    2    0    0  0.30686324054E+02  0.21801257093E+02 -0.15369453091E+02  0.40659136527E+02  0.00000000000E+00 0. -1.
         11    1    3    3    0    0 -0.63261027801E+01 -0.11565983840E+02  0.11675197518E+02  0.17609707434E+02  0.51100000000E-03 0. -1.
        -11    1    3    3    0    0 -0.14544431404E+02  0.79495306831E+00  0.91232168576E+01  0.17187365165E+02  0.51100000000E-03 0.  1.
         12    1    3    3    0    0 -0.98157898705E+01 -0.11030226320E+02 -0.54289612837E+01  0.15731790873E+02  0.00000000000E+00 0. -1.
</event>
<event>
 7    1  0.5456331E-013  0.5052886E+02  0.7816164E-02  0.1300439E+00
        -11   -1    0    0    0    0  0.00000000000E+00  0.00000000000E+00  0.45593999997E+02  0.45594000000E+02  0.51100000000E-03 0.  1.
         11   -1    0    0    0    0 -0.00000000000E+00 -0.00000000000E+00 -0.45593999997E+02  0.45594000000E+02  0.51100000000E-03 0. -1.
    9900012    2    1    2    0    0  0.22224712419E+02 -0.33215598834E+02  0.74801085655E+01  0.50528857459E+02  0.29999992732E+02 0.  0.
         12    1    1    2    0    0 -0.22224712419E+02  0.33215598834E+02 -0.74801085655E+01  0.40659142541E+02  0.00000000000E+00 0. -1.
         11    1    3    3    0    0 -0.87501825550E+00 -0.76833954119E+01  0.79705717021E+01  0.11105414694E+02  0.51100000000E-03 0. -1.
        -11    1    3    3    0    0  0.16698616640E+02 -0.14092610777E+02  0.85883968808E+01  0.23477777523E+02  0.51100000000E-03 0.  1.
         12    1    3    3    0    0  0.64011140350E+01 -0.11439592646E+02 -0.90788600174E+01  0.15945665242E+02  0.00000000000E+00 0. -1.
</event>
<event>
 7    1  0.5456331E-013  0.5052886E+02  0.7816164E-02  0.1300439E+00
        -11   -1    0    0    0    0  0.00000000000E+00  0.00000000000E+00  0.45593999997E+02  0.45594000000E+02  0.51100000000E-03 0.  1.
         11   -1    0    0    0    0 -0.00000000000E+00 -0.00000000000E+00 -0.45593999997E+02  0.45594000000E+02  0.51100000000E-03 0. -1.
    9900012    2    1    2    0    0  0.24103952562E+02  0.32641608687E+02  0.25865770510E+01  0.50528861696E+02  0.30000005611E+02 0.  0.
         12    1    1    2    0    0 -0.24103952562E+02 -0.32641608687E+02 -0.25865770510E+01  0.40659138304E+02  0.00000000000E+00 0. -1.
         11    1    3    3    0    0  0.10427928907E+02  0.19225920916E+01  0.52758195007E+01  0.11843662158E+02  0.51100000000E-03 0. -1.
        -11    1    3    3    0    0  0.40803061318E+01 -0.26574376650E+00  0.38270628844E+01  0.56005293019E+01  0.51100000000E-03 0.  1.
        -12    1    3    3    0    0  0.95957175235E+01  0.30984760361E+02 -0.65163053341E+01  0.33084670236E+02  0.00000000000E+00 0.  1.
</event>
<event>
 7    1  0.5456331E-013  0.5052885E+02  0.7816164E-02  0.1300439E+00
        -11   -1    0    0    0    0  0.00000000000E+00  0.00000000000E+00  0.45593999997E+02  0.45594000000E+02  0.51100000000E-03 0.  1.
         11   -1    0    0    0    0 -0.00000000000E+00 -0.00000000000E+00 -0.45593999997E+02  0.45594000000E+02  0.51100000000E-03 0. -1.
    9900012    2    1    2    0    0  0.20548010586E+02 -0.30240397675E+02  0.17789433222E+02  0.50528851892E+02  0.29999975810E+02 0.  0.
         12    1    1    2    0    0 -0.20548010586E+02  0.30240397675E+02 -0.17789433222E+02  0.40659148108E+02  0.00000000000E+00 0. -1.
         11    1    3    3    0    0  0.13248437041E+02 -0.13310359436E+02  0.21612114142E+02  0.28631629892E+02  0.51100000000E-03 0. -1.
        -11    1    3    3    0    0  0.61092856987E+01 -0.46685655185E+01  0.24543471479E+01  0.80711025227E+01  0.51100000000E-03 0.  1.
         12    1    3    3    0    0  0.11902878462E+01 -0.12261472720E+02 -0.62770280679E+01  0.13826119477E+02  0.00000000000E+00 0. -1.
</event>
<event>
 7    1  0.5456331E-013  0.5052886E+02  0.7816164E-02  0.1300439E+00
        -11   -1    0    0    0    0  0.00000000000E+00  0.00000000000E+00  0.45593999997E+02  0.45594000000E+02  0.51100000000E-03 0. -1.
         11   -1    0    0    0    0 -0.00000000000E+00 -0.00000000000E+00 -0.45593999997E+02  0.45594000000E+02  0.51100000000E-03 0.  1.
    9900012    2    1    2    0    0 -0.35887758501E+02  0.83497072624E+01  0.17190607585E+02  0.50528858215E+02  0.29999995029E+02 0.  0.
         12    1    1    2    0    0  0.35887758501E+02 -0.83497072624E+01 -0.17190607585E+02  0.40659141785E+02  0.00000000000E+00 0. -1.
         11    1    3    3    0    0 -0.21906422971E+02  0.26119341529E+01  0.91601275525E+01  0.23887685205E+02  0.51100000000E-03 0. -1.
        -11    1    3    3    0    0 -0.17383121821E+02  0.32011439487E+01  0.13306126359E+00  0.17675914471E+02  0.51100000000E-03 0.  1.
         12    1    3    3    0    0  0.34017862907E+01  0.25366291608E+01  0.78974187685E+01  0.89652585391E+01  0.00000000000E+00 0. -1.
</event>
<event>
 7    1  0.5456331E-013  0.5052887E+02  0.7816164E-02  0.1300439E+00
        -11   -1    0    0    0    0  0.00000000000E+00  0.00000000000E+00  0.45593999997E+02  0.45594000000E+02  0.51100000000E-03 0.  1.
         11   -1    0    0    0    0 -0.00000000000E+00 -0.00000000000E+00 -0.45593999997E+02  0.45594000000E+02  0.51100000000E-03 0. -1.
    9900012    2    1    2    0    0  0.40147066204E+02  0.19521458102E+01 -0.61291986696E+01  0.50528869729E+02  0.30000030029E+02 0.  0.
         12    1    1    2    0    0 -0.40147066204E+02 -0.19521458102E+01  0.61291986696E+01  0.40659130271E+02  0.00000000000E+00 0. -1.
         11    1    3    3    0    0  0.80143303129E+01 -0.12497320616E+01 -0.83649539081E+01  0.11651771313E+02  0.51100000000E-03 0. -1.
        -11    1    3    3    0    0  0.14839556121E+02  0.30802824784E+01 -0.95823745670E+01  0.17931047616E+02  0.51100000000E-03 0.  1.
        -12    1    3    3    0    0  0.17293179771E+02  0.12159539339E+00  0.11818129805E+02  0.20946050800E+02  0.00000000000E+00 0.  1.
</event>
<event>
 7    1  0.5456331E-013  0.5052887E+02  0.7816164E-02  0.1300439E+00
        -11   -1    0    0    0    0  0.00000000000E+00  0.00000000000E+00  0.45593999997E+02  0.45594000000E+02  0.51100000000E-03 0. -1.
         11   -1    0    0    0    0 -0.00000000000E+00 -0.00000000000E+00 -0.45593999997E+02  0.45594000000E+02  0.51100000000E-03 0.  1.
    9900012    2    1    2    0    0  0.15131614600E+02  0.37737497139E+02  0.28362350076E+00  0.50528869500E+02  0.30000029332E+02 0.  0.
         12    1    1    2    0    0 -0.15131614600E+02 -0.37737497139E+02 -0.28362350076E+00  0.40659130500E+02  0.00000000000E+00 0. -1.
         11    1    3    3    0    0  0.50606566756E+01  0.24936163164E+01 -0.38504859445E+01  0.68304180393E+01  0.51100000000E-03 0. -1.
        -11    1    3    3    0    0  0.92650247191E+01  0.11272585238E+02 -0.81897638208E+01  0.16732725202E+02  0.51100000000E-03 0.  1.
         12    1    3    3    0    0  0.80593320528E+00  0.23971295585E+02  0.12323873266E+02  0.26965726259E+02  0.00000000000E+00 0. -1.
</event>
<event>
 7    1  0.5456331E-013  0.5052886E+02  0.7816164E-02  0.1300439E+00
        -11   -1    0    0    0    0  0.00000000000E+00  0.00000000000E+00  0.45593999997E+02  0.45594000000E+02  0.51100000000E-03 0.  1.
         11   -1    0    0    0    0 -0.00000000000E+00 -0.00000000000E+00 -0.45593999997E+02  0.45594000000E+02  0.51100000000E-03 0. -1.
    9900012    2    1    2    0    0 -0.31350397431E+02  0.22060215548E+02 -0.13552303400E+02  0.50528862569E+02  0.30000008266E+02 0.  0.
         12    1    1    2    0    0  0.31350397431E+02 -0.22060215548E+02  0.13552303400E+02  0.40659137431E+02  0.00000000000E+00 0. -1.
         11    1    3    3    0    0 -0.66748464920E+01  0.11117463971E+02 -0.27629059439E+01  0.13258402255E+02  0.51100000000E-03 0. -1.
        -11    1    3    3    0    0 -0.14274096794E+02  0.67277313681E+01  0.61619686113E+01  0.16940545034E+02  0.51100000000E-03 0.  1.
         12    1    3    3    0    0 -0.10401454146E+02  0.42150202087E+01 -0.16951366068E+02  0.20329915280E+02  0.00000000000E+00 0. -1.
</event>
<event>
 7    1  0.5456331E-013  0.5052887E+02  0.7816164E-02  0.1300439E+00
        -11   -1    0    0    0    0  0.00000000000E+00  0.00000000000E+00  0.45593999997E+02  0.45594000000E+02  0.51100000000E-03 0. -1.
         11   -1    0    0    0    0 -0.00000000000E+00 -0.00000000000E+00 -0.45593999997E+02  0.45594000000E+02  0.51100000000E-03 0.  1.
    9900012    2    1    2    0    0 -0.25879407079E+02  0.30156239783E+02 -0.86036173903E+01  0.50528871372E+02  0.30000035021E+02 0.  0.
         12    1    1    2    0    0  0.25879407079E+02 -0.30156239783E+02  0.86036173903E+01  0.40659128628E+02  0.00000000000E+00 0. -1.
         11    1    3    3    0    0  0.28852589594E+01 -0.27057083714E+01  0.29468457504E+01  0.49324919859E+01  0.51100000000E-03 0. -1.
        -11    1    3    3    0    0 -0.80634497479E+01  0.80769146202E+01 -0.57753940581E+01  0.12791049543E+02  0.51100000000E-03 0.  1.
        -12    1    3    3    0    0 -0.20701216290E+02  0.24785033534E+02 -0.57750690825E+01  0.32805329843E+02  0.00000000000E+00 0.  1.
</event>
<event>
 7    1  0.5456331E-013  0.5052887E+02  0.7816164E-02  0.1300439E+00
        -11   -1    0    0    0    0  0.00000000000E+00  0.00000000000E+00  0.45593999997E+02  0.45594000000E+02  0.51100000000E-03 0.  1.
         11   -1    0    0    0    0 -0.00000000000E+00 -0.00000000000E+00 -0.45593999997E+02  0.45594000000E+02  0.51100000000E-03 0. -1.
    9900012    2    1    2    0    0  0.20090529567E+02 -0.12013563447E+02  0.33244701352E+02  0.50528865074E+02  0.30000015878E+02 0.  0.
         12    1    1    2    0    0 -0.20090529567E+02  0.12013563447E+02 -0.33244701352E+02  0.40659134926E+02  0.00000000000E+00 0. -1.
         11    1    3    3    0    0  0.47265238589E+01  0.35956763604E+01  0.97668183337E+01  0.11430645516E+02  0.51100000000E-03 0. -1.
        -11    1    3    3    0    0 -0.28629016031E+01 -0.49574665044E-02  0.12299043919E+02  0.12627854598E+02  0.51100000000E-03 0.  1.
         12    1    3    3    0    0  0.18226907311E+02 -0.15604282341E+02  0.11178839099E+02  0.26470364960E+02  0.00000000000E+00 0. -1.
</event>
<event>
 7    1  0.5456331E-013  0.5052886E+02  0.7816164E-02  0.1300439E+00
        -11   -1    0    0    0    0  0.00000000000E+00  0.00000000000E+00  0.45593999997E+02  0.45594000000E+02  0.51100000000E-03 0.  1.
         11   -1    0    0    0    0 -0.00000000000E+00 -0.00000000000E+00 -0.45593999997E+02  0.45594000000E+02  0.51100000000E-03 0. -1.
    9900012    2    1    2    0    0  0.31988770627E+02  0.14561177901E+02  0.20441541465E+02  0.50528856311E+02  0.29999989242E+02 0.  0.
         12    1    1    2    0    0 -0.31988770627E+02 -0.14561177901E+02 -0.20441541465E+02  0.40659143689E+02  0.00000000000E+00 0. -1.
         11    1    3    3    0    0  0.20535287551E+02  0.52230097818E+01  0.16680795847E+02  0.26967143274E+02  0.51100000000E-03 0. -1.
        -11    1    3    3    0    0  0.16226311773E+02  0.66695201699E+01  0.43122275729E+01  0.18065741057E+02  0.51100000000E-03 0.  1.
         12    1    3    3    0    0 -0.47728286974E+01  0.26686479496E+01 -0.55148195488E+00  0.54959719796E+01  0.00000000000E+00 0. -1.
</event>
<event>
 7    1  0.5456331E-013  0.5052886E+02  0.7816164E-02  0.1300439E+00
        -11   -1    0    0    0    0  0.00000000000E+00  0.00000000000E+00  0.45593999997E+02  0.45594000000E+02  0.51100000000E-03 0.  1.
         11   -1    0    0    0    0 -0.00000000000E+00 -0.00000000000E+00 -0.45593999997E+02  0.45594000000E+02  0.51100000000E-03 0. -1.
    9900012    2    1    2    0    0  0.27780776040E+02  0.91701219350E+01  0.28236551583E+02  0.50528862048E+02  0.30000006681E+02 0.  0.
         12    1    1    2    0    0 -0.27780776040E+02 -0.91701219350E+01 -0.28236551583E+02  0.40659137952E+02  0.00000000000E+00 0. -1.
         11    1    3    3    0    0  0.12672910289E+02 -0.61956067057E+01  0.67470834743E+01  0.15636858166E+02  0.51100000000E-03 0. -1.
        -11    1    3    3    0    0  0.88414873888E+01  0.42284120040E+00  0.12097526330E+01  0.89338790914E+01  0.51100000000E-03 0.  1.
        -12    1    3    3    0    0  0.62663783628E+01  0.14942887440E+02  0.20279715476E+02  0.25958124790E+02  0.00000000000E+00 0.  1.
</event>
<event>
 7    1  0.5456331E-013  0.5052900E+02  0.7816164E-02  0.1300438E+00
        -11   -1    0    0    0    0  0.00000000000E+00  0.00000000000E+00  0.45593999997E+02  0.45594000000E+02  0.51100000000E-03 0.  1.
         11   -1    0    0    0    0 -0.00000000000E+00 -0.00000000000E+00 -0.45593999997E+02  0.45594000000E+02  0.51100000000E-03 0. -1.
    9900012    2    1    2    0    0 -0.25714665836E+02 -0.43030639969E+01  0.31199267285E+02  0.50528995119E+02  0.30000411161E+02 0.  0.
         12    1    1    2    0    0  0.25714665836E+02  0.43030639969E+01 -0.31199267285E+02  0.40659004881E+02  0.00000000000E+00 0. -1.
         11    1    3    3    0    0 -0.69939083078E+01 -0.11933950518E+02  0.11077620096E+02  0.17721388084E+02  0.51100000000E-03 0. -1.
        -11    1    3    3    0    0  0.25465219458E+01  0.17295239753E+01  0.21536222549E+00  0.30858399749E+01  0.51100000000E-03 0.  1.
        -12    1    3    3    0    0 -0.21267279474E+02  0.59013625458E+01  0.19906284964E+02  0.29721767060E+02  0.00000000000E+00 0.  1.
</event>
<event>
 7    1  0.5456331E-013  0.5052886E+02  0.7816164E-02  0.1300439E+00
        -11   -1    0    0    0    0  0.00000000000E+00  0.00000000000E+00  0.45593999997E+02  0.45594000000E+02  0.51100000000E-03 0.  1.
         11   -1    0    0    0    0 -0.00000000000E+00 -0.00000000000E+00 -0.45593999997E+02  0.45594000000E+02  0.51100000000E-03 0. -1.
    9900012    2    1    2    0    0 -0.14505412167E+02  0.32714871409E+02  0.19300144438E+02  0.50528863649E+02  0.30000011549E+02 0.  0.
         12    1    1    2    0    0  0.14505412167E+02 -0.32714871409E+02 -0.19300144438E+02  0.40659136351E+02  0.00000000000E+00 0. -1.
         11    1    3    3    0    0 -0.10424129435E+02  0.75858055289E+01 -0.47603042639E+01  0.13742904240E+02  0.51100000000E-03 0. -1.
        -11    1    3    3    0    0 -0.34551931189E+01  0.10521812889E+01  0.20202117689E+01  0.41384418331E+01  0.51100000000E-03 0.  1.
         12    1    3    3    0    0 -0.62608961329E+00  0.24076884591E+02  0.22040236933E+02  0.32647517576E+02  0.00000000000E+00 0. -1.
</event>
<event>
 7    1  0.5456331E-013  0.5052886E+02  0.7816164E-02  0.1300439E+00
        -11   -1    0    0    0    0  0.00000000000E+00  0.00000000000E+00  0.45593999997E+02  0.45594000000E+02  0.51100000000E-03 0. -1.
         11   -1    0    0    0    0 -0.00000000000E+00 -0.00000000000E+00 -0.45593999997E+02  0.45594000000E+02  0.51100000000E-03 0.  1.
    9900012    2    1    2    0    0  0.92995285859E+01 -0.37751424288E+02 -0.11895985971E+02  0.50528858962E+02  0.29999997302E+02 0.  0.
         12    1    1    2    0    0 -0.92995285859E+01  0.37751424288E+02  0.11895985971E+02  0.40659141038E+02  0.00000000000E+00 0. -1.
         11    1    3    3    0    0 -0.34264340144E+00  0.48103518355E+01 -0.10161096714E+01  0.49284245361E+01  0.51100000000E-03 0. -1.
        -11    1    3    3    0    0  0.18620538650E+01 -0.39056824031E+01 -0.33133644574E+01  0.54497691619E+01  0.51100000000E-03 0.  1.
        -12    1    3    3    0    0  0.77801181224E+01 -0.38656093720E+02 -0.75665118421E+01  0.40150665264E+02  0.00000000000E+00 0.  1.
</event>
<event>
 7    1  0.5456331E-013  0.5052886E+02  0.7816164E-02  0.1300439E+00
        -11   -1    0    0    0    0  0.00000000000E+00  0.00000000000E+00  0.45593999997E+02  0.45594000000E+02  0.51100000000E-03 0.  1.
         11   -1    0    0    0    0 -0.00000000000E+00 -0.00000000000E+00 -0.45593999997E+02  0.45594000000E+02  0.51100000000E-03 0. -1.
    9900012    2    1    2    0    0 -0.13700066633E+02 -0.90333242253E+01  0.37200439623E+02  0.50528862276E+02  0.30000007374E+02 0.  0.
         12    1    1    2    0    0  0.13700066633E+02  0.90333242253E+01 -0.37200439623E+02  0.40659137724E+02  0.00000000000E+00 0. -1.
         11    1    3    3    0    0 -0.54873332440E+01 -0.10565940419E+02  0.13529668097E+02  0.18022259629E+02  0.51100000000E-03 0. -1.
        -11    1    3    3    0    0  0.23045263347E+01 -0.32302329928E-01 -0.30065461092E+01  0.37882984091E+01  0.51100000000E-03 0.  1.
        -12    1    3    3    0    0 -0.10517259723E+02  0.15649185233E+01  0.26677317635E+02  0.28718304237E+02  0.00000000000E+00 0.  1.
</event>
<event>
 7    1  0.5456331E-013  0.5052886E+02  0.7816164E-02  0.1300439E+00
        -11   -1    0    0    0    0  0.00000000000E+00  0.00000000000E+00  0.45593999997E+02  0.45594000000E+02  0.51100000000E-03 0.  1.
         11   -1    0    0    0    0 -0.00000000000E+00 -0.00000000000E+00 -0.45593999997E+02  0.45594000000E+02  0.51100000000E-03 0. -1.
    9900012    2    1    2    0    0 -0.34352268652E+01 -0.16729364717E+02  0.36898419616E+02  0.50528858376E+02  0.29999995521E+02 0.  0.
         12    1    1    2    0    0  0.34352268652E+01  0.16729364717E+02 -0.36898419616E+02  0.40659141624E+02  0.00000000000E+00 0. -1.
         11    1    3    3    0    0 -0.19683612904E+01  0.29904059792E+01 -0.21988710483E+01  0.42014293090E+01  0.51100000000E-03 0. -1.
        -11    1    3    3    0    0 -0.69194299748E-01 -0.11462743788E+02  0.76428215456E+01  0.13777227749E+02  0.51100000000E-03 0.  1.
        -12    1    3    3    0    0 -0.13976712750E+01 -0.82570269074E+01  0.31454469118E+02  0.32550201318E+02  0.00000000000E+00 0.  1.
</event>
<event>
 7    1  0.5456331E-013  0.5052886E+02  0.7816164E-02  0.1300439E+00
        -11   -1    0    0    0    0  0.00000000000E+00  0.00000000000E+00  0.45593999997E+02  0.45594000000E+02  0.51100000000E-03 0.  1.
         11   -1    0    0    0    0 -0.00000000000E+00 -0.00000000000E+00 -0.45593999997E+02  0.45594000000E+02  0.51100000000E-03 0. -1.
    9900012    2    1    2    0    0  0.13125221065E+02 -0.27270877343E+02  0.27151309484E+02  0.50528858522E+02  0.29999995962E+02 0.  0.
         12    1    1    2    0    0 -0.13125221065E+02  0.27270877343E+02 -0.27151309484E+02  0.40659141478E+02  0.00000000000E+00 0. -1.
         11    1    3    3    0    0  0.40073177573E+01 -0.10522722709E+02  0.18441182174E+01  0.11409954473E+02  0.51100000000E-03 0. -1.
        -11    1    3    3    0    0 -0.68894776708E+01 -0.10648644615E+02  0.10115440261E+02  0.16222843975E+02  0.51100000000E-03 0.  1.
        -12    1    3    3    0    0  0.16007380978E+02 -0.60995100195E+01  0.15191751006E+02  0.22896060073E+02  0.00000000000E+00 0.  1.
</event>
<event>
 7    1  0.5456331E-013  0.5052880E+02  0.7816164E-02  0.1300439E+00
        -11   -1    0    0    0    0  0.00000000000E+00  0.00000000000E+00  0.45593999997E+02  0.45594000000E+02  0.51100000000E-03 0. -1.
         11   -1    0    0    0    0 -0.00000000000E+00 -0.00000000000E+00 -0.45593999997E+02  0.45594000000E+02  0.51100000000E-03 0.  1.
    9900012    2    1    2    0    0  0.21247389865E+02  0.14585900235E+02 -0.31447896841E+02  0.50528803285E+02  0.29999828065E+02 0.  0.
         12    1    1    2    0    0 -0.21247389865E+02 -0.14585900235E+02  0.31447896841E+02  0.40659196715E+02  0.00000000000E+00 0. -1.
         11    1    3    3    0    0  0.34182690306E+01  0.54288641352E+01  0.37750855851E+01  0.74436819115E+01  0.51100000000E-03 0. -1.
        -11    1    3    3    0    0 -0.12070224535E+01  0.11375761332E+01 -0.11543845596E+02  0.11662390581E+02  0.51100000000E-03 0.  1.
         12    1    3    3    0    0  0.19036143288E+02  0.80194599671E+01 -0.23679136831E+02  0.31422730793E+02  0.00000000000E+00 0. -1.
</event>
<event>
 7    1  0.5456331E-013  0.5052886E+02  0.7816164E-02  0.1300439E+00
        -11   -1    0    0    0    0  0.00000000000E+00  0.00000000000E+00  0.45593999997E+02  0.45594000000E+02  0.51100000000E-03 0.  1.
         11   -1    0    0    0    0 -0.00000000000E+00 -0.00000000000E+00 -0.45593999997E+02  0.45594000000E+02  0.51100000000E-03 0. -1.
    9900012    2    1    2    0    0  0.37805402211E+02 -0.14009002533E+02  0.52597817841E+01  0.50528857206E+02  0.29999991963E+02 0.  0.
         12    1    1    2    0    0 -0.37805402211E+02  0.14009002533E+02 -0.52597817841E+01  0.40659142794E+02  0.00000000000E+00 0. -1.
         11    1    3    3    0    0  0.16138880554E+02 -0.17954561687E+01 -0.36327226256E+01  0.16639825790E+02  0.51100000000E-03 0. -1.
        -11    1    3    3    0    0  0.80698547528E+01 -0.22993537680E+01 -0.68605492053E+01  0.10838667775E+02  0.51100000000E-03 0.  1.
        -12    1    3    3    0    0  0.13596666904E+02 -0.99141925964E+01  0.15753053615E+02  0.23050363640E+02  0.00000000000E+00 0.  1.
</event>
<event>
 7    1  0.5456331E-013  0.5052886E+02  0.7816164E-02  0.1300439E+00
        -11   -1    0    0    0    0  0.00000000000E+00  0.00000000000E+00  0.45593999997E+02  0.45594000000E+02  0.51100000000E-03 0.  1.
         11   -1    0    0    0    0 -0.00000000000E+00 -0.00000000000E+00 -0.45593999997E+02  0.45594000000E+02  0.51100000000E-03 0. -1.
    9900012    2    1    2    0    0  0.25108839730E+02  0.29716200394E+02 -0.11817763576E+02  0.50528856694E+02  0.29999990407E+02 0.  0.
         12    1    1    2    0    0 -0.25108839730E+02 -0.29716200394E+02  0.11817763576E+02  0.40659143306E+02  0.00000000000E+00 0. -1.
         11    1    3    3    0    0 -0.45961730824E+01  0.99172273947E+01 -0.22796387601E+01  0.11165704606E+02  0.51100000000E-03 0. -1.
        -11    1    3    3    0    0  0.18668826384E+01  0.62570042264E+01  0.11153297510E+01  0.66241462385E+01  0.51100000000E-03 0.  1.
        -12    1    3    3    0    0  0.27838130174E+02  0.13541968773E+02 -0.10653454567E+02  0.32739005850E+02  0.00000000000E+00 0.  1.
</event>
<event>
 7    1  0.5456331E-013  0.5052886E+02  0.7816164E-02  0.1300439E+00
        -11   -1    0    0    0    0  0.00000000000E+00  0.00000000000E+00  0.45593999997E+02  0.45594000000E+02  0.51100000000E-03 0.  1.
         11   -1    0    0    0    0 -0.00000000000E+00 -0.00000000000E+00 -0.45593999997E+02  0.45594000000E+02  0.51100000000E-03 0. -1.
    9900012    2    1    2    0    0  0.70990441668E+01  0.27186339236E+02  0.29388306054E+02  0.50528855864E+02  0.29999987885E+02 0.  0.
         12    1    1    2    0    0 -0.70990441668E+01 -0.27186339236E+02 -0.29388306054E+02  0.40659144136E+02  0.00000000000E+00 0. -1.
         11    1    3    3    0    0  0.68438918412E+01  0.11542113868E+02  0.37488427442E+01  0.13932446672E+02  0.51100000000E-03 0. -1.
        -11    1    3    3    0    0 -0.17594449433E+01  0.20628228599E+02  0.21096782575E+02  0.29558310116E+02  0.51100000000E-03 0.  1.
         12    1    3    3    0    0  0.20145972689E+01 -0.49840032304E+01  0.45426807340E+01  0.70380990763E+01  0.00000000000E+00 0. -1.
</event>
<event>
 7    1  0.5456331E-013  0.5052886E+02  0.7816164E-02  0.1300439E+00
        -11   -1    0    0    0    0  0.00000000000E+00  0.00000000000E+00  0.45593999997E+02  0.45594000000E+02  0.51100000000E-03 0.  1.
         11   -1    0    0    0    0 -0.00000000000E+00 -0.00000000000E+00 -0.45593999997E+02  0.45594000000E+02  0.51100000000E-03 0. -1.
    9900012    2    1    2    0    0 -0.67305050297E+01  0.36929925393E+01  0.39927785205E+02  0.50528856831E+02  0.29999990824E+02 0.  0.
         12    1    1    2    0    0  0.67305050297E+01 -0.36929925393E+01 -0.39927785205E+02  0.40659143169E+02  0.00000000000E+00 0. -1.
         11    1    3    3    0    0 -0.49835788775E+01  0.10072720569E+02  0.55223869977E+01  0.12521681856E+02  0.51100000000E-03 0. -1.
        -11    1    3    3    0    0 -0.13613715576E+01  0.46174253246E+01  0.14284783311E+02  0.15074116347E+02  0.51100000000E-03 0.  1.
        -12    1    3    3    0    0 -0.38555459467E+00 -0.10997153354E+02  0.20120614896E+02  0.22933058628E+02  0.00000000000E+00 0.  1.
</event>
<event>
 7    1  0.5456331E-013  0.5052884E+02  0.7816164E-02  0.1300439E+00
        -11   -1    0    0    0    0  0.00000000000E+00  0.00000000000E+00  0.45593999997E+02  0.45594000000E+02  0.51100000000E-03 0.  1.
         11   -1    0    0    0    0 -0.00000000000E+00 -0.00000000000E+00 -0.45593999997E+02  0.45594000000E+02  0.51100000000E-03 0. -1.
    9900012    2    1    2    0    0 -0.23370441648E+02 -0.30267507198E+02 -0.13815484525E+02  0.50528841776E+02  0.29999945062E+02 0.  0.
         12    1    1    2    0    0  0.23370441648E+02  0.30267507198E+02  0.13815484525E+02  0.40659158224E+02  0.00000000000E+00 0. -1.
         11    1    3    3    0    0 -0.23668200408E+01 -0.65976568766E+00  0.17729014142E+01  0.30299022350E+01  0.51100000000E-03 0. -1.
        -11    1    3    3    0    0 -0.46174547184E+01  0.46281542751E+01 -0.45704378094E+01  0.79768165393E+01  0.51100000000E-03 0.  1.
        -12    1    3    3    0    0 -0.16386166889E+02 -0.34235895786E+02 -0.11017948129E+02  0.39522123002E+02  0.00000000000E+00 0.  1.
</event>
<event>
 7    1  0.5456331E-013  0.5052886E+02  0.7816164E-02  0.1300439E+00
        -11   -1    0    0    0    0  0.00000000000E+00  0.00000000000E+00  0.45593999997E+02  0.45594000000E+02  0.51100000000E-03 0.  1.
         11   -1    0    0    0    0 -0.00000000000E+00 -0.00000000000E+00 -0.45593999997E+02  0.45594000000E+02  0.51100000000E-03 0. -1.
    9900012    2    1    2    0    0  0.20939857282E+02  0.29210057445E+02  0.19012126912E+02  0.50528855289E+02  0.29999986136E+02 0.  0.
         12    1    1    2    0    0 -0.20939857282E+02 -0.29210057445E+02 -0.19012126912E+02  0.40659144711E+02  0.00000000000E+00 0. -1.
         11    1    3    3    0    0  0.29219201241E+01  0.20984915932E+01 -0.13537707462E+01  0.38436934936E+01  0.51100000000E-03 0.  1.
        -11    1    3    3    0    0  0.19057782509E+02  0.54984408047E+01  0.60396662813E+01  0.20734258957E+02  0.51100000000E-03 0. -1.
        -12    1    3    3    0    0 -0.10398453512E+01  0.21613125047E+02  0.14326231377E+02  0.25950902838E+02  0.00000000000E+00 0.  1.
</event>
<event>
 7    1  0.5456331E-013  0.5052886E+02  0.7816164E-02  0.1300439E+00
        -11   -1    0    0    0    0  0.00000000000E+00  0.00000000000E+00  0.45593999997E+02  0.45594000000E+02  0.51100000000E-03 0.  1.
         11   -1    0    0    0    0 -0.00000000000E+00 -0.00000000000E+00 -0.45593999997E+02  0.45594000000E+02  0.51100000000E-03 0. -1.
    9900012    2    1    2    0    0  0.16073687652E+02  0.35531800665E+02  0.11501871304E+02  0.50528864044E+02  0.30000012747E+02 0.  0.
         12    1    1    2    0    0 -0.16073687652E+02 -0.35531800665E+02 -0.11501871304E+02  0.40659135956E+02  0.00000000000E+00 0. -1.
         11    1    3    3    0    0 -0.89247564694E+00  0.85458544245E+01  0.69875884712E+01  0.11074950724E+02  0.51100000000E-03 0. -1.
        -11    1    3    3    0    0  0.20892126754E+01  0.17438327145E+02  0.10886428983E+02  0.20663358863E+02  0.51100000000E-03 0.  1.
        -12    1    3    3    0    0  0.14876950624E+02  0.95476190948E+01 -0.63721461506E+01  0.18790554457E+02  0.00000000000E+00 0.  1.
</event>
<event>
 7    1  0.5456331E-013  0.5052885E+02  0.7816164E-02  0.1300439E+00
        -11   -1    0    0    0    0  0.00000000000E+00  0.00000000000E+00  0.45593999997E+02  0.45594000000E+02  0.51100000000E-03 0.  1.
         11   -1    0    0    0    0 -0.00000000000E+00 -0.00000000000E+00 -0.45593999997E+02  0.45594000000E+02  0.51100000000E-03 0. -1.
    9900012    2    1    2    0    0 -0.39508377535E+01 -0.32957895492E+02  0.23480510817E+02  0.50528851184E+02  0.29999973657E+02 0.  0.
         12    1    1    2    0    0  0.39508377535E+01  0.32957895492E+02 -0.23480510817E+02  0.40659148816E+02  0.00000000000E+00 0. -1.
         11    1    3    3    0    0  0.46825385355E+01 -0.38563353798E+01  0.86104066386E+01  0.10532644133E+02  0.51100000000E-03 0. -1.
        -11    1    3    3    0    0 -0.44122181222E+01  0.11441883973E+01  0.71788456303E+01  0.85036851242E+01  0.51100000000E-03 0.  1.
         12    1    3    3    0    0 -0.42211581667E+01 -0.30245748510E+02  0.76912585482E+01  0.31492521926E+02  0.00000000000E+00 0. -1.
</event>
<event>
 7    1  0.5456331E-013  0.5052886E+02  0.7816164E-02  0.1300439E+00
        -11   -1    0    0    0    0  0.00000000000E+00  0.00000000000E+00  0.45593999997E+02  0.45594000000E+02  0.51100000000E-03 0.  1.
         11   -1    0    0    0    0 -0.00000000000E+00 -0.00000000000E+00 -0.45593999997E+02  0.45594000000E+02  0.51100000000E-03 0. -1.
    9900012    2    1    2    0    0 -0.37032840387E+02 -0.16439945048E+02  0.33856169441E+01  0.50528862498E+02  0.30000008048E+02 0.  0.
         12    1    1    2    0    0  0.37032840387E+02  0.16439945048E+02 -0.33856169441E+01  0.40659137502E+02  0.00000000000E+00 0. -1.
         11    1    3    3    0    0  0.12677762501E+01  0.34405984263E+00  0.80860435623E-01  0.13161202326E+01  0.51100000000E-03 0. -1.
        -11    1    3    3    0    0 -0.11674622260E+02 -0.22645673796E+01 -0.10524954152E+02  0.15880797540E+02  0.51100000000E-03 0.  1.
        -12    1    3    3    0    0 -0.26625994377E+02 -0.14519437511E+02  0.13829710660E+02  0.33331944725E+02  0.00000000000E+00 0.  1.
</event>
<event>
 7    1  0.5456331E-013  0.5052887E+02  0.7816164E-02  0.1300439E+00
        -11   -1    0    0    0    0  0.00000000000E+00  0.00000000000E+00  0.45593999997E+02  0.45594000000E+02  0.51100000000E-03 0.  1.
         11   -1    0    0    0    0 -0.00000000000E+00 -0.00000000000E+00 -0.45593999997E+02  0.45594000000E+02  0.51100000000E-03 0. -1.
    9900012    2    1    2    0    0 -0.23375978939E+01  0.33935064634E+02  0.22273561906E+02  0.50528873895E+02  0.30000042691E+02 0.  0.
         12    1    1    2    0    0  0.23375978939E+01 -0.33935064634E+02 -0.22273561906E+02  0.40659126105E+02  0.00000000000E+00 0. -1.
         11    1    3    3    0    0  0.24491921614E+01  0.16260819201E+02  0.39174450737E+01  0.16904412427E+02  0.51100000000E-03 0. -1.
        -11    1    3    3    0    0  0.67659868402E+01  0.14383989778E+02  0.12705353004E+02  0.20349538940E+02  0.51100000000E-03 0.  1.
         12    1    3    3    0    0 -0.11552776895E+02  0.32902556548E+01  0.56507638278E+01  0.13274922527E+02  0.00000000000E+00 0. -1.
</event>
<event>
 7    1  0.5456331E-013  0.5052887E+02  0.7816164E-02  0.1300439E+00
        -11   -1    0    0    0    0  0.00000000000E+00  0.00000000000E+00  0.45593999997E+02  0.45594000000E+02  0.51100000000E-03 0.  1.
         11   -1    0    0    0    0 -0.00000000000E+00 -0.00000000000E+00 -0.45593999997E+02  0.45594000000E+02  0.51100000000E-03 0. -1.
    9900012    2    1    2    0    0 -0.14803151641E+02 -0.24003385105E+01  0.37792457469E+02  0.50528871075E+02  0.30000034118E+02 0.  0.
         12    1    1    2    0    0  0.14803151641E+02  0.24003385105E+01 -0.37792457469E+02  0.40659128925E+02  0.00000000000E+00 0. -1.
         11    1    3    3    0    0 -0.12982650919E+01  0.48142536147E+01  0.57351695169E+01  0.75996512923E+01  0.51100000000E-03 0. -1.
        -11    1    3    3    0    0 -0.13257000025E+02  0.57132709192E+01  0.10723525897E+02  0.17982867463E+02  0.51100000000E-03 0.  1.
        -12    1    3    3    0    0 -0.24788652321E+00 -0.12927863044E+02  0.21333762055E+02  0.24946352319E+02  0.00000000000E+00 0.  1.
</event>
<event>
 7    1  0.5456331E-013  0.5052878E+02  0.7816164E-02  0.1300439E+00
        -11   -1    0    0    0    0  0.00000000000E+00  0.00000000000E+00  0.45593999997E+02  0.45594000000E+02  0.51100000000E-03 0. -1.
         11   -1    0    0    0    0 -0.00000000000E+00 -0.00000000000E+00 -0.45593999997E+02  0.45594000000E+02  0.51100000000E-03 0.  1.
    9900012    2    1    2    0    0 -0.31103170874E+02  0.23463306038E+02  0.11629207256E+02  0.50528776814E+02  0.29999747604E+02 0.  0.
         12    1    1    2    0    0  0.31103170874E+02 -0.23463306038E+02 -0.11629207256E+02  0.40659223186E+02  0.00000000000E+00 0. -1.
         11    1    3    3    0    0 -0.38497307336E+00 -0.35381547907E+01 -0.28411982695E+01  0.45540258517E+01  0.51100000000E-03 0. -1.
        -11    1    3    3    0    0 -0.47267108141E+01  0.41277997919E+01 -0.32645241580E+01  0.70737291779E+01  0.51100000000E-03 0.  1.
         12    1    3    3    0    0 -0.25991486987E+02  0.22873661037E+02  0.17734929684E+02  0.38901021785E+02  0.00000000000E+00 0. -1.
</event>
<event>
 7    1  0.5456331E-013  0.5052886E+02  0.7816164E-02  0.1300439E+00
        -11   -1    0    0    0    0  0.00000000000E+00  0.00000000000E+00  0.45593999997E+02  0.45594000000E+02  0.51100000000E-03 0. -1.
         11   -1    0    0    0    0 -0.00000000000E+00 -0.00000000000E+00 -0.45593999997E+02  0.45594000000E+02  0.51100000000E-03 0.  1.
    9900012    2    1    2    0    0  0.31496461096E+02  0.25698902362E+02 -0.83976397973E+00  0.50528857760E+02  0.29999993647E+02 0.  0.
         12    1    1    2    0    0 -0.31496461096E+02 -0.25698902362E+02  0.83976397973E+00  0.40659142240E+02  0.00000000000E+00 0. -1.
         11    1    3    3    0    0  0.19645671921E+01  0.55448567314E+01  0.28182397205E+01  0.65228395510E+01  0.51100000000E-03 0. -1.
        -11    1    3    3    0    0 -0.38603749319E+01 -0.74599307060E+00  0.16354455421E+01  0.42583661959E+01  0.51100000000E-03 0.  1.
        -12    1    3    3    0    0  0.33392268835E+02  0.20900038701E+02 -0.52934492422E+01  0.39747652013E+02  0.00000000000E+00 0.  1.
</event>
<event>
 7    1  0.5456331E-013  0.5052885E+02  0.7816164E-02  0.1300439E+00
        -11   -1    0    0    0    0  0.00000000000E+00  0.00000000000E+00  0.45593999997E+02  0.45594000000E+02  0.51100000000E-03 0.  1.
         11   -1    0    0    0    0 -0.00000000000E+00 -0.00000000000E+00 -0.45593999997E+02  0.45594000000E+02  0.51100000000E-03 0. -1.
    9900012    2    1    2    0    0  0.33807738077E+02 -0.12492267597E+02  0.18818775268E+02  0.50528853352E+02  0.29999980248E+02 0.  0.
         12    1    1    2    0    0 -0.33807738077E+02  0.12492267597E+02 -0.18818775268E+02  0.40659146648E+02  0.00000000000E+00 0. -1.
         11    1    3    3    0    0  0.95519540746E+01  0.43846610880E+01  0.10272894514E+02  0.14696851413E+02  0.51100000000E-03 0. -1.
        -11    1    3    3    0    0  0.25296401613E+01  0.74945221845E+00  0.73725115523E+01  0.78303693926E+01  0.51100000000E-03 0.  1.
        -12    1    3    3    0    0  0.21726143841E+02 -0.17626380903E+02  0.11733692008E+01  0.28001632546E+02  0.00000000000E+00 0.  1.
</event>
<event>
 7    1  0.5456331E-013  0.5052886E+02  0.7816164E-02  0.1300439E+00
        -11   -1    0    0    0    0  0.00000000000E+00  0.00000000000E+00  0.45593999997E+02  0.45594000000E+02  0.51100000000E-03 0. -1.
         11   -1    0    0    0    0 -0.00000000000E+00 -0.00000000000E+00 -0.45593999997E+02  0.45594000000E+02  0.51100000000E-03 0.  1.
    9900012    2    1    2    0    0  0.31240746054E+02  0.24814215672E+02 -0.78381172643E+01  0.50528860859E+02  0.30000003067E+02 0.  0.
         12    1    1    2    0    0 -0.31240746054E+02 -0.24814215672E+02  0.78381172643E+01  0.40659139141E+02  0.00000000000E+00 0. -1.
         11    1    3    3    0    0  0.21207773329E+01 -0.28122273465E+01 -0.95580495328E+00  0.36496414226E+01  0.51100000000E-03 0. -1.
        -11    1    3    3    0    0  0.12543103091E+02 -0.16713838960E+01 -0.86717168273E+00  0.12683648775E+02  0.51100000000E-03 0.  1.
        -12    1    3    3    0    0  0.16576865631E+02  0.29297826914E+02 -0.60151406283E+01  0.34195570661E+02  0.00000000000E+00 0.  1.
</event>
<event>
 7    1  0.5456331E-013  0.5052885E+02  0.7816164E-02  0.1300439E+00
        -11   -1    0    0    0    0  0.00000000000E+00  0.00000000000E+00  0.45593999997E+02  0.45594000000E+02  0.51100000000E-03 0.  1.
         11   -1    0    0    0    0 -0.00000000000E+00 -0.00000000000E+00 -0.45593999997E+02  0.45594000000E+02  0.51100000000E-03 0. -1.
    9900012    2    1    2    0    0  0.27823698244E+02  0.11275616165E+02  0.27420232186E+02  0.50528845594E+02  0.29999956668E+02 0.  0.
         12    1    1    2    0    0 -0.27823698244E+02 -0.11275616165E+02 -0.27420232186E+02  0.40659154406E+02  0.00000000000E+00 0. -1.
         11    1    3    3    0    0  0.97196720903E+01 -0.55823171243E+01  0.90215829734E+01  0.14388302528E+02  0.51100000000E-03 0. -1.
        -11    1    3    3    0    0  0.87686648372E+01  0.12116648071E+02  0.20584404094E+02  0.25444455893E+02  0.51100000000E-03 0.  1.
        -12    1    3    3    0    0  0.93353613162E+01  0.47412852190E+01 -0.21857548819E+01  0.10696087174E+02  0.00000000000E+00 0.  1.
</event>
<event>
 7    1  0.5456331E-013  0.5052886E+02  0.7816164E-02  0.1300439E+00
        -11   -1    0    0    0    0  0.00000000000E+00  0.00000000000E+00  0.45593999997E+02  0.45594000000E+02  0.51100000000E-03 0.  1.
         11   -1    0    0    0    0 -0.00000000000E+00 -0.00000000000E+00 -0.45593999997E+02  0.45594000000E+02  0.51100000000E-03 0. -1.
    9900012    2    1    2    0    0 -0.24033695458E+02  0.19893622947E+02  0.26072803287E+02  0.50528858069E+02  0.29999994587E+02 0.  0.
         12    1    1    2    0    0  0.24033695458E+02 -0.19893622947E+02 -0.26072803287E+02  0.40659141931E+02  0.00000000000E+00 0. -1.
         11    1    3    3    0    0  0.57093921942E+01  0.45514299492E+00  0.44122906841E+01  0.72299808931E+01  0.51100000000E-03 0. -1.
        -11    1    3    3    0    0 -0.28886785442E+01 -0.16659818523E+01  0.20538431646E+01  0.39164054016E+01  0.51100000000E-03 0.  1.
        -12    1    3    3    0    0 -0.26854409108E+02  0.21104461804E+02  0.19606669438E+02  0.39382471774E+02  0.00000000000E+00 0.  1.
</event>
<event>
 7    1  0.5456331E-013  0.5052886E+02  0.7816164E-02  0.1300439E+00
        -11   -1    0    0    0    0  0.00000000000E+00  0.00000000000E+00  0.45593999997E+02  0.45594000000E+02  0.51100000000E-03 0.  1.
         11   -1    0    0    0    0 -0.00000000000E+00 -0.00000000000E+00 -0.45593999997E+02  0.45594000000E+02  0.51100000000E-03 0. -1.
    9900012    2    1    2    0    0  0.27577555798E+02  0.27529987209E+02  0.11607908024E+02  0.50528864394E+02  0.30000013812E+02 0.  0.
         12    1    1    2    0    0 -0.27577555798E+02 -0.27529987209E+02 -0.11607908024E+02  0.40659135606E+02  0.00000000000E+00 0. -1.
         11    1    3    3    0    0  0.10337984509E+02  0.17663503673E+02 -0.49403304100E+01  0.21054219305E+02  0.51100000000E-03 0.  1.
        -11    1    3    3    0    0 -0.16080655746E+01  0.40928369681E+01  0.48756000078E+01  0.65657189276E+01  0.51100000000E-03 0. -1.
        -12    1    3    3    0    0  0.18847636864E+02  0.57736465676E+01  0.11672638427E+02  0.22908926162E+02  0.00000000000E+00 0.  1.
</event>
<event>
 7    1  0.5456331E-013  0.5052888E+02  0.7816164E-02  0.1300439E+00
        -11   -1    0    0    0    0  0.00000000000E+00  0.00000000000E+00  0.45593999997E+02  0.45594000000E+02  0.51100000000E-03 0.  1.
         11   -1    0    0    0    0 -0.00000000000E+00 -0.00000000000E+00 -0.45593999997E+02  0.45594000000E+02  0.51100000000E-03 0. -1.
    9900012    2    1    2    0    0  0.32030393168E+02 -0.10957088869E+02  0.22520221467E+02  0.50528877310E+02  0.30000053071E+02 0.  0.
         12    1    1    2    0    0 -0.32030393168E+02  0.10957088869E+02 -0.22520221467E+02  0.40659122690E+02  0.00000000000E+00 0. -1.
         11    1    3    3    0    0  0.87545966777E+00 -0.37446621223E+01  0.39476720300E+01  0.55111739908E+01  0.51100000000E-03 0. -1.
        -11    1    3    3    0    0  0.17019886388E+01  0.28888771622E+01  0.12950139431E+02  0.13377162933E+02  0.51100000000E-03 0.  1.
        -12    1    3    3    0    0  0.29452944862E+02 -0.10101303909E+02  0.56224100063E+01  0.31640540387E+02  0.00000000000E+00 0.  1.
</event>
<event>
 7    1  0.5456331E-013  0.5052888E+02  0.7816164E-02  0.1300439E+00
        -11   -1    0    0    0    0  0.00000000000E+00  0.00000000000E+00  0.45593999997E+02  0.45594000000E+02  0.51100000000E-03 0. -1.
         11   -1    0    0    0    0 -0.00000000000E+00 -0.00000000000E+00 -0.45593999997E+02  0.45594000000E+02  0.51100000000E-03 0.  1.
    9900012    2    1    2    0    0 -0.35800851612E+02 -0.78575259763E+01 -0.17598929707E+02  0.50528880267E+02  0.30000062060E+02 0.  0.
         12    1    1    2    0    0  0.35800851612E+02  0.78575259763E+01  0.17598929707E+02  0.40659119733E+02  0.00000000000E+00 0. -1.
         11    1    3    3    0    0 -0.35401556356E+01 -0.46871751777E+01 -0.10741284819E+01  0.59712699929E+01  0.51100000000E-03 0. -1.
        -11    1    3    3    0    0 -0.58035221527E+01 -0.10457229926E+02 -0.11630208615E+02  0.16682214475E+02  0.51100000000E-03 0.  1.
         12    1    3    3    0    0 -0.26457173824E+02  0.72868791275E+01 -0.48945926100E+01  0.27875395799E+02  0.00000000000E+00 0. -1.
</event>
<event>
 7    1  0.5456331E-013  0.5052889E+02  0.7816164E-02  0.1300439E+00
        -11   -1    0    0    0    0  0.00000000000E+00  0.00000000000E+00  0.45593999997E+02  0.45594000000E+02  0.51100000000E-03 0. -1.
         11   -1    0    0    0    0 -0.00000000000E+00 -0.00000000000E+00 -0.45593999997E+02  0.45594000000E+02  0.51100000000E-03 0.  1.
    9900012    2    1    2    0    0  0.12502474918E+02 -0.36017438256E+02 -0.14127825354E+02  0.50528890482E+02  0.30000093108E+02 0.  0.
         12    1    1    2    0    0 -0.12502474918E+02  0.36017438256E+02  0.14127825354E+02  0.40659109518E+02  0.00000000000E+00 0. -1.
         11    1    3    3    0    0 -0.38503102469E+01  0.14726446029E+01 -0.11580814914E+01  0.42819065994E+01  0.51100000000E-03 0. -1.
        -11    1    3    3    0    0  0.12894636845E+02 -0.92883349772E+01 -0.60431577689E+01  0.17001899367E+02  0.51100000000E-03 0.  1.
        -12    1    3    3    0    0  0.34581483199E+01 -0.28201747882E+02 -0.69265860934E+01  0.29245084515E+02  0.00000000000E+00 0.  1.
</event>
<event>
 7    1  0.5456331E-013  0.5052886E+02  0.7816164E-02  0.1300439E+00
        -11   -1    0    0    0    0  0.00000000000E+00  0.00000000000E+00  0.45593999997E+02  0.45594000000E+02  0.51100000000E-03 0.  1.
         11   -1    0    0    0    0 -0.00000000000E+00 -0.00000000000E+00 -0.45593999997E+02  0.45594000000E+02  0.51100000000E-03 0. -1.
    9900012    2    1    2    0    0 -0.21912943685E+02  0.16399934933E+02  0.30067099594E+02  0.50528862715E+02  0.30000008710E+02 0.  0.
         12    1    1    2    0    0  0.21912943685E+02 -0.16399934933E+02 -0.30067099594E+02  0.40659137285E+02  0.00000000000E+00 0. -1.
         11    1    3    3    0    0 -0.14212766319E+01 -0.39635499350E+00  0.37044291558E+01  0.39874703982E+01  0.51100000000E-03 0. -1.
        -11    1    3    3    0    0 -0.18149947321E+02  0.79648026927E+01  0.30609129430E+02  0.36466114056E+02  0.51100000000E-03 0.  1.
         12    1    3    3    0    0 -0.23417197325E+01  0.88314872337E+01 -0.42464589917E+01  0.10075278261E+02  0.00000000000E+00 0. -1.
</event>
<event>
 7    1  0.5456331E-013  0.5052886E+02  0.7816164E-02  0.1300439E+00
        -11   -1    0    0    0    0  0.00000000000E+00  0.00000000000E+00  0.45593999997E+02  0.45594000000E+02  0.51100000000E-03 0. -1.
         11   -1    0    0    0    0 -0.00000000000E+00 -0.00000000000E+00 -0.45593999997E+02  0.45594000000E+02  0.51100000000E-03 0.  1.
    9900012    2    1    2    0    0 -0.28633687582E+02 -0.24260647614E+02  0.15642834166E+02  0.50528863906E+02  0.30000012329E+02 0.  0.
         12    1    1    2    0    0  0.28633687582E+02  0.24260647614E+02 -0.15642834166E+02  0.40659136094E+02  0.00000000000E+00 0. -1.
         11    1    3    3    0    0 -0.65043055933E+01 -0.62981230239E+01  0.10232295988E+02  0.13662804482E+02  0.51100000000E-03 0. -1.
        -11    1    3    3    0    0 -0.17340215412E+02 -0.17285394071E+02  0.13110301648E+02  0.27773151213E+02  0.51100000000E-03 0.  1.
        -12    1    3    3    0    0 -0.47891665761E+01 -0.67713051865E+00 -0.76997634704E+01  0.90929082110E+01  0.00000000000E+00 0.  1.
</event>
<event>
 7    1  0.5456331E-013  0.5052885E+02  0.7816164E-02  0.1300439E+00
        -11   -1    0    0    0    0  0.00000000000E+00  0.00000000000E+00  0.45593999997E+02  0.45594000000E+02  0.51100000000E-03 0. -1.
         11   -1    0    0    0    0 -0.00000000000E+00 -0.00000000000E+00 -0.45593999997E+02  0.45594000000E+02  0.51100000000E-03 0.  1.
    9900012    2    1    2    0    0  0.39903307401E+01  0.40291523535E+02 -0.37198204240E+01  0.50528847621E+02  0.29999962828E+02 0.  0.
         12    1    1    2    0    0 -0.39903307401E+01 -0.40291523535E+02  0.37198204240E+01  0.40659152379E+02  0.00000000000E+00 0. -1.
         11    1    3    3    0    0 -0.43615810102E+01  0.10855551345E+02  0.65489967355E+00  0.11717306762E+02  0.51100000000E-03 0. -1.
        -11    1    3    3    0    0 -0.19068625314E+01  0.28053723841E+02 -0.19890906694E+01  0.28188721646E+02  0.51100000000E-03 0.  1.
        -12    1    3    3    0    0  0.10258774282E+02  0.13822483492E+01 -0.23856294281E+01  0.10622819213E+02  0.00000000000E+00 0.  1.
</event>
<event>
 7    1  0.5456331E-013  0.5052885E+02  0.7816164E-02  0.1300439E+00
        -11   -1    0    0    0    0  0.00000000000E+00  0.00000000000E+00  0.45593999997E+02  0.45594000000E+02  0.51100000000E-03 0. -1.
         11   -1    0    0    0    0 -0.00000000000E+00 -0.00000000000E+00 -0.45593999997E+02  0.45594000000E+02  0.51100000000E-03 0.  1.
    9900012    2    1    2    0    0 -0.88959666685E+01 -0.35293931372E+02  0.18120895070E+02  0.50528847859E+02  0.29999963552E+02 0.  0.
         12    1    1    2    0    0  0.88959666685E+01  0.35293931372E+02 -0.18120895070E+02  0.40659152141E+02  0.00000000000E+00 0. -1.
         11    1    3    3    0    0 -0.30743255441E+01 -0.26469376420E+02  0.20365381851E+02  0.33538457684E+02  0.51100000000E-03 0. -1.
        -11    1    3    3    0    0 -0.13697831767E+01 -0.40756045581E+01  0.54306205020E+01  0.69266512662E+01  0.51100000000E-03 0.  1.
        -12    1    3    3    0    0 -0.44518579477E+01 -0.47489503943E+01 -0.76751072824E+01  0.10063738909E+02  0.00000000000E+00 0.  1.
</event>
<event>
 7    1  0.5456331E-013  0.5052886E+02  0.7816164E-02  0.1300439E+00
        -11   -1    0    0    0    0  0.00000000000E+00  0.00000000000E+00  0.45593999997E+02  0.45594000000E+02  0.51100000000E-03 0.  1.
         11   -1    0    0    0    0 -0.00000000000E+00 -0.00000000000E+00 -0.45593999997E+02  0.45594000000E+02  0.51100000000E-03 0. -1.
    9900012    2    1    2    0    0 -0.48271196974E+01 -0.30758752423E+02  0.26148869836E+02  0.50528864140E+02  0.30000013040E+02 0.  0.
         12    1    1    2    0    0  0.48271196974E+01  0.30758752423E+02 -0.26148869836E+02  0.40659135860E+02  0.00000000000E+00 0. -1.
         11    1    3    3    0    0 -0.11794083356E+01 -0.18214597959E+02  0.14163669737E+02  0.23103508900E+02  0.51100000000E-03 0. -1.
        -11    1    3    3    0    0  0.88937205981E+00 -0.14726829827E+02  0.15411688740E+02  0.21335197432E+02  0.51100000000E-03 0.  1.
         12    1    3    3    0    0 -0.45370834216E+01  0.21826753623E+01 -0.34264886412E+01  0.60901578075E+01  0.00000000000E+00 0. -1.
</event>
<event>
 7    1  0.5456331E-013  0.5052887E+02  0.7816164E-02  0.1300439E+00
        -11   -1    0    0    0    0  0.00000000000E+00  0.00000000000E+00  0.45593999997E+02  0.45594000000E+02  0.51100000000E-03 0.  1.
         11   -1    0    0    0    0 -0.00000000000E+00 -0.00000000000E+00 -0.45593999997E+02  0.45594000000E+02  0.51100000000E-03 0. -1.
    9900012    2    1    2    0    0 -0.20075905176E+02 -0.65575625082E+01  0.34743654253E+02  0.50528866886E+02  0.30000021388E+02 0.  0.
         12    1    1    2    0    0  0.20075905176E+02  0.65575625082E+01 -0.34743654253E+02  0.40659133114E+02  0.00000000000E+00 0. -1.
         11    1    3    3    0    0 -0.15367224797E+02  0.42769320337E+01  0.45278227841E+01  0.16581463295E+02  0.51100000000E-03 0. -1.
        -11    1    3    3    0    0  0.10550635076E+01  0.12865291552E+01  0.14601251025E+01  0.22136580243E+01  0.51100000000E-03 0.  1.
        -12    1    3    3    0    0 -0.57637438862E+01 -0.12121023697E+02  0.28755706367E+02  0.31733745567E+02  0.00000000000E+00 0.  1.
</event>
<event>
 7    1  0.5456331E-013  0.5052885E+02  0.7816164E-02  0.1300439E+00
        -11   -1    0    0    0    0  0.00000000000E+00  0.00000000000E+00  0.45593999997E+02  0.45594000000E+02  0.51100000000E-03 0. -1.
         11   -1    0    0    0    0 -0.00000000000E+00 -0.00000000000E+00 -0.45593999997E+02  0.45594000000E+02  0.51100000000E-03 0.  1.
    9900012    2    1    2    0    0 -0.10199892794E+02 -0.38571571208E+02  0.78334090589E+01  0.50528853232E+02  0.29999979884E+02 0.  0.
         12    1    1    2    0    0  0.10199892794E+02  0.38571571208E+02 -0.78334090589E+01  0.40659146768E+02  0.00000000000E+00 0. -1.
         11    1    3    3    0    0 -0.15991132726E+01 -0.61467404419E+01 -0.45145354756E+01  0.77923431739E+01  0.51100000000E-03 0. -1.
        -11    1    3    3    0    0 -0.17314248943E-01 -0.23101671330E+02 -0.24760575217E+01  0.23233991890E+02  0.51100000000E-03 0.  1.
         12    1    3    3    0    0 -0.85834652723E+01 -0.93231594358E+01  0.14824002056E+02  0.19502518168E+02  0.00000000000E+00 0. -1.
</event>
<event>
 7    1  0.5456331E-013  0.5052887E+02  0.7816164E-02  0.1300439E+00
        -11   -1    0    0    0    0  0.00000000000E+00  0.00000000000E+00  0.45593999997E+02  0.45594000000E+02  0.51100000000E-03 0.  1.
         11   -1    0    0    0    0 -0.00000000000E+00 -0.00000000000E+00 -0.45593999997E+02  0.45594000000E+02  0.51100000000E-03 0. -1.
    9900012    2    1    2    0    0  0.39923033688E+02 -0.68718680248E+01  0.34776044550E+01  0.50528869146E+02  0.30000028257E+02 0.  0.
         12    1    1    2    0    0 -0.39923033688E+02  0.68718680248E+01 -0.34776044550E+01  0.40659130854E+02  0.00000000000E+00 0. -1.
         11    1    3    3    0    0  0.34041709267E+02 -0.27732953311E+01  0.84334595200E+01  0.35180283918E+02  0.51100000000E-03 0. -1.
        -11    1    3    3    0    0  0.71410336703E+01 -0.50624668233E+01  0.13405078932E+01  0.88555007701E+01  0.51100000000E-03 0.  1.
         12    1    3    3    0    0 -0.12597092485E+01  0.96389412960E+00 -0.62963629582E+01  0.64930844585E+01  0.00000000000E+00 0. -1.
</event>
<event>
 7    1  0.5456331E-013  0.5052886E+02  0.7816164E-02  0.1300439E+00
        -11   -1    0    0    0    0  0.00000000000E+00  0.00000000000E+00  0.45593999997E+02  0.45594000000E+02  0.51100000000E-03 0.  1.
         11   -1    0    0    0    0 -0.00000000000E+00 -0.00000000000E+00 -0.45593999997E+02  0.45594000000E+02  0.51100000000E-03 0. -1.
    9900012    2    1    2    0    0 -0.14226957137E+02  0.34930370505E+02  0.15186464959E+02  0.50528858212E+02  0.29999995021E+02 0.  0.
         12    1    1    2    0    0  0.14226957137E+02 -0.34930370505E+02 -0.15186464959E+02  0.40659141788E+02  0.00000000000E+00 0. -1.
         11    1    3    3    0    0  0.40972561664E+01  0.35099445869E+00 -0.27369598682E+01  0.49398031119E+01  0.51100000000E-03 0. -1.
        -11    1    3    3    0    0 -0.77552648597E+01  0.75248910729E+01  0.11618765174E+02  0.15867067250E+02  0.51100000000E-03 0.  1.
         12    1    3    3    0    0 -0.10568948444E+02  0.27054484974E+02  0.63046596531E+01  0.29721987850E+02  0.00000000000E+00 0. -1.
</event>
<event>
 7    1  0.5456331E-013  0.5052884E+02  0.7816164E-02  0.1300439E+00
        -11   -1    0    0    0    0  0.00000000000E+00  0.00000000000E+00  0.45593999997E+02  0.45594000000E+02  0.51100000000E-03 0.  1.
         11   -1    0    0    0    0 -0.00000000000E+00 -0.00000000000E+00 -0.45593999997E+02  0.45594000000E+02  0.51100000000E-03 0. -1.
    9900012    2    1    2    0    0  0.98372460301E+01  0.25035035396E+02  0.30490041521E+02  0.50528843114E+02  0.29999949130E+02 0.  0.
         12    1    1    2    0    0 -0.98372460301E+01 -0.25035035396E+02 -0.30490041521E+02  0.40659156886E+02  0.00000000000E+00 0. -1.
         11    1    3    3    0    0 -0.72781148307E+01  0.84634410444E-01  0.85391122129E+01  0.11220274333E+02  0.51100000000E-03 0. -1.
        -11    1    3    3    0    0  0.53367880555E+01  0.26123287665E+01  0.93696743874E+01  0.11094880203E+02  0.51100000000E-03 0.  1.
        -12    1    3    3    0    0  0.11778572805E+02  0.22338072219E+02  0.12581254921E+02  0.28213688578E+02  0.00000000000E+00 0.  1.
</event>
<event>
 7    1  0.5456331E-013  0.5052886E+02  0.7816164E-02  0.1300439E+00
        -11   -1    0    0    0    0  0.00000000000E+00  0.00000000000E+00  0.45593999997E+02  0.45594000000E+02  0.51100000000E-03 0.  1.
         11   -1    0    0    0    0 -0.00000000000E+00 -0.00000000000E+00 -0.45593999997E+02  0.45594000000E+02  0.51100000000E-03 0. -1.
    9900012    2    1    2    0    0 -0.26316700561E+01 -0.36229385452E+02  0.18266679557E+02  0.50528860319E+02  0.30000001426E+02 0.  0.
         12    1    1    2    0    0  0.26316700561E+01  0.36229385452E+02 -0.18266679557E+02  0.40659139681E+02  0.00000000000E+00 0. -1.
         11    1    3    3    0    0 -0.50122218547E+01 -0.93956713127E+01 -0.37763147921E+01  0.11298741567E+02  0.51100000000E-03 0. -1.
        -11    1    3    3    0    0 -0.43431001324E+01 -0.23408156883E+02  0.11979394075E+02  0.26651645542E+02  0.51100000000E-03 0.  1.
        -12    1    3    3    0    0  0.67236519310E+01 -0.34255572569E+01  0.10063600275E+02  0.12578473210E+02  0.00000000000E+00 0.  1.
</event>
<event>
 7    1  0.5456331E-013  0.5052886E+02  0.7816164E-02  0.1300439E+00
        -11   -1    0    0    0    0  0.00000000000E+00  0.00000000000E+00  0.45593999997E+02  0.45594000000E+02  0.51100000000E-03 0.  1.
         11   -1    0    0    0    0 -0.00000000000E+00 -0.00000000000E+00 -0.45593999997E+02  0.45594000000E+02  0.51100000000E-03 0. -1.
    9900012    2    1    2    0    0  0.22540578053E+02 -0.15617890825E+01  0.33803091403E+02  0.50528857947E+02  0.29999994215E+02 0.  0.
         12    1    1    2    0    0 -0.22540578053E+02  0.15617890825E+01 -0.33803091403E+02  0.40659142053E+02  0.00000000000E+00 0. -1.
         11    1    3    3    0    0  0.15040804263E+02 -0.59493467084E+01  0.82919803070E+01  0.18176288312E+02  0.51100000000E-03 0.  1.
        -11    1    3    3    0    0  0.88574072705E+01  0.32293520022E+01  0.31790317610E+01  0.99493025438E+01  0.51100000000E-03 0. -1.
        -12    1    3    3    0    0 -0.13576334802E+01  0.11582056237E+01  0.22332079335E+02  0.22403267091E+02  0.00000000000E+00 0.  1.
</event>
<event>
 7    1  0.5456331E-013  0.5052885E+02  0.7816164E-02  0.1300439E+00
        -11   -1    0    0    0    0  0.00000000000E+00  0.00000000000E+00  0.45593999997E+02  0.45594000000E+02  0.51100000000E-03 0. -1.
         11   -1    0    0    0    0 -0.00000000000E+00 -0.00000000000E+00 -0.45593999997E+02  0.45594000000E+02  0.51100000000E-03 0.  1.
    9900012    2    1    2    0    0 -0.31431584873E+02 -0.25790981199E+02 -0.21710062451E+00  0.50528851318E+02  0.29999974066E+02 0.  0.
         12    1    1    2    0    0  0.31431584873E+02  0.25790981199E+02  0.21710062451E+00  0.40659148682E+02  0.00000000000E+00 0. -1.
         11    1    3    3    0    0 -0.15417842736E+02 -0.16018684313E+02  0.59984599250E+01  0.23028018661E+02  0.51100000000E-03 0. -1.
        -11    1    3    3    0    0 -0.36770633607E+01  0.36401256228E+01  0.40630033314E+01  0.65787009235E+01  0.51100000000E-03 0.  1.
        -12    1    3    3    0    0 -0.12336678777E+02 -0.13412422509E+02 -0.10278563881E+02  0.20922131733E+02  0.00000000000E+00 0.  1.
</event>
<event>
 7    1  0.5456331E-013  0.5052885E+02  0.7816164E-02  0.1300439E+00
        -11   -1    0    0    0    0  0.00000000000E+00  0.00000000000E+00  0.45593999997E+02  0.45594000000E+02  0.51100000000E-03 0.  1.
         11   -1    0    0    0    0 -0.00000000000E+00 -0.00000000000E+00 -0.45593999997E+02  0.45594000000E+02  0.51100000000E-03 0. -1.
    9900012    2    1    2    0    0 -0.28754923913E+02  0.51095419629E+01  0.28288048294E+02  0.50528846730E+02  0.29999960122E+02 0.  0.
         12    1    1    2    0    0  0.28754923913E+02 -0.51095419629E+01 -0.28288048294E+02  0.40659153270E+02  0.00000000000E+00 0. -1.
         11    1    3    3    0    0 -0.15614110901E+02  0.61896134976E+01 -0.43971250906E+00  0.16801938038E+02  0.51100000000E-03 0. -1.
        -11    1    3    3    0    0 -0.40184408915E+01 -0.10483219200E+01  0.64887759008E+00  0.42033187405E+01  0.51100000000E-03 0.  1.
         12    1    3    3    0    0 -0.91223721200E+01 -0.31749614734E-01  0.28078883213E+02  0.29523589952E+02  0.00000000000E+00 0. -1.
</event>
<event>
 7    1  0.5456331E-013  0.5052886E+02  0.7816164E-02  0.1300439E+00
        -11   -1    0    0    0    0  0.00000000000E+00  0.00000000000E+00  0.45593999997E+02  0.45594000000E+02  0.51100000000E-03 0. -1.
         11   -1    0    0    0    0 -0.00000000000E+00 -0.00000000000E+00 -0.45593999997E+02  0.45594000000E+02  0.51100000000E-03 0.  1.
    9900012    2    1    2    0    0 -0.32549717350E+01  0.23782902458E+02 -0.32816835298E+02  0.50528856265E+02  0.29999989103E+02 0.  0.
         12    1    1    2    0    0  0.32549717350E+01 -0.23782902458E+02  0.32816835298E+02  0.40659143735E+02  0.00000000000E+00 0. -1.
         11    1    3    3    0    0 -0.51722868446E+01  0.99668745221E+01  0.21787851940E+00  0.11231144655E+02  0.51100000000E-03 0. -1.
        -11    1    3    3    0    0 -0.25610285225E+01  0.11138968151E+02 -0.85775226195E+01  0.14290184503E+02  0.51100000000E-03 0.  1.
         12    1    3    3    0    0  0.44783436320E+01  0.26770597840E+01 -0.24457191198E+02  0.25007527108E+02  0.00000000000E+00 0. -1.
</event>
<event>
 7    1  0.5456331E-013  0.5052885E+02  0.7816164E-02  0.1300439E+00
        -11   -1    0    0    0    0  0.00000000000E+00  0.00000000000E+00  0.45593999997E+02  0.45594000000E+02  0.51100000000E-03 0.  1.
         11   -1    0    0    0    0 -0.00000000000E+00 -0.00000000000E+00 -0.45593999997E+02  0.45594000000E+02  0.51100000000E-03 0. -1.
    9900012    2    1    2    0    0  0.10696155353E+02  0.21890882644E+02  0.32550702449E+02  0.50528847129E+02  0.29999961332E+02 0.  0.
         12    1    1    2    0    0 -0.10696155353E+02 -0.21890882644E+02 -0.32550702449E+02  0.40659152871E+02  0.00000000000E+00 0. -1.
         11    1    3    3    0    0  0.31602775162E+01  0.73373278344E+01 -0.31237660828E+01  0.85779746170E+01  0.51100000000E-03 0.  1.
        -11    1    3    3    0    0 -0.13521867696E+01  0.60335815870E+01  0.26892469950E+01  0.67427416893E+01  0.51100000000E-03 0. -1.
        -12    1    3    3    0    0  0.88880646068E+01  0.85199732229E+01  0.32985221537E+02  0.35208130822E+02  0.00000000000E+00 0.  1.
</event>
<event>
 7    1  0.5456331E-013  0.5052886E+02  0.7816164E-02  0.1300439E+00
        -11   -1    0    0    0    0  0.00000000000E+00  0.00000000000E+00  0.45593999997E+02  0.45594000000E+02  0.51100000000E-03 0.  1.
         11   -1    0    0    0    0 -0.00000000000E+00 -0.00000000000E+00 -0.45593999997E+02  0.45594000000E+02  0.51100000000E-03 0. -1.
    9900012    2    1    2    0    0  0.25527698708E+02 -0.29133755230E+01  0.31512130142E+02  0.50528861982E+02  0.30000006480E+02 0.  0.
         12    1    1    2    0    0 -0.25527698708E+02  0.29133755230E+01 -0.31512130142E+02  0.40659138018E+02  0.00000000000E+00 0. -1.
         11    1    3    3    0    0  0.17966807768E+02 -0.32520075675E+01  0.20633954898E+02  0.27552528551E+02  0.51100000000E-03 0. -1.
        -11    1    3    3    0    0  0.90028141783E+01 -0.71874438675E+01  0.10015437965E+02  0.15264960215E+02  0.51100000000E-03 0.  1.
         12    1    3    3    0    0 -0.14419232380E+01  0.75260759120E+01  0.86273727979E+00  0.77113732156E+01  0.00000000000E+00 0. -1.
</event>
<event>
 7    1  0.5456331E-013  0.5052886E+02  0.7816164E-02  0.1300439E+00
        -11   -1    0    0    0    0  0.00000000000E+00  0.00000000000E+00  0.45593999997E+02  0.45594000000E+02  0.51100000000E-03 0.  1.
         11   -1    0    0    0    0 -0.00000000000E+00 -0.00000000000E+00 -0.45593999997E+02  0.45594000000E+02  0.51100000000E-03 0. -1.
    9900012    2    1    2    0    0  0.31570278004E+02  0.25007889475E+02  0.55756869543E+01  0.50528864812E+02  0.30000015082E+02 0.  0.
         12    1    1    2    0    0 -0.31570278004E+02 -0.25007889475E+02 -0.55756869543E+01  0.40659135188E+02  0.00000000000E+00 0. -1.
         11    1    3    3    0    0  0.13926842633E+02  0.39738805012E+01 -0.94963314577E+01  0.17318457881E+02  0.51100000000E-03 0. -1.
        -11    1    3    3    0    0  0.71549787591E+01  0.14562180337E+02  0.41609863851E+01  0.16750063438E+02  0.51100000000E-03 0.  1.
         12    1    3    3    0    0  0.10488456612E+02  0.64718286362E+01  0.10911032027E+02  0.16460343493E+02  0.00000000000E+00 0. -1.
</event>
<event>
 7    1  0.5456331E-013  0.5052886E+02  0.7816164E-02  0.1300439E+00
        -11   -1    0    0    0    0  0.00000000000E+00  0.00000000000E+00  0.45593999997E+02  0.45594000000E+02  0.51100000000E-03 0. -1.
         11   -1    0    0    0    0 -0.00000000000E+00 -0.00000000000E+00 -0.45593999997E+02  0.45594000000E+02  0.51100000000E-03 0.  1.
    9900012    2    1    2    0    0  0.20183599524E+02  0.18726698075E+02 -0.29918195365E+02  0.50528864195E+02  0.30000013206E+02 0.  0.
         12    1    1    2    0    0 -0.20183599524E+02 -0.18726698075E+02  0.29918195365E+02  0.40659135805E+02  0.00000000000E+00 0. -1.
         11    1    3    3    0    0  0.12169181873E+02 -0.10281600771E+01 -0.72187319722E+01  0.14186479202E+02  0.51100000000E-03 0. -1.
        -11    1    3    3    0    0  0.71577476329E+01 -0.13064856322E+01 -0.51475936769E+01  0.89127984834E+01  0.51100000000E-03 0.  1.
        -12    1    3    3    0    0  0.85667001822E+00  0.21061343785E+02 -0.17551869716E+02  0.27429586509E+02  0.00000000000E+00 0.  1.
</event>
<event>
 7    1  0.5456331E-013  0.5052880E+02  0.7816164E-02  0.1300439E+00
        -11   -1    0    0    0    0  0.00000000000E+00  0.00000000000E+00  0.45593999997E+02  0.45594000000E+02  0.51100000000E-03 0.  1.
         11   -1    0    0    0    0 -0.00000000000E+00 -0.00000000000E+00 -0.45593999997E+02  0.45594000000E+02  0.51100000000E-03 0. -1.
    9900012    2    1    2    0    0 -0.93445838904E+01 -0.33744620330E+02  0.20667600603E+02  0.50528802222E+02  0.29999824832E+02 0.  0.
         12    1    1    2    0    0  0.93445838904E+01  0.33744620330E+02 -0.20667600603E+02  0.40659197778E+02  0.00000000000E+00 0. -1.
         11    1    3    3    0    0  0.68613846101E+01 -0.68929206817E+01  0.10198743202E+02  0.14092739884E+02  0.51100000000E-03 0. -1.
        -11    1    3    3    0    0  0.11635339366E+00 -0.13346618137E+02  0.66409401285E+01  0.14907979067E+02  0.51100000000E-03 0.  1.
         12    1    3    3    0    0 -0.16322321894E+02 -0.13505081511E+02  0.38279172728E+01  0.21528083270E+02  0.00000000000E+00 0. -1.
</event>
<event>
 7    1  0.5456331E-013  0.5052891E+02  0.7816164E-02  0.1300439E+00
        -11   -1    0    0    0    0  0.00000000000E+00  0.00000000000E+00  0.45593999997E+02  0.45594000000E+02  0.51100000000E-03 0. -1.
         11   -1    0    0    0    0 -0.00000000000E+00 -0.00000000000E+00 -0.45593999997E+02  0.45594000000E+02  0.51100000000E-03 0.  1.
    9900012    2    1    2    0    0  0.74397653879E+01  0.25791690328E+02 -0.30538507844E+02  0.50528906793E+02  0.30000142689E+02 0.  0.
         12    1    1    2    0    0 -0.74397653879E+01 -0.25791690328E+02  0.30538507844E+02  0.40659093207E+02  0.00000000000E+00 0. -1.
         11    1    3    3    0    0  0.90606420187E+00  0.34508247392E+01 -0.30765391721E+01  0.47110760190E+01  0.51100000000E-03 0. -1.
        -11    1    3    3    0    0  0.68418021834E+01  0.11794176142E+02 -0.31652933345E+02  0.34464779668E+02  0.51100000000E-03 0.  1.
         12    1    3    3    0    0 -0.30810099737E+00  0.10546689448E+02  0.41909646726E+01  0.11353051106E+02  0.00000000000E+00 0. -1.
</event>
<event>
 7    1  0.5456331E-013  0.5052873E+02  0.7816164E-02  0.1300439E+00
        -11   -1    0    0    0    0  0.00000000000E+00  0.00000000000E+00  0.45593999997E+02  0.45594000000E+02  0.51100000000E-03 0.  1.
         11   -1    0    0    0    0 -0.00000000000E+00 -0.00000000000E+00 -0.45593999997E+02  0.45594000000E+02  0.51100000000E-03 0. -1.
    9900012    2    1    2    0    0  0.46726498586E+01  0.25250043513E+02  0.31524239887E+02  0.50528732242E+02  0.29999612122E+02 0.  0.
         12    1    1    2    0    0 -0.46726498586E+01 -0.25250043513E+02 -0.31524239887E+02  0.40659267758E+02  0.00000000000E+00 0. -1.
         11    1    3    3    0    0  0.13002983033E+02  0.22697053780E+02  0.14268321020E+02  0.29796288410E+02  0.51100000000E-03 0. -1.
        -11    1    3    3    0    0  0.29602377146E+00  0.26268413468E+01  0.59535650397E+01  0.65140511571E+01  0.51100000000E-03 0.  1.
         12    1    3    3    0    0 -0.86263569461E+01 -0.73851613234E-01  0.11302353828E+02  0.14218392675E+02  0.00000000000E+00 0. -1.
</event>
<event>
 7    1  0.5456331E-013  0.5052886E+02  0.7816164E-02  0.1300439E+00
        -11   -1    0    0    0    0  0.00000000000E+00  0.00000000000E+00  0.45593999997E+02  0.45594000000E+02  0.51100000000E-03 0.  1.
         11   -1    0    0    0    0 -0.00000000000E+00 -0.00000000000E+00 -0.45593999997E+02  0.45594000000E+02  0.51100000000E-03 0. -1.
    9900012    2    1    2    0    0  0.23364340228E+01  0.29740783129E+01  0.40482852024E+02  0.50528863588E+02  0.30000011364E+02 0.  0.
         12    1    1    2    0    0 -0.23364340228E+01 -0.29740783129E+01 -0.40482852024E+02  0.40659136412E+02  0.00000000000E+00 0. -1.
         11    1    3    3    0    0  0.45517372095E+01 -0.44913722863E+01  0.32074808976E+01  0.71539269362E+01  0.51100000000E-03 0. -1.
        -11    1    3    3    0    0  0.57470687843E+01  0.10660446770E+02  0.13692859912E+02  0.18280271819E+02  0.51100000000E-03 0.  1.
        -12    1    3    3    0    0 -0.79623719710E+01 -0.31949961705E+01  0.23582511214E+02  0.25094664833E+02  0.00000000000E+00 0.  1.
</event>
<event>
 7    1  0.5456331E-013  0.5052886E+02  0.7816164E-02  0.1300439E+00
        -11   -1    0    0    0    0  0.00000000000E+00  0.00000000000E+00  0.45593999997E+02  0.45594000000E+02  0.51100000000E-03 0.  1.
         11   -1    0    0    0    0 -0.00000000000E+00 -0.00000000000E+00 -0.45593999997E+02  0.45594000000E+02  0.51100000000E-03 0. -1.
    9900012    2    1    2    0    0  0.33086271338E+02  0.16485894767E+02  0.16931613033E+02  0.50528860840E+02  0.30000003009E+02 0.  0.
         12    1    1    2    0    0 -0.33086271338E+02 -0.16485894767E+02 -0.16931613033E+02  0.40659139160E+02  0.00000000000E+00 0. -1.
         11    1    3    3    0    0  0.70581308739E+01  0.43077362902E+01  0.13148805792E+02  0.15532704124E+02  0.51100000000E-03 0. -1.
        -11    1    3    3    0    0  0.22978949625E+02  0.42037987591E+01  0.89507529220E+01  0.25016395184E+02  0.51100000000E-03 0.  1.
        -12    1    3    3    0    0  0.30491908388E+01  0.79743597179E+01 -0.51679456803E+01  0.99797615320E+01  0.00000000000E+00 0.  1.
</event>
<event>
 7    1  0.5456331E-013  0.5052885E+02  0.7816164E-02  0.1300439E+00
        -11   -1    0    0    0    0  0.00000000000E+00  0.00000000000E+00  0.45593999997E+02  0.45594000000E+02  0.51100000000E-03 0. -1.
         11   -1    0    0    0    0 -0.00000000000E+00 -0.00000000000E+00 -0.45593999997E+02  0.45594000000E+02  0.51100000000E-03 0.  1.
    9900012    2    1    2    0    0  0.22041689527E+02  0.32726619758E+02 -0.98131774130E+01  0.50528853809E+02  0.29999981639E+02 0.  0.
         12    1    1    2    0    0 -0.22041689527E+02 -0.32726619758E+02  0.98131774130E+01  0.40659146191E+02  0.00000000000E+00 0. -1.
         11    1    3    3    0    0  0.23300908193E+00  0.64070263012E+01  0.70584313277E+01  0.95354985358E+01  0.51100000000E-03 0. -1.
        -11    1    3    3    0    0 -0.20559437235E+01  0.45784665047E+01 -0.30732106862E+01  0.58850560161E+01  0.51100000000E-03 0.  1.
        -12    1    3    3    0    0  0.23864624169E+02  0.21741126952E+02 -0.13798398054E+02  0.35108299257E+02  0.00000000000E+00 0.  1.
</event>
<event>
 7    1  0.5456331E-013  0.5052885E+02  0.7816164E-02  0.1300439E+00
        -11   -1    0    0    0    0  0.00000000000E+00  0.00000000000E+00  0.45593999997E+02  0.45594000000E+02  0.51100000000E-03 0.  1.
         11   -1    0    0    0    0 -0.00000000000E+00 -0.00000000000E+00 -0.45593999997E+02  0.45594000000E+02  0.51100000000E-03 0. -1.
    9900012    2    1    2    0    0 -0.37086991220E+02  0.11622689511E+02  0.11942978618E+02  0.50528848908E+02  0.29999966741E+02 0.  0.
         12    1    1    2    0    0  0.37086991220E+02 -0.11622689511E+02 -0.11942978618E+02  0.40659151092E+02  0.00000000000E+00 0. -1.
         11    1    3    3    0    0 -0.72953636189E+01 -0.56583265462E+01  0.66651495979E+01  0.11386975413E+02  0.51100000000E-03 0. -1.
        -11    1    3    3    0    0 -0.17018310807E+02  0.15960697906E+01 -0.28741209392E+01  0.17332942997E+02  0.51100000000E-03 0.  1.
        -12    1    3    3    0    0 -0.12773316794E+02  0.15684946267E+02  0.81519499592E+01  0.21808930498E+02  0.00000000000E+00 0.  1.
</event>
<event>
 7    1  0.5456331E-013  0.5052887E+02  0.7816164E-02  0.1300439E+00
        -11   -1    0    0    0    0  0.00000000000E+00  0.00000000000E+00  0.45593999997E+02  0.45594000000E+02  0.51100000000E-03 0. -1.
         11   -1    0    0    0    0 -0.00000000000E+00 -0.00000000000E+00 -0.45593999997E+02  0.45594000000E+02  0.51100000000E-03 0.  1.
    9900012    2    1    2    0    0 -0.25840052615E+01 -0.40456206742E+02  0.31278303970E+01  0.50528867322E+02  0.30000022711E+02 0.  0.
         12    1    1    2    0    0  0.25840052615E+01  0.40456206742E+02 -0.31278303970E+01  0.40659132678E+02  0.00000000000E+00 0. -1.
         11    1    3    3    0    0 -0.55090360015E+01 -0.37498360853E+01 -0.38285430447E+01  0.76856028026E+01  0.51100000000E-03 0. -1.
        -11    1    3    3    0    0 -0.95932685527E+00 -0.65068440707E+01 -0.67745202681E+01  0.94421106167E+01  0.51100000000E-03 0.  1.
         12    1    3    3    0    0  0.38843575952E+01 -0.30199526586E+02  0.13730893710E+02  0.33401153903E+02  0.00000000000E+00 0. -1.
</event>
<event>
 7    1  0.5456331E-013  0.5052886E+02  0.7816164E-02  0.1300439E+00
        -11   -1    0    0    0    0  0.00000000000E+00  0.00000000000E+00  0.45593999997E+02  0.45594000000E+02  0.51100000000E-03 0.  1.
         11   -1    0    0    0    0 -0.00000000000E+00 -0.00000000000E+00 -0.45593999997E+02  0.45594000000E+02  0.51100000000E-03 0. -1.
    9900012    2    1    2    0    0 -0.38632583074E+02  0.12136923964E+02  0.36584604227E+01  0.50528859196E+02  0.29999998011E+02 0.  0.
         12    1    1    2    0    0  0.38632583074E+02 -0.12136923964E+02 -0.36584604227E+01  0.40659140804E+02  0.00000000000E+00 0. -1.
         11    1    3    3    0    0 -0.19900531491E+02  0.11294221066E+02  0.13382644159E+02  0.26508220387E+02  0.51100000000E-03 0. -1.
        -11    1    3    3    0    0 -0.18078106800E+01  0.39683744871E+01 -0.23393567752E+00  0.43670243515E+01  0.51100000000E-03 0.  1.
         12    1    3    3    0    0 -0.16924240903E+02 -0.31256715890E+01 -0.94902480589E+01  0.19653614457E+02  0.00000000000E+00 0. -1.
</event>
<event>
 7    1  0.5456331E-013  0.5052886E+02  0.7816164E-02  0.1300439E+00
        -11   -1    0    0    0    0  0.00000000000E+00  0.00000000000E+00  0.45593999997E+02  0.45594000000E+02  0.51100000000E-03 0.  1.
         11   -1    0    0    0    0 -0.00000000000E+00 -0.00000000000E+00 -0.45593999997E+02  0.45594000000E+02  0.51100000000E-03 0. -1.
    9900012    2    1    2    0    0 -0.34106100709E+02 -0.15046400049E+02  0.16234080891E+02  0.50528860285E+02  0.30000001323E+02 0.  0.
         12    1    1    2    0    0  0.34106100709E+02  0.15046400049E+02 -0.16234080891E+02  0.40659139715E+02  0.00000000000E+00 0. -1.
         11    1    3    3    0    0 -0.12986548326E+02 -0.19912016087E+01  0.18275747038E+02  0.22508181875E+02  0.51100000000E-03 0. -1.
        -11    1    3    3    0    0 -0.58494810629E+01 -0.63326374267E+01  0.49383485610E+01  0.99350899469E+01  0.51100000000E-03 0.  1.
         12    1    3    3    0    0 -0.15270071320E+02 -0.67225610140E+01 -0.69800147089E+01  0.18085588463E+02  0.00000000000E+00 0. -1.
</event>
<event>
 7    1  0.5456331E-013  0.5052886E+02  0.7816164E-02  0.1300439E+00
        -11   -1    0    0    0    0  0.00000000000E+00  0.00000000000E+00  0.45593999997E+02  0.45594000000E+02  0.51100000000E-03 0. -1.
         11   -1    0    0    0    0 -0.00000000000E+00 -0.00000000000E+00 -0.45593999997E+02  0.45594000000E+02  0.51100000000E-03 0.  1.
    9900012    2    1    2    0    0 -0.36284774866E+02 -0.14041136921E+01 -0.18292330714E+02  0.50528858528E+02  0.29999995980E+02 0.  0.
         12    1    1    2    0    0  0.36284774866E+02  0.14041136921E+01  0.18292330714E+02  0.40659141472E+02  0.00000000000E+00 0. -1.
         11    1    3    3    0    0  0.36646297751E+01  0.21390886601E+01 -0.41339595716E+01  0.59240892706E+01  0.51100000000E-03 0. -1.
        -11    1    3    3    0    0 -0.87280131558E+01 -0.42098313781E+01  0.12697434076E+01  0.97730825466E+01  0.51100000000E-03 0.  1.
        -12    1    3    3    0    0 -0.31221391485E+02  0.66662902599E+00 -0.15428114550E+02  0.34831686710E+02  0.00000000000E+00 0.  1.
</event>
<event>
 7    1  0.5456331E-013  0.5052886E+02  0.7816164E-02  0.1300439E+00
        -11   -1    0    0    0    0  0.00000000000E+00  0.00000000000E+00  0.45593999997E+02  0.45594000000E+02  0.51100000000E-03 0.  1.
         11   -1    0    0    0    0 -0.00000000000E+00 -0.00000000000E+00 -0.45593999997E+02  0.45594000000E+02  0.51100000000E-03 0. -1.
    9900012    2    1    2    0    0 -0.37199293742E+02  0.66413760523E+01  0.15009010764E+02  0.50528859147E+02  0.29999997865E+02 0.  0.
         12    1    1    2    0    0  0.37199293742E+02 -0.66413760523E+01 -0.15009010764E+02  0.40659140853E+02  0.00000000000E+00 0. -1.
         11    1    3    3    0    0  0.32388952398E+00 -0.23537801669E+01  0.35902472726E+00  0.24029324821E+01  0.51100000000E-03 0. -1.
        -11    1    3    3    0    0  0.28385359596E+01 -0.24303476985E+01  0.23409849205E+01  0.44095449866E+01  0.51100000000E-03 0.  1.
        -12    1    3    3    0    0 -0.40361719225E+02  0.11425503918E+02  0.12309001116E+02  0.43716381679E+02  0.00000000000E+00 0.  1.
</event>
<event>
 7    1  0.5456331E-013  0.5052886E+02  0.7816164E-02  0.1300439E+00
        -11   -1    0    0    0    0  0.00000000000E+00  0.00000000000E+00  0.45593999997E+02  0.45594000000E+02  0.51100000000E-03 0.  1.
         11   -1    0    0    0    0 -0.00000000000E+00 -0.00000000000E+00 -0.45593999997E+02  0.45594000000E+02  0.51100000000E-03 0. -1.
    9900012    2    1    2    0    0 -0.37984257623E+02  0.10522848829E+02  0.99815454341E+01  0.50528862972E+02  0.30000009489E+02 0.  0.
         12    1    1    2    0    0  0.37984257623E+02 -0.10522848829E+02 -0.99815454341E+01  0.40659137028E+02  0.00000000000E+00 0. -1.
         11    1    3    3    0    0  0.30371669956E+01 -0.79716810736E+00  0.68921173295E+01  0.75737138773E+01  0.51100000000E-03 0. -1.
        -11    1    3    3    0    0 -0.14546295614E+02  0.26108392874E+01  0.30204996911E+01  0.15084250611E+02  0.51100000000E-03 0.  1.
        -12    1    3    3    0    0 -0.26475129004E+02  0.87091776490E+01  0.68928413450E-01  0.27870898483E+02  0.00000000000E+00 0.  1.
</event>
<event>
 7    1  0.5456331E-013  0.5052886E+02  0.7816164E-02  0.1300439E+00
        -11   -1    0    0    0    0  0.00000000000E+00  0.00000000000E+00  0.45593999997E+02  0.45594000000E+02  0.51100000000E-03 0. -1.
         11   -1    0    0    0    0 -0.00000000000E+00 -0.00000000000E+00 -0.45593999997E+02  0.45594000000E+02  0.51100000000E-03 0.  1.
    9900012    2    1    2    0    0  0.40323176604E+02  0.31147247994E+01 -0.41839586439E+01  0.50528860905E+02  0.30000003206E+02 0.  0.
         12    1    1    2    0    0 -0.40323176604E+02 -0.31147247994E+01  0.41839586439E+01  0.40659139095E+02  0.00000000000E+00 0. -1.
         11    1    3    3    0    0  0.29740986889E+01  0.36837928940E+00  0.70767583919E+01  0.76851464469E+01  0.51100000000E-03 0. -1.
        -11    1    3    3    0    0  0.12069986095E+01  0.49348530586E+01 -0.71088784181E+00  0.51298130705E+01  0.51100000000E-03 0.  1.
         12    1    3    3    0    0  0.36142079306E+02 -0.21885075486E+01 -0.10549829194E+02  0.37713901387E+02  0.00000000000E+00 0. -1.
</event>
<event>
 7    1  0.5456331E-013  0.5052897E+02  0.7816164E-02  0.1300438E+00
        -11   -1    0    0    0    0  0.00000000000E+00  0.00000000000E+00  0.45593999997E+02  0.45594000000E+02  0.51100000000E-03 0.  1.
         11   -1    0    0    0    0 -0.00000000000E+00 -0.00000000000E+00 -0.45593999997E+02  0.45594000000E+02  0.51100000000E-03 0. -1.
    9900012    2    1    2    0    0  0.30405722803E+02 -0.22727968842E+02  0.14563240651E+02  0.50528972404E+02  0.30000342116E+02 0.  0.
         12    1    1    2    0    0 -0.30405722803E+02  0.22727968842E+02 -0.14563240651E+02  0.40659027596E+02  0.00000000000E+00 0. -1.
         11    1    3    3    0    0  0.61334233724E+01  0.41026388047E+01  0.55316343563E+01  0.92222289247E+01  0.51100000000E-03 0. -1.
        -11    1    3    3    0    0  0.20884231680E+02 -0.11309386415E+02  0.90622093411E+01  0.25420011652E+02  0.51100000000E-03 0.  1.
        -12    1    3    3    0    0  0.33880677497E+01 -0.15521221232E+02 -0.30603046712E-01  0.15886731827E+02  0.00000000000E+00 0.  1.
</event>
<event>
 7    1  0.5456331E-013  0.5052887E+02  0.7816164E-02  0.1300439E+00
        -11   -1    0    0    0    0  0.00000000000E+00  0.00000000000E+00  0.45593999997E+02  0.45594000000E+02  0.51100000000E-03 0.  1.
         11   -1    0    0    0    0 -0.00000000000E+00 -0.00000000000E+00 -0.45593999997E+02  0.45594000000E+02  0.51100000000E-03 0. -1.
    9900012    2    1    2    0    0 -0.17268374882E+02  0.20229401071E+02  0.30752880208E+02  0.50528867203E+02  0.30000022349E+02 0.  0.
         12    1    1    2    0    0  0.17268374882E+02 -0.20229401071E+02 -0.30752880208E+02  0.40659132797E+02  0.00000000000E+00 0. -1.
         11    1    3    3    0    0 -0.21671181270E+01  0.21268571681E+01 -0.12028447180E+01  0.32660003163E+01  0.51100000000E-03 0. -1.
        -11    1    3    3    0    0  0.49709001703E+01  0.37959714448E+01 -0.76031578160E+00  0.63005815654E+01  0.51100000000E-03 0.  1.
        -12    1    3    3    0    0 -0.20072156925E+02  0.14306572458E+02  0.32716040707E+02  0.40962285321E+02  0.00000000000E+00 0.  1.
</event>
<event>
 7    1  0.5456331E-013  0.5052886E+02  0.7816164E-02  0.1300439E+00
        -11   -1    0    0    0    0  0.00000000000E+00  0.00000000000E+00  0.45593999997E+02  0.45594000000E+02  0.51100000000E-03 0.  1.
         11   -1    0    0    0    0 -0.00000000000E+00 -0.00000000000E+00 -0.45593999997E+02  0.45594000000E+02  0.51100000000E-03 0. -1.
    9900012    2    1    2    0    0 -0.53914408831E+01  0.28844182086E+01  0.40196743740E+02  0.50528859447E+02  0.29999998775E+02 0.  0.
         12    1    1    2    0    0  0.53914408831E+01 -0.28844182086E+01 -0.40196743740E+02  0.40659140553E+02  0.00000000000E+00 0. -1.
         11    1    3    3    0    0 -0.24370649026E+01 -0.71358742419E+01  0.50450997523E+01  0.90726522202E+01  0.51100000000E-03 0. -1.
        -11    1    3    3    0    0  0.24014937168E+00 -0.11784182623E+01  0.27490341202E+02  0.27516634987E+02  0.51100000000E-03 0.  1.
        -12    1    3    3    0    0 -0.31945253521E+01  0.11198710713E+02  0.76613027855E+01  0.13939572240E+02  0.00000000000E+00 0.  1.
</event>
<event>
 7    1  0.5456331E-013  0.5052888E+02  0.7816164E-02  0.1300439E+00
        -11   -1    0    0    0    0  0.00000000000E+00  0.00000000000E+00  0.45593999997E+02  0.45594000000E+02  0.51100000000E-03 0.  1.
         11   -1    0    0    0    0 -0.00000000000E+00 -0.00000000000E+00 -0.45593999997E+02  0.45594000000E+02  0.51100000000E-03 0. -1.
    9900012    2    1    2    0    0  0.23754748361E+01  0.17956805995E+02  0.36401570699E+02  0.50528879109E+02  0.30000058541E+02 0.  0.
         12    1    1    2    0    0 -0.23754748361E+01 -0.17956805995E+02 -0.36401570699E+02  0.40659120891E+02  0.00000000000E+00 0. -1.
         11    1    3    3    0    0 -0.60116167817E+00  0.11233457010E+02  0.14435866278E+01  0.11341776508E+02  0.51100000000E-03 0. -1.
        -11    1    3    3    0    0 -0.61570878771E+01 -0.28538417815E+00  0.11099120967E+02  0.12695733998E+02  0.51100000000E-03 0.  1.
        -12    1    3    3    0    0  0.91337243914E+01  0.70087331632E+01  0.23858863104E+02  0.26491368603E+02  0.00000000000E+00 0.  1.
</event>
<event>
 7    1  0.5456331E-013  0.5052886E+02  0.7816164E-02  0.1300439E+00
        -11   -1    0    0    0    0  0.00000000000E+00  0.00000000000E+00  0.45593999997E+02  0.45594000000E+02  0.51100000000E-03 0.  1.
         11   -1    0    0    0    0 -0.00000000000E+00 -0.00000000000E+00 -0.45593999997E+02  0.45594000000E+02  0.51100000000E-03 0. -1.
    9900012    2    1    2    0    0 -0.35716313661E+01 -0.29122020368E+02  0.28148119731E+02  0.50528864921E+02  0.30000015415E+02 0.  0.
         12    1    1    2    0    0  0.35716313661E+01  0.29122020368E+02 -0.28148119731E+02  0.40659135079E+02  0.00000000000E+00 0. -1.
         11    1    3    3    0    0  0.64645136670E+01 -0.62882585989E+01 -0.54233661521E+00  0.90347253651E+01  0.51100000000E-03 0. -1.
        -11    1    3    3    0    0 -0.39440034886E+01 -0.21652514228E+01  0.15703614473E+02  0.16335451785E+02  0.51100000000E-03 0.  1.
         12    1    3    3    0    0 -0.60921415444E+01 -0.20668510346E+02  0.12986841874E+02  0.25158687772E+02  0.00000000000E+00 0. -1.
</event>
<event>
 7    1  0.5456331E-013  0.5052886E+02  0.7816164E-02  0.1300439E+00
        -11   -1    0    0    0    0  0.00000000000E+00  0.00000000000E+00  0.45593999997E+02  0.45594000000E+02  0.51100000000E-03 0.  1.
         11   -1    0    0    0    0 -0.00000000000E+00 -0.00000000000E+00 -0.45593999997E+02  0.45594000000E+02  0.51100000000E-03 0. -1.
    9900012    2    1    2    0    0  0.26440735661E+00  0.33322591090E+02  0.23295935974E+02  0.50528860546E+02  0.30000002115E+02 0.  0.
         12    1    1    2    0    0 -0.26440735661E+00 -0.33322591090E+02 -0.23295935974E+02  0.40659139454E+02  0.00000000000E+00 0. -1.
         11    1    3    3    0    0 -0.89822572704E+01  0.14353115158E+02  0.30253190600E+01  0.17200157444E+02  0.51100000000E-03 0. -1.
        -11    1    3    3    0    0  0.13271255275E+01  0.13889675518E+02  0.39685183332E+01  0.14506325730E+02  0.51100000000E-03 0.  1.
        -12    1    3    3    0    0  0.79195390995E+01  0.50798004144E+01  0.16302098581E+02  0.18822377372E+02  0.00000000000E+00 0.  1.
</event>
<event>
 7    1  0.5456331E-013  0.5052883E+02  0.7816164E-02  0.1300439E+00
        -11   -1    0    0    0    0  0.00000000000E+00  0.00000000000E+00  0.45593999997E+02  0.45594000000E+02  0.51100000000E-03 0. -1.
         11   -1    0    0    0    0 -0.00000000000E+00 -0.00000000000E+00 -0.45593999997E+02  0.45594000000E+02  0.51100000000E-03 0.  1.
    9900012    2    1    2    0    0  0.25657608921E+02 -0.29333004662E+02 -0.11594387451E+02  0.50528832788E+02  0.29999917741E+02 0.  0.
         12    1    1    2    0    0 -0.25657608921E+02  0.29333004662E+02  0.11594387451E+02  0.40659167212E+02  0.00000000000E+00 0. -1.
         11    1    3    3    0    0  0.22504543853E+01 -0.74276019166E+01 -0.99860851771E+01  0.12647359906E+02  0.51100000000E-03 0. -1.
        -11    1    3    3    0    0  0.86528689725E+01 -0.11218889395E+02 -0.10475527711E+02  0.17620224227E+02  0.51100000000E-03 0.  1.
         12    1    3    3    0    0  0.14754285564E+02 -0.10686513350E+02  0.88672254378E+01  0.20261248654E+02  0.00000000000E+00 0. -1.
</event>
<event>
 7    1  0.5456331E-013  0.5052886E+02  0.7816164E-02  0.1300439E+00
        -11   -1    0    0    0    0  0.00000000000E+00  0.00000000000E+00  0.45593999997E+02  0.45594000000E+02  0.51100000000E-03 0.  1.
         11   -1    0    0    0    0 -0.00000000000E+00 -0.00000000000E+00 -0.45593999997E+02  0.45594000000E+02  0.51100000000E-03 0. -1.
    9900012    2    1    2    0    0 -0.82467281050E+01  0.39731912306E+02  0.25558207087E+01  0.50528860814E+02  0.30000002929E+02 0.  0.
         12    1    1    2    0    0  0.82467281050E+01 -0.39731912306E+02 -0.25558207087E+01  0.40659139186E+02  0.00000000000E+00 0. -1.
         11    1    3    3    0    0 -0.14049612917E+02  0.19795907484E+02  0.17229878112E+01  0.24335945913E+02  0.51100000000E-03 0. -1.
        -11    1    3    3    0    0 -0.23601517837E+01  0.14913397568E+02  0.47652441107E+01  0.15833107565E+02  0.51100000000E-03 0.  1.
         12    1    3    3    0    0  0.81630365956E+01  0.50226072540E+01 -0.39324112132E+01  0.10359807336E+02  0.00000000000E+00 0. -1.
</event>
<event>
 7    1  0.5456331E-013  0.5052892E+02  0.7816164E-02  0.1300439E+00
        -11   -1    0    0    0    0  0.00000000000E+00  0.00000000000E+00  0.45593999997E+02  0.45594000000E+02  0.51100000000E-03 0. -1.
         11   -1    0    0    0    0 -0.00000000000E+00 -0.00000000000E+00 -0.45593999997E+02  0.45594000000E+02  0.51100000000E-03 0.  1.
    9900012    2    1    2    0    0 -0.21227388270E+01 -0.25634330980E+02  0.31488660628E+02  0.50528921148E+02  0.30000186321E+02 0.  0.
         12    1    1    2    0    0  0.21227388270E+01  0.25634330980E+02 -0.31488660628E+02  0.40659078852E+02  0.00000000000E+00 0. -1.
         11    1    3    3    0    0 -0.66210071391E+01 -0.48824754250E+01  0.19301685121E+02  0.20981690842E+02  0.51100000000E-03 0. -1.
        -11    1    3    3    0    0  0.81632155026E+01 -0.33385247436E+01  0.20022167080E+01  0.90439320437E+01  0.51100000000E-03 0.  1.
        -12    1    3    3    0    0 -0.36649471905E+01 -0.17413330811E+02  0.10184758800E+02  0.20503298263E+02  0.00000000000E+00 0.  1.
</event>
<event>
 7    1  0.5456331E-013  0.5052884E+02  0.7816164E-02  0.1300439E+00
        -11   -1    0    0    0    0  0.00000000000E+00  0.00000000000E+00  0.45593999997E+02  0.45594000000E+02  0.51100000000E-03 0. -1.
         11   -1    0    0    0    0 -0.00000000000E+00 -0.00000000000E+00 -0.45593999997E+02  0.45594000000E+02  0.51100000000E-03 0.  1.
    9900012    2    1    2    0    0 -0.18067979915E+02 -0.33591677162E+02 -0.14082417620E+02  0.50528841636E+02  0.29999944638E+02 0.  0.
         12    1    1    2    0    0  0.18067979915E+02  0.33591677162E+02  0.14082417620E+02  0.40659158364E+02  0.00000000000E+00 0. -1.
         11    1    3    3    0    0 -0.11149419406E+02 -0.12320511945E+02 -0.95723978333E+00  0.16643944122E+02  0.51100000000E-03 0. -1.
        -11    1    3    3    0    0 -0.14458717396E+02 -0.15157275302E+02 -0.11923871225E+02  0.24103448064E+02  0.51100000000E-03 0.  1.
        -12    1    3    3    0    0  0.75401568867E+01 -0.61138899159E+01 -0.12013066118E+01  0.97814494506E+01  0.00000000000E+00 0.  1.
</event>
<event>
 7    1  0.5456331E-013  0.5052886E+02  0.7816164E-02  0.1300439E+00
        -11   -1    0    0    0    0  0.00000000000E+00  0.00000000000E+00  0.45593999997E+02  0.45594000000E+02  0.51100000000E-03 0.  1.
         11   -1    0    0    0    0 -0.00000000000E+00 -0.00000000000E+00 -0.45593999997E+02  0.45594000000E+02  0.51100000000E-03 0. -1.
    9900012    2    1    2    0    0 -0.28976507851E+02 -0.18751350467E+01  0.28460701016E+02  0.50528860301E+02  0.30000001372E+02 0.  0.
         12    1    1    2    0    0  0.28976507851E+02  0.18751350467E+01 -0.28460701016E+02  0.40659139699E+02  0.00000000000E+00 0. -1.
         11    1    3    3    0    0  0.33457059458E+01 -0.17289894981E+01  0.53049505122E+01  0.65058168710E+01  0.51100000000E-03 0. -1.
        -11    1    3    3    0    0 -0.54532478887E+01 -0.63565645339E+01  0.11151365790E+02  0.13946210397E+02  0.51100000000E-03 0.  1.
         12    1    3    3    0    0 -0.26868965908E+02  0.62104189853E+01  0.12004384715E+02  0.30076833033E+02  0.00000000000E+00 0. -1.
</event>
<event>
 7    1  0.5456331E-013  0.5052885E+02  0.7816164E-02  0.1300439E+00
        -11   -1    0    0    0    0  0.00000000000E+00  0.00000000000E+00  0.45593999997E+02  0.45594000000E+02  0.51100000000E-03 0.  1.
         11   -1    0    0    0    0 -0.00000000000E+00 -0.00000000000E+00 -0.45593999997E+02  0.45594000000E+02  0.51100000000E-03 0. -1.
    9900012    2    1    2    0    0  0.79636894565E+01  0.10447118571E+02  0.38478614899E+02  0.50528850467E+02  0.29999971478E+02 0.  0.
         12    1    1    2    0    0 -0.79636894565E+01 -0.10447118571E+02 -0.38478614899E+02  0.40659149533E+02  0.00000000000E+00 0. -1.
         11    1    3    3    0    0  0.21303210557E+00 -0.21376056026E+01 -0.20861204367E+01  0.29944346925E+01  0.51100000000E-03 0. -1.
        -11    1    3    3    0    0 -0.46727297123E+01 -0.40699600445E+00  0.22282207109E+01  0.51927850436E+01  0.51100000000E-03 0.  1.
        -12    1    3    3    0    0  0.12423387063E+02  0.12991720178E+02  0.38336514625E+02  0.42341630731E+02  0.00000000000E+00 0.  1.
</event>
<event>
 7    1  0.5456331E-013  0.5052888E+02  0.7816164E-02  0.1300439E+00
        -11   -1    0    0    0    0  0.00000000000E+00  0.00000000000E+00  0.45593999997E+02  0.45594000000E+02  0.51100000000E-03 0.  1.
         11   -1    0    0    0    0 -0.00000000000E+00 -0.00000000000E+00 -0.45593999997E+02  0.45594000000E+02  0.51100000000E-03 0. -1.
    9900012    2    1    2    0    0  0.39022282867E+02 -0.17443715735E+01 -0.11286402881E+02  0.50528877010E+02  0.30000052158E+02 0.  0.
         12    1    1    2    0    0 -0.39022282867E+02  0.17443715735E+01  0.11286402881E+02  0.40659122990E+02  0.00000000000E+00 0. -1.
         11    1    3    3    0    0  0.80392229733E+01 -0.86400835401E+00  0.24538311500E+01  0.84496688707E+01  0.51100000000E-03 0. -1.
        -11    1    3    3    0    0  0.26697383711E+02  0.43975054728E+01 -0.34721534506E+00  0.27059359012E+02  0.51100000000E-03 0.  1.
         12    1    3    3    0    0  0.42856761832E+01 -0.52778686923E+01 -0.13393018686E+02  0.15019849127E+02  0.00000000000E+00 0. -1.
</event>
<event>
 7    1  0.5456331E-013  0.5052887E+02  0.7816164E-02  0.1300439E+00
        -11   -1    0    0    0    0  0.00000000000E+00  0.00000000000E+00  0.45593999997E+02  0.45594000000E+02  0.51100000000E-03 0. -1.
         11   -1    0    0    0    0 -0.00000000000E+00 -0.00000000000E+00 -0.45593999997E+02  0.45594000000E+02  0.51100000000E-03 0.  1.
    9900012    2    1    2    0    0  0.24747963948E+02  0.29416198854E+02 -0.13243492179E+02  0.50528873599E+02  0.30000041791E+02 0.  0.
         12    1    1    2    0    0 -0.24747963948E+02 -0.29416198854E+02  0.13243492179E+02  0.40659126401E+02  0.00000000000E+00 0. -1.
         11    1    3    3    0    0  0.78330368676E+01  0.18256398418E+02  0.30267776649E+01  0.20095122121E+02  0.51100000000E-03 0. -1.
        -11    1    3    3    0    0  0.69871897458E+01  0.90779786749E+01 -0.23323144713E+00  0.11457962931E+02  0.51100000000E-03 0.  1.
        -12    1    3    3    0    0  0.99277373348E+01  0.20818217620E+01 -0.16037038397E+02  0.18975788547E+02  0.00000000000E+00 0.  1.
</event>
<event>
 7    1  0.5456331E-013  0.5052884E+02  0.7816164E-02  0.1300439E+00
        -11   -1    0    0    0    0  0.00000000000E+00  0.00000000000E+00  0.45593999997E+02  0.45594000000E+02  0.51100000000E-03 0.  1.
         11   -1    0    0    0    0 -0.00000000000E+00 -0.00000000000E+00 -0.45593999997E+02  0.45594000000E+02  0.51100000000E-03 0. -1.
    9900012    2    1    2    0    0 -0.37505026027E+02 -0.10280573132E+02  0.11868025392E+02  0.50528841279E+02  0.29999943552E+02 0.  0.
         12    1    1    2    0    0  0.37505026027E+02  0.10280573132E+02 -0.11868025392E+02  0.40659158721E+02  0.00000000000E+00 0. -1.
         11    1    3    3    0    0 -0.21328639342E+02  0.44951044440E+01  0.62165891653E+01  0.22666336300E+02  0.51100000000E-03 0. -1.
        -11    1    3    3    0    0 -0.18668938764E+02 -0.12111728201E+02  0.78564170834E+01  0.23599714495E+02  0.51100000000E-03 0.  1.
         12    1    3    3    0    0  0.24925520792E+01 -0.26639493750E+01 -0.22049808565E+01  0.42627904848E+01  0.00000000000E+00 0. -1.
</event>
<event>
 7    1  0.5456331E-013  0.5052885E+02  0.7816164E-02  0.1300439E+00
        -11   -1    0    0    0    0  0.00000000000E+00  0.00000000000E+00  0.45593999997E+02  0.45594000000E+02  0.51100000000E-03 0. -1.
         11   -1    0    0    0    0 -0.00000000000E+00 -0.00000000000E+00 -0.45593999997E+02  0.45594000000E+02  0.51100000000E-03 0.  1.
    9900012    2    1    2    0    0  0.39562943523E+02  0.78547282696E+01  0.51228268124E+01  0.50528848374E+02  0.29999965119E+02 0.  0.
         12    1    1    2    0    0 -0.39562943523E+02 -0.78547282696E+01 -0.51228268124E+01  0.40659151626E+02  0.00000000000E+00 0. -1.
         11    1    3    3    0    0  0.21250305977E+01  0.47048934448E+01 -0.65989092510E+01  0.83783877286E+01  0.51100000000E-03 0. -1.
        -11    1    3    3    0    0  0.26057939275E+01 -0.38278318281E+01 -0.31807014092E+00  0.46415113241E+01  0.51100000000E-03 0.  1.
         12    1    3    3    0    0  0.34832118998E+02  0.69776666529E+01  0.12039806204E+02  0.37508949322E+02  0.00000000000E+00 0. -1.
</event>
<event>
 7    1  0.5456331E-013  0.5052886E+02  0.7816164E-02  0.1300439E+00
        -11   -1    0    0    0    0  0.00000000000E+00  0.00000000000E+00  0.45593999997E+02  0.45594000000E+02  0.51100000000E-03 0. -1.
         11   -1    0    0    0    0 -0.00000000000E+00 -0.00000000000E+00 -0.45593999997E+02  0.45594000000E+02  0.51100000000E-03 0.  1.
    9900012    2    1    2    0    0 -0.58599182111E+01  0.37557173708E+02 -0.14432108921E+02  0.50528859499E+02  0.29999998932E+02 0.  0.
         12    1    1    2    0    0  0.58599182111E+01 -0.37557173708E+02  0.14432108921E+02  0.40659140501E+02  0.00000000000E+00 0. -1.
         11    1    3    3    0    0 -0.13466686462E+02  0.17723395363E+02 -0.35816677426E+01  0.22545481399E+02  0.51100000000E-03 0. -1.
        -11    1    3    3    0    0 -0.32224394329E+01  0.34688552417E+01 -0.62269792777E+01  0.78225535327E+01  0.51100000000E-03 0.  1.
        -12    1    3    3    0    0  0.10829207684E+02  0.16364923104E+02 -0.46234619011E+01  0.20160824567E+02  0.00000000000E+00 0.  1.
</event>
<event>
 7    1  0.5456331E-013  0.5052887E+02  0.7816164E-02  0.1300439E+00
        -11   -1    0    0    0    0  0.00000000000E+00  0.00000000000E+00  0.45593999997E+02  0.45594000000E+02  0.51100000000E-03 0.  1.
         11   -1    0    0    0    0 -0.00000000000E+00 -0.00000000000E+00 -0.45593999997E+02  0.45594000000E+02  0.51100000000E-03 0. -1.
    9900012    2    1    2    0    0 -0.24570585236E+02  0.28533724539E+02  0.15338778159E+02  0.50528865598E+02  0.30000017472E+02 0.  0.
         12    1    1    2    0    0  0.24570585236E+02 -0.28533724539E+02 -0.15338778159E+02  0.40659134402E+02  0.00000000000E+00 0. -1.
         11    1    3    3    0    0  0.16889261977E+01 -0.14294863007E+01  0.58807211100E+01  0.62832144496E+01  0.51100000000E-03 0. -1.
        -11    1    3    3    0    0  0.21410882268E+01  0.45634878017E+01  0.24957546646E+00  0.50469761130E+01  0.51100000000E-03 0.  1.
        -12    1    3    3    0    0 -0.28400599661E+02  0.25399723038E+02  0.92084815825E+01  0.39198675035E+02  0.00000000000E+00 0.  1.
</event>
<event>
 7    1  0.5456331E-013  0.5052886E+02  0.7816164E-02  0.1300439E+00
        -11   -1    0    0    0    0  0.00000000000E+00  0.00000000000E+00  0.45593999997E+02  0.45594000000E+02  0.51100000000E-03 0.  1.
         11   -1    0    0    0    0 -0.00000000000E+00 -0.00000000000E+00 -0.45593999997E+02  0.45594000000E+02  0.51100000000E-03 0. -1.
    9900012    2    1    2    0    0  0.81943971960E+01 -0.27361382264E+02  0.28937382207E+02  0.50528862358E+02  0.30000007622E+02 0.  0.
         12    1    1    2    0    0 -0.81943971960E+01  0.27361382264E+02 -0.28937382207E+02  0.40659137642E+02  0.00000000000E+00 0. -1.
         11    1    3    3    0    0  0.10534130173E+02 -0.23523079844E+02  0.23760912582E+02  0.35055443954E+02  0.51100000000E-03 0. -1.
        -11    1    3    3    0    0 -0.38274413328E+01 -0.73900112631E+01  0.73049856639E+01  0.11073589727E+02  0.51100000000E-03 0.  1.
        -12    1    3    3    0    0  0.14877083556E+01  0.35517088426E+01 -0.21285160389E+01  0.43998286764E+01  0.00000000000E+00 0.  1.
</event>
<event>
 7    1  0.5456331E-013  0.5052886E+02  0.7816164E-02  0.1300439E+00
        -11   -1    0    0    0    0  0.00000000000E+00  0.00000000000E+00  0.45593999997E+02  0.45594000000E+02  0.51100000000E-03 0.  1.
         11   -1    0    0    0    0 -0.00000000000E+00 -0.00000000000E+00 -0.45593999997E+02  0.45594000000E+02  0.51100000000E-03 0. -1.
    9900012    2    1    2    0    0  0.22864643553E+01  0.38916480529E+02  0.11551848257E+02  0.50528861124E+02  0.30000003873E+02 0.  0.
         12    1    1    2    0    0 -0.22864643553E+01 -0.38916480529E+02 -0.11551848257E+02  0.40659138876E+02  0.00000000000E+00 0. -1.
         11    1    3    3    0    0  0.23675770125E+01  0.38990470802E+01 -0.72482501506E+01  0.85641765249E+01  0.51100000000E-03 0. -1.
        -11    1    3    3    0    0  0.34897113442E+01  0.58618649875E+01 -0.46395380935E+00  0.68377481524E+01  0.51100000000E-03 0.  1.
         12    1    3    3    0    0 -0.35708240013E+01  0.29155568461E+02  0.19264052217E+02  0.35126936447E+02  0.00000000000E+00 0. -1.
</event>
<event>
 7    1  0.5456331E-013  0.5052888E+02  0.7816164E-02  0.1300439E+00
        -11   -1    0    0    0    0  0.00000000000E+00  0.00000000000E+00  0.45593999997E+02  0.45594000000E+02  0.51100000000E-03 0.  1.
         11   -1    0    0    0    0 -0.00000000000E+00 -0.00000000000E+00 -0.45593999997E+02  0.45594000000E+02  0.51100000000E-03 0. -1.
    9900012    2    1    2    0    0 -0.33519256602E+02 -0.22733111785E+02 -0.35818256670E+01  0.50528875443E+02  0.30000047397E+02 0.  0.
         12    1    1    2    0    0  0.33519256602E+02  0.22733111785E+02  0.35818256670E+01  0.40659124557E+02  0.00000000000E+00 0. -1.
         11    1    3    3    0    0 -0.37523106004E+02 -0.19551211456E+02  0.14202805831E+01  0.42334980226E+02  0.51100000000E-03 0.  1.
        -11    1    3    3    0    0  0.17056668574E+01 -0.34713717675E+01 -0.42774936965E+01  0.57668599741E+01  0.51100000000E-03 0. -1.
        -12    1    3    3    0    0  0.22981825437E+01  0.28947143839E+00 -0.72461255361E+00  0.24270352430E+01  0.00000000000E+00 0.  1.
</event>
<event>
 7    1  0.5456331E-013  0.5052886E+02  0.7816164E-02  0.1300439E+00
        -11   -1    0    0    0    0  0.00000000000E+00  0.00000000000E+00  0.45593999997E+02  0.45594000000E+02  0.51100000000E-03 0. -1.
         11   -1    0    0    0    0 -0.00000000000E+00 -0.00000000000E+00 -0.45593999997E+02  0.45594000000E+02  0.51100000000E-03 0.  1.
    9900012    2    1    2    0    0 -0.38444563632E+02 -0.92953230584E+01 -0.94222062974E+01  0.50528862341E+02  0.30000007572E+02 0.  0.
         12    1    1    2    0    0  0.38444563632E+02  0.92953230584E+01  0.94222062974E+01  0.40659137659E+02  0.00000000000E+00 0. -1.
         11    1    3    3    0    0 -0.87992190152E+01 -0.44981400055E+01 -0.13344870843E+02  0.16605574271E+02  0.51100000000E-03 0.  1.
        -11    1    3    3    0    0 -0.81965506167E+01  0.49380117014E+01 -0.16700330104E+01  0.97137228750E+01  0.51100000000E-03 0. -1.
        -12    1    3    3    0    0 -0.21448794000E+02 -0.97351947543E+01  0.55926975564E+01  0.24209565195E+02  0.00000000000E+00 0.  1.
</event>
<event>
 7    1  0.5456331E-013  0.5052886E+02  0.7816164E-02  0.1300439E+00
        -11   -1    0    0    0    0  0.00000000000E+00  0.00000000000E+00  0.45593999997E+02  0.45594000000E+02  0.51100000000E-03 0. -1.
         11   -1    0    0    0    0 -0.00000000000E+00 -0.00000000000E+00 -0.45593999997E+02  0.45594000000E+02  0.51100000000E-03 0.  1.
    9900012    2    1    2    0    0  0.64692491765E+01 -0.40015695394E+02  0.31715176843E+01  0.50528860963E+02  0.30000003384E+02 0.  0.
         12    1    1    2    0    0 -0.64692491765E+01  0.40015695394E+02 -0.31715176843E+01  0.40659139037E+02  0.00000000000E+00 0. -1.
         11    1    3    3    0    0 -0.79202247971E+00 -0.58864672911E+01  0.87106581187E+00  0.60030452845E+01  0.51100000000E-03 0. -1.
        -11    1    3    3    0    0 -0.76974159499E+01 -0.80868596854E+01 -0.68886170489E+01  0.13118710188E+02  0.51100000000E-03 0.  1.
         12    1    3    3    0    0  0.14958687606E+02 -0.26042368418E+02  0.91890689213E+01  0.31407105491E+02  0.00000000000E+00 0. -1.
</event>
<event>
 7    1  0.5456331E-013  0.5052885E+02  0.7816164E-02  0.1300439E+00
        -11   -1    0    0    0    0  0.00000000000E+00  0.00000000000E+00  0.45593999997E+02  0.45594000000E+02  0.51100000000E-03 0. -1.
         11   -1    0    0    0    0 -0.00000000000E+00 -0.00000000000E+00 -0.45593999997E+02  0.45594000000E+02  0.51100000000E-03 0.  1.
    9900012    2    1    2    0    0  0.19802150842E+02 -0.25496764133E+02 -0.24717531671E+02  0.50528849356E+02  0.29999968102E+02 0.  0.
         12    1    1    2    0    0 -0.19802150842E+02  0.25496764133E+02  0.24717531671E+02  0.40659150644E+02  0.00000000000E+00 0. -1.
         11    1    3    3    0    0  0.11325019253E+01  0.22945727043E+01 -0.13787417060E+00  0.25625444492E+01  0.51100000000E-03 0. -1.
        -11    1    3    3    0    0  0.79825098495E+01  0.24386549442E+01 -0.15502169075E+01  0.84894448673E+01  0.51100000000E-03 0.  1.
        -12    1    3    3    0    0  0.10687139067E+02 -0.30229991782E+02 -0.23029440593E+02  0.39476860039E+02  0.00000000000E+00 0.  1.
</event>
<event>
 7    1  0.5456331E-013  0.5052886E+02  0.7816164E-02  0.1300439E+00
        -11   -1    0    0    0    0  0.00000000000E+00  0.00000000000E+00  0.45593999997E+02  0.45594000000E+02  0.51100000000E-03 0.  1.
         11   -1    0    0    0    0 -0.00000000000E+00 -0.00000000000E+00 -0.45593999997E+02  0.45594000000E+02  0.51100000000E-03 0. -1.
    9900012    2    1    2    0    0 -0.18616346278E+02 -0.33292539665E+02  0.14078509984E+02  0.50528856017E+02  0.29999988348E+02 0.  0.
         12    1    1    2    0    0  0.18616346278E+02  0.33292539665E+02 -0.14078509984E+02  0.40659143983E+02  0.00000000000E+00 0. -1.
         11    1    3    3    0    0 -0.23319897474E+01 -0.14158729196E+02 -0.33099600202E+01  0.14726290239E+02  0.51100000000E-03 0. -1.
        -11    1    3    3    0    0 -0.80273100041E+01 -0.20969286663E+02  0.15036581380E+02  0.27023091402E+02  0.51100000000E-03 0.  1.
        -12    1    3    3    0    0 -0.82570465268E+01  0.18354761944E+01  0.23518886249E+01  0.87794743754E+01  0.00000000000E+00 0.  1.
</event>
<event>
 7    1  0.5456331E-013  0.5052886E+02  0.7816164E-02  0.1300439E+00
        -11   -1    0    0    0    0  0.00000000000E+00  0.00000000000E+00  0.45593999997E+02  0.45594000000E+02  0.51100000000E-03 0.  1.
         11   -1    0    0    0    0 -0.00000000000E+00 -0.00000000000E+00 -0.45593999997E+02  0.45594000000E+02  0.51100000000E-03 0. -1.
    9900012    2    1    2    0    0 -0.67705356704E+01  0.12573442839E+02  0.38068804470E+02  0.50528862136E+02  0.30000006948E+02 0.  0.
         12    1    1    2    0    0  0.67705356704E+01 -0.12573442839E+02 -0.38068804470E+02  0.40659137864E+02  0.00000000000E+00 0. -1.
         11    1    3    3    0    0 -0.91506771669E+01  0.60023430527E+01  0.11724545856E+02  0.16038328795E+02  0.51100000000E-03 0. -1.
        -11    1    3    3    0    0  0.12651244942E+01 -0.62705315084E+01  0.18081321398E+02  0.19179527866E+02  0.51100000000E-03 0.  1.
         12    1    3    3    0    0  0.11150170024E+01  0.12841631295E+02  0.82629372150E+01  0.15311005475E+02  0.00000000000E+00 0. -1.
</event>
<event>
 7    1  0.5456331E-013  0.5052886E+02  0.7816164E-02  0.1300439E+00
        -11   -1    0    0    0    0  0.00000000000E+00  0.00000000000E+00  0.45593999997E+02  0.45594000000E+02  0.51100000000E-03 0. -1.
         11   -1    0    0    0    0 -0.00000000000E+00 -0.00000000000E+00 -0.45593999997E+02  0.45594000000E+02  0.51100000000E-03 0.  1.
    9900012    2    1    2    0    0 -0.31598911433E+02 -0.13854149933E+02 -0.21511330295E+02  0.50528855823E+02  0.29999987760E+02 0.  0.
         12    1    1    2    0    0  0.31598911433E+02  0.13854149933E+02  0.21511330295E+02  0.40659144177E+02  0.00000000000E+00 0. -1.
         11    1    3    3    0    0  0.34031671499E+01 -0.40230772700E+01 -0.16619528001E+01  0.55252859420E+01  0.51100000000E-03 0. -1.
        -11    1    3    3    0    0 -0.92245894658E+01  0.50621348164E+01 -0.65750835508E+01  0.12407658267E+02  0.51100000000E-03 0.  1.
        -12    1    3    3    0    0 -0.25777489117E+02 -0.14893207480E+02 -0.13274293944E+02  0.32595911614E+02  0.00000000000E+00 0.  1.
</event>
<event>
 7    1  0.5456331E-013  0.5052886E+02  0.7816164E-02  0.1300439E+00
        -11   -1    0    0    0    0  0.00000000000E+00  0.00000000000E+00  0.45593999997E+02  0.45594000000E+02  0.51100000000E-03 0.  1.
         11   -1    0    0    0    0 -0.00000000000E+00 -0.00000000000E+00 -0.45593999997E+02  0.45594000000E+02  0.51100000000E-03 0. -1.
    9900012    2    1    2    0    0  0.39066788328E+01 -0.91354028578E+01  0.39426491685E+02  0.50528856238E+02  0.29999989020E+02 0.  0.
         12    1    1    2    0    0 -0.39066788328E+01  0.91354028578E+01 -0.39426491685E+02  0.40659143762E+02  0.00000000000E+00 0. -1.
         11    1    3    3    0    0  0.18725118988E+01 -0.49393040498E+01  0.54785757721E+01  0.76103756845E+01  0.51100000000E-03 0. -1.
        -11    1    3    3    0    0 -0.11922957826E+02 -0.16899041980E+01  0.14466019555E+02  0.18822285237E+02  0.51100000000E-03 0.  1.
         12    1    3    3    0    0  0.13957124760E+02 -0.25061946100E+01  0.19481896359E+02  0.24096195316E+02  0.00000000000E+00 0. -1.
</event>
<event>
 7    1  0.5456331E-013  0.5052886E+02  0.7816164E-02  0.1300439E+00
        -11   -1    0    0    0    0  0.00000000000E+00  0.00000000000E+00  0.45593999997E+02  0.45594000000E+02  0.51100000000E-03 0. -1.
         11   -1    0    0    0    0 -0.00000000000E+00 -0.00000000000E+00 -0.45593999997E+02  0.45594000000E+02  0.51100000000E-03 0.  1.
    9900012    2    1    2    0    0 -0.32097768104E+02  0.16263421757E+02 -0.18931456940E+02  0.50528859990E+02  0.30000000425E+02 0.  0.
         12    1    1    2    0    0  0.32097768104E+02 -0.16263421757E+02  0.18931456940E+02  0.40659140010E+02  0.00000000000E+00 0. -1.
         11    1    3    3    0    0 -0.47201787103E+01 -0.29251350065E+01  0.38419451005E+01  0.67525583507E+01  0.51100000000E-03 0. -1.
        -11    1    3    3    0    0 -0.17068889204E+02  0.19213665602E+01 -0.12084940902E+02  0.21002010023E+02  0.51100000000E-03 0.  1.
         12    1    3    3    0    0 -0.10308700189E+02  0.17267190204E+02 -0.10688461139E+02  0.22774291616E+02  0.00000000000E+00 0. -1.
</event>
<event>
 7    1  0.5456331E-013  0.5052886E+02  0.7816164E-02  0.1300439E+00
        -11   -1    0    0    0    0  0.00000000000E+00  0.00000000000E+00  0.45593999997E+02  0.45594000000E+02  0.51100000000E-03 0.  1.
         11   -1    0    0    0    0 -0.00000000000E+00 -0.00000000000E+00 -0.45593999997E+02  0.45594000000E+02  0.51100000000E-03 0. -1.
    9900012    2    1    2    0    0  0.19576161706E+02 -0.34376630493E+02  0.93907853902E+01  0.50528859804E+02  0.29999999861E+02 0.  0.
         12    1    1    2    0    0 -0.19576161706E+02  0.34376630493E+02 -0.93907853902E+01  0.40659140196E+02  0.00000000000E+00 0. -1.
         11    1    3    3    0    0  0.17871295388E+02 -0.20958456657E+02  0.69343477236E+01  0.28402909761E+02  0.51100000000E-03 0. -1.
        -11    1    3    3    0    0  0.61093500251E+01 -0.70982100528E+01  0.82549894604E+01  0.12484133728E+02  0.51100000000E-03 0.  1.
        -12    1    3    3    0    0 -0.44044837069E+01 -0.63199637832E+01 -0.57985517938E+01  0.96418163149E+01  0.00000000000E+00 0.  1.
</event>
<event>
 7    1  0.5456331E-013  0.5052886E+02  0.7816164E-02  0.1300439E+00
        -11   -1    0    0    0    0  0.00000000000E+00  0.00000000000E+00  0.45593999997E+02  0.45594000000E+02  0.51100000000E-03 0. -1.
         11   -1    0    0    0    0 -0.00000000000E+00 -0.00000000000E+00 -0.45593999997E+02  0.45594000000E+02  0.51100000000E-03 0.  1.
    9900012    2    1    2    0    0 -0.24157347037E+02  0.28300762937E+02 -0.16390708463E+02  0.50528856839E+02  0.29999990847E+02 0.  0.
         12    1    1    2    0    0  0.24157347037E+02 -0.28300762937E+02  0.16390708463E+02  0.40659143161E+02  0.00000000000E+00 0. -1.
         11    1    3    3    0    0 -0.44081537044E+01  0.13269267805E+02  0.81676535992E+00  0.14006155542E+02  0.51100000000E-03 0. -1.
        -11    1    3    3    0    0  0.11148112893E+01  0.42388933654E+01  0.31831836722E+01  0.54169806836E+01  0.51100000000E-03 0.  1.
        -12    1    3    3    0    0 -0.20864004622E+02  0.10792601767E+02 -0.20390657496E+02  0.31105720613E+02  0.00000000000E+00 0.  1.
</event>
<event>
 7    1  0.5456331E-013  0.5052895E+02  0.7816164E-02  0.1300438E+00
        -11   -1    0    0    0    0  0.00000000000E+00  0.00000000000E+00  0.45593999997E+02  0.45594000000E+02  0.51100000000E-03 0. -1.
         11   -1    0    0    0    0 -0.00000000000E+00 -0.00000000000E+00 -0.45593999997E+02  0.45594000000E+02  0.51100000000E-03 0.  1.
    9900012    2    1    2    0    0 -0.10801663929E+02  0.12487585084E+02 -0.37155657891E+02  0.50528946418E+02  0.30000263132E+02 0.  0.
         12    1    1    2    0    0  0.10801663929E+02 -0.12487585084E+02  0.37155657891E+02  0.40659053582E+02  0.00000000000E+00 0. -1.
         11    1    3    3    0    0 -0.32445821065E+01 -0.40086830911E+01 -0.60918135689E+01  0.79816693736E+01  0.51100000000E-03 0. -1.
        -11    1    3    3    0    0  0.46865820107E+01 -0.13028483300E+01 -0.19311824827E+00  0.48681371830E+01  0.51100000000E-03 0.  1.
        -12    1    3    3    0    0 -0.12243663833E+02  0.17799116505E+02 -0.30870726073E+02  0.37679139862E+02  0.00000000000E+00 0.  1.
</event>
<event>
 7    1  0.5456331E-013  0.5052885E+02  0.7816164E-02  0.1300439E+00
        -11   -1    0    0    0    0  0.00000000000E+00  0.00000000000E+00  0.45593999997E+02  0.45594000000E+02  0.51100000000E-03 0.  1.
         11   -1    0    0    0    0 -0.00000000000E+00 -0.00000000000E+00 -0.45593999997E+02  0.45594000000E+02  0.51100000000E-03 0. -1.
    9900012    2    1    2    0    0 -0.62543690170E+00  0.32911460929E+02  0.23866523955E+02  0.50528850999E+02  0.29999973097E+02 0.  0.
         12    1    1    2    0    0  0.62543690170E+00 -0.32911460929E+02 -0.23866523955E+02  0.40659149001E+02  0.00000000000E+00 0. -1.
         11    1    3    3    0    0  0.39942220203E+01  0.13871349535E+02  0.65231041252E+01  0.15840424084E+02  0.51100000000E-03 0. -1.
        -11    1    3    3    0    0  0.27385774591E+01  0.21806595147E+02  0.10944426119E+02  0.24552145766E+02  0.51100000000E-03 0.  1.
         12    1    3    3    0    0 -0.73582363812E+01 -0.27664837538E+01  0.63989937116E+01  0.10136281149E+02  0.00000000000E+00 0. -1.
</event>
<event>
 7    1  0.5456331E-013  0.5052886E+02  0.7816164E-02  0.1300439E+00
        -11   -1    0    0    0    0  0.00000000000E+00  0.00000000000E+00  0.45593999997E+02  0.45594000000E+02  0.51100000000E-03 0.  1.
         11   -1    0    0    0    0 -0.00000000000E+00 -0.00000000000E+00 -0.45593999997E+02  0.45594000000E+02  0.51100000000E-03 0. -1.
    9900012    2    1    2    0    0 -0.28897712467E+02 -0.19477400086E+02  0.20945623174E+02  0.50528855517E+02  0.29999986829E+02 0.  0.
         12    1    1    2    0    0  0.28897712467E+02  0.19477400086E+02 -0.20945623174E+02  0.40659144483E+02  0.00000000000E+00 0. -1.
         11    1    3    3    0    0 -0.25317748285E+01  0.61848280659E+01  0.30003100781E+01  0.73255609214E+01  0.51100000000E-03 0. -1.
        -11    1    3    3    0    0 -0.10212161696E+02 -0.19646969856E+01  0.68476841998E+01  0.12451468183E+02  0.51100000000E-03 0.  1.
         12    1    3    3    0    0 -0.16153775943E+02 -0.23697531166E+02  0.11097628897E+02  0.30751826412E+02  0.00000000000E+00 0. -1.
</event>
<event>
 7    1  0.5456331E-013  0.5052885E+02  0.7816164E-02  0.1300439E+00
        -11   -1    0    0    0    0  0.00000000000E+00  0.00000000000E+00  0.45593999997E+02  0.45594000000E+02  0.51100000000E-03 0.  1.
         11   -1    0    0    0    0 -0.00000000000E+00 -0.00000000000E+00 -0.45593999997E+02  0.45594000000E+02  0.51100000000E-03 0. -1.
    9900012    2    1    2    0    0  0.26895347919E+02  0.30160687290E+02  0.44877084630E+01  0.50528851894E+02  0.29999975816E+02 0.  0.
         12    1    1    2    0    0 -0.26895347919E+02 -0.30160687290E+02 -0.44877084630E+01  0.40659148106E+02  0.00000000000E+00 0. -1.
         11    1    3    3    0    0  0.19020985441E+02  0.10701487470E+02  0.34756980880E+01  0.22099778250E+02  0.51100000000E-03 0. -1.
        -11    1    3    3    0    0  0.39717203740E+01  0.85249716893E+01  0.10014172504E+02  0.13738025922E+02  0.51100000000E-03 0.  1.
         12    1    3    3    0    0  0.39026421045E+01  0.10934228130E+02 -0.90021621287E+01  0.14691047722E+02  0.00000000000E+00 0. -1.
</event>
<event>
 7    1  0.5456331E-013  0.5052887E+02  0.7816164E-02  0.1300439E+00
        -11   -1    0    0    0    0  0.00000000000E+00  0.00000000000E+00  0.45593999997E+02  0.45594000000E+02  0.51100000000E-03 0. -1.
         11   -1    0    0    0    0 -0.00000000000E+00 -0.00000000000E+00 -0.45593999997E+02  0.45594000000E+02  0.51100000000E-03 0.  1.
    9900012    2    1    2    0    0  0.39286532783E+02  0.82711207269E+01 -0.64282230269E+01  0.50528866371E+02  0.30000019822E+02 0.  0.
         12    1    1    2    0    0 -0.39286532783E+02 -0.82711207269E+01  0.64282230269E+01  0.40659133629E+02  0.00000000000E+00 0. -1.
         11    1    3    3    0    0  0.68995396375E+01  0.18282234211E+01  0.26144263275E+01  0.76013994350E+01  0.51100000000E-03 0. -1.
        -11    1    3    3    0    0  0.10110548877E+02 -0.12790733899E+01  0.87165806436E+01  0.13410369335E+02  0.51100000000E-03 0.  1.
        -12    1    3    3    0    0  0.22276444268E+02  0.77219706957E+01 -0.17759229998E+02  0.29517097601E+02  0.00000000000E+00 0.  1.
</event>
<event>
 7    1  0.5456331E-013  0.5052886E+02  0.7816164E-02  0.1300439E+00
        -11   -1    0    0    0    0  0.00000000000E+00  0.00000000000E+00  0.45593999997E+02  0.45594000000E+02  0.51100000000E-03 0. -1.
         11   -1    0    0    0    0 -0.00000000000E+00 -0.00000000000E+00 -0.45593999997E+02  0.45594000000E+02  0.51100000000E-03 0.  1.
    9900012    2    1    2    0    0 -0.35318258281E+02  0.34649350265E+01 -0.19843905731E+02  0.50528859117E+02  0.29999997771E+02 0.  0.
         12    1    1    2    0    0  0.35318258281E+02 -0.34649350265E+01  0.19843905731E+02  0.40659140883E+02  0.00000000000E+00 0. -1.
         11    1    3    3    0    0 -0.90719311342E+01  0.73500006631E+01 -0.17034094878E+01  0.11799324065E+02  0.51100000000E-03 0. -1.
        -11    1    3    3    0    0  0.21147459723E+01  0.40641143595E+01 -0.38860254286E+01  0.60075261087E+01  0.51100000000E-03 0.  1.
        -12    1    3    3    0    0 -0.28361073119E+02 -0.79491799960E+01 -0.14254470814E+02  0.32722008943E+02  0.00000000000E+00 0.  1.
</event>
<event>
 7    1  0.5456331E-013  0.5052894E+02  0.7816164E-02  0.1300438E+00
        -11   -1    0    0    0    0  0.00000000000E+00  0.00000000000E+00  0.45593999997E+02  0.45594000000E+02  0.51100000000E-03 0. -1.
         11   -1    0    0    0    0 -0.00000000000E+00 -0.00000000000E+00 -0.45593999997E+02  0.45594000000E+02  0.51100000000E-03 0.  1.
    9900012    2    1    2    0    0  0.18712109415E+02  0.15756333936E+02 -0.32476971207E+02  0.50528944961E+02  0.30000258701E+02 0.  0.
         12    1    1    2    0    0 -0.18712109415E+02 -0.15756333936E+02  0.32476971207E+02  0.40659055039E+02  0.00000000000E+00 0. -1.
         11    1    3    3    0    0  0.17171672941E+02  0.62335400558E+01 -0.20243951109E+02  0.27267946934E+02  0.51100000000E-03 0. -1.
        -11    1    3    3    0    0  0.48870246082E+01  0.32490096553E-01 -0.12259695009E+02  0.13197885705E+02  0.51100000000E-03 0.  1.
         12    1    3    3    0    0 -0.33465881333E+01  0.94903037838E+01  0.26674910432E-01  0.10063112321E+02  0.00000000000E+00 0. -1.
</event>
<event>
 7    1  0.5456331E-013  0.5052884E+02  0.7816164E-02  0.1300439E+00
        -11   -1    0    0    0    0  0.00000000000E+00  0.00000000000E+00  0.45593999997E+02  0.45594000000E+02  0.51100000000E-03 0. -1.
         11   -1    0    0    0    0 -0.00000000000E+00 -0.00000000000E+00 -0.45593999997E+02  0.45594000000E+02  0.51100000000E-03 0.  1.
    9900012    2    1    2    0    0  0.12537772779E+02 -0.37554222358E+02 -0.92548175016E+01  0.50528843465E+02  0.29999950197E+02 0.  0.
         12    1    1    2    0    0 -0.12537772779E+02  0.37554222358E+02  0.92548175016E+01  0.40659156535E+02  0.00000000000E+00 0. -1.
         11    1    3    3    0    0  0.49410346808E+01  0.15586115387E+01 -0.52015531712E+01  0.73416108109E+01  0.51100000000E-03 0. -1.
        -11    1    3    3    0    0  0.18695121068E+01 -0.41542703772E+01 -0.62045526092E+01  0.76973704098E+01  0.51100000000E-03 0.  1.
         12    1    3    3    0    0  0.57272259912E+01 -0.34958563519E+02  0.21512882787E+01  0.35489862244E+02  0.00000000000E+00 0. -1.
</event>
<event>
 7    1  0.5456331E-013  0.5052886E+02  0.7816164E-02  0.1300439E+00
        -11   -1    0    0    0    0  0.00000000000E+00  0.00000000000E+00  0.45593999997E+02  0.45594000000E+02  0.51100000000E-03 0.  1.
         11   -1    0    0    0    0 -0.00000000000E+00 -0.00000000000E+00 -0.45593999997E+02  0.45594000000E+02  0.51100000000E-03 0. -1.
    9900012    2    1    2    0    0 -0.73624889228E+01  0.11032736141E+02  0.38434858760E+02  0.50528857389E+02  0.29999992521E+02 0.  0.
         12    1    1    2    0    0  0.73624889228E+01 -0.11032736141E+02 -0.38434858760E+02  0.40659142611E+02  0.00000000000E+00 0. -1.
         11    1    3    3    0    0  0.22381946779E+01  0.23793017070E+00  0.73898185443E+00  0.23690125843E+01  0.51100000000E-03 0. -1.
        -11    1    3    3    0    0  0.71838758213E+01  0.84994599013E+01  0.71407573625E+01  0.13222681513E+02  0.51100000000E-03 0.  1.
         12    1    3    3    0    0 -0.16784559422E+02  0.22953460692E+01  0.30555119543E+02  0.34937163292E+02  0.00000000000E+00 0. -1.
</event>
<event>
 7    1  0.5456331E-013  0.5052878E+02  0.7816164E-02  0.1300439E+00
        -11   -1    0    0    0    0  0.00000000000E+00  0.00000000000E+00  0.45593999997E+02  0.45594000000E+02  0.51100000000E-03 0.  1.
         11   -1    0    0    0    0 -0.00000000000E+00 -0.00000000000E+00 -0.45593999997E+02  0.45594000000E+02  0.51100000000E-03 0. -1.
    9900012    2    1    2    0    0  0.36020568808E+02  0.18656536720E+02 -0.27613070588E+01  0.50528775262E+02  0.29999742885E+02 0.  0.
         12    1    1    2    0    0 -0.36020568808E+02 -0.18656536720E+02  0.27613070588E+01  0.40659224738E+02  0.00000000000E+00 0. -1.
         11    1    3    3    0    0  0.13228789513E+01  0.97612834527E+01  0.47128972679E+01  0.10919893053E+02  0.51100000000E-03 0. -1.
        -11    1    3    3    0    0 -0.10969683618E+01 -0.75152256612E+00  0.89663013292E+00  0.16037679416E+01  0.51100000000E-03 0.  1.
        -12    1    3    3    0    0  0.35794658218E+02  0.96467758339E+01 -0.83708344597E+01  0.38005114268E+02  0.00000000000E+00 0.  1.
</event>
<event>
 7    1  0.5456331E-013  0.5052886E+02  0.7816164E-02  0.1300439E+00
        -11   -1    0    0    0    0  0.00000000000E+00  0.00000000000E+00  0.45593999997E+02  0.45594000000E+02  0.51100000000E-03 0. -1.
         11   -1    0    0    0    0 -0.00000000000E+00 -0.00000000000E+00 -0.45593999997E+02  0.45594000000E+02  0.51100000000E-03 0.  1.
    9900012    2    1    2    0    0 -0.39664170980E+02  0.78242380609E+01  0.43244454643E+01  0.50528856018E+02  0.29999988353E+02 0.  0.
         12    1    1    2    0    0  0.39664170980E+02 -0.78242380609E+01 -0.43244454643E+01  0.40659143982E+02  0.00000000000E+00 0. -1.
         11    1    3    3    0    0 -0.52293586374E+01  0.11942903672E+02 -0.19155553093E+01  0.13177575357E+02  0.51100000000E-03 0. -1.
        -11    1    3    3    0    0 -0.49159149646E+01  0.32844372394E+01 -0.11752576714E+01  0.60278502615E+01  0.51100000000E-03 0.  1.
         12    1    3    3    0    0 -0.29518897378E+02 -0.74031028505E+01  0.74152584450E+01  0.31323430400E+02  0.00000000000E+00 0. -1.
</event>
<event>
 7    1  0.5456331E-013  0.5052885E+02  0.7816164E-02  0.1300439E+00
        -11   -1    0    0    0    0  0.00000000000E+00  0.00000000000E+00  0.45593999997E+02  0.45594000000E+02  0.51100000000E-03 0.  1.
         11   -1    0    0    0    0 -0.00000000000E+00 -0.00000000000E+00 -0.45593999997E+02  0.45594000000E+02  0.51100000000E-03 0. -1.
    9900012    2    1    2    0    0  0.23204817434E+02  0.27036444308E+02  0.19589129380E+02  0.50528845276E+02  0.29999955702E+02 0.  0.
         12    1    1    2    0    0 -0.23204817434E+02 -0.27036444308E+02 -0.19589129380E+02  0.40659154724E+02  0.00000000000E+00 0. -1.
         11    1    3    3    0    0  0.11558243050E+02  0.17076560859E+01  0.18434031814E+02  0.21824816171E+02  0.51100000000E-03 0. -1.
        -11    1    3    3    0    0 -0.33281492198E+00  0.52885124580E+01  0.75773257698E+00  0.53528766762E+01  0.51100000000E-03 0.  1.
        -12    1    3    3    0    0  0.11979389306E+02  0.20040275764E+02  0.39736498953E+00  0.23351152429E+02  0.00000000000E+00 0.  1.
</event>
<event>
 7    1  0.5456331E-013  0.5052886E+02  0.7816164E-02  0.1300439E+00
        -11   -1    0    0    0    0  0.00000000000E+00  0.00000000000E+00  0.45593999997E+02  0.45594000000E+02  0.51100000000E-03 0.  1.
         11   -1    0    0    0    0 -0.00000000000E+00 -0.00000000000E+00 -0.45593999997E+02  0.45594000000E+02  0.51100000000E-03 0. -1.
    9900012    2    1    2    0    0 -0.14743097368E+02 -0.54929120924E+01  0.37491796101E+02  0.50528858615E+02  0.29999996248E+02 0.  0.
         12    1    1    2    0    0  0.14743097368E+02  0.54929120924E+01 -0.37491796101E+02  0.40659141385E+02  0.00000000000E+00 0. -1.
         11    1    3    3    0    0 -0.39555796230E+01 -0.29207515368E+01  0.17607150070E+02  0.18280840614E+02  0.51100000000E-03 0. -1.
        -11    1    3    3    0    0 -0.14974526832E+02  0.36091266514E+00  0.22082537776E+02  0.26683425318E+02  0.51100000000E-03 0.  1.
         12    1    3    3    0    0  0.41870090871E+01 -0.29330732207E+01 -0.21978917453E+01  0.55645926839E+01  0.00000000000E+00 0. -1.
</event>
<event>
 7    1  0.5456331E-013  0.5052886E+02  0.7816164E-02  0.1300439E+00
        -11   -1    0    0    0    0  0.00000000000E+00  0.00000000000E+00  0.45593999997E+02  0.45594000000E+02  0.51100000000E-03 0.  1.
         11   -1    0    0    0    0 -0.00000000000E+00 -0.00000000000E+00 -0.45593999997E+02  0.45594000000E+02  0.51100000000E-03 0. -1.
    9900012    2    1    2    0    0  0.14263522252E+02 -0.36728198811E+02  0.10037767648E+02  0.50528862844E+02  0.30000009100E+02 0.  0.
         12    1    1    2    0    0 -0.14263522252E+02  0.36728198811E+02 -0.10037767648E+02  0.40659137156E+02  0.00000000000E+00 0. -1.
         11    1    3    3    0    0  0.16350605323E+02 -0.15079905768E+02 -0.21157956988E+01  0.22343286332E+02  0.51100000000E-03 0. -1.
        -11    1    3    3    0    0  0.33027720038E+00 -0.71692479257E+01 -0.23479198337E+01  0.75511539950E+01  0.51100000000E-03 0.  1.
        -12    1    3    3    0    0 -0.24173602716E+01 -0.14479045117E+02  0.14501483180E+02  0.20634422517E+02  0.00000000000E+00 0.  1.
</event>
<event>
 7    1  0.5456331E-013  0.5052884E+02  0.7816164E-02  0.1300439E+00
        -11   -1    0    0    0    0  0.00000000000E+00  0.00000000000E+00  0.45593999997E+02  0.45594000000E+02  0.51100000000E-03 0.  1.
         11   -1    0    0    0    0 -0.00000000000E+00 -0.00000000000E+00 -0.45593999997E+02  0.45594000000E+02  0.51100000000E-03 0. -1.
    9900012    2    1    2    0    0 -0.38656616803E+02  0.10212213356E+02  0.73854048143E+01  0.50528837090E+02  0.29999930818E+02 0.  0.
         12    1    1    2    0    0  0.38656616803E+02 -0.10212213356E+02 -0.73854048143E+01  0.40659162910E+02  0.00000000000E+00 0. -1.
         11    1    3    3    0    0 -0.32339394865E+01 -0.55710060422E+01  0.16630024533E+01  0.66528227352E+01  0.51100000000E-03 0. -1.
        -11    1    3    3    0    0 -0.92839714171E+01  0.47836775695E+01 -0.72269610333E+01  0.12700577247E+02  0.51100000000E-03 0.  1.
         12    1    3    3    0    0 -0.26138705899E+02  0.10999541829E+02  0.12949363394E+02  0.31175437108E+02  0.00000000000E+00 0. -1.
</event>
<event>
 7    1  0.5456331E-013  0.5052889E+02  0.7816164E-02  0.1300439E+00
        -11   -1    0    0    0    0  0.00000000000E+00  0.00000000000E+00  0.45593999997E+02  0.45594000000E+02  0.51100000000E-03 0.  1.
         11   -1    0    0    0    0 -0.00000000000E+00 -0.00000000000E+00 -0.45593999997E+02  0.45594000000E+02  0.51100000000E-03 0. -1.
    9900012    2    1    2    0    0 -0.37802804571E+02  0.12363174091E+01  0.14919202362E+02  0.50528891386E+02  0.30000095856E+02 0.  0.
         12    1    1    2    0    0  0.37802804571E+02 -0.12363174091E+01 -0.14919202362E+02  0.40659108614E+02  0.00000000000E+00 0. -1.
         11    1    3    3    0    0  0.57447868075E+00 -0.63981222795E+01  0.56962966197E+01  0.85856735262E+01  0.51100000000E-03 0. -1.
        -11    1    3    3    0    0 -0.10278163551E+02  0.11866107323E+01  0.80163540664E+01  0.13088568440E+02  0.51100000000E-03 0.  1.
        -12    1    3    3    0    0 -0.28099119701E+02  0.64478289563E+01  0.12065516761E+01  0.28854649420E+02  0.00000000000E+00 0.  1.
</event>
<event>
 7    1  0.5456331E-013  0.5052886E+02  0.7816164E-02  0.1300439E+00
        -11   -1    0    0    0    0  0.00000000000E+00  0.00000000000E+00  0.45593999997E+02  0.45594000000E+02  0.51100000000E-03 0.  1.
         11   -1    0    0    0    0 -0.00000000000E+00 -0.00000000000E+00 -0.45593999997E+02  0.45594000000E+02  0.51100000000E-03 0. -1.
    9900012    2    1    2    0    0 -0.27826453735E+02 -0.40021964821E+00  0.29642774855E+02  0.50528858293E+02  0.29999995268E+02 0.  0.
         12    1    1    2    0    0  0.27826453735E+02  0.40021964821E+00 -0.29642774855E+02  0.40659141707E+02  0.00000000000E+00 0. -1.
         11    1    3    3    0    0 -0.77197236284E+01  0.10165182159E+01  0.71778038115E+01  0.10590009915E+02  0.51100000000E-03 0. -1.
        -11    1    3    3    0    0 -0.24578569536E+02  0.50477336129E+01  0.15974614359E+02  0.29745150852E+02  0.51100000000E-03 0.  1.
         12    1    3    3    0    0  0.44718394292E+01 -0.64644714770E+01  0.64903566845E+01  0.10193697526E+02  0.00000000000E+00 0. -1.
</event>
<event>
 7    1  0.5456331E-013  0.5052886E+02  0.7816164E-02  0.1300439E+00
        -11   -1    0    0    0    0  0.00000000000E+00  0.00000000000E+00  0.45593999997E+02  0.45594000000E+02  0.51100000000E-03 0.  1.
         11   -1    0    0    0    0 -0.00000000000E+00 -0.00000000000E+00 -0.45593999997E+02  0.45594000000E+02  0.51100000000E-03 0. -1.
    9900012    2    1    2    0    0  0.32808513478E+02  0.94647208046E+01  0.22072289535E+02  0.50528862505E+02  0.30000008069E+02 0.  0.
         12    1    1    2    0    0 -0.32808513478E+02 -0.94647208046E+01 -0.22072289535E+02  0.40659137495E+02  0.00000000000E+00 0. -1.
         11    1    3    3    0    0  0.21130191976E+01  0.14141630866E+01  0.60009281267E+01  0.65173496153E+01  0.51100000000E-03 0. -1.
        -11    1    3    3    0    0  0.28340472162E+02  0.67782280827E+01  0.22651202926E+02  0.36908044280E+02  0.51100000000E-03 0.  1.
         12    1    3    3    0    0  0.23550221185E+01  0.12723296354E+01 -0.65798415180E+01  0.71034686092E+01  0.00000000000E+00 0. -1.
</event>
<event>
 7    1  0.5456331E-013  0.5052886E+02  0.7816164E-02  0.1300439E+00
        -11   -1    0    0    0    0  0.00000000000E+00  0.00000000000E+00  0.45593999997E+02  0.45594000000E+02  0.51100000000E-03 0.  1.
         11   -1    0    0    0    0 -0.00000000000E+00 -0.00000000000E+00 -0.45593999997E+02  0.45594000000E+02  0.51100000000E-03 0. -1.
    9900012    2    1    2    0    0 -0.81298372968E+01 -0.38162315718E+02  0.11432813123E+02  0.50528858207E+02  0.29999995005E+02 0.  0.
         12    1    1    2    0    0  0.81298372968E+01  0.38162315718E+02 -0.11432813123E+02  0.40659141793E+02  0.00000000000E+00 0. -1.
         11    1    3    3    0    0  0.59246094274E+01 -0.11276759862E+02  0.40683299204E+00  0.12744874390E+02  0.51100000000E-03 0.  1.
        -11    1    3    3    0    0  0.23454463871E+01 -0.11203656750E+01 -0.31740063405E+01  0.41025180695E+01  0.51100000000E-03 0. -1.
        -12    1    3    3    0    0 -0.16399893111E+02 -0.25765190181E+02  0.14199986472E+02  0.33681465748E+02  0.00000000000E+00 0.  1.
</event>
<event>
 7    1  0.5456331E-013  0.5052886E+02  0.7816164E-02  0.1300439E+00
        -11   -1    0    0    0    0  0.00000000000E+00  0.00000000000E+00  0.45593999997E+02  0.45594000000E+02  0.51100000000E-03 0.  1.
         11   -1    0    0    0    0 -0.00000000000E+00 -0.00000000000E+00 -0.45593999997E+02  0.45594000000E+02  0.51100000000E-03 0. -1.
    9900012    2    1    2    0    0 -0.72588733959E+00 -0.33803270406E+02 -0.22582679942E+02  0.50528862824E+02  0.30000009040E+02 0.  0.
         12    1    1    2    0    0  0.72588733959E+00  0.33803270406E+02  0.22582679942E+02  0.40659137176E+02  0.00000000000E+00 0. -1.
         11    1    3    3    0    0  0.17645929298E+01 -0.38945593641E+01  0.12971013309E-01  0.42756928511E+01  0.51100000000E-03 0. -1.
        -11    1    3    3    0    0 -0.29947790900E+01 -0.12124961030E+02  0.49725087970E+01  0.13442813165E+02  0.51100000000E-03 0.  1.
         12    1    3    3    0    0  0.50429882057E+00 -0.17783750011E+02 -0.27568159752E+02  0.32810356808E+02  0.00000000000E+00 0. -1.
</event>
<event>
 7    1  0.5456331E-013  0.5052881E+02  0.7816164E-02  0.1300439E+00
        -11   -1    0    0    0    0  0.00000000000E+00  0.00000000000E+00  0.45593999997E+02  0.45594000000E+02  0.51100000000E-03 0.  1.
         11   -1    0    0    0    0 -0.00000000000E+00 -0.00000000000E+00 -0.45593999997E+02  0.45594000000E+02  0.51100000000E-03 0. -1.
    9900012    2    1    2    0    0  0.22232959970E+01 -0.77805632698E+01  0.39845818687E+02  0.50528813132E+02  0.29999857996E+02 0.  0.
         12    1    1    2    0    0 -0.22232959970E+01  0.77805632698E+01 -0.39845818687E+02  0.40659186868E+02  0.00000000000E+00 0. -1.
         11    1    3    3    0    0 -0.39939149251E+01 -0.20771213467E+01  0.81312690048E+01  0.92942630374E+01  0.51100000000E-03 0. -1.
        -11    1    3    3    0    0 -0.60736393459E+01  0.49857137845E+01  0.19032932177E+02  0.20591234649E+02  0.51100000000E-03 0.  1.
         12    1    3    3    0    0  0.12290850268E+02 -0.10689155708E+02  0.12681617505E+02  0.20643315446E+02  0.00000000000E+00 0. -1.
</event>
<event>
 7    1  0.5456331E-013  0.5052886E+02  0.7816164E-02  0.1300439E+00
        -11   -1    0    0    0    0  0.00000000000E+00  0.00000000000E+00  0.45593999997E+02  0.45594000000E+02  0.51100000000E-03 0. -1.
         11   -1    0    0    0    0 -0.00000000000E+00 -0.00000000000E+00 -0.45593999997E+02  0.45594000000E+02  0.51100000000E-03 0.  1.
    9900012    2    1    2    0    0 -0.21863208613E+02 -0.34174805758E+02  0.26923477836E+01  0.50528856181E+02  0.29999988849E+02 0.  0.
         12    1    1    2    0    0  0.21863208613E+02  0.34174805758E+02 -0.26923477836E+01  0.40659143819E+02  0.00000000000E+00 0. -1.
         11    1    3    3    0    0 -0.24148735610E+01  0.14640304903E+01 -0.11386899133E+01  0.30449326055E+01  0.51100000000E-03 0. -1.
        -11    1    3    3    0    0  0.36908158818E+01 -0.45559415820E+01 -0.50395896917E+01  0.77315063276E+01  0.51100000000E-03 0.  1.
        -12    1    3    3    0    0 -0.23139150934E+02 -0.31082894667E+02  0.88706273886E+01  0.39752417248E+02  0.00000000000E+00 0.  1.
</event>
<event>
 7    1  0.5456331E-013  0.5052880E+02  0.7816164E-02  0.1300439E+00
        -11   -1    0    0    0    0  0.00000000000E+00  0.00000000000E+00  0.45593999997E+02  0.45594000000E+02  0.51100000000E-03 0.  1.
         11   -1    0    0    0    0 -0.00000000000E+00 -0.00000000000E+00 -0.45593999997E+02  0.45594000000E+02  0.51100000000E-03 0. -1.
    9900012    2    1    2    0    0  0.27725082748E+02 -0.18251079111E+02  0.23481666565E+02  0.50528797268E+02  0.29999809776E+02 0.  0.
         12    1    1    2    0    0 -0.27725082748E+02  0.18251079111E+02 -0.23481666565E+02  0.40659202732E+02  0.00000000000E+00 0. -1.
         11    1    3    3    0    0  0.21402104297E+02 -0.16795862417E+02  0.25038306797E+02  0.36973880919E+02  0.51100000000E-03 0.  1.
        -11    1    3    3    0    0 -0.26230217348E+01 -0.33862653171E+01 -0.76993234259E-01  0.42840359521E+01  0.51100000000E-03 0. -1.
        -12    1    3    3    0    0  0.89460001857E+01  0.19310486227E+01 -0.14796469976E+01  0.92708803974E+01  0.00000000000E+00 0.  1.
</event>
<event>
 7    1  0.5456331E-013  0.5052886E+02  0.7816164E-02  0.1300439E+00
        -11   -1    0    0    0    0  0.00000000000E+00  0.00000000000E+00  0.45593999997E+02  0.45594000000E+02  0.51100000000E-03 0.  1.
         11   -1    0    0    0    0 -0.00000000000E+00 -0.00000000000E+00 -0.45593999997E+02  0.45594000000E+02  0.51100000000E-03 0. -1.
    9900012    2    1    2    0    0 -0.38353284367E+02 -0.37112420237E+01  0.12977583229E+02  0.50528863197E+02  0.30000010175E+02 0.  0.
         12    1    1    2    0    0  0.38353284367E+02  0.37112420237E+01 -0.12977583229E+02  0.40659136803E+02  0.00000000000E+00 0. -1.
         11    1    3    3    0    0  0.34071361995E+00 -0.13050890573E+01  0.19210691027E+01  0.23473069626E+01  0.51100000000E-03 0.  1.
        -11    1    3    3    0    0 -0.18811398933E+02  0.88905446603E+01 -0.34644649499E+01  0.21092961666E+02  0.51100000000E-03 0. -1.
        -12    1    3    3    0    0 -0.19882599053E+02 -0.11296697627E+02  0.14520979076E+02  0.27088594569E+02  0.00000000000E+00 0.  1.
</event>
<event>
 7    1  0.5456331E-013  0.5052887E+02  0.7816164E-02  0.1300439E+00
        -11   -1    0    0    0    0  0.00000000000E+00  0.00000000000E+00  0.45593999997E+02  0.45594000000E+02  0.51100000000E-03 0.  1.
         11   -1    0    0    0    0 -0.00000000000E+00 -0.00000000000E+00 -0.45593999997E+02  0.45594000000E+02  0.51100000000E-03 0. -1.
    9900012    2    1    2    0    0 -0.21712365763E+01 -0.19226344828E+02  0.35760292333E+02  0.50528866814E+02  0.30000021168E+02 0.  0.
         12    1    1    2    0    0  0.21712365763E+01  0.19226344828E+02 -0.35760292333E+02  0.40659133186E+02  0.00000000000E+00 0. -1.
         11    1    3    3    0    0  0.67254703167E+01 -0.38839068022E+01  0.50799993225E+01  0.92802519582E+01  0.51100000000E-03 0. -1.
        -11    1    3    3    0    0  0.35093591034E+01 -0.93775268028E+01  0.31970405135E+01  0.10510693534E+02  0.51100000000E-03 0.  1.
         12    1    3    3    0    0 -0.12406065996E+02 -0.59649112232E+01  0.27483252497E+02  0.30737921322E+02  0.00000000000E+00 0. -1.
</event>
<event>
 7    1  0.5456331E-013  0.5052885E+02  0.7816164E-02  0.1300439E+00
        -11   -1    0    0    0    0  0.00000000000E+00  0.00000000000E+00  0.45593999997E+02  0.45594000000E+02  0.51100000000E-03 0.  1.
         11   -1    0    0    0    0 -0.00000000000E+00 -0.00000000000E+00 -0.45593999997E+02  0.45594000000E+02  0.51100000000E-03 0. -1.
    9900012    2    1    2    0    0  0.30211461884E+02  0.22327189249E+02  0.15554123806E+02  0.50528848800E+02  0.29999966412E+02 0.  0.
         12    1    1    2    0    0 -0.30211461884E+02 -0.22327189249E+02 -0.15554123806E+02  0.40659151200E+02  0.00000000000E+00 0. -1.
         11    1    3    3    0    0  0.11946622689E+02  0.32457194808E+01  0.22770420656E+01  0.12587351169E+02  0.51100000000E-03 0. -1.
        -11    1    3    3    0    0  0.17396790228E+02  0.67412211231E+01  0.16770783288E+02  0.25086879934E+02  0.51100000000E-03 0.  1.
         12    1    3    3    0    0  0.86804896713E+00  0.12340248646E+02 -0.34937015472E+01  0.12854617697E+02  0.00000000000E+00 0. -1.
</event>
<event>
 7    1  0.5456331E-013  0.5052886E+02  0.7816164E-02  0.1300439E+00
        -11   -1    0    0    0    0  0.00000000000E+00  0.00000000000E+00  0.45593999997E+02  0.45594000000E+02  0.51100000000E-03 0. -1.
         11   -1    0    0    0    0 -0.00000000000E+00 -0.00000000000E+00 -0.45593999997E+02  0.45594000000E+02  0.51100000000E-03 0.  1.
    9900012    2    1    2    0    0  0.28073961518E+02 -0.86011257997E+01 -0.28125419070E+02  0.50528857385E+02  0.29999992507E+02 0.  0.
         12    1    1    2    0    0 -0.28073961518E+02  0.86011257997E+01  0.28125419070E+02  0.40659142615E+02  0.00000000000E+00 0. -1.
         11    1    3    3    0    0  0.47142714632E+01  0.21537301734E+01  0.29424193277E+01  0.59599279232E+01  0.51100000000E-03 0. -1.
        -11    1    3    3    0    0  0.78394867840E+01 -0.12688420542E+02 -0.86728618567E+01  0.17253176575E+02  0.51100000000E-03 0.  1.
        -12    1    3    3    0    0  0.15520203271E+02  0.19335645685E+01 -0.22394976541E+02  0.27315752887E+02  0.00000000000E+00 0.  1.
</event>
<event>
 7    1  0.5456331E-013  0.5052887E+02  0.7816164E-02  0.1300439E+00
        -11   -1    0    0    0    0  0.00000000000E+00  0.00000000000E+00  0.45593999997E+02  0.45594000000E+02  0.51100000000E-03 0.  1.
         11   -1    0    0    0    0 -0.00000000000E+00 -0.00000000000E+00 -0.45593999997E+02  0.45594000000E+02  0.51100000000E-03 0. -1.
    9900012    2    1    2    0    0  0.39988072679E+02 -0.37082556945E+01  0.63535420280E+01  0.50528872941E+02  0.30000039793E+02 0.  0.
         12    1    1    2    0    0 -0.39988072679E+02  0.37082556945E+01 -0.63535420280E+01  0.40659127059E+02  0.00000000000E+00 0. -1.
         11    1    3    3    0    0 -0.20997358732E+01 -0.37187237011E+00  0.10457247976E+01  0.23750200863E+01  0.51100000000E-03 0. -1.
        -11    1    3    3    0    0  0.16554770129E+02  0.84757984112E+01  0.72324126206E+01  0.19955133808E+02  0.51100000000E-03 0.  1.
        -12    1    3    3    0    0  0.25533038423E+02 -0.11812181736E+02 -0.19245953903E+01  0.28198719047E+02  0.00000000000E+00 0.  1.
</event>
<event>
 7    1  0.5456331E-013  0.5052886E+02  0.7816164E-02  0.1300439E+00
        -11   -1    0    0    0    0  0.00000000000E+00  0.00000000000E+00  0.45593999997E+02  0.45594000000E+02  0.51100000000E-03 0. -1.
         11   -1    0    0    0    0 -0.00000000000E+00 -0.00000000000E+00 -0.45593999997E+02  0.45594000000E+02  0.51100000000E-03 0.  1.
    9900012    2    1    2    0    0 -0.18622782753E+00  0.35706419157E+02 -0.19446914478E+02  0.50528861636E+02  0.30000005428E+02 0.  0.
         12    1    1    2    0    0  0.18622782753E+00 -0.35706419157E+02  0.19446914478E+02  0.40659138364E+02  0.00000000000E+00 0. -1.
         11    1    3    3    0    0  0.35218023608E+01  0.54975865004E+01 -0.85950371896E+01  0.10793572798E+02  0.51100000000E-03 0.  1.
        -11    1    3    3    0    0 -0.11300458877E+02  0.19467113149E+02  0.26792646693E+00  0.22510900693E+02  0.51100000000E-03 0. -1.
         12    1    3    3    0    0  0.75924286887E+01  0.10741719508E+02 -0.11119803756E+02  0.17224388144E+02  0.00000000000E+00 0. -1.
</event>
<event>
 7    1  0.5456331E-013  0.5052886E+02  0.7816164E-02  0.1300439E+00
        -11   -1    0    0    0    0  0.00000000000E+00  0.00000000000E+00  0.45593999997E+02  0.45594000000E+02  0.51100000000E-03 0.  1.
         11   -1    0    0    0    0 -0.00000000000E+00 -0.00000000000E+00 -0.45593999997E+02  0.45594000000E+02  0.51100000000E-03 0. -1.
    9900012    2    1    2    0    0 -0.25100210862E+02  0.31072346775E+02 -0.75930720568E+01  0.50528855116E+02  0.29999985611E+02 0.  0.
         12    1    1    2    0    0  0.25100210862E+02 -0.31072346775E+02  0.75930720568E+01  0.40659144884E+02  0.00000000000E+00 0. -1.
         11    1    3    3    0    0  0.20771679548E+01 -0.97730330212E+00 -0.22518926451E+01  0.32157066413E+01  0.51100000000E-03 0. -1.
        -11    1    3    3    0    0  0.30092440516E+01  0.74130968995E+01 -0.12506128646E+00  0.80015745944E+01  0.51100000000E-03 0.  1.
        -12    1    3    3    0    0 -0.30186622868E+02  0.24636553178E+02 -0.52161181252E+01  0.39311573880E+02  0.00000000000E+00 0.  1.
</event>
<event>
 7    1  0.5456331E-013  0.5052887E+02  0.7816164E-02  0.1300439E+00
        -11   -1    0    0    0    0  0.00000000000E+00  0.00000000000E+00  0.45593999997E+02  0.45594000000E+02  0.51100000000E-03 0.  1.
         11   -1    0    0    0    0 -0.00000000000E+00 -0.00000000000E+00 -0.45593999997E+02  0.45594000000E+02  0.51100000000E-03 0. -1.
    9900012    2    1    2    0    0 -0.37886904043E+01 -0.11017382719E+02  0.38954182542E+02  0.50528865301E+02  0.30000016568E+02 0.  0.
         12    1    1    2    0    0  0.37886904043E+01  0.11017382719E+02 -0.38954182542E+02  0.40659134699E+02  0.00000000000E+00 0. -1.
         11    1    3    3    0    0  0.15931215870E+01 -0.10443088450E+01 -0.83219078180E+00  0.20787397897E+01  0.51100000000E-03 0. -1.
        -11    1    3    3    0    0 -0.54720544162E+01 -0.15765097033E+02  0.13304920427E+02  0.21342506222E+02  0.51100000000E-03 0.  1.
        -12    1    3    3    0    0  0.90242424865E-01  0.57920231592E+01  0.26481452897E+02  0.27107619289E+02  0.00000000000E+00 0.  1.
</event>
<event>
 7    1  0.5456331E-013  0.5052884E+02  0.7816164E-02  0.1300439E+00
        -11   -1    0    0    0    0  0.00000000000E+00  0.00000000000E+00  0.45593999997E+02  0.45594000000E+02  0.51100000000E-03 0. -1.
         11   -1    0    0    0    0 -0.00000000000E+00 -0.00000000000E+00 -0.45593999997E+02  0.45594000000E+02  0.51100000000E-03 0.  1.
    9900012    2    1    2    0    0  0.26207406449E+02 -0.30464004630E+02 -0.61873665457E+01  0.50528840692E+02  0.29999941767E+02 0.  0.
         12    1    1    2    0    0 -0.26207406449E+02  0.30464004630E+02  0.61873665457E+01  0.40659159308E+02  0.00000000000E+00 0. -1.
         11    1    3    3    0    0  0.93774661935E+01  0.69228886581E+00  0.42132080159E+01  0.10303749712E+02  0.51100000000E-03 0.  1.
        -11    1    3    3    0    0  0.11586054648E+01 -0.98769681521E+01  0.32736761569E+01  0.10469661998E+02  0.51100000000E-03 0. -1.
        -12    1    3    3    0    0  0.15671334791E+02 -0.21279325344E+02 -0.13674250718E+02  0.29755428982E+02  0.00000000000E+00 0.  1.
</event>
<event>
 7    1  0.5456331E-013  0.5052885E+02  0.7816164E-02  0.1300439E+00
        -11   -1    0    0    0    0  0.00000000000E+00  0.00000000000E+00  0.45593999997E+02  0.45594000000E+02  0.51100000000E-03 0.  1.
         11   -1    0    0    0    0 -0.00000000000E+00 -0.00000000000E+00 -0.45593999997E+02  0.45594000000E+02  0.51100000000E-03 0. -1.
    9900012    2    1    2    0    0 -0.10923478780E+02 -0.25276807771E+02  0.29915328268E+02  0.50528852627E+02  0.29999978044E+02 0.  0.
         12    1    1    2    0    0  0.10923478780E+02  0.25276807771E+02 -0.29915328268E+02  0.40659147373E+02  0.00000000000E+00 0. -1.
         11    1    3    3    0    0  0.32268937236E+01  0.43967366714E+01  0.10511757297E+01  0.55541972541E+01  0.51100000000E-03 0. -1.
        -11    1    3    3    0    0 -0.18177307300E+01 -0.17994235078E+01 -0.54979909219E+00  0.26161707264E+01  0.51100000000E-03 0.  1.
        -12    1    3    3    0    0 -0.12332641773E+02 -0.27874120935E+02  0.29413951630E+02  0.42358484646E+02  0.00000000000E+00 0.  1.
</event>
<event>
 7    1  0.5456331E-013  0.5052886E+02  0.7816164E-02  0.1300439E+00
        -11   -1    0    0    0    0  0.00000000000E+00  0.00000000000E+00  0.45593999997E+02  0.45594000000E+02  0.51100000000E-03 0. -1.
         11   -1    0    0    0    0 -0.00000000000E+00 -0.00000000000E+00 -0.45593999997E+02  0.45594000000E+02  0.51100000000E-03 0.  1.
    9900012    2    1    2    0    0 -0.38192424543E+02 -0.97555815919E+01 -0.99666041054E+01  0.50528857583E+02  0.29999993109E+02 0.  0.
         12    1    1    2    0    0  0.38192424543E+02  0.97555815919E+01  0.99666041054E+01  0.40659142417E+02  0.00000000000E+00 0. -1.
         11    1    3    3    0    0 -0.14387452409E+01 -0.33348337525E+01  0.30421154329E+01  0.47376756530E+01  0.51100000000E-03 0. -1.
        -11    1    3    3    0    0  0.83238577650E+00 -0.44431081835E+01 -0.59900276348E+01  0.75042992836E+01  0.51100000000E-03 0.  1.
        -12    1    3    3    0    0 -0.37586065079E+02 -0.19776396559E+01 -0.70186919035E+01  0.38286882646E+02  0.00000000000E+00 0.  1.
</event>
<event>
 7    1  0.5456331E-013  0.5052886E+02  0.7816164E-02  0.1300439E+00
        -11   -1    0    0    0    0  0.00000000000E+00  0.00000000000E+00  0.45593999997E+02  0.45594000000E+02  0.51100000000E-03 0. -1.
         11   -1    0    0    0    0 -0.00000000000E+00 -0.00000000000E+00 -0.45593999997E+02  0.45594000000E+02  0.51100000000E-03 0.  1.
    9900012    2    1    2    0    0  0.21127505976E+02 -0.27688845000E+02 -0.20979090906E+02  0.50528857099E+02  0.29999991638E+02 0.  0.
         12    1    1    2    0    0 -0.21127505976E+02  0.27688845000E+02  0.20979090906E+02  0.40659142901E+02  0.00000000000E+00 0. -1.
         11    1    3    3    0    0 -0.31248222329E+00 -0.56901952822E+01 -0.10749520006E+02  0.12166681886E+02  0.51100000000E-03 0. -1.
        -11    1    3    3    0    0  0.24000704615E+01 -0.99741934728E+01 -0.11983508429E+02  0.15774959530E+02  0.51100000000E-03 0.  1.
         12    1    3    3    0    0  0.19039917738E+02 -0.12024456245E+02  0.17539375289E+01  0.22587215683E+02  0.00000000000E+00 0. -1.
</event>
<event>
 7    1  0.5456331E-013  0.5052887E+02  0.7816164E-02  0.1300439E+00
        -11   -1    0    0    0    0  0.00000000000E+00  0.00000000000E+00  0.45593999997E+02  0.45594000000E+02  0.51100000000E-03 0.  1.
         11   -1    0    0    0    0 -0.00000000000E+00 -0.00000000000E+00 -0.45593999997E+02  0.45594000000E+02  0.51100000000E-03 0. -1.
    9900012    2    1    2    0    0 -0.53016904221E+00 -0.25896639604E+02  0.31340836608E+02  0.50528867431E+02  0.30000023042E+02 0.  0.
         12    1    1    2    0    0  0.53016904221E+00  0.25896639604E+02 -0.31340836608E+02  0.40659132569E+02  0.00000000000E+00 0. -1.
         11    1    3    3    0    0  0.58609904266E+01 -0.91808479113E+01  0.11063100410E+02  0.15525184961E+02  0.51100000000E-03 0. -1.
        -11    1    3    3    0    0  0.12659574989E+01 -0.17341580553E+02  0.21026595491E+02  0.27284625390E+02  0.51100000000E-03 0.  1.
         12    1    3    3    0    0 -0.76571169677E+01  0.62578886027E+00 -0.74885929254E+00  0.77190570794E+01  0.00000000000E+00 0. -1.
</event>
<event>
 7    1  0.5456331E-013  0.5052886E+02  0.7816164E-02  0.1300439E+00
        -11   -1    0    0    0    0  0.00000000000E+00  0.00000000000E+00  0.45593999997E+02  0.45594000000E+02  0.51100000000E-03 0. -1.
         11   -1    0    0    0    0 -0.00000000000E+00 -0.00000000000E+00 -0.45593999997E+02  0.45594000000E+02  0.51100000000E-03 0.  1.
    9900012    2    1    2    0    0  0.36871149901E+02  0.15562044247E+02  0.71768224201E+01  0.50528859622E+02  0.29999999308E+02 0.  0.
         12    1    1    2    0    0 -0.36871149901E+02 -0.15562044247E+02 -0.71768224201E+01  0.40659140378E+02  0.00000000000E+00 0. -1.
         11    1    3    3    0    0  0.10206496817E+02  0.71045603985E+01 -0.20834558521E+00  0.12437474176E+02  0.51100000000E-03 0. -1.
        -11    1    3    3    0    0  0.11425825602E+02 -0.72367107879E+01 -0.30348780413E+01  0.13861095148E+02  0.51100000000E-03 0.  1.
         12    1    3    3    0    0  0.15238827483E+02  0.15694194637E+02  0.10420046047E+02  0.24230290298E+02  0.00000000000E+00 0. -1.
</event>
<event>
 7    1  0.5456331E-013  0.5052885E+02  0.7816164E-02  0.1300439E+00
        -11   -1    0    0    0    0  0.00000000000E+00  0.00000000000E+00  0.45593999997E+02  0.45594000000E+02  0.51100000000E-03 0.  1.
         11   -1    0    0    0    0 -0.00000000000E+00 -0.00000000000E+00 -0.45593999997E+02  0.45594000000E+02  0.51100000000E-03 0. -1.
    9900012    2    1    2    0    0  0.49266017937E+00 -0.31376475845E+02  0.25854214924E+02  0.50528851216E+02  0.29999973757E+02 0.  0.
         12    1    1    2    0    0 -0.49266017937E+00  0.31376475845E+02 -0.25854214924E+02  0.40659148784E+02  0.00000000000E+00 0. -1.
         11    1    3    3    0    0  0.16036435196E+01  0.66405238307E+00 -0.27923939108E+01  0.32878719744E+01  0.51100000000E-03 0. -1.
        -11    1    3    3    0    0 -0.59276777843E+01 -0.61472147346E+01  0.15748423473E+02  0.17914755233E+02  0.51100000000E-03 0.  1.
        -12    1    3    3    0    0  0.48166944440E+01 -0.25893313493E+02  0.12898185362E+02  0.29326224009E+02  0.00000000000E+00 0.  1.
</event>
<event>
 7    1  0.5456331E-013  0.5052886E+02  0.7816164E-02  0.1300439E+00
        -11   -1    0    0    0    0  0.00000000000E+00  0.00000000000E+00  0.45593999997E+02  0.45594000000E+02  0.51100000000E-03 0.  1.
         11   -1    0    0    0    0 -0.00000000000E+00 -0.00000000000E+00 -0.45593999997E+02  0.45594000000E+02  0.51100000000E-03 0. -1.
    9900012    2    1    2    0    0 -0.30679791429E+02 -0.92381782910E+01  0.25031417883E+02  0.50528863002E+02  0.30000009579E+02 0.  0.
         12    1    1    2    0    0  0.30679791429E+02  0.92381782910E+01 -0.25031417883E+02  0.40659136998E+02  0.00000000000E+00 0. -1.
         11    1    3    3    0    0 -0.95829405850E+00  0.46417522509E+01  0.21506449096E+01  0.52047541008E+01  0.51100000000E-03 0. -1.
        -11    1    3    3    0    0 -0.27504205390E+02 -0.17972615067E+02  0.14880696868E+02  0.36068425888E+02  0.51100000000E-03 0.  1.
         12    1    3    3    0    0 -0.22172919801E+01  0.40926845252E+01  0.80000761050E+01  0.92556830128E+01  0.00000000000E+00 0. -1.
</event>
<event>
 7    1  0.5456331E-013  0.5052889E+02  0.7816164E-02  0.1300439E+00
        -11   -1    0    0    0    0  0.00000000000E+00  0.00000000000E+00  0.45593999997E+02  0.45594000000E+02  0.51100000000E-03 0.  1.
         11   -1    0    0    0    0 -0.00000000000E+00 -0.00000000000E+00 -0.45593999997E+02  0.45594000000E+02  0.51100000000E-03 0. -1.
    9900012    2    1    2    0    0 -0.13695202744E+02  0.75033305480E+01  0.37540706521E+02  0.50528890399E+02  0.30000092855E+02 0.  0.
         12    1    1    2    0    0  0.13695202744E+02 -0.75033305480E+01 -0.37540706521E+02  0.40659109601E+02  0.00000000000E+00 0. -1.
         11    1    3    3    0    0 -0.61102683955E+01 -0.65414476532E+01  0.26682224853E+01  0.93405207969E+01  0.51100000000E-03 0. -1.
        -11    1    3    3    0    0 -0.50819768679E+01 -0.17859811811E+01  0.53278724159E+01  0.75764399560E+01  0.51100000000E-03 0.  1.
        -12    1    3    3    0    0 -0.25029574807E+01  0.15830759382E+02  0.29544611619E+02  0.33611929646E+02  0.00000000000E+00 0.  1.
</event>
<event>
 7    1  0.5456331E-013  0.5052887E+02  0.7816164E-02  0.1300439E+00
        -11   -1    0    0    0    0  0.00000000000E+00  0.00000000000E+00  0.45593999997E+02  0.45594000000E+02  0.51100000000E-03 0. -1.
         11   -1    0    0    0    0 -0.00000000000E+00 -0.00000000000E+00 -0.45593999997E+02  0.45594000000E+02  0.51100000000E-03 0.  1.
    9900012    2    1    2    0    0  0.39884329857E+02  0.25979031158E+01  0.74603103764E+01  0.50528866959E+02  0.30000021608E+02 0.  0.
         12    1    1    2    0    0 -0.39884329857E+02 -0.25979031158E+01 -0.74603103764E+01  0.40659133041E+02  0.00000000000E+00 0. -1.
         11    1    3    3    0    0  0.11390526554E+02  0.39206405211E+01  0.14503167533E+02  0.18853577539E+02  0.51100000000E-03 0. -1.
        -11    1    3    3    0    0  0.76392006326E+01  0.11154600416E+01  0.31465843731E+01  0.83368237890E+01  0.51100000000E-03 0.  1.
        -12    1    3    3    0    0  0.20854602670E+02 -0.24381974469E+01 -0.10189441529E+02  0.23338465631E+02  0.00000000000E+00 0.  1.
</event>
<event>
 7    1  0.5456331E-013  0.5052885E+02  0.7816164E-02  0.1300439E+00
        -11   -1    0    0    0    0  0.00000000000E+00  0.00000000000E+00  0.45593999997E+02  0.45594000000E+02  0.51100000000E-03 0.  1.
         11   -1    0    0    0    0 -0.00000000000E+00 -0.00000000000E+00 -0.45593999997E+02  0.45594000000E+02  0.51100000000E-03 0. -1.
    9900012    2    1    2    0    0  0.21156776980E+02 -0.28066062828E+02  0.20441457233E+02  0.50528852584E+02  0.29999977913E+02 0.  0.
         12    1    1    2    0    0 -0.21156776980E+02  0.28066062828E+02 -0.20441457233E+02  0.40659147416E+02  0.00000000000E+00 0. -1.
         11    1    3    3    0    0  0.54781650579E+00 -0.18718474701E+02  0.81318892631E+01  0.20415901188E+02  0.51100000000E-03 0. -1.
        -11    1    3    3    0    0  0.59978347098E+01 -0.44895066797E+01 -0.33004554692E+01  0.81867391554E+01  0.51100000000E-03 0.  1.
        -12    1    3    3    0    0  0.14611125764E+02 -0.48580814470E+01  0.15610023439E+02  0.21926212240E+02  0.00000000000E+00 0.  1.
</event>
<event>
 7    1  0.5456331E-013  0.5052885E+02  0.7816164E-02  0.1300439E+00
        -11   -1    0    0    0    0  0.00000000000E+00  0.00000000000E+00  0.45593999997E+02  0.45594000000E+02  0.51100000000E-03 0. -1.
         11   -1    0    0    0    0 -0.00000000000E+00 -0.00000000000E+00 -0.45593999997E+02  0.45594000000E+02  0.51100000000E-03 0.  1.
    9900012    2    1    2    0    0 -0.13248222945E+02  0.17223810190E+02 -0.34365554271E+02  0.50528851349E+02  0.29999974160E+02 0.  0.
         12    1    1    2    0    0  0.13248222945E+02 -0.17223810190E+02  0.34365554271E+02  0.40659148651E+02  0.00000000000E+00 0. -1.
         11    1    3    3    0    0 -0.23383333470E+01  0.58975400023E+01 -0.20691034477E+01  0.66730780199E+01  0.51100000000E-03 0. -1.
        -11    1    3    3    0    0 -0.59059304379E+01  0.17419732167E+02 -0.11694485029E+02  0.21796514938E+02  0.51100000000E-03 0.  1.
         12    1    3    3    0    0 -0.50039591604E+01 -0.60934619790E+01 -0.20601965794E+02  0.22059258391E+02  0.00000000000E+00 0. -1.
</event>
<event>
 7    1  0.5456331E-013  0.5052885E+02  0.7816164E-02  0.1300439E+00
        -11   -1    0    0    0    0  0.00000000000E+00  0.00000000000E+00  0.45593999997E+02  0.45594000000E+02  0.51100000000E-03 0. -1.
         11   -1    0    0    0    0 -0.00000000000E+00 -0.00000000000E+00 -0.45593999997E+02  0.45594000000E+02  0.51100000000E-03 0.  1.
    9900012    2    1    2    0    0  0.33062052345E+02 -0.23638420041E+02 -0.11366266068E+01  0.50528854321E+02  0.29999983195E+02 0.  0.
         12    1    1    2    0    0 -0.33062052345E+02  0.23638420041E+02  0.11366266068E+01  0.40659145679E+02  0.00000000000E+00 0. -1.
         11    1    3    3    0    0  0.17405209874E+02 -0.56448340356E+01  0.12570756243E+01  0.18340821176E+02  0.51100000000E-03 0. -1.
        -11    1    3    3    0    0  0.15282041442E+02 -0.22927399233E+01 -0.50549384595E+01  0.16258839137E+02  0.51100000000E-03 0.  1.
         12    1    3    3    0    0  0.37480102949E+00 -0.15700846082E+02  0.26612362285E+01  0.15929194009E+02  0.00000000000E+00 0. -1.
</event>
<event>
 7    1  0.5456331E-013  0.5052885E+02  0.7816164E-02  0.1300439E+00
        -11   -1    0    0    0    0  0.00000000000E+00  0.00000000000E+00  0.45593999997E+02  0.45594000000E+02  0.51100000000E-03 0.  1.
         11   -1    0    0    0    0 -0.00000000000E+00 -0.00000000000E+00 -0.45593999997E+02  0.45594000000E+02  0.51100000000E-03 0. -1.
    9900012    2    1    2    0    0 -0.25856734391E+02  0.22796105827E+02  0.21562306504E+02  0.50528853230E+02  0.29999979879E+02 0.  0.
         12    1    1    2    0    0  0.25856734391E+02 -0.22796105827E+02 -0.21562306504E+02  0.40659146770E+02  0.00000000000E+00 0. -1.
         11    1    3    3    0    0 -0.78940662609E+01 -0.21146747777E+01  0.14330578984E+02  0.16497079312E+02  0.51100000000E-03 0. -1.
        -11    1    3    3    0    0 -0.14683882640E+02  0.12879964498E+02  0.88756031039E+01  0.21454282220E+02  0.51100000000E-03 0.  1.
        -12    1    3    3    0    0 -0.32787854907E+01  0.12030816107E+02 -0.16438755841E+01  0.12577491698E+02  0.00000000000E+00 0.  1.
</event>
<event>
 7    1  0.5456331E-013  0.5052886E+02  0.7816164E-02  0.1300439E+00
        -11   -1    0    0    0    0  0.00000000000E+00  0.00000000000E+00  0.45593999997E+02  0.45594000000E+02  0.51100000000E-03 0. -1.
         11   -1    0    0    0    0 -0.00000000000E+00 -0.00000000000E+00 -0.45593999997E+02  0.45594000000E+02  0.51100000000E-03 0.  1.
    9900012    2    1    2    0    0  0.32822830271E+02  0.21055239458E+02 -0.11511044261E+02  0.50528862828E+02  0.30000009051E+02 0.  0.
         12    1    1    2    0    0 -0.32822830271E+02 -0.21055239458E+02  0.11511044261E+02  0.40659137172E+02  0.00000000000E+00 0. -1.
         11    1    3    3    0    0  0.13983824785E+02 -0.14708680255E+01  0.10770315700E+01  0.14102156063E+02  0.51100000000E-03 0. -1.
        -11    1    3    3    0    0  0.18422494121E+02  0.10595026536E+02 -0.12150925811E+02  0.24480356927E+02  0.51100000000E-03 0.  1.
        -12    1    3    3    0    0  0.41651136479E+00  0.11931080948E+02 -0.43715001996E+00  0.11946349837E+02  0.00000000000E+00 0.  1.
</event>
<event>
 7    1  0.5456331E-013  0.5052886E+02  0.7816164E-02  0.1300439E+00
        -11   -1    0    0    0    0  0.00000000000E+00  0.00000000000E+00  0.45593999997E+02  0.45594000000E+02  0.51100000000E-03 0. -1.
         11   -1    0    0    0    0 -0.00000000000E+00 -0.00000000000E+00 -0.45593999997E+02  0.45594000000E+02  0.51100000000E-03 0.  1.
    9900012    2    1    2    0    0 -0.36119117788E+02 -0.17430467985E+02  0.66898416311E+01  0.50528857547E+02  0.29999993001E+02 0.  0.
         12    1    1    2    0    0  0.36119117788E+02  0.17430467985E+02 -0.66898416311E+01  0.40659142453E+02  0.00000000000E+00 0. -1.
         11    1    3    3    0    0 -0.76229445281E+01 -0.12166442160E+02  0.11454303252E+02  0.18366618126E+02  0.51100000000E-03 0. -1.
        -11    1    3    3    0    0 -0.16767423152E+02 -0.86745227285E+01  0.44388176595E+00  0.18883613399E+02  0.51100000000E-03 0.  1.
         12    1    3    3    0    0 -0.11728750108E+02  0.34104969033E+01 -0.52083433871E+01  0.13278626023E+02  0.00000000000E+00 0. -1.
</event>
<event>
 7    1  0.5456331E-013  0.5052893E+02  0.7816164E-02  0.1300439E+00
        -11   -1    0    0    0    0  0.00000000000E+00  0.00000000000E+00  0.45593999997E+02  0.45594000000E+02  0.51100000000E-03 0.  1.
         11   -1    0    0    0    0 -0.00000000000E+00 -0.00000000000E+00 -0.45593999997E+02  0.45594000000E+02  0.51100000000E-03 0. -1.
    9900012    2    1    2    0    0 -0.34682617299E+02  0.27596071304E+00  0.21217919336E+02  0.50528927236E+02  0.30000204827E+02 0.  0.
         12    1    1    2    0    0  0.34682617299E+02 -0.27596071304E+00 -0.21217919336E+02  0.40659072764E+02  0.00000000000E+00 0. -1.
         11    1    3    3    0    0 -0.21120769841E+02  0.46789794432E+01  0.15212213329E+01  0.21686260210E+02  0.51100000000E-03 0. -1.
        -11    1    3    3    0    0 -0.79626474601E+01 -0.67237303035E+01  0.26541210401E+01  0.10754378761E+02  0.51100000000E-03 0.  1.
        -12    1    3    3    0    0 -0.55991999983E+01  0.23207115734E+01  0.17042576963E+02  0.18088288265E+02  0.00000000000E+00 0.  1.
</event>
<event>
 7    1  0.5456331E-013  0.5052887E+02  0.7816164E-02  0.1300439E+00
        -11   -1    0    0    0    0  0.00000000000E+00  0.00000000000E+00  0.45593999997E+02  0.45594000000E+02  0.51100000000E-03 0.  1.
         11   -1    0    0    0    0 -0.00000000000E+00 -0.00000000000E+00 -0.45593999997E+02  0.45594000000E+02  0.51100000000E-03 0. -1.
    9900012    2    1    2    0    0  0.26284695621E+02 -0.23729657221E+02  0.19979571281E+02  0.50528866655E+02  0.30000020685E+02 0.  0.
         12    1    1    2    0    0 -0.26284695621E+02  0.23729657221E+02 -0.19979571281E+02  0.40659133345E+02  0.00000000000E+00 0. -1.
         11    1    3    3    0    0  0.22148561803E+02 -0.16060399028E+02  0.17188992887E+02  0.32310318532E+02  0.51100000000E-03 0. -1.
        -11    1    3    3    0    0  0.70011740239E+01 -0.67480145240E+01  0.77385041415E+01  0.12427251681E+02  0.51100000000E-03 0.  1.
         12    1    3    3    0    0 -0.28650402060E+01 -0.92124366955E+00 -0.49479257476E+01  0.57912964425E+01  0.00000000000E+00 0. -1.
</event>
<event>
 7    1  0.5456331E-013  0.5052881E+02  0.7816164E-02  0.1300439E+00
        -11   -1    0    0    0    0  0.00000000000E+00  0.00000000000E+00  0.45593999997E+02  0.45594000000E+02  0.51100000000E-03 0.  1.
         11   -1    0    0    0    0 -0.00000000000E+00 -0.00000000000E+00 -0.45593999997E+02  0.45594000000E+02  0.51100000000E-03 0. -1.
    9900012    2    1    2    0    0 -0.71993867619E+01  0.18567077397E+02  0.35448589694E+02  0.50528806155E+02  0.29999836789E+02 0.  0.
         12    1    1    2    0    0  0.71993867619E+01 -0.18567077397E+02 -0.35448589694E+02  0.40659193845E+02  0.00000000000E+00 0. -1.
         11    1    3    3    0    0 -0.15868889716E+02  0.10048868040E+02  0.13214775399E+02  0.22965881189E+02  0.51100000000E-03 0. -1.
        -11    1    3    3    0    0  0.55713995433E+01  0.73501915906E+01  0.60186318670E+01  0.11013162085E+02  0.51100000000E-03 0.  1.
        -12    1    3    3    0    0  0.30981034107E+01  0.11680177661E+01  0.16215182428E+02  0.16549762881E+02  0.00000000000E+00 0.  1.
</event>
<event>
 7    1  0.5456331E-013  0.5052886E+02  0.7816164E-02  0.1300439E+00
        -11   -1    0    0    0    0  0.00000000000E+00  0.00000000000E+00  0.45593999997E+02  0.45594000000E+02  0.51100000000E-03 0. -1.
         11   -1    0    0    0    0 -0.00000000000E+00 -0.00000000000E+00 -0.45593999997E+02  0.45594000000E+02  0.51100000000E-03 0.  1.
    9900012    2    1    2    0    0 -0.31792361038E+02 -0.66436989951E+01 -0.24459606116E+02  0.50528864642E+02  0.30000014566E+02 0.  0.
         12    1    1    2    0    0  0.31792361038E+02  0.66436989951E+01  0.24459606116E+02  0.40659135358E+02  0.00000000000E+00 0. -1.
         11    1    3    3    0    0 -0.19383138300E+02 -0.54236335237E+01 -0.13697534863E+02  0.24346340845E+02  0.51100000000E-03 0. -1.
        -11    1    3    3    0    0 -0.17195531326E+02 -0.27558985168E+01 -0.11817791950E+02  0.21046174974E+02  0.51100000000E-03 0.  1.
         12    1    3    3    0    0  0.47863085876E+01  0.15358330455E+01  0.10557206972E+01  0.51363488228E+01  0.00000000000E+00 0. -1.
</event>
<event>
 7    1  0.5456331E-013  0.5052890E+02  0.7816164E-02  0.1300439E+00
        -11   -1    0    0    0    0  0.00000000000E+00  0.00000000000E+00  0.45593999997E+02  0.45594000000E+02  0.51100000000E-03 0.  1.
         11   -1    0    0    0    0 -0.00000000000E+00 -0.00000000000E+00 -0.45593999997E+02  0.45594000000E+02  0.51100000000E-03 0. -1.
    9900012    2    1    2    0    0  0.29409906901E+02  0.28029531195E+02 -0.16016843688E+01  0.50528897259E+02  0.30000113708E+02 0.  0.
         12    1    1    2    0    0 -0.29409906901E+02 -0.28029531195E+02  0.16016843688E+01  0.40659102741E+02  0.00000000000E+00 0. -1.
         11    1    3    3    0    0 -0.15768155851E+01 -0.11162258827E+01 -0.31280850657E+01  0.36765777633E+01  0.51100000000E-03 0. -1.
        -11    1    3    3    0    0  0.76524933392E+00  0.91111328954E+00  0.51967204747E+01  0.53311947931E+01  0.51100000000E-03 0.  1.
         12    1    3    3    0    0  0.30221473152E+02  0.28234643788E+02 -0.36703197778E+01  0.41521124702E+02  0.00000000000E+00 0. -1.
</event>
<event>
 7    1  0.5456331E-013  0.5052887E+02  0.7816164E-02  0.1300439E+00
        -11   -1    0    0    0    0  0.00000000000E+00  0.00000000000E+00  0.45593999997E+02  0.45594000000E+02  0.51100000000E-03 0. -1.
         11   -1    0    0    0    0 -0.00000000000E+00 -0.00000000000E+00 -0.45593999997E+02  0.45594000000E+02  0.51100000000E-03 0.  1.
    9900012    2    1    2    0    0 -0.92125664341E+01 -0.38370562445E+02 -0.97976318892E+01  0.50528867775E+02  0.30000024089E+02 0.  0.
         12    1    1    2    0    0  0.92125664341E+01  0.38370562445E+02  0.97976318892E+01  0.40659132225E+02  0.00000000000E+00 0. -1.
         11    1    3    3    0    0 -0.53712583385E+01 -0.60108541258E+01 -0.72749682455E+00  0.80938269904E+01  0.51100000000E-03 0. -1.
        -11    1    3    3    0    0 -0.38465591954E+01 -0.34245560761E+02 -0.13493981017E+01  0.34487321221E+02  0.51100000000E-03 0.  1.
        -12    1    3    3    0    0  0.52510997476E-02  0.18858524423E+01 -0.77207369630E+01  0.79477195635E+01  0.00000000000E+00 0.  1.
</event>
<event>
 7    1  0.5456331E-013  0.5052887E+02  0.7816164E-02  0.1300439E+00
        -11   -1    0    0    0    0  0.00000000000E+00  0.00000000000E+00  0.45593999997E+02  0.45594000000E+02  0.51100000000E-03 0.  1.
         11   -1    0    0    0    0 -0.00000000000E+00 -0.00000000000E+00 -0.45593999997E+02  0.45594000000E+02  0.51100000000E-03 0. -1.
    9900012    2    1    2    0    0  0.45102607738E+01 -0.16673058635E+02  0.36808037871E+02  0.50528868327E+02  0.30000025765E+02 0.  0.
         12    1    1    2    0    0 -0.45102607738E+01  0.16673058635E+02 -0.36808037871E+02  0.40659131673E+02  0.00000000000E+00 0. -1.
         11    1    3    3    0    0  0.30353538520E+01 -0.93094390140E+01  0.62055495471E+01  0.11592578367E+02  0.51100000000E-03 0. -1.
        -11    1    3    3    0    0  0.37513757243E+01 -0.14198758656E+02  0.11925833868E+02  0.18918326588E+02  0.51100000000E-03 0.  1.
        -12    1    3    3    0    0 -0.22764688025E+01  0.68351390349E+01  0.18676654456E+02  0.20017963371E+02  0.00000000000E+00 0.  1.
</event>
<event>
 7    1  0.5456331E-013  0.5052886E+02  0.7816164E-02  0.1300439E+00
        -11   -1    0    0    0    0  0.00000000000E+00  0.00000000000E+00  0.45593999997E+02  0.45594000000E+02  0.51100000000E-03 0.  1.
         11   -1    0    0    0    0 -0.00000000000E+00 -0.00000000000E+00 -0.45593999997E+02  0.45594000000E+02  0.51100000000E-03 0. -1.
    9900012    2    1    2    0    0 -0.26654015897E+01 -0.16926693843E+01  0.40536358471E+02  0.50528857691E+02  0.29999993436E+02 0.  0.
         12    1    1    2    0    0  0.26654015897E+01  0.16926693843E+01 -0.40536358471E+02  0.40659142309E+02  0.00000000000E+00 0. -1.
         11    1    3    3    0    0 -0.11735215207E+02 -0.93770212939E+01  0.17989869817E+02  0.23436706693E+02  0.51100000000E-03 0.  1.
        -11    1    3    3    0    0  0.44147911681E+01  0.57198890308E+01  0.20328093745E+02  0.21574033169E+02  0.51100000000E-03 0. -1.
        -12    1    3    3    0    0  0.46550224495E+01  0.19644628788E+01  0.22183949082E+01  0.55181178292E+01  0.00000000000E+00 0.  1.
</event>
<event>
 7    1  0.5456331E-013  0.5052886E+02  0.7816164E-02  0.1300439E+00
        -11   -1    0    0    0    0  0.00000000000E+00  0.00000000000E+00  0.45593999997E+02  0.45594000000E+02  0.51100000000E-03 0. -1.
         11   -1    0    0    0    0 -0.00000000000E+00 -0.00000000000E+00 -0.45593999997E+02  0.45594000000E+02  0.51100000000E-03 0.  1.
    9900012    2    1    2    0    0 -0.19316878508E+01  0.47914799516E+00 -0.40610401535E+02  0.50528859409E+02  0.29999998659E+02 0.  0.
         12    1    1    2    0    0  0.19316878508E+01 -0.47914799516E+00  0.40610401535E+02  0.40659140591E+02  0.00000000000E+00 0. -1.
         11    1    3    3    0    0  0.35553111743E+00  0.17996552892E+01 -0.17574141758E+02  0.17669624227E+02  0.51100000000E-03 0. -1.
        -11    1    3    3    0    0 -0.83209701754E+01 -0.20071292016E+01 -0.25041519313E+02  0.26464028455E+02  0.51100000000E-03 0.  1.
         12    1    3    3    0    0  0.60337512072E+01  0.68662190761E+00  0.20052595356E+01  0.63952067269E+01  0.00000000000E+00 0. -1.
</event>
<event>
 7    1  0.5456331E-013  0.5052886E+02  0.7816164E-02  0.1300439E+00
        -11   -1    0    0    0    0  0.00000000000E+00  0.00000000000E+00  0.45593999997E+02  0.45594000000E+02  0.51100000000E-03 0.  1.
         11   -1    0    0    0    0 -0.00000000000E+00 -0.00000000000E+00 -0.45593999997E+02  0.45594000000E+02  0.51100000000E-03 0. -1.
    9900012    2    1    2    0    0  0.13513120275E+02  0.18579439708E+01  0.38302859684E+02  0.50528862831E+02  0.30000009061E+02 0.  0.
         12    1    1    2    0    0 -0.13513120275E+02 -0.18579439708E+01 -0.38302859684E+02  0.40659137169E+02  0.00000000000E+00 0. -1.
         11    1    3    3    0    0  0.32992197239E+01 -0.27940014903E+01  0.42674504079E+01  0.60747368963E+01  0.51100000000E-03 0. -1.
        -11    1    3    3    0    0  0.62380674644E+01 -0.10515094973E+02  0.10191906262E+02  0.15917149918E+02  0.51100000000E-03 0.  1.
         12    1    3    3    0    0  0.39758330870E+01  0.15167040434E+02  0.23843503013E+02  0.28536976017E+02  0.00000000000E+00 0. -1.
</event>
<event>
 7    1  0.5456331E-013  0.5052886E+02  0.7816164E-02  0.1300439E+00
        -11   -1    0    0    0    0  0.00000000000E+00  0.00000000000E+00  0.45593999997E+02  0.45594000000E+02  0.51100000000E-03 0. -1.
         11   -1    0    0    0    0 -0.00000000000E+00 -0.00000000000E+00 -0.45593999997E+02  0.45594000000E+02  0.51100000000E-03 0.  1.
    9900012    2    1    2    0    0  0.15104190178E+02 -0.35554290243E+02 -0.12685477347E+02  0.50528862637E+02  0.30000008471E+02 0.  0.
         12    1    1    2    0    0 -0.15104190178E+02  0.35554290243E+02  0.12685477347E+02  0.40659137363E+02  0.00000000000E+00 0. -1.
         11    1    3    3    0    0  0.33279645098E+01 -0.13795112565E+02 -0.30110831922E+00  0.14194053154E+02  0.51100000000E-03 0. -1.
        -11    1    3    3    0    0  0.49610469722E+01 -0.21693477705E+02 -0.62462198737E-01  0.22253603389E+02  0.51100000000E-03 0.  1.
         12    1    3    3    0    0  0.68151786962E+01 -0.65699972454E-01 -0.12321906829E+02  0.14081206094E+02  0.00000000000E+00 0. -1.
</event>
<event>
 7    1  0.5456331E-013  0.5052886E+02  0.7816164E-02  0.1300439E+00
        -11   -1    0    0    0    0  0.00000000000E+00  0.00000000000E+00  0.45593999997E+02  0.45594000000E+02  0.51100000000E-03 0.  1.
         11   -1    0    0    0    0 -0.00000000000E+00 -0.00000000000E+00 -0.45593999997E+02  0.45594000000E+02  0.51100000000E-03 0. -1.
    9900012    2    1    2    0    0  0.36448346112E+02  0.73428415552E+01  0.16454993218E+02  0.50528855171E+02  0.29999985778E+02 0.  0.
         12    1    1    2    0    0 -0.36448346112E+02 -0.73428415552E+01 -0.16454993218E+02  0.40659144829E+02  0.00000000000E+00 0. -1.
         11    1    3    3    0    0  0.74351979995E+01  0.69134088212E+01  0.12130037587E+01  0.10224909252E+02  0.51100000000E-03 0. -1.
        -11    1    3    3    0    0  0.22769198836E+02  0.69771232952E+01  0.15135579036E+01  0.23862261479E+02  0.51100000000E-03 0.  1.
        -12    1    3    3    0    0  0.62439492764E+01 -0.65476905612E+01  0.13728431556E+02  0.16441684440E+02  0.00000000000E+00 0.  1.
</event>
<event>
 7    1  0.5456331E-013  0.5052886E+02  0.7816164E-02  0.1300439E+00
        -11   -1    0    0    0    0  0.00000000000E+00  0.00000000000E+00  0.45593999997E+02  0.45594000000E+02  0.51100000000E-03 0.  1.
         11   -1    0    0    0    0 -0.00000000000E+00 -0.00000000000E+00 -0.45593999997E+02  0.45594000000E+02  0.51100000000E-03 0. -1.
    9900012    2    1    2    0    0  0.12635711100E+02 -0.34902454835E+02 -0.16592863004E+02  0.50528860177E+02  0.30000000994E+02 0.  0.
         12    1    1    2    0    0 -0.12635711100E+02  0.34902454835E+02  0.16592863004E+02  0.40659139823E+02  0.00000000000E+00 0. -1.
         11    1    3    3    0    0  0.25185273690E+01 -0.21593922298E+02 -0.67696710373E+01  0.22769912309E+02  0.51100000000E-03 0. -1.
        -11    1    3    3    0    0  0.10758481370E+02 -0.12459587416E+02 -0.15122772839E+02  0.22353623835E+02  0.51100000000E-03 0.  1.
        -12    1    3    3    0    0 -0.64129763990E+00 -0.84894512065E+00  0.52995808724E+01  0.54053240332E+01  0.00000000000E+00 0.  1.
</event>
<event>
 7    1  0.5456331E-013  0.5052885E+02  0.7816164E-02  0.1300439E+00
        -11   -1    0    0    0    0  0.00000000000E+00  0.00000000000E+00  0.45593999997E+02  0.45594000000E+02  0.51100000000E-03 0.  1.
         11   -1    0    0    0    0 -0.00000000000E+00 -0.00000000000E+00 -0.45593999997E+02  0.45594000000E+02  0.51100000000E-03 0. -1.
    9900012    2    1    2    0    0  0.34076839731E+02 -0.21879214525E+02 -0.36379998458E+01  0.50528854939E+02  0.29999985071E+02 0.  0.
         12    1    1    2    0    0 -0.34076839731E+02  0.21879214525E+02  0.36379998458E+01  0.40659145061E+02  0.00000000000E+00 0. -1.
         11    1    3    3    0    0  0.21574614096E+02 -0.16869550142E+02 -0.96343625246E+01  0.29032165556E+02  0.51100000000E-03 0. -1.
        -11    1    3    3    0    0  0.62106296617E+01  0.20091760198E+01 -0.40808562819E+01  0.76981879250E+01  0.51100000000E-03 0.  1.
        -12    1    3    3    0    0  0.62915959731E+01 -0.70188404024E+01  0.10077218961E+02  0.13798501457E+02  0.00000000000E+00 0.  1.
</event>
<event>
 7    1  0.5456331E-013  0.5052886E+02  0.7816164E-02  0.1300439E+00
        -11   -1    0    0    0    0  0.00000000000E+00  0.00000000000E+00  0.45593999997E+02  0.45594000000E+02  0.51100000000E-03 0. -1.
         11   -1    0    0    0    0 -0.00000000000E+00 -0.00000000000E+00 -0.45593999997E+02  0.45594000000E+02  0.51100000000E-03 0.  1.
    9900012    2    1    2    0    0 -0.27896617950E+02  0.13946305172E+02 -0.26085333343E+02  0.50528864045E+02  0.30000012752E+02 0.  0.
         12    1    1    2    0    0  0.27896617950E+02 -0.13946305172E+02  0.26085333343E+02  0.40659135955E+02  0.00000000000E+00 0. -1.
         11    1    3    3    0    0 -0.33835573474E+01 -0.31532660959E+01 -0.34948143152E+01  0.57970056713E+01  0.51100000000E-03 0. -1.
        -11    1    3    3    0    0 -0.20328824625E+02  0.89893498419E+00 -0.18512842416E+02  0.27509898751E+02  0.51100000000E-03 0.  1.
         12    1    3    3    0    0 -0.41842359778E+01  0.16200636283E+02 -0.40776766120E+01  0.17221959623E+02  0.00000000000E+00 0. -1.
</event>
<event>
 7    1  0.5456331E-013  0.5052878E+02  0.7816164E-02  0.1300439E+00
        -11   -1    0    0    0    0  0.00000000000E+00  0.00000000000E+00  0.45593999997E+02  0.45594000000E+02  0.51100000000E-03 0.  1.
         11   -1    0    0    0    0 -0.00000000000E+00 -0.00000000000E+00 -0.45593999997E+02  0.45594000000E+02  0.51100000000E-03 0. -1.
    9900012    2    1    2    0    0  0.26994508835E+02  0.30323643343E+02  0.22237390177E+01  0.50528783726E+02  0.29999768613E+02 0.  0.
         12    1    1    2    0    0 -0.26994508835E+02 -0.30323643343E+02 -0.22237390177E+01  0.40659216274E+02  0.00000000000E+00 0. -1.
         11    1    3    3    0    0  0.48062872485E+01  0.10561286546E+02 -0.75888519517E+01  0.13864769916E+02  0.51100000000E-03 0. -1.
        -11    1    3    3    0    0  0.10108109248E+02  0.18261634216E+02 -0.24451942711E+00  0.20873929836E+02  0.51100000000E-03 0.  1.
         12    1    3    3    0    0  0.12080112338E+02  0.15007225809E+01  0.10057110396E+02  0.15790083973E+02  0.00000000000E+00 0. -1.
</event>
<event>
 7    1  0.5456331E-013  0.5052886E+02  0.7816164E-02  0.1300439E+00
        -11   -1    0    0    0    0  0.00000000000E+00  0.00000000000E+00  0.45593999997E+02  0.45594000000E+02  0.51100000000E-03 0.  1.
         11   -1    0    0    0    0 -0.00000000000E+00 -0.00000000000E+00 -0.45593999997E+02  0.45594000000E+02  0.51100000000E-03 0. -1.
    9900012    2    1    2    0    0 -0.36941865579E+02  0.16886442347E+02  0.18198655495E+01  0.50528864763E+02  0.30000014934E+02 0.  0.
         12    1    1    2    0    0  0.36941865579E+02 -0.16886442347E+02 -0.18198655495E+01  0.40659135237E+02  0.00000000000E+00 0. -1.
         11    1    3    3    0    0 -0.96677153191E+01  0.79090704864E+00  0.90296580111E+01  0.13252357432E+02  0.51100000000E-03 0. -1.
        -11    1    3    3    0    0 -0.54117658264E+01  0.76407157928E+01  0.52457151200E+01  0.10732440290E+02  0.51100000000E-03 0.  1.
         12    1    3    3    0    0 -0.21862384433E+02  0.84548195057E+01 -0.12455507582E+02  0.26544067041E+02  0.00000000000E+00 0. -1.
</event>
<event>
 7    1  0.5456331E-013  0.5052886E+02  0.7816164E-02  0.1300439E+00
        -11   -1    0    0    0    0  0.00000000000E+00  0.00000000000E+00  0.45593999997E+02  0.45594000000E+02  0.51100000000E-03 0.  1.
         11   -1    0    0    0    0 -0.00000000000E+00 -0.00000000000E+00 -0.45593999997E+02  0.45594000000E+02  0.51100000000E-03 0. -1.
    9900012    2    1    2    0    0  0.28789595467E+02 -0.24146125300E+02  0.15533504682E+02  0.50528856602E+02  0.29999990128E+02 0.  0.
         12    1    1    2    0    0 -0.28789595467E+02  0.24146125300E+02 -0.15533504682E+02  0.40659143398E+02  0.00000000000E+00 0. -1.
         11    1    3    3    0    0  0.15777027769E+02 -0.11416430909E+02 -0.93401843806E+00  0.19496714868E+02  0.51100000000E-03 0. -1.
        -11    1    3    3    0    0  0.46525766529E+01 -0.16160699366E+02  0.13353605314E+02  0.21474017990E+02  0.51100000000E-03 0.  1.
         12    1    3    3    0    0  0.83599910445E+01  0.34310049748E+01  0.31139178060E+01  0.95581237439E+01  0.00000000000E+00 0. -1.
</event>
<event>
 7    1  0.5456331E-013  0.5052884E+02  0.7816164E-02  0.1300439E+00
        -11   -1    0    0    0    0  0.00000000000E+00  0.00000000000E+00  0.45593999997E+02  0.45594000000E+02  0.51100000000E-03 0.  1.
         11   -1    0    0    0    0 -0.00000000000E+00 -0.00000000000E+00 -0.45593999997E+02  0.45594000000E+02  0.51100000000E-03 0. -1.
    9900012    2    1    2    0    0  0.37551427732E+02  0.94420327987E+01  0.12405882483E+02  0.50528835864E+02  0.29999927091E+02 0.  0.
         12    1    1    2    0    0 -0.37551427732E+02 -0.94420327987E+01 -0.12405882483E+02  0.40659164136E+02  0.00000000000E+00 0. -1.
         11    1    3    3    0    0 -0.16365130257E+01  0.62753374055E+00 -0.49396901901E+00  0.18209830124E+01  0.51100000000E-03 0. -1.
        -11    1    3    3    0    0  0.78122987679E+01  0.13115853574E+02  0.50576380663E+01  0.16082205386E+02  0.51100000000E-03 0.  1.
        -12    1    3    3    0    0  0.31375641990E+02 -0.43013545160E+01  0.78422134357E+01  0.32625647465E+02  0.00000000000E+00 0.  1.
</event>
<event>
 7    1  0.5456331E-013  0.5052886E+02  0.7816164E-02  0.1300439E+00
        -11   -1    0    0    0    0  0.00000000000E+00  0.00000000000E+00  0.45593999997E+02  0.45594000000E+02  0.51100000000E-03 0.  1.
         11   -1    0    0    0    0 -0.00000000000E+00 -0.00000000000E+00 -0.45593999997E+02  0.45594000000E+02  0.51100000000E-03 0. -1.
    9900012    2    1    2    0    0 -0.14976739196E+02  0.10206755653E+02  0.36396219186E+02  0.50528863893E+02  0.30000012289E+02 0.  0.
         12    1    1    2    0    0  0.14976739196E+02 -0.10206755653E+02 -0.36396219186E+02  0.40659136107E+02  0.00000000000E+00 0. -1.
         11    1    3    3    0    0 -0.52567712277E+01 -0.40759890572E+01  0.78282814622E+01  0.10272746539E+02  0.51100000000E-03 0. -1.
        -11    1    3    3    0    0 -0.11020237380E+02  0.15690697149E+02  0.31426841372E+02  0.36814263104E+02  0.51100000000E-03 0.  1.
         12    1    3    3    0    0  0.13002694118E+01 -0.14079524389E+01 -0.28589036481E+01  0.34418542506E+01  0.00000000000E+00 0. -1.
</event>
<event>
 7    1  0.5456331E-013  0.5052888E+02  0.7816164E-02  0.1300439E+00
        -11   -1    0    0    0    0  0.00000000000E+00  0.00000000000E+00  0.45593999997E+02  0.45594000000E+02  0.51100000000E-03 0. -1.
         11   -1    0    0    0    0 -0.00000000000E+00 -0.00000000000E+00 -0.45593999997E+02  0.45594000000E+02  0.51100000000E-03 0.  1.
    9900012    2    1    2    0    0  0.34424600104E+02 -0.20077231876E+02 -0.80632144611E+01  0.50528883438E+02  0.30000071698E+02 0.  0.
         12    1    1    2    0    0 -0.34424600104E+02  0.20077231876E+02  0.80632144611E+01  0.40659116562E+02  0.00000000000E+00 0. -1.
         11    1    3    3    0    0  0.11425896334E+01  0.16101078638E+00  0.19844673012E+01  0.22955492316E+01  0.51100000000E-03 0. -1.
        -11    1    3    3    0    0  0.18505161591E+02 -0.21958618065E+02  0.24269611511E+01  0.28818606030E+02  0.51100000000E-03 0.  1.
        -12    1    3    3    0    0  0.14776848880E+02  0.17203754021E+01 -0.12474642913E+02  0.19414728177E+02  0.00000000000E+00 0.  1.
</event>
<event>
 7    1  0.5456331E-013  0.5052884E+02  0.7816164E-02  0.1300439E+00
        -11   -1    0    0    0    0  0.00000000000E+00  0.00000000000E+00  0.45593999997E+02  0.45594000000E+02  0.51100000000E-03 0.  1.
         11   -1    0    0    0    0 -0.00000000000E+00 -0.00000000000E+00 -0.45593999997E+02  0.45594000000E+02  0.51100000000E-03 0. -1.
    9900012    2    1    2    0    0 -0.40231260390E+01 -0.15451957820E+02  0.37392764150E+02  0.50528839232E+02  0.29999937330E+02 0.  0.
         12    1    1    2    0    0  0.40231260390E+01  0.15451957820E+02 -0.37392764150E+02  0.40659160768E+02  0.00000000000E+00 0. -1.
         11    1    3    3    0    0 -0.92522563460E+01 -0.18564385098E+01  0.88984624526E+01  0.12970475925E+02  0.51100000000E-03 0. -1.
        -11    1    3    3    0    0 -0.29971358681E+01 -0.14975796661E+02  0.22859975258E+02  0.27492467661E+02  0.51100000000E-03 0.  1.
        -12    1    3    3    0    0  0.82262661751E+01  0.13802773505E+01  0.56343264388E+01  0.10065895646E+02  0.00000000000E+00 0.  1.
</event>
<event>
 7    1  0.5456331E-013  0.5052887E+02  0.7816164E-02  0.1300439E+00
        -11   -1    0    0    0    0  0.00000000000E+00  0.00000000000E+00  0.45593999997E+02  0.45594000000E+02  0.51100000000E-03 0. -1.
         11   -1    0    0    0    0 -0.00000000000E+00 -0.00000000000E+00 -0.45593999997E+02  0.45594000000E+02  0.51100000000E-03 0.  1.
    9900012    2    1    2    0    0 -0.13450147700E+02 -0.28874513333E+02  0.25268976728E+02  0.50528865993E+02  0.30000018671E+02 0.  0.
         12    1    1    2    0    0  0.13450147700E+02  0.28874513333E+02 -0.25268976728E+02  0.40659134007E+02  0.00000000000E+00 0. -1.
         11    1    3    3    0    0  0.74085534545E+01 -0.79859777488E+00  0.34628054446E+01  0.82167782313E+01  0.51100000000E-03 0. -1.
        -11    1    3    3    0    0 -0.77266022434E+01 -0.16818950040E+02  0.14601427980E+02  0.23574968971E+02  0.51100000000E-03 0.  1.
        -12    1    3    3    0    0 -0.13132098911E+02 -0.11256965518E+02  0.72047433028E+01  0.18737118790E+02  0.00000000000E+00 0.  1.
</event>
<event>
 7    1  0.5456331E-013  0.5052888E+02  0.7816164E-02  0.1300439E+00
        -11   -1    0    0    0    0  0.00000000000E+00  0.00000000000E+00  0.45593999997E+02  0.45594000000E+02  0.51100000000E-03 0.  1.
         11   -1    0    0    0    0 -0.00000000000E+00 -0.00000000000E+00 -0.45593999997E+02  0.45594000000E+02  0.51100000000E-03 0. -1.
    9900012    2    1    2    0    0  0.18165526365E+01 -0.39900002865E+02  0.76061678381E+01  0.50528881941E+02  0.30000067149E+02 0.  0.
         12    1    1    2    0    0 -0.18165526365E+01  0.39900002865E+02 -0.76061678381E+01  0.40659118059E+02  0.00000000000E+00 0. -1.
         11    1    3    3    0    0 -0.65145909146E+01 -0.84337946783E+01  0.63266709460E+00  0.10675629039E+02  0.51100000000E-03 0. -1.
        -11    1    3    3    0    0 -0.68971201092E+01 -0.48957930793E+01  0.29866053394E+01  0.89698866989E+01  0.51100000000E-03 0.  1.
         12    1    3    3    0    0  0.15228263660E+02 -0.26570415108E+02  0.39868954041E+01  0.30883366204E+02  0.00000000000E+00 0. -1.
</event>
<event>
 7    1  0.5456331E-013  0.5052886E+02  0.7816164E-02  0.1300439E+00
        -11   -1    0    0    0    0  0.00000000000E+00  0.00000000000E+00  0.45593999997E+02  0.45594000000E+02  0.51100000000E-03 0.  1.
         11   -1    0    0    0    0 -0.00000000000E+00 -0.00000000000E+00 -0.45593999997E+02  0.45594000000E+02  0.51100000000E-03 0. -1.
    9900012    2    1    2    0    0 -0.29021788824E+02  0.28424955911E+02 -0.17096776301E+01  0.50528863970E+02  0.30000012522E+02 0.  0.
         12    1    1    2    0    0  0.29021788824E+02 -0.28424955911E+02  0.17096776301E+01  0.40659136030E+02  0.00000000000E+00 0. -1.
         11    1    3    3    0    0 -0.22479590570E+02  0.18942554466E+02  0.71380845898E+00  0.29405133645E+02  0.51100000000E-03 0. -1.
        -11    1    3    3    0    0 -0.68182897573E+01  0.85774135221E+01  0.61048040180E+01  0.12543114856E+02  0.51100000000E-03 0.  1.
         12    1    3    3    0    0  0.27609150305E+00  0.90498792299E+00 -0.85282901071E+01  0.85806154680E+01  0.00000000000E+00 0. -1.
</event>
<event>
 7    1  0.5456331E-013  0.5052887E+02  0.7816164E-02  0.1300439E+00
        -11   -1    0    0    0    0  0.00000000000E+00  0.00000000000E+00  0.45593999997E+02  0.45594000000E+02  0.51100000000E-03 0. -1.
         11   -1    0    0    0    0 -0.00000000000E+00 -0.00000000000E+00 -0.45593999997E+02  0.45594000000E+02  0.51100000000E-03 0.  1.
    9900012    2    1    2    0    0 -0.82120636611E+01  0.30110780317E+02 -0.26058928314E+02  0.50528870327E+02  0.30000031845E+02 0.  0.
         12    1    1    2    0    0  0.82120636611E+01 -0.30110780317E+02  0.26058928314E+02  0.40659129673E+02  0.00000000000E+00 0. -1.
         11    1    3    3    0    0 -0.44139866616E+00  0.18295309824E+02 -0.16539916882E+02  0.24667428830E+02  0.51100000000E-03 0. -1.
        -11    1    3    3    0    0 -0.38416194850E+01  0.10895975547E+02 -0.15076041223E+02  0.18993876450E+02  0.51100000000E-03 0.  1.
         12    1    3    3    0    0 -0.39290455099E+01  0.91949494614E+00  0.55570297906E+01  0.68675650465E+01  0.00000000000E+00 0. -1.
</event>
<event>
 7    1  0.5456331E-013  0.5052886E+02  0.7816164E-02  0.1300439E+00
        -11   -1    0    0    0    0  0.00000000000E+00  0.00000000000E+00  0.45593999997E+02  0.45594000000E+02  0.51100000000E-03 0. -1.
         11   -1    0    0    0    0 -0.00000000000E+00 -0.00000000000E+00 -0.45593999997E+02  0.45594000000E+02  0.51100000000E-03 0.  1.
    9900012    2    1    2    0    0 -0.50041619015E+01  0.92724586035E+01 -0.39270157567E+02  0.50528863263E+02  0.30000010374E+02 0.  0.
         12    1    1    2    0    0  0.50041619015E+01 -0.92724586035E+01  0.39270157567E+02  0.40659136737E+02  0.00000000000E+00 0. -1.
         11    1    3    3    0    0 -0.12519606491E+02  0.57820744236E+01 -0.27234078106E+02  0.30526512115E+02  0.51100000000E-03 0. -1.
        -11    1    3    3    0    0 -0.28002599008E+01  0.45600402157E+01 -0.24720892423E+01  0.58946287215E+01  0.51100000000E-03 0.  1.
        -12    1    3    3    0    0  0.10315704491E+02 -0.10696560359E+01 -0.95639902179E+01  0.14107722426E+02  0.00000000000E+00 0.  1.
</event>
<event>
 7    1  0.5456331E-013  0.5052885E+02  0.7816164E-02  0.1300439E+00
        -11   -1    0    0    0    0  0.00000000000E+00  0.00000000000E+00  0.45593999997E+02  0.45594000000E+02  0.51100000000E-03 0.  1.
         11   -1    0    0    0    0 -0.00000000000E+00 -0.00000000000E+00 -0.45593999997E+02  0.45594000000E+02  0.51100000000E-03 0. -1.
    9900012    2    1    2    0    0  0.38901221104E+02 -0.17600811559E+01  0.11694580733E+02  0.50528854564E+02  0.29999983934E+02 0.  0.
         12    1    1    2    0    0 -0.38901221104E+02  0.17600811559E+01 -0.11694580733E+02  0.40659145436E+02  0.00000000000E+00 0. -1.
         11    1    3    3    0    0  0.65599609450E+01 -0.45241362347E+01 -0.41502297009E+01  0.89847261005E+01  0.51100000000E-03 0. -1.
        -11    1    3    3    0    0 -0.76905436808E+00 -0.44482570017E+01  0.16995273882E+01  0.48235701071E+01  0.51100000000E-03 0.  1.
        -12    1    3    3    0    0  0.33110314527E+02  0.72123120805E+01  0.14145283045E+02  0.36720558357E+02  0.00000000000E+00 0.  1.
</event>
<event>
 7    1  0.5456331E-013  0.5052886E+02  0.7816164E-02  0.1300439E+00
        -11   -1    0    0    0    0  0.00000000000E+00  0.00000000000E+00  0.45593999997E+02  0.45594000000E+02  0.51100000000E-03 0.  1.
         11   -1    0    0    0    0 -0.00000000000E+00 -0.00000000000E+00 -0.45593999997E+02  0.45594000000E+02  0.51100000000E-03 0. -1.
    9900012    2    1    2    0    0  0.29340264547E+00  0.40602895736E+02 -0.21176535781E+01  0.50528859773E+02  0.29999999767E+02 0.  0.
         12    1    1    2    0    0 -0.29340264547E+00 -0.40602895736E+02  0.21176535781E+01  0.40659140227E+02  0.00000000000E+00 0. -1.
         11    1    3    3    0    0 -0.82093044083E+01  0.25981195636E+02 -0.35138424625E+01  0.27472937496E+02  0.51100000000E-03 0. -1.
        -11    1    3    3    0    0  0.84331804679E+00  0.15299679824E+02  0.81103317165E+00  0.15344352809E+02  0.51100000000E-03 0.  1.
         12    1    3    3    0    0  0.76593890070E+01 -0.67797972359E+00  0.58515571279E+00  0.77115694689E+01  0.00000000000E+00 0. -1.
</event>
<event>
 7    1  0.5456331E-013  0.5052892E+02  0.7816164E-02  0.1300439E+00
        -11   -1    0    0    0    0  0.00000000000E+00  0.00000000000E+00  0.45593999997E+02  0.45594000000E+02  0.51100000000E-03 0. -1.
         11   -1    0    0    0    0 -0.00000000000E+00 -0.00000000000E+00 -0.45593999997E+02  0.45594000000E+02  0.51100000000E-03 0.  1.
    9900012    2    1    2    0    0  0.31512728174E+02  0.13095470598E+02 -0.22104683760E+02  0.50528924368E+02  0.30000196108E+02 0.  0.
         12    1    1    2    0    0 -0.31512728174E+02 -0.13095470598E+02  0.22104683760E+02  0.40659075632E+02  0.00000000000E+00 0. -1.
         11    1    3    3    0    0  0.12964721344E+02  0.10322492145E+02 -0.25801711485E-01  0.16572221022E+02  0.51100000000E-03 0. -1.
        -11    1    3    3    0    0  0.20090098852E+02  0.62315071080E+01 -0.14696921178E+02  0.25660148969E+02  0.51100000000E-03 0.  1.
         12    1    3    3    0    0 -0.15420920216E+01 -0.34585286548E+01 -0.73819608698E+01  0.82965543778E+01  0.00000000000E+00 0. -1.
</event>
<event>
 7    1  0.5456331E-013  0.5052896E+02  0.7816164E-02  0.1300438E+00
        -11   -1    0    0    0    0  0.00000000000E+00  0.00000000000E+00  0.45593999997E+02  0.45594000000E+02  0.51100000000E-03 0. -1.
         11   -1    0    0    0    0 -0.00000000000E+00 -0.00000000000E+00 -0.45593999997E+02  0.45594000000E+02  0.51100000000E-03 0.  1.
    9900012    2    1    2    0    0  0.28730938611E+00 -0.10371525384E+02 -0.39312931562E+02  0.50528958281E+02  0.30000299190E+02 0.  0.
         12    1    1    2    0    0 -0.28730938611E+00  0.10371525384E+02  0.39312931562E+02  0.40659041719E+02  0.00000000000E+00 0. -1.
         11    1    3    3    0    0 -0.47146564174E+01 -0.51457081953E+00 -0.22831482085E+01  0.52636046836E+01  0.51100000000E-03 0. -1.
        -11    1    3    3    0    0 -0.66877217409E+01 -0.11501124633E+02 -0.25511815478E+02  0.28772455912E+02  0.51100000000E-03 0.  1.
        -12    1    3    3    0    0  0.11689687544E+02  0.16441700693E+01 -0.11517967875E+02  0.16492897686E+02  0.00000000000E+00 0.  1.
</event>
<event>
 7    1  0.5456331E-013  0.5052886E+02  0.7816164E-02  0.1300439E+00
        -11   -1    0    0    0    0  0.00000000000E+00  0.00000000000E+00  0.45593999997E+02  0.45594000000E+02  0.51100000000E-03 0. -1.
         11   -1    0    0    0    0 -0.00000000000E+00 -0.00000000000E+00 -0.45593999997E+02  0.45594000000E+02  0.51100000000E-03 0.  1.
    9900012    2    1    2    0    0  0.30049336803E+02 -0.27368040728E+02  0.10924402010E+01  0.50528859316E+02  0.29999998377E+02 0.  0.
         12    1    1    2    0    0 -0.30049336803E+02  0.27368040728E+02 -0.10924402010E+01  0.40659140684E+02  0.00000000000E+00 0. -1.
         11    1    3    3    0    0  0.53146342511E+01 -0.17531345303E+01  0.17376277986E+01  0.58598778598E+01  0.51100000000E-03 0. -1.
        -11    1    3    3    0    0  0.26133886849E+02 -0.86596225094E+01  0.11928188319E+01  0.27557066623E+02  0.51100000000E-03 0.  1.
         12    1    3    3    0    0 -0.13991842970E+01 -0.16955283688E+02 -0.18380064294E+01  0.17111914834E+02  0.00000000000E+00 0. -1.
</event>
<event>
 7    1  0.5456331E-013  0.5052886E+02  0.7816164E-02  0.1300439E+00
        -11   -1    0    0    0    0  0.00000000000E+00  0.00000000000E+00  0.45593999997E+02  0.45594000000E+02  0.51100000000E-03 0.  1.
         11   -1    0    0    0    0 -0.00000000000E+00 -0.00000000000E+00 -0.45593999997E+02  0.45594000000E+02  0.51100000000E-03 0. -1.
    9900012    2    1    2    0    0 -0.17150777907E+02 -0.12196831675E+02  0.34788700110E+02  0.50528861531E+02  0.30000005110E+02 0.  0.
         12    1    1    2    0    0  0.17150777907E+02  0.12196831675E+02 -0.34788700110E+02  0.40659138469E+02  0.00000000000E+00 0. -1.
         11    1    3    3    0    0 -0.43194257075E+01  0.98997487635E-01  0.17486717359E+02  0.18012565703E+02  0.51100000000E-03 0. -1.
        -11    1    3    3    0    0 -0.92526003768E+01 -0.72796294337E+01  0.21875634215E+02  0.24842443338E+02  0.51100000000E-03 0.  1.
         12    1    3    3    0    0 -0.35787518223E+01 -0.50161997290E+01 -0.45736514644E+01  0.76738524904E+01  0.00000000000E+00 0. -1.
</event>
<event>
 7    1  0.5456331E-013  0.5052886E+02  0.7816164E-02  0.1300439E+00
        -11   -1    0    0    0    0  0.00000000000E+00  0.00000000000E+00  0.45593999997E+02  0.45594000000E+02  0.51100000000E-03 0. -1.
         11   -1    0    0    0    0 -0.00000000000E+00 -0.00000000000E+00 -0.45593999997E+02  0.45594000000E+02  0.51100000000E-03 0.  1.
    9900012    2    1    2    0    0 -0.32453261687E+02 -0.17290432325E+02 -0.17349136267E+02  0.50528858675E+02  0.29999996428E+02 0.  0.
         12    1    1    2    0    0  0.32453261687E+02  0.17290432325E+02  0.17349136267E+02  0.40659141325E+02  0.00000000000E+00 0. -1.
         11    1    3    3    0    0 -0.14638977745E+01 -0.58917886816E+01 -0.12292167774E+02  0.13709615582E+02  0.51100000000E-03 0. -1.
        -11    1    3    3    0    0 -0.19996868187E+02 -0.74538703439E+01 -0.10672113558E+02  0.23860614587E+02  0.51100000000E-03 0.  1.
        -12    1    3    3    0    0 -0.10992495725E+02 -0.39447732992E+01  0.56151450656E+01  0.12958628506E+02  0.00000000000E+00 0.  1.
</event>
<event>
 7    1  0.5456331E-013  0.5052886E+02  0.7816164E-02  0.1300439E+00
        -11   -1    0    0    0    0  0.00000000000E+00  0.00000000000E+00  0.45593999997E+02  0.45594000000E+02  0.51100000000E-03 0.  1.
         11   -1    0    0    0    0 -0.00000000000E+00 -0.00000000000E+00 -0.45593999997E+02  0.45594000000E+02  0.51100000000E-03 0. -1.
    9900012    2    1    2    0    0  0.15451787031E+02 -0.14127688186E+02  0.34854220195E+02  0.50528856362E+02  0.29999989398E+02 0.  0.
         12    1    1    2    0    0 -0.15451787031E+02  0.14127688186E+02 -0.34854220195E+02  0.40659143638E+02  0.00000000000E+00 0. -1.
         11    1    3    3    0    0  0.44550236799E+01 -0.26044325913E+01 -0.10217978919E+01  0.52606440959E+01  0.51100000000E-03 0. -1.
        -11    1    3    3    0    0  0.21508184321E+01  0.60871704837E+01  0.34416371662E+01  0.73160461365E+01  0.51100000000E-03 0.  1.
        -12    1    3    3    0    0  0.88459449191E+01 -0.17610426079E+02  0.32434380921E+02  0.37952166130E+02  0.00000000000E+00 0.  1.
</event>
<event>
 7    1  0.5456331E-013  0.5052886E+02  0.7816164E-02  0.1300439E+00
        -11   -1    0    0    0    0  0.00000000000E+00  0.00000000000E+00  0.45593999997E+02  0.45594000000E+02  0.51100000000E-03 0.  1.
         11   -1    0    0    0    0 -0.00000000000E+00 -0.00000000000E+00 -0.45593999997E+02  0.45594000000E+02  0.51100000000E-03 0. -1.
    9900012    2    1    2    0    0  0.13615638168E+02  0.37851476106E+02 -0.59199492120E+01  0.50528860255E+02  0.30000001230E+02 0.  0.
         12    1    1    2    0    0 -0.13615638168E+02 -0.37851476106E+02  0.59199492120E+01  0.40659139745E+02  0.00000000000E+00 0. -1.
         11    1    3    3    0    0  0.12024141433E+02  0.73134172327E+01 -0.89394148798E+01  0.16672707862E+02  0.51100000000E-03 0. -1.
        -11    1    3    3    0    0  0.64210102215E+01  0.63120778413E+01  0.36673425833E+00  0.90114478980E+01  0.51100000000E-03 0.  1.
         12    1    3    3    0    0 -0.48295134861E+01  0.24225981032E+02  0.26527314095E+01  0.24844704494E+02  0.00000000000E+00 0. -1.
</event>
<event>
 7    1  0.5456331E-013  0.5052888E+02  0.7816164E-02  0.1300439E+00
        -11   -1    0    0    0    0  0.00000000000E+00  0.00000000000E+00  0.45593999997E+02  0.45594000000E+02  0.51100000000E-03 0.  1.
         11   -1    0    0    0    0 -0.00000000000E+00 -0.00000000000E+00 -0.45593999997E+02  0.45594000000E+02  0.51100000000E-03 0. -1.
    9900012    2    1    2    0    0  0.24709462323E+02  0.27693384309E+02  0.16603712645E+02  0.50528876346E+02  0.30000050140E+02 0.  0.
         12    1    1    2    0    0 -0.24709462323E+02 -0.27693384309E+02 -0.16603712645E+02  0.40659123654E+02  0.00000000000E+00 0. -1.
         11    1    3    3    0    0  0.88408521719E+01  0.61642056723E+01  0.17012062105E+02  0.20138727765E+02  0.51100000000E-03 0. -1.
        -11    1    3    3    0    0  0.10961556383E+02  0.20093188157E+02  0.44725802022E+01  0.23321575903E+02  0.51100000000E-03 0.  1.
         12    1    3    3    0    0  0.49070537674E+01  0.14359904794E+01 -0.48809296618E+01  0.70685726775E+01  0.00000000000E+00 0. -1.
</event>
<event>
 7    1  0.5456331E-013  0.5052885E+02  0.7816164E-02  0.1300439E+00
        -11   -1    0    0    0    0  0.00000000000E+00  0.00000000000E+00  0.45593999997E+02  0.45594000000E+02  0.51100000000E-03 0.  1.
         11   -1    0    0    0    0 -0.00000000000E+00 -0.00000000000E+00 -0.45593999997E+02  0.45594000000E+02  0.51100000000E-03 0. -1.
    9900012    2    1    2    0    0  0.29289173770E+02  0.27995504362E+02 -0.34003256907E+01  0.50528853681E+02  0.29999981249E+02 0.  0.
         12    1    1    2    0    0 -0.29289173770E+02 -0.27995504362E+02  0.34003256907E+01  0.40659146319E+02  0.00000000000E+00 0. -1.
         11    1    3    3    0    0 -0.33681999148E+01  0.22791638776E+01  0.19556432982E+01  0.45126377672E+01  0.51100000000E-03 0. -1.
        -11    1    3    3    0    0 -0.20713351082E+00  0.86782788434E+01 -0.77366309504E+00  0.87151582212E+01  0.51100000000E-03 0.  1.
        -12    1    3    3    0    0  0.32864507196E+02  0.17038061641E+02 -0.45823058939E+01  0.37301057693E+02  0.00000000000E+00 0.  1.
</event>
<event>
 7    1  0.5456331E-013  0.5052886E+02  0.7816164E-02  0.1300439E+00
        -11   -1    0    0    0    0  0.00000000000E+00  0.00000000000E+00  0.45593999997E+02  0.45594000000E+02  0.51100000000E-03 0. -1.
         11   -1    0    0    0    0 -0.00000000000E+00 -0.00000000000E+00 -0.45593999997E+02  0.45594000000E+02  0.51100000000E-03 0.  1.
    9900012    2    1    2    0    0 -0.14248800223E+02 -0.36335511618E+02 -0.11395970219E+02  0.50528857737E+02  0.29999993577E+02 0.  0.
         12    1    1    2    0    0  0.14248800223E+02  0.36335511618E+02  0.11395970219E+02  0.40659142263E+02  0.00000000000E+00 0. -1.
         11    1    3    3    0    0 -0.13754346933E+01 -0.15638891337E+02  0.70273645026E+00  0.15714979530E+02  0.51100000000E-03 0. -1.
        -11    1    3    3    0    0 -0.16979223386E+02 -0.19527600765E+02 -0.47415576816E+01  0.26307861714E+02  0.51100000000E-03 0.  1.
        -12    1    3    3    0    0  0.41058578556E+01 -0.11690195155E+01 -0.73571489877E+01  0.85060164934E+01  0.00000000000E+00 0.  1.
</event>
<event>
 7    1  0.5456331E-013  0.5052887E+02  0.7816164E-02  0.1300439E+00
        -11   -1    0    0    0    0  0.00000000000E+00  0.00000000000E+00  0.45593999997E+02  0.45594000000E+02  0.51100000000E-03 0.  1.
         11   -1    0    0    0    0 -0.00000000000E+00 -0.00000000000E+00 -0.45593999997E+02  0.45594000000E+02  0.51100000000E-03 0. -1.
    9900012    2    1    2    0    0 -0.33781624085E+02 -0.73825183960E+01  0.21388439353E+02  0.50528867672E+02  0.30000023777E+02 0.  0.
         12    1    1    2    0    0  0.33781624085E+02  0.73825183960E+01 -0.21388439353E+02  0.40659132328E+02  0.00000000000E+00 0. -1.
         11    1    3    3    0    0 -0.42304953520E+01 -0.61415800831E+01  0.10916053331E+01  0.75370882510E+01  0.51100000000E-03 0. -1.
        -11    1    3    3    0    0 -0.22412930121E+02 -0.76519530659E+01  0.23010548882E+02  0.33020859808E+02  0.51100000000E-03 0.  1.
         12    1    3    3    0    0 -0.71381986117E+01  0.64110147530E+01 -0.27137148622E+01  0.99709196134E+01  0.00000000000E+00 0. -1.
</event>
<event>
 7    1  0.5456331E-013  0.5052887E+02  0.7816164E-02  0.1300439E+00
        -11   -1    0    0    0    0  0.00000000000E+00  0.00000000000E+00  0.45593999997E+02  0.45594000000E+02  0.51100000000E-03 0.  1.
         11   -1    0    0    0    0 -0.00000000000E+00 -0.00000000000E+00 -0.45593999997E+02  0.45594000000E+02  0.51100000000E-03 0. -1.
    9900012    2    1    2    0    0 -0.17409696755E+02  0.22175376472E+02  0.29297103330E+02  0.50528866631E+02  0.30000020612E+02 0.  0.
         12    1    1    2    0    0  0.17409696755E+02 -0.22175376472E+02 -0.29297103330E+02  0.40659133369E+02  0.00000000000E+00 0. -1.
         11    1    3    3    0    0 -0.17597227774E+02  0.19342284884E+02  0.10321845010E+02  0.28112753237E+02  0.51100000000E-03 0. -1.
        -11    1    3    3    0    0 -0.25883231730E+01 -0.36224543472E+01  0.45259054131E+01  0.63486543783E+01  0.51100000000E-03 0.  1.
        -12    1    3    3    0    0  0.27758541919E+01  0.64555459351E+01  0.14449352906E+02  0.16067459016E+02  0.00000000000E+00 0.  1.
</event>
<event>
 7    1  0.5456331E-013  0.5052886E+02  0.7816164E-02  0.1300439E+00
        -11   -1    0    0    0    0  0.00000000000E+00  0.00000000000E+00  0.45593999997E+02  0.45594000000E+02  0.51100000000E-03 0.  1.
         11   -1    0    0    0    0 -0.00000000000E+00 -0.00000000000E+00 -0.45593999997E+02  0.45594000000E+02  0.51100000000E-03 0. -1.
    9900012    2    1    2    0    0 -0.11661993388E+02 -0.63349907615E+01  0.38432167735E+02  0.50528859398E+02  0.29999998625E+02 0.  0.
         12    1    1    2    0    0  0.11661993388E+02  0.63349907615E+01 -0.38432167735E+02  0.40659140602E+02  0.00000000000E+00 0. -1.
         11    1    3    3    0    0  0.78043238265E+01 -0.27336345665E+01  0.16357902082E+02  0.18329244096E+02  0.51100000000E-03 0. -1.
        -11    1    3    3    0    0  0.35015111064E+00  0.25145231117E+01  0.37293843586E+01  0.45115119677E+01  0.51100000000E-03 0.  1.
        -12    1    3    3    0    0 -0.19816468325E+02 -0.61158793068E+01  0.18344881294E+02  0.27688103334E+02  0.00000000000E+00 0.  1.
</event>
<event>
 7    1  0.5456331E-013  0.5052886E+02  0.7816164E-02  0.1300439E+00
        -11   -1    0    0    0    0  0.00000000000E+00  0.00000000000E+00  0.45593999997E+02  0.45594000000E+02  0.51100000000E-03 0.  1.
         11   -1    0    0    0    0 -0.00000000000E+00 -0.00000000000E+00 -0.45593999997E+02  0.45594000000E+02  0.51100000000E-03 0. -1.
    9900012    2    1    2    0    0  0.29791165322E+01  0.10699503068E+02  0.39112803703E+02  0.50528856936E+02  0.29999991142E+02 0.  0.
         12    1    1    2    0    0 -0.29791165322E+01 -0.10699503068E+02 -0.39112803703E+02  0.40659143064E+02  0.00000000000E+00 0. -1.
         11    1    3    3    0    0  0.30905261040E+01  0.46679778852E+00  0.73632051584E+01  0.79991275924E+01  0.51100000000E-03 0. -1.
        -11    1    3    3    0    0 -0.67952807428E+01  0.92938225376E+01  0.33611088065E+02  0.35528245367E+02  0.51100000000E-03 0.  1.
         12    1    3    3    0    0  0.66838711710E+01  0.93888274168E+00 -0.18614895201E+01  0.70014839760E+01  0.00000000000E+00 0. -1.
</event>
<event>
 7    1  0.5456331E-013  0.5052886E+02  0.7816164E-02  0.1300439E+00
        -11   -1    0    0    0    0  0.00000000000E+00  0.00000000000E+00  0.45593999997E+02  0.45594000000E+02  0.51100000000E-03 0.  1.
         11   -1    0    0    0    0 -0.00000000000E+00 -0.00000000000E+00 -0.45593999997E+02  0.45594000000E+02  0.51100000000E-03 0. -1.
    9900012    2    1    2    0    0 -0.32013423883E+02 -0.21071032169E+02  0.13576372207E+02  0.50528860957E+02  0.30000003366E+02 0.  0.
         12    1    1    2    0    0  0.32013423883E+02  0.21071032169E+02 -0.13576372207E+02  0.40659139043E+02  0.00000000000E+00 0. -1.
         11    1    3    3    0    0 -0.13049702148E+02  0.26533330243E+01 -0.14979910374E+01  0.13400704448E+02  0.51100000000E-03 0. -1.
        -11    1    3    3    0    0 -0.37626668811E+01  0.15924800050E+01  0.26899194353E+00  0.40946320410E+01  0.51100000000E-03 0.  1.
        -12    1    3    3    0    0 -0.15201054854E+02 -0.25316845199E+02  0.14805371301E+02  0.33033524469E+02  0.00000000000E+00 0.  1.
</event>
<event>
 7    1  0.5456331E-013  0.5052887E+02  0.7816164E-02  0.1300439E+00
        -11   -1    0    0    0    0  0.00000000000E+00  0.00000000000E+00  0.45593999997E+02  0.45594000000E+02  0.51100000000E-03 0.  1.
         11   -1    0    0    0    0 -0.00000000000E+00 -0.00000000000E+00 -0.45593999997E+02  0.45594000000E+02  0.51100000000E-03 0. -1.
    9900012    2    1    2    0    0 -0.24013661654E+02 -0.18512840585E+02  0.27088438645E+02  0.50528871618E+02  0.30000035770E+02 0.  0.
         12    1    1    2    0    0  0.24013661654E+02  0.18512840585E+02 -0.27088438645E+02  0.40659128382E+02  0.00000000000E+00 0. -1.
         11    1    3    3    0    0 -0.18205376924E+02 -0.11610674558E+02  0.19712930905E+01  0.21682470093E+02  0.51100000000E-03 0.  1.
        -11    1    3    3    0    0  0.14025002042E+01  0.15426115251E+01  0.10355866816E+01  0.23278954394E+01  0.51100000000E-03 0. -1.
        -12    1    3    3    0    0 -0.72107849349E+01 -0.84447775516E+01  0.24081558873E+02  0.26518506086E+02  0.00000000000E+00 0.  1.
</event>
<event>
 7    1  0.5456331E-013  0.5052886E+02  0.7816164E-02  0.1300439E+00
        -11   -1    0    0    0    0  0.00000000000E+00  0.00000000000E+00  0.45593999997E+02  0.45594000000E+02  0.51100000000E-03 0.  1.
         11   -1    0    0    0    0 -0.00000000000E+00 -0.00000000000E+00 -0.45593999997E+02  0.45594000000E+02  0.51100000000E-03 0. -1.
    9900012    2    1    2    0    0 -0.27425822513E+02 -0.20220957261E+02  0.22183399146E+02  0.50528855264E+02  0.29999986060E+02 0.  0.
         12    1    1    2    0    0  0.27425822513E+02  0.20220957261E+02 -0.22183399146E+02  0.40659144736E+02  0.00000000000E+00 0. -1.
         11    1    3    3    0    0 -0.39934751112E+00 -0.28858806090E+01  0.55013231046E+01  0.62251378689E+01  0.51100000000E-03 0. -1.
        -11    1    3    3    0    0 -0.24188901240E+01 -0.15040522175E+02  0.11410727303E+02  0.19033471427E+02  0.51100000000E-03 0.  1.
         12    1    3    3    0    0 -0.24607584877E+02 -0.22945544766E+01  0.52713487383E+01  0.25270245968E+02  0.00000000000E+00 0. -1.
</event>
<event>
 7    1  0.5456331E-013  0.5052886E+02  0.7816164E-02  0.1300439E+00
        -11   -1    0    0    0    0  0.00000000000E+00  0.00000000000E+00  0.45593999997E+02  0.45594000000E+02  0.51100000000E-03 0. -1.
         11   -1    0    0    0    0 -0.00000000000E+00 -0.00000000000E+00 -0.45593999997E+02  0.45594000000E+02  0.51100000000E-03 0.  1.
    9900012    2    1    2    0    0  0.31606157051E+02 -0.24188851314E+00 -0.25576505341E+02  0.50528864507E+02  0.30000014157E+02 0.  0.
         12    1    1    2    0    0 -0.31606157051E+02  0.24188851314E+00  0.25576505341E+02  0.40659135493E+02  0.00000000000E+00 0. -1.
         11    1    3    3    0    0  0.17562998777E+02 -0.32747112614E+01 -0.44624306033E+01  0.18414558019E+02  0.51100000000E-03 0. -1.
        -11    1    3    3    0    0  0.51553728523E+01 -0.53838885478E+01  0.28726719211E+00  0.74596680785E+01  0.51100000000E-03 0.  1.
        -12    1    3    3    0    0  0.88877854211E+01  0.84167112960E+01 -0.21401341929E+02  0.24654638410E+02  0.00000000000E+00 0.  1.
</event>
<event>
 7    1  0.5456331E-013  0.5052887E+02  0.7816164E-02  0.1300439E+00
        -11   -1    0    0    0    0  0.00000000000E+00  0.00000000000E+00  0.45593999997E+02  0.45594000000E+02  0.51100000000E-03 0.  1.
         11   -1    0    0    0    0 -0.00000000000E+00 -0.00000000000E+00 -0.45593999997E+02  0.45594000000E+02  0.51100000000E-03 0. -1.
    9900012    2    1    2    0    0  0.26974377964E+02 -0.18731857120E+02  0.23972182665E+02  0.50528867207E+02  0.30000022363E+02 0.  0.
         12    1    1    2    0    0 -0.26974377964E+02  0.18731857120E+02 -0.23972182665E+02  0.40659132793E+02  0.00000000000E+00 0. -1.
         11    1    3    3    0    0  0.66476648523E+01 -0.23148474611E+01  0.86924765320E+00  0.70926411513E+01  0.51100000000E-03 0. -1.
        -11    1    3    3    0    0  0.16947602020E+02 -0.15340406378E+02  0.30380535321E+01  0.23060335028E+02  0.51100000000E-03 0.  1.
        -12    1    3    3    0    0  0.33791110919E+01 -0.10766032812E+01  0.20064881480E+02  0.20375891028E+02  0.00000000000E+00 0.  1.
</event>
<event>
 7    1  0.5456331E-013  0.5052886E+02  0.7816164E-02  0.1300439E+00
        -11   -1    0    0    0    0  0.00000000000E+00  0.00000000000E+00  0.45593999997E+02  0.45594000000E+02  0.51100000000E-03 0.  1.
         11   -1    0    0    0    0 -0.00000000000E+00 -0.00000000000E+00 -0.45593999997E+02  0.45594000000E+02  0.51100000000E-03 0. -1.
    9900012    2    1    2    0    0 -0.21905419428E+01  0.29988912805E+02  0.27368451846E+02  0.50528861770E+02  0.30000005835E+02 0.  0.
         12    1    1    2    0    0  0.21905419428E+01 -0.29988912805E+02 -0.27368451846E+02  0.40659138230E+02  0.00000000000E+00 0. -1.
         11    1    3    3    0    0 -0.25248912183E+01  0.64519403786E+01  0.10520478217E+00  0.69291903294E+01  0.51100000000E-03 0. -1.
        -11    1    3    3    0    0  0.64988322899E+01  0.49943639400E+01 -0.19768970170E+01  0.84312878242E+01  0.51100000000E-03 0.  1.
        -12    1    3    3    0    0 -0.61644830143E+01  0.18542608486E+02  0.29240144081E+02  0.35168383616E+02  0.00000000000E+00 0.  1.
</event>
<event>
 7    1  0.5456331E-013  0.5052887E+02  0.7816164E-02  0.1300439E+00
        -11   -1    0    0    0    0  0.00000000000E+00  0.00000000000E+00  0.45593999997E+02  0.45594000000E+02  0.51100000000E-03 0.  1.
         11   -1    0    0    0    0 -0.00000000000E+00 -0.00000000000E+00 -0.45593999997E+02  0.45594000000E+02  0.51100000000E-03 0. -1.
    9900012    2    1    2    0    0 -0.41104192177E+01  0.23230556045E+02  0.33115114728E+02  0.50528866908E+02  0.30000021455E+02 0.  0.
         12    1    1    2    0    0  0.41104192177E+01 -0.23230556045E+02 -0.33115114728E+02  0.40659133092E+02  0.00000000000E+00 0. -1.
         11    1    3    3    0    0 -0.61734499754E+01  0.55084867154E+01  0.19428853045E+02  0.21117178822E+02  0.51100000000E-03 0. -1.
        -11    1    3    3    0    0  0.22968399044E+01  0.55210812729E+01  0.15919732985E+02  0.17005755218E+02  0.51100000000E-03 0.  1.
         12    1    3    3    0    0 -0.23380914666E+00  0.12200988057E+02 -0.22334713018E+01  0.12405932868E+02  0.00000000000E+00 0. -1.
</event>
<event>
 7    1  0.5456331E-013  0.5052885E+02  0.7816164E-02  0.1300439E+00
        -11   -1    0    0    0    0  0.00000000000E+00  0.00000000000E+00  0.45593999997E+02  0.45594000000E+02  0.51100000000E-03 0.  1.
         11   -1    0    0    0    0 -0.00000000000E+00 -0.00000000000E+00 -0.45593999997E+02  0.45594000000E+02  0.51100000000E-03 0. -1.
    9900012    2    1    2    0    0  0.19780518041E+02  0.34444172258E+02  0.86888705054E+01  0.50528851372E+02  0.29999974230E+02 0.  0.
         12    1    1    2    0    0 -0.19780518041E+02 -0.34444172258E+02 -0.86888705054E+01  0.40659148628E+02  0.00000000000E+00 0. -1.
         11    1    3    3    0    0  0.36151245207E+01  0.15546153340E+02  0.24640490209E+01  0.16150032409E+02  0.51100000000E-03 0.  1.
        -11    1    3    3    0    0  0.68926774562E+01  0.17934844691E+02 -0.49350233577E+01  0.19837391774E+02  0.51100000000E-03 0. -1.
         12    1    3    3    0    0  0.92727160642E+01  0.96317422714E+00  0.11159844842E+02  0.14541427189E+02  0.00000000000E+00 0. -1.
</event>
<event>
 7    1  0.5456331E-013  0.5052885E+02  0.7816164E-02  0.1300439E+00
        -11   -1    0    0    0    0  0.00000000000E+00  0.00000000000E+00  0.45593999997E+02  0.45594000000E+02  0.51100000000E-03 0.  1.
         11   -1    0    0    0    0 -0.00000000000E+00 -0.00000000000E+00 -0.45593999997E+02  0.45594000000E+02  0.51100000000E-03 0. -1.
    9900012    2    1    2    0    0  0.36253909876E+02  0.10464145962E+02  0.15143385072E+02  0.50528850433E+02  0.29999971377E+02 0.  0.
         12    1    1    2    0    0 -0.36253909876E+02 -0.10464145962E+02 -0.15143385072E+02  0.40659149567E+02  0.00000000000E+00 0. -1.
         11    1    3    3    0    0  0.91546114908E+01 -0.35504076595E+01 -0.94433958328E+00  0.98642832282E+01  0.51100000000E-03 0.  1.
        -11    1    3    3    0    0  0.75106166785E+01 -0.53794824833E+01  0.71645910717E+01  0.11691003386E+02  0.51100000000E-03 0. -1.
        -12    1    3    3    0    0  0.19588681707E+02  0.19394036105E+02  0.89231335841E+01  0.28973563820E+02  0.00000000000E+00 0.  1.
</event>
<event>
 7    1  0.5456331E-013  0.5052886E+02  0.7816164E-02  0.1300439E+00
        -11   -1    0    0    0    0  0.00000000000E+00  0.00000000000E+00  0.45593999997E+02  0.45594000000E+02  0.51100000000E-03 0.  1.
         11   -1    0    0    0    0 -0.00000000000E+00 -0.00000000000E+00 -0.45593999997E+02  0.45594000000E+02  0.51100000000E-03 0. -1.
    9900012    2    1    2    0    0  0.17319429973E+02 -0.29086304155E+02  0.22520879271E+02  0.50528858996E+02  0.29999997405E+02 0.  0.
         12    1    1    2    0    0 -0.17319429973E+02  0.29086304155E+02 -0.22520879271E+02  0.40659141004E+02  0.00000000000E+00 0. -1.
         11    1    3    3    0    0  0.11742829117E+02 -0.10631556692E+02 -0.54024935923E+00  0.15849791891E+02  0.51100000000E-03 0. -1.
        -11    1    3    3    0    0 -0.38519991274E+01  0.37009673550E-01  0.84762561204E+01  0.93105416101E+01  0.51100000000E-03 0.  1.
        -12    1    3    3    0    0  0.94285999836E+01 -0.18491757137E+02  0.14584872510E+02  0.25368525495E+02  0.00000000000E+00 0.  1.
</event>
<event>
 7    1  0.5456331E-013  0.5052884E+02  0.7816164E-02  0.1300439E+00
        -11   -1    0    0    0    0  0.00000000000E+00  0.00000000000E+00  0.45593999997E+02  0.45594000000E+02  0.51100000000E-03 0.  1.
         11   -1    0    0    0    0 -0.00000000000E+00 -0.00000000000E+00 -0.45593999997E+02  0.45594000000E+02  0.51100000000E-03 0. -1.
    9900012    2    1    2    0    0 -0.19903355003E+02 -0.35386374204E+02  0.21972779473E+01  0.50528842974E+02  0.29999948703E+02 0.  0.
         12    1    1    2    0    0  0.19903355003E+02  0.35386374204E+02 -0.21972779473E+01  0.40659157026E+02  0.00000000000E+00 0. -1.
         11    1    3    3    0    0 -0.15668841006E+02 -0.18384955468E+02 -0.37115959581E+01  0.24439621741E+02  0.51100000000E-03 0. -1.
        -11    1    3    3    0    0 -0.42036531479E+01 -0.38557503787E+01 -0.60519492861E+01  0.83164656672E+01  0.51100000000E-03 0.  1.
        -12    1    3    3    0    0 -0.30860848360E-01 -0.13145668358E+02  0.11960823191E+02  0.17772755565E+02  0.00000000000E+00 0.  1.
</event>
<event>
 7    1  0.5456331E-013  0.5052887E+02  0.7816164E-02  0.1300439E+00
        -11   -1    0    0    0    0  0.00000000000E+00  0.00000000000E+00  0.45593999997E+02  0.45594000000E+02  0.51100000000E-03 0.  1.
         11   -1    0    0    0    0 -0.00000000000E+00 -0.00000000000E+00 -0.45593999997E+02  0.45594000000E+02  0.51100000000E-03 0. -1.
    9900012    2    1    2    0    0 -0.40221066208E+02  0.23548704656E+01  0.54667662635E+01  0.50528866768E+02  0.30000021028E+02 0.  0.
         12    1    1    2    0    0  0.40221066208E+02 -0.23548704656E+01 -0.54667662635E+01  0.40659133232E+02  0.00000000000E+00 0. -1.
         11    1    3    3    0    0 -0.26546218675E+02  0.11109827927E+02  0.21656741668E+01  0.28858623449E+02  0.51100000000E-03 0.  1.
        -11    1    3    3    0    0 -0.30896889670E+01  0.28622837595E+01 -0.25227418435E+01  0.49094880489E+01  0.51100000000E-03 0. -1.
         12    1    3    3    0    0 -0.10585158566E+02 -0.11617241221E+02  0.58238339402E+01  0.16760755270E+02  0.00000000000E+00 0. -1.
</event>
<event>
 7    1  0.5456331E-013  0.5052885E+02  0.7816164E-02  0.1300439E+00
        -11   -1    0    0    0    0  0.00000000000E+00  0.00000000000E+00  0.45593999997E+02  0.45594000000E+02  0.51100000000E-03 0. -1.
         11   -1    0    0    0    0 -0.00000000000E+00 -0.00000000000E+00 -0.45593999997E+02  0.45594000000E+02  0.51100000000E-03 0.  1.
    9900012    2    1    2    0    0 -0.37547663442E+02 -0.77882827427E+01 -0.13515983404E+02  0.50528853607E+02  0.29999981025E+02 0.  0.
         12    1    1    2    0    0  0.37547663442E+02  0.77882827427E+01  0.13515983404E+02  0.40659146393E+02  0.00000000000E+00 0. -1.
         11    1    3    3    0    0 -0.21189076773E+02 -0.29475042850E+01 -0.19196472494E+02  0.28743161143E+02  0.51100000000E-03 0. -1.
        -11    1    3    3    0    0 -0.11834873741E+02 -0.29024849984E+01 -0.23086312181E+01  0.12402355986E+02  0.51100000000E-03 0.  1.
         12    1    3    3    0    0 -0.45237129277E+01 -0.19382934594E+01  0.79891203078E+01  0.93833364790E+01  0.00000000000E+00 0. -1.
</event>
<event>
 7    1  0.5456331E-013  0.5052886E+02  0.7816164E-02  0.1300439E+00
        -11   -1    0    0    0    0  0.00000000000E+00  0.00000000000E+00  0.45593999997E+02  0.45594000000E+02  0.51100000000E-03 0.  1.
         11   -1    0    0    0    0 -0.00000000000E+00 -0.00000000000E+00 -0.45593999997E+02  0.45594000000E+02  0.51100000000E-03 0. -1.
    9900012    2    1    2    0    0 -0.48219488142E+01 -0.10148311430E+02  0.39075901902E+02  0.50528861732E+02  0.30000005720E+02 0.  0.
         12    1    1    2    0    0  0.48219488142E+01  0.10148311430E+02 -0.39075901902E+02  0.40659138268E+02  0.00000000000E+00 0. -1.
         11    1    3    3    0    0 -0.10385787282E+02  0.77181684146E+00  0.13438429107E+02  0.17001519221E+02  0.51100000000E-03 0. -1.
        -11    1    3    3    0    0 -0.13123519666E+01 -0.11522459714E+02  0.23656561719E+02  0.26346200071E+02  0.51100000000E-03 0.  1.
         12    1    3    3    0    0  0.68761904339E+01  0.60233144335E+00  0.19809110763E+01  0.71811424400E+01  0.00000000000E+00 0. -1.
</event>
<event>
 7    1  0.5456331E-013  0.5052887E+02  0.7816164E-02  0.1300439E+00
        -11   -1    0    0    0    0  0.00000000000E+00  0.00000000000E+00  0.45593999997E+02  0.45594000000E+02  0.51100000000E-03 0.  1.
         11   -1    0    0    0    0 -0.00000000000E+00 -0.00000000000E+00 -0.45593999997E+02  0.45594000000E+02  0.51100000000E-03 0. -1.
    9900012    2    1    2    0    0  0.16879374722E+02  0.18489126111E+02  0.32037536026E+02  0.50528870767E+02  0.30000033185E+02 0.  0.
         12    1    1    2    0    0 -0.16879374722E+02 -0.18489126111E+02 -0.32037536026E+02  0.40659129233E+02  0.00000000000E+00 0. -1.
         11    1    3    3    0    0 -0.43505452714E+01 -0.13469278250E+01  0.19992174553E+01  0.49737641097E+01  0.51100000000E-03 0. -1.
        -11    1    3    3    0    0  0.13089167239E+02  0.45005261534E+01  0.42730778745E+01  0.14485863090E+02  0.51100000000E-03 0.  1.
        -12    1    3    3    0    0  0.81407527545E+01  0.15335527782E+02  0.25765240696E+02  0.31069243568E+02  0.00000000000E+00 0.  1.
</event>
<event>
 7    1  0.5456331E-013  0.5052887E+02  0.7816164E-02  0.1300439E+00
        -11   -1    0    0    0    0  0.00000000000E+00  0.00000000000E+00  0.45593999997E+02  0.45594000000E+02  0.51100000000E-03 0.  1.
         11   -1    0    0    0    0 -0.00000000000E+00 -0.00000000000E+00 -0.45593999997E+02  0.45594000000E+02  0.51100000000E-03 0. -1.
    9900012    2    1    2    0    0 -0.91403903554E+01  0.39162979889E+02 -0.59899395803E+01  0.50528866883E+02  0.30000021379E+02 0.  0.
         12    1    1    2    0    0  0.91403903554E+01 -0.39162979889E+02  0.59899395803E+01  0.40659133117E+02  0.00000000000E+00 0. -1.
         11    1    3    3    0    0 -0.17261296563E+02  0.15670642924E+02 -0.38540678237E+01  0.23629965038E+02  0.51100000000E-03 0. -1.
        -11    1    3    3    0    0 -0.13615123977E+01  0.58956687398E+00 -0.14894283038E+01  0.21023087407E+01  0.51100000000E-03 0.  1.
        -12    1    3    3    0    0  0.94824186049E+01  0.22902770091E+02 -0.64644345283E+00  0.24796593104E+02  0.00000000000E+00 0.  1.
</event>
<event>
 7    1  0.5456331E-013  0.5052899E+02  0.7816164E-02  0.1300438E+00
        -11   -1    0    0    0    0  0.00000000000E+00  0.00000000000E+00  0.45593999997E+02  0.45594000000E+02  0.51100000000E-03 0. -1.
         11   -1    0    0    0    0 -0.00000000000E+00 -0.00000000000E+00 -0.45593999997E+02  0.45594000000E+02  0.51100000000E-03 0.  1.
    9900012    2    1    2    0    0 -0.28015495305E+02  0.29466541287E+02  0.10008886656E+00  0.50528990538E+02  0.30000397237E+02 0.  0.
         12    1    1    2    0    0  0.28015495305E+02 -0.29466541287E+02 -0.10008886656E+00  0.40659009462E+02  0.00000000000E+00 0. -1.
         11    1    3    3    0    0 -0.97939849957E+01  0.57452769422E+01 -0.10943911499E+01  0.11407367860E+02  0.51100000000E-03 0.  1.
        -11    1    3    3    0    0 -0.16177953273E+02  0.28433933587E+02 -0.24769391978E+01  0.32807773155E+02  0.51100000000E-03 0. -1.
        -12    1    3    3    0    0 -0.20435570365E+01 -0.47126692425E+01  0.36714192143E+01  0.63138495229E+01  0.00000000000E+00 0.  1.
</event>
<event>
 7    1  0.5456331E-013  0.5052887E+02  0.7816164E-02  0.1300439E+00
        -11   -1    0    0    0    0  0.00000000000E+00  0.00000000000E+00  0.45593999997E+02  0.45594000000E+02  0.51100000000E-03 0. -1.
         11   -1    0    0    0    0 -0.00000000000E+00 -0.00000000000E+00 -0.45593999997E+02  0.45594000000E+02  0.51100000000E-03 0.  1.
    9900012    2    1    2    0    0  0.37311581090E+02 -0.14246940575E+02 -0.76181197029E+01  0.50528866377E+02  0.30000019840E+02 0.  0.
         12    1    1    2    0    0 -0.37311581090E+02  0.14246940575E+02  0.76181197029E+01  0.40659133623E+02  0.00000000000E+00 0. -1.
         11    1    3    3    0    0  0.44694255639E+01 -0.25635374463E+01 -0.10016964464E+02  0.11264415939E+02  0.51100000000E-03 0. -1.
        -11    1    3    3    0    0  0.81585406180E+01 -0.70632379100E+01 -0.65286754320E+01  0.12612482624E+02  0.51100000000E-03 0.  1.
         12    1    3    3    0    0  0.24683614908E+02 -0.46201652185E+01  0.89275201930E+01  0.26651967814E+02  0.00000000000E+00 0. -1.
</event>
<event>
 7    1  0.5456331E-013  0.5052886E+02  0.7816164E-02  0.1300439E+00
        -11   -1    0    0    0    0  0.00000000000E+00  0.00000000000E+00  0.45593999997E+02  0.45594000000E+02  0.51100000000E-03 0. -1.
         11   -1    0    0    0    0 -0.00000000000E+00 -0.00000000000E+00 -0.45593999997E+02  0.45594000000E+02  0.51100000000E-03 0.  1.
    9900012    2    1    2    0    0  0.38827614993E+02  0.90222204837E+01  0.80113390992E+01  0.50528859543E+02  0.29999999068E+02 0.  0.
         12    1    1    2    0    0 -0.38827614993E+02 -0.90222204837E+01 -0.80113390992E+01  0.40659140457E+02  0.00000000000E+00 0. -1.
         11    1    3    3    0    0 -0.36315077335E+01  0.25782159971E+01 -0.35788240473E-02  0.44536568362E+01  0.51100000000E-03 0.  1.
        -11    1    3    3    0    0  0.73315705044E+01  0.71461420463E+01  0.17825368072E+01  0.10392146551E+02  0.51100000000E-03 0. -1.
        -12    1    3    3    0    0  0.35127552222E+02 -0.70213755964E+00  0.62323811160E+01  0.35683056156E+02  0.00000000000E+00 0.  1.
</event>
<event>
 7    1  0.5456331E-013  0.5052884E+02  0.7816164E-02  0.1300439E+00
        -11   -1    0    0    0    0  0.00000000000E+00  0.00000000000E+00  0.45593999997E+02  0.45594000000E+02  0.51100000000E-03 0.  1.
         11   -1    0    0    0    0 -0.00000000000E+00 -0.00000000000E+00 -0.45593999997E+02  0.45594000000E+02  0.51100000000E-03 0. -1.
    9900012    2    1    2    0    0  0.28269276470E+02 -0.29193387813E+02  0.13272574444E+01  0.50528837484E+02  0.29999932017E+02 0.  0.
         12    1    1    2    0    0 -0.28269276470E+02  0.29193387813E+02 -0.13272574444E+01  0.40659162516E+02  0.00000000000E+00 0. -1.
         11    1    3    3    0    0  0.15078642986E+01 -0.90775594835E+01 -0.25846404966E+01  0.95580389033E+01  0.51100000000E-03 0. -1.
        -11    1    3    3    0    0 -0.38737824157E+01 -0.56852545903E+01  0.13454637072E+01  0.70098917830E+01  0.51100000000E-03 0.  1.
        -12    1    3    3    0    0  0.30635194587E+02 -0.14430573740E+02  0.25664342337E+01  0.33960906798E+02  0.00000000000E+00 0.  1.
</event>
<event>
 7    1  0.5456331E-013  0.5052886E+02  0.7816164E-02  0.1300439E+00
        -11   -1    0    0    0    0  0.00000000000E+00  0.00000000000E+00  0.45593999997E+02  0.45594000000E+02  0.51100000000E-03 0.  1.
         11   -1    0    0    0    0 -0.00000000000E+00 -0.00000000000E+00 -0.45593999997E+02  0.45594000000E+02  0.51100000000E-03 0. -1.
    9900012    2    1    2    0    0  0.11364522129E+02  0.36938234813E+02  0.12632494818E+02  0.50528862285E+02  0.30000007403E+02 0.  0.
         12    1    1    2    0    0 -0.11364522129E+02 -0.36938234813E+02 -0.12632494818E+02  0.40659137715E+02  0.00000000000E+00 0. -1.
         11    1    3    3    0    0  0.29488939204E+01 -0.23312115142E+01  0.64169086173E+01  0.74368836848E+01  0.51100000000E-03 0. -1.
        -11    1    3    3    0    0  0.65854687566E+01  0.80996469444E+01  0.56356647772E+01  0.11863110769E+02  0.51100000000E-03 0.  1.
        -12    1    3    3    0    0  0.18301594523E+01  0.31169799383E+02  0.57992142383E+00  0.31228867832E+02  0.00000000000E+00 0.  1.
</event>
<event>
 7    1  0.5456331E-013  0.5052887E+02  0.7816164E-02  0.1300439E+00
        -11   -1    0    0    0    0  0.00000000000E+00  0.00000000000E+00  0.45593999997E+02  0.45594000000E+02  0.51100000000E-03 0.  1.
         11   -1    0    0    0    0 -0.00000000000E+00 -0.00000000000E+00 -0.45593999997E+02  0.45594000000E+02  0.51100000000E-03 0. -1.
    9900012    2    1    2    0    0  0.25862207916E+02  0.18746151661E+02  0.25157368919E+02  0.50528865586E+02  0.30000017434E+02 0.  0.
         12    1    1    2    0    0 -0.25862207916E+02 -0.18746151661E+02 -0.25157368919E+02  0.40659134414E+02  0.00000000000E+00 0. -1.
         11    1    3    3    0    0  0.83806741920E+01 -0.50519637948E+01  0.12920186302E+01  0.98705293930E+01  0.51100000000E-03 0. -1.
        -11    1    3    3    0    0 -0.13975553054E+01  0.77373529837E+01  0.80691452136E+01  0.11266361292E+02  0.51100000000E-03 0.  1.
        -12    1    3    3    0    0  0.18879089029E+02  0.16060762472E+02  0.15796205076E+02  0.29391974900E+02  0.00000000000E+00 0.  1.
</event>
<event>
 7    1  0.5456331E-013  0.5052886E+02  0.7816164E-02  0.1300439E+00
        -11   -1    0    0    0    0  0.00000000000E+00  0.00000000000E+00  0.45593999997E+02  0.45594000000E+02  0.51100000000E-03 0.  1.
         11   -1    0    0    0    0 -0.00000000000E+00 -0.00000000000E+00 -0.45593999997E+02  0.45594000000E+02  0.51100000000E-03 0. -1.
    9900012    2    1    2    0    0  0.18628914358E+02  0.19771491541E+02  0.30252562888E+02  0.50528857249E+02  0.29999992095E+02 0.  0.
         12    1    1    2    0    0 -0.18628914358E+02 -0.19771491541E+02 -0.30252562888E+02  0.40659142751E+02  0.00000000000E+00 0. -1.
         11    1    3    3    0    0  0.10995199292E+02  0.78533167222E+01  0.27683120640E+02  0.30804612636E+02  0.51100000000E-03 0. -1.
        -11    1    3    3    0    0 -0.38172289332E+01  0.42907129054E+01  0.88452635746E-01  0.57436293487E+01  0.51100000000E-03 0.  1.
        -12    1    3    3    0    0  0.11450944000E+02  0.76274619134E+01  0.24809896124E+01  0.13980615265E+02  0.00000000000E+00 0.  1.
</event>
<event>
 7    1  0.5456331E-013  0.5052886E+02  0.7816164E-02  0.1300439E+00
        -11   -1    0    0    0    0  0.00000000000E+00  0.00000000000E+00  0.45593999997E+02  0.45594000000E+02  0.51100000000E-03 0.  1.
         11   -1    0    0    0    0 -0.00000000000E+00 -0.00000000000E+00 -0.45593999997E+02  0.45594000000E+02  0.51100000000E-03 0. -1.
    9900012    2    1    2    0    0  0.15316781238E+02 -0.15859616292E+02  0.34161880697E+02  0.50528864382E+02  0.30000013777E+02 0.  0.
         12    1    1    2    0    0 -0.15316781238E+02  0.15859616292E+02 -0.34161880697E+02  0.40659135618E+02  0.00000000000E+00 0. -1.
         11    1    3    3    0    0  0.20387415282E+00 -0.27747787126E+00 -0.12033433311E+01  0.12516365578E+01  0.51100000000E-03 0. -1.
        -11    1    3    3    0    0  0.14002472998E+02 -0.14325883712E+02  0.75445633654E+01  0.21406088640E+02  0.51100000000E-03 0.  1.
        -12    1    3    3    0    0  0.11104340867E+01 -0.12562547081E+01  0.27820660663E+02  0.27871139185E+02  0.00000000000E+00 0.  1.
</event>
<event>
 7    1  0.5456331E-013  0.5052886E+02  0.7816164E-02  0.1300439E+00
        -11   -1    0    0    0    0  0.00000000000E+00  0.00000000000E+00  0.45593999997E+02  0.45594000000E+02  0.51100000000E-03 0. -1.
         11   -1    0    0    0    0 -0.00000000000E+00 -0.00000000000E+00 -0.45593999997E+02  0.45594000000E+02  0.51100000000E-03 0.  1.
    9900012    2    1    2    0    0  0.24548767470E+02  0.26980680013E+02  0.17960135880E+02  0.50528861309E+02  0.30000004434E+02 0.  0.
         12    1    1    2    0    0 -0.24548767470E+02 -0.26980680013E+02 -0.17960135880E+02  0.40659138691E+02  0.00000000000E+00 0. -1.
         11    1    3    3    0    0  0.70905741606E+01  0.14802013558E+02  0.38789473141E+00  0.16417256466E+02  0.51100000000E-03 0. -1.
        -11    1    3    3    0    0  0.88339825594E+01  0.79693532140E+01 -0.22317108475E+01  0.12104973031E+02  0.51100000000E-03 0.  1.
         12    1    3    3    0    0  0.86242107505E+01  0.42093132414E+01  0.19803951996E+02  0.22006631812E+02  0.00000000000E+00 0. -1.
</event>
<event>
 7    1  0.5456331E-013  0.5052886E+02  0.7816164E-02  0.1300439E+00
        -11   -1    0    0    0    0  0.00000000000E+00  0.00000000000E+00  0.45593999997E+02  0.45594000000E+02  0.51100000000E-03 0. -1.
         11   -1    0    0    0    0 -0.00000000000E+00 -0.00000000000E+00 -0.45593999997E+02  0.45594000000E+02  0.51100000000E-03 0.  1.
    9900012    2    1    2    0    0 -0.22083589646E+02 -0.31435515094E+02 -0.13314990230E+02  0.50528861965E+02  0.30000006430E+02 0.  0.
         12    1    1    2    0    0  0.22083589646E+02  0.31435515094E+02  0.13314990230E+02  0.40659138035E+02  0.00000000000E+00 0. -1.
         11    1    3    3    0    0 -0.15891832582E+02 -0.31650596917E+02 -0.56632176431E+01  0.35866177136E+02  0.51100000000E-03 0. -1.
        -11    1    3    3    0    0 -0.47182905502E+01 -0.48809087001E+01 -0.24064181070E+01  0.72025262111E+01  0.51100000000E-03 0.  1.
         12    1    3    3    0    0 -0.14734665144E+01  0.50959905234E+01 -0.52453544802E+01  0.74601586181E+01  0.00000000000E+00 0. -1.
</event>
<event>
 7    1  0.5456331E-013  0.5052886E+02  0.7816164E-02  0.1300439E+00
        -11   -1    0    0    0    0  0.00000000000E+00  0.00000000000E+00  0.45593999997E+02  0.45594000000E+02  0.51100000000E-03 0.  1.
         11   -1    0    0    0    0 -0.00000000000E+00 -0.00000000000E+00 -0.45593999997E+02  0.45594000000E+02  0.51100000000E-03 0. -1.
    9900012    2    1    2    0    0 -0.19596229249E+02  0.14578089895E+02  0.32505886669E+02  0.50528861126E+02  0.30000003880E+02 0.  0.
         12    1    1    2    0    0  0.19596229249E+02 -0.14578089895E+02 -0.32505886669E+02  0.40659138874E+02  0.00000000000E+00 0. -1.
         11    1    3    3    0    0 -0.36331951851E+01 -0.60361242081E+01  0.93543623794E+01  0.11710636127E+02  0.51100000000E-03 0. -1.
        -11    1    3    3    0    0 -0.15434122428E+02  0.90111460093E+01  0.76318987362E+01  0.19433444525E+02  0.51100000000E-03 0.  1.
        -12    1    3    3    0    0 -0.52891163568E+00  0.11603068094E+02  0.15519625554E+02  0.19384780474E+02  0.00000000000E+00 0.  1.
</event>
<event>
 7    1  0.5456331E-013  0.5052888E+02  0.7816164E-02  0.1300439E+00
        -11   -1    0    0    0    0  0.00000000000E+00  0.00000000000E+00  0.45593999997E+02  0.45594000000E+02  0.51100000000E-03 0. -1.
         11   -1    0    0    0    0 -0.00000000000E+00 -0.00000000000E+00 -0.45593999997E+02  0.45594000000E+02  0.51100000000E-03 0.  1.
    9900012    2    1    2    0    0 -0.16909043244E+02 -0.28483640438E+02 -0.23578175396E+02  0.50528882068E+02  0.30000067533E+02 0.  0.
         12    1    1    2    0    0  0.16909043244E+02  0.28483640438E+02  0.23578175396E+02  0.40659117932E+02  0.00000000000E+00 0. -1.
         11    1    3    3    0    0 -0.13016723531E+02 -0.38403159412E+01 -0.19909716229E+01  0.13716671837E+02  0.51100000000E-03 0. -1.
        -11    1    3    3    0    0 -0.46251481381E+01 -0.18866179629E+01  0.58778207098E+00  0.50295934886E+01  0.51100000000E-03 0.  1.
        -12    1    3    3    0    0  0.73282842572E+00 -0.22756706534E+02 -0.22174985844E+02  0.31782616742E+02  0.00000000000E+00 0.  1.
</event>
<event>
 7    1  0.5456331E-013  0.5052887E+02  0.7816164E-02  0.1300439E+00
        -11   -1    0    0    0    0  0.00000000000E+00  0.00000000000E+00  0.45593999997E+02  0.45594000000E+02  0.51100000000E-03 0.  1.
         11   -1    0    0    0    0 -0.00000000000E+00 -0.00000000000E+00 -0.45593999997E+02  0.45594000000E+02  0.51100000000E-03 0. -1.
    9900012    2    1    2    0    0  0.46452997640E+01  0.16064415063E+02  0.37061036709E+02  0.50528872080E+02  0.30000037175E+02 0.  0.
         12    1    1    2    0    0 -0.46452997640E+01 -0.16064415063E+02 -0.37061036709E+02  0.40659127920E+02  0.00000000000E+00 0. -1.
         11    1    3    3    0    0 -0.32169272626E+01  0.12410620220E+02  0.13996578791E+02  0.18980946587E+02  0.51100000000E-03 0. -1.
        -11    1    3    3    0    0 -0.48352821466E+01  0.66717116337E+01  0.11241223966E+02  0.13937604029E+02  0.51100000000E-03 0.  1.
         12    1    3    3    0    0  0.12697509173E+02 -0.30179167902E+01  0.11823233953E+02  0.17610321464E+02  0.00000000000E+00 0. -1.
</event>
<event>
 7    1  0.5456331E-013  0.5052886E+02  0.7816164E-02  0.1300439E+00
        -11   -1    0    0    0    0  0.00000000000E+00  0.00000000000E+00  0.45593999997E+02  0.45594000000E+02  0.51100000000E-03 0. -1.
         11   -1    0    0    0    0 -0.00000000000E+00 -0.00000000000E+00 -0.45593999997E+02  0.45594000000E+02  0.51100000000E-03 0.  1.
    9900012    2    1    2    0    0 -0.12548336685E+02  0.31889474237E+02 -0.21880730681E+02  0.50528859627E+02  0.29999999324E+02 0.  0.
         12    1    1    2    0    0  0.12548336685E+02 -0.31889474237E+02  0.21880730681E+02  0.40659140373E+02  0.00000000000E+00 0. -1.
         11    1    3    3    0    0  0.37102164926E+01  0.89166748948E+01 -0.16284310455E+01  0.97941097366E+01  0.51100000000E-03 0. -1.
        -11    1    3    3    0    0  0.45295064151E+01  0.56595383910E+01 -0.86834196752E+01  0.11311435836E+02  0.51100000000E-03 0.  1.
         12    1    3    3    0    0 -0.20788059593E+02  0.17313260952E+02 -0.11568879960E+02  0.29423314054E+02  0.00000000000E+00 0. -1.
</event>
<event>
 7    1  0.5456331E-013  0.5052885E+02  0.7816164E-02  0.1300439E+00
        -11   -1    0    0    0    0  0.00000000000E+00  0.00000000000E+00  0.45593999997E+02  0.45594000000E+02  0.51100000000E-03 0. -1.
         11   -1    0    0    0    0 -0.00000000000E+00 -0.00000000000E+00 -0.45593999997E+02  0.45594000000E+02  0.51100000000E-03 0.  1.
    9900012    2    1    2    0    0 -0.10210455888E+02 -0.11624704198E+02 -0.37600261261E+02  0.50528845999E+02  0.29999957899E+02 0.  0.
         12    1    1    2    0    0  0.10210455888E+02  0.11624704198E+02  0.37600261261E+02  0.40659154001E+02  0.00000000000E+00 0. -1.
         11    1    3    3    0    0  0.61809869289E+01  0.78884384955E+00 -0.20750298176E+01  0.65675431509E+01  0.51100000000E-03 0. -1.
        -11    1    3    3    0    0 -0.25685291821E+01  0.29352935467E+01 -0.15444539126E+01  0.41950719319E+01  0.51100000000E-03 0.  1.
        -12    1    3    3    0    0 -0.13822913635E+02 -0.15348841595E+02 -0.33980777531E+02  0.39766230916E+02  0.00000000000E+00 0.  1.
</event>
<event>
 7    1  0.5456331E-013  0.5052886E+02  0.7816164E-02  0.1300439E+00
        -11   -1    0    0    0    0  0.00000000000E+00  0.00000000000E+00  0.45593999997E+02  0.45594000000E+02  0.51100000000E-03 0.  1.
         11   -1    0    0    0    0 -0.00000000000E+00 -0.00000000000E+00 -0.45593999997E+02  0.45594000000E+02  0.51100000000E-03 0. -1.
    9900012    2    1    2    0    0 -0.33094190685E+02  0.21463071201E+02  0.98628914325E+01  0.50528861915E+02  0.30000006276E+02 0.  0.
         12    1    1    2    0    0  0.33094190685E+02 -0.21463071201E+02 -0.98628914325E+01  0.40659138085E+02  0.00000000000E+00 0. -1.
         11    1    3    3    0    0 -0.89716966302E+00 -0.14881421259E+01  0.36580751738E+01  0.40498141475E+01  0.51100000000E-03 0. -1.
        -11    1    3    3    0    0  0.23959622911E+01 -0.17238030883E+01 -0.14740547383E+01  0.32992377939E+01  0.51100000000E-03 0.  1.
        -12    1    3    3    0    0 -0.34592983313E+02  0.24675016415E+02  0.76788709971E+01  0.43179809973E+02  0.00000000000E+00 0.  1.
</event>
<event>
 7    1  0.5456331E-013  0.5052886E+02  0.7816164E-02  0.1300439E+00
        -11   -1    0    0    0    0  0.00000000000E+00  0.00000000000E+00  0.45593999997E+02  0.45594000000E+02  0.51100000000E-03 0.  1.
         11   -1    0    0    0    0 -0.00000000000E+00 -0.00000000000E+00 -0.45593999997E+02  0.45594000000E+02  0.51100000000E-03 0. -1.
    9900012    2    1    2    0    0 -0.28769238842E+00 -0.17513913963E+01  0.40620382650E+02  0.50528860494E+02  0.30000001956E+02 0.  0.
         12    1    1    2    0    0  0.28769238842E+00  0.17513913963E+01 -0.40620382650E+02  0.40659139506E+02  0.00000000000E+00 0. -1.
         11    1    3    3    0    0  0.26888078434E+01  0.53286133431E+01  0.23351737254E+01  0.64091219655E+01  0.51100000000E-03 0. -1.
        -11    1    3    3    0    0  0.36347338297E+01 -0.70373269162E+00  0.33610002396E+02  0.33813293111E+02  0.51100000000E-03 0.  1.
         12    1    3    3    0    0 -0.66112340616E+01 -0.63762720478E+01  0.46752065295E+01  0.10306445417E+02  0.00000000000E+00 0. -1.
</event>
<event>
 7    1  0.5456331E-013  0.5052888E+02  0.7816164E-02  0.1300439E+00
        -11   -1    0    0    0    0  0.00000000000E+00  0.00000000000E+00  0.45593999997E+02  0.45594000000E+02  0.51100000000E-03 0. -1.
         11   -1    0    0    0    0 -0.00000000000E+00 -0.00000000000E+00 -0.45593999997E+02  0.45594000000E+02  0.51100000000E-03 0.  1.
    9900012    2    1    2    0    0 -0.66308828118E+01  0.31072387031E+02  0.25371287983E+02  0.50528879294E+02  0.30000059101E+02 0.  0.
         12    1    1    2    0    0  0.66308828118E+01 -0.31072387031E+02 -0.25371287983E+02  0.40659120706E+02  0.00000000000E+00 0. -1.
         11    1    3    3    0    0 -0.29319837366E+01 -0.34672266804E+00  0.10907596446E+00  0.29544277055E+01  0.51100000000E-03 0. -1.
        -11    1    3    3    0    0 -0.11529596392E+02  0.15152468260E+02  0.36033132223E+01  0.19378151454E+02  0.51100000000E-03 0.  1.
        -12    1    3    3    0    0  0.78306973168E+01  0.16266641439E+02  0.21658898796E+02  0.28196300134E+02  0.00000000000E+00 0.  1.
</event>
<event>
 7    1  0.5456331E-013  0.5052886E+02  0.7816164E-02  0.1300439E+00
        -11   -1    0    0    0    0  0.00000000000E+00  0.00000000000E+00  0.45593999997E+02  0.45594000000E+02  0.51100000000E-03 0.  1.
         11   -1    0    0    0    0 -0.00000000000E+00 -0.00000000000E+00 -0.45593999997E+02  0.45594000000E+02  0.51100000000E-03 0. -1.
    9900012    2    1    2    0    0 -0.12160121458E+02  0.30095270949E+02  0.24486154491E+02  0.50528860202E+02  0.30000001069E+02 0.  0.
         12    1    1    2    0    0  0.12160121458E+02 -0.30095270949E+02 -0.24486154491E+02  0.40659139798E+02  0.00000000000E+00 0. -1.
         11    1    3    3    0    0 -0.13785111891E+02  0.82862388525E+01  0.52573493184E+01  0.16921311601E+02  0.51100000000E-03 0. -1.
        -11    1    3    3    0    0 -0.47738290054E+01  0.19327358740E+02  0.17556174387E+02  0.26543464329E+02  0.51100000000E-03 0.  1.
        -12    1    3    3    0    0  0.63988194387E+01  0.24816733572E+01  0.16726307860E+01  0.70640842723E+01  0.00000000000E+00 0.  1.
</event>
<event>
 7    1  0.5456331E-013  0.5052887E+02  0.7816164E-02  0.1300439E+00
        -11   -1    0    0    0    0  0.00000000000E+00  0.00000000000E+00  0.45593999997E+02  0.45594000000E+02  0.51100000000E-03 0.  1.
         11   -1    0    0    0    0 -0.00000000000E+00 -0.00000000000E+00 -0.45593999997E+02  0.45594000000E+02  0.51100000000E-03 0. -1.
    9900012    2    1    2    0    0  0.28655962513E+02  0.64426452104E+01  0.28115713902E+02  0.50528865319E+02  0.30000016622E+02 0.  0.
         12    1    1    2    0    0 -0.28655962513E+02 -0.64426452104E+01 -0.28115713902E+02  0.40659134681E+02  0.00000000000E+00 0. -1.
         11    1    3    3    0    0 -0.24948367653E+01  0.35796680971E+01  0.19384923317E+01  0.47745143158E+01  0.51100000000E-03 0. -1.
        -11    1    3    3    0    0  0.14815206115E+02  0.96366087873E+01  0.20748953445E+02  0.27255708218E+02  0.51100000000E-03 0.  1.
        -12    1    3    3    0    0  0.16335593163E+02 -0.67736316740E+01  0.54282681254E+01  0.18498642785E+02  0.00000000000E+00 0.  1.
</event>
<event>
 7    1  0.5456331E-013  0.5052886E+02  0.7816164E-02  0.1300439E+00
        -11   -1    0    0    0    0  0.00000000000E+00  0.00000000000E+00  0.45593999997E+02  0.45594000000E+02  0.51100000000E-03 0. -1.
         11   -1    0    0    0    0 -0.00000000000E+00 -0.00000000000E+00 -0.45593999997E+02  0.45594000000E+02  0.51100000000E-03 0.  1.
    9900012    2    1    2    0    0  0.29337832942E+02  0.79948172495E+01 -0.26991484441E+02  0.50528858631E+02  0.29999996294E+02 0.  0.
         12    1    1    2    0    0 -0.29337832942E+02 -0.79948172495E+01  0.26991484441E+02  0.40659141369E+02  0.00000000000E+00 0. -1.
         11    1    3    3    0    0  0.66191320154E+01  0.32087740243E-01  0.49706393360E+01  0.82777529518E+01  0.51100000000E-03 0. -1.
        -11    1    3    3    0    0  0.50176244868E+00 -0.28474866164E+01 -0.27346856453E+01  0.39797551966E+01  0.51100000000E-03 0.  1.
         12    1    3    3    0    0  0.22216938478E+02  0.10810216126E+02 -0.29227438132E+02  0.38271350482E+02  0.00000000000E+00 0. -1.
</event>
<event>
 7    1  0.5456331E-013  0.5052887E+02  0.7816164E-02  0.1300439E+00
        -11   -1    0    0    0    0  0.00000000000E+00  0.00000000000E+00  0.45593999997E+02  0.45594000000E+02  0.51100000000E-03 0.  1.
         11   -1    0    0    0    0 -0.00000000000E+00 -0.00000000000E+00 -0.45593999997E+02  0.45594000000E+02  0.51100000000E-03 0. -1.
    9900012    2    1    2    0    0  0.26783021300E+02 -0.67574428483E+01  0.29835737180E+02  0.50528874617E+02  0.30000044887E+02 0.  0.
         12    1    1    2    0    0 -0.26783021300E+02  0.67574428483E+01 -0.29835737180E+02  0.40659125383E+02  0.00000000000E+00 0. -1.
         11    1    3    3    0    0  0.27536034234E+01 -0.93447246556E+01  0.55457174956E+01  0.11209870361E+02  0.51100000000E-03 0. -1.
        -11    1    3    3    0    0  0.25129034931E+02 -0.15988254010E+01  0.24296846184E+02  0.34990875582E+02  0.51100000000E-03 0.  1.
         12    1    3    3    0    0 -0.10996170542E+01  0.41861072083E+01 -0.68265000206E-02  0.43281286749E+01  0.00000000000E+00 0. -1.
</event>
<event>
 7    1  0.5456331E-013  0.5052885E+02  0.7816164E-02  0.1300439E+00
        -11   -1    0    0    0    0  0.00000000000E+00  0.00000000000E+00  0.45593999997E+02  0.45594000000E+02  0.51100000000E-03 0.  1.
         11   -1    0    0    0    0 -0.00000000000E+00 -0.00000000000E+00 -0.45593999997E+02  0.45594000000E+02  0.51100000000E-03 0. -1.
    9900012    2    1    2    0    0 -0.28754109511E+02  0.10380735347E+02  0.26806871711E+02  0.50528845421E+02  0.29999956143E+02 0.  0.
         12    1    1    2    0    0  0.28754109511E+02 -0.10380735347E+02 -0.26806871711E+02  0.40659154579E+02  0.00000000000E+00 0. -1.
         11    1    3    3    0    0 -0.68518926829E+01 -0.14314132145E+01  0.36178171876E+01  0.78794656286E+01  0.51100000000E-03 0. -1.
        -11    1    3    3    0    0 -0.18312805874E+02 -0.45373365353E+01  0.10095601205E+02  0.21397837408E+02  0.51100000000E-03 0.  1.
         12    1    3    3    0    0 -0.35894109547E+01  0.16349485097E+02  0.13093453318E+02  0.21251542385E+02  0.00000000000E+00 0. -1.
</event>
<event>
 7    1  0.5456331E-013  0.5052886E+02  0.7816164E-02  0.1300439E+00
        -11   -1    0    0    0    0  0.00000000000E+00  0.00000000000E+00  0.45593999997E+02  0.45594000000E+02  0.51100000000E-03 0. -1.
         11   -1    0    0    0    0 -0.00000000000E+00 -0.00000000000E+00 -0.45593999997E+02  0.45594000000E+02  0.51100000000E-03 0.  1.
    9900012    2    1    2    0    0  0.39401174366E+01 -0.25490856527E+02 -0.31430194701E+02  0.50528862886E+02  0.30000009229E+02 0.  0.
         12    1    1    2    0    0 -0.39401174366E+01  0.25490856527E+02  0.31430194701E+02  0.40659137114E+02  0.00000000000E+00 0. -1.
         11    1    3    3    0    0  0.34847710839E+01 -0.75951471551E+01  0.13782571186E+01  0.84693259922E+01  0.51100000000E-03 0. -1.
        -11    1    3    3    0    0  0.67907233990E+01 -0.97933885541E+01 -0.59933093641E+01  0.13339570497E+02  0.51100000000E-03 0.  1.
         12    1    3    3    0    0 -0.63353770463E+01 -0.81023208178E+01 -0.26815142455E+02  0.28719966397E+02  0.00000000000E+00 0. -1.
</event>
<event>
 7    1  0.5456331E-013  0.5052887E+02  0.7816164E-02  0.1300439E+00
        -11   -1    0    0    0    0  0.00000000000E+00  0.00000000000E+00  0.45593999997E+02  0.45594000000E+02  0.51100000000E-03 0.  1.
         11   -1    0    0    0    0 -0.00000000000E+00 -0.00000000000E+00 -0.45593999997E+02  0.45594000000E+02  0.51100000000E-03 0. -1.
    9900012    2    1    2    0    0 -0.31320624083E+02 -0.22738284183E+02 -0.12456086560E+02  0.50528866303E+02  0.30000019616E+02 0.  0.
         12    1    1    2    0    0  0.31320624083E+02  0.22738284183E+02  0.12456086560E+02  0.40659133697E+02  0.00000000000E+00 0. -1.
         11    1    3    3    0    0 -0.11837557675E+02 -0.65300401886E+01  0.90553123717E+00  0.13549508613E+02  0.51100000000E-03 0. -1.
        -11    1    3    3    0    0 -0.18031439333E+02 -0.18578403605E+02 -0.27799663116E+01  0.26038780653E+02  0.51100000000E-03 0.  1.
         12    1    3    3    0    0 -0.14516270757E+01  0.23701596110E+01 -0.10581651486E+02  0.10940577038E+02  0.00000000000E+00 0. -1.
</event>
<event>
 7    1  0.5456331E-013  0.5052887E+02  0.7816164E-02  0.1300439E+00
        -11   -1    0    0    0    0  0.00000000000E+00  0.00000000000E+00  0.45593999997E+02  0.45594000000E+02  0.51100000000E-03 0. -1.
         11   -1    0    0    0    0 -0.00000000000E+00 -0.00000000000E+00 -0.45593999997E+02  0.45594000000E+02  0.51100000000E-03 0.  1.
    9900012    2    1    2    0    0 -0.23544688320E+02 -0.61284594994E+01 -0.32576900455E+02  0.50528870556E+02  0.30000032541E+02 0.  0.
         12    1    1    2    0    0  0.23544688320E+02  0.61284594994E+01  0.32576900455E+02  0.40659129444E+02  0.00000000000E+00 0. -1.
         11    1    3    3    0    0  0.27531219397E+01 -0.79610334570E+00 -0.72032897092E+01  0.77524734019E+01  0.51100000000E-03 0. -1.
        -11    1    3    3    0    0  0.25291859805E+01 -0.24178294955E+01 -0.86301676160E+01  0.93124902434E+01  0.51100000000E-03 0.  1.
        -12    1    3    3    0    0 -0.28826996240E+02 -0.29145266582E+01 -0.16743443130E+02  0.33463906910E+02  0.00000000000E+00 0.  1.
</event>
<event>
 7    1  0.5456331E-013  0.5052886E+02  0.7816164E-02  0.1300439E+00
        -11   -1    0    0    0    0  0.00000000000E+00  0.00000000000E+00  0.45593999997E+02  0.45594000000E+02  0.51100000000E-03 0.  1.
         11   -1    0    0    0    0 -0.00000000000E+00 -0.00000000000E+00 -0.45593999997E+02  0.45594000000E+02  0.51100000000E-03 0. -1.
    9900012    2    1    2    0    0 -0.61407214093E+00  0.36120979255E+02  0.18656451346E+02  0.50528863219E+02  0.30000010240E+02 0.  0.
         12    1    1    2    0    0  0.61407214093E+00 -0.36120979255E+02 -0.18656451346E+02  0.40659136781E+02  0.00000000000E+00 0. -1.
         11    1    3    3    0    0  0.23010472891E+01  0.17833071014E+01 -0.13411085622E+01  0.32052418444E+01  0.51100000000E-03 0. -1.
        -11    1    3    3    0    0  0.19432970236E+01  0.28297693872E+02  0.28521382564E+01  0.28507377549E+02  0.51100000000E-03 0.  1.
        -12    1    3    3    0    0 -0.48584164536E+01  0.60399782813E+01  0.17145421652E+02  0.18816243826E+02  0.00000000000E+00 0.  1.
</event>
<event>
 7    1  0.5456331E-013  0.5052886E+02  0.7816164E-02  0.1300439E+00
        -11   -1    0    0    0    0  0.00000000000E+00  0.00000000000E+00  0.45593999997E+02  0.45594000000E+02  0.51100000000E-03 0.  1.
         11   -1    0    0    0    0 -0.00000000000E+00 -0.00000000000E+00 -0.45593999997E+02  0.45594000000E+02  0.51100000000E-03 0. -1.
    9900012    2    1    2    0    0  0.23513488914E+02  0.87313180523E+01  0.32000715506E+02  0.50528857501E+02  0.29999992861E+02 0.  0.
         12    1    1    2    0    0 -0.23513488914E+02 -0.87313180523E+01 -0.32000715506E+02  0.40659142499E+02  0.00000000000E+00 0. -1.
         11    1    3    3    0    0  0.15448295879E+01  0.93400552071E+01  0.26149328130E+01  0.98214562873E+01  0.51100000000E-03 0. -1.
        -11    1    3    3    0    0  0.96941953641E+00 -0.16838489706E+01 -0.20904976844E+01  0.28539976214E+01  0.51100000000E-03 0.  1.
        -12    1    3    3    0    0  0.20999239789E+02  0.10751118158E+01  0.31476280378E+02  0.37853403593E+02  0.00000000000E+00 0.  1.
</event>
<event>
 7    1  0.5456331E-013  0.5052886E+02  0.7816164E-02  0.1300439E+00
        -11   -1    0    0    0    0  0.00000000000E+00  0.00000000000E+00  0.45593999997E+02  0.45594000000E+02  0.51100000000E-03 0.  1.
         11   -1    0    0    0    0 -0.00000000000E+00 -0.00000000000E+00 -0.45593999997E+02  0.45594000000E+02  0.51100000000E-03 0. -1.
    9900012    2    1    2    0    0 -0.58805996620E+01  0.36570587088E+02  0.16768307198E+02  0.50528863036E+02  0.30000009685E+02 0.  0.
         12    1    1    2    0    0  0.58805996620E+01 -0.36570587088E+02 -0.16768307198E+02  0.40659136964E+02  0.00000000000E+00 0. -1.
         11    1    3    3    0    0 -0.13620599818E+02  0.76821608229E+01  0.18165418131E+01  0.15742812923E+02  0.51100000000E-03 0. -1.
        -11    1    3    3    0    0  0.42938834515E+01  0.10846711203E+02  0.97739597420E+00  0.11706574314E+02  0.51100000000E-03 0.  1.
        -12    1    3    3    0    0  0.34461167047E+01  0.18041715063E+02  0.13974369410E+02  0.23079475799E+02  0.00000000000E+00 0.  1.
</event>
<event>
 7    1  0.5456331E-013  0.5052886E+02  0.7816164E-02  0.1300439E+00
        -11   -1    0    0    0    0  0.00000000000E+00  0.00000000000E+00  0.45593999997E+02  0.45594000000E+02  0.51100000000E-03 0. -1.
         11   -1    0    0    0    0 -0.00000000000E+00 -0.00000000000E+00 -0.45593999997E+02  0.45594000000E+02  0.51100000000E-03 0.  1.
    9900012    2    1    2    0    0  0.28086739121E+02 -0.17987615292E+01 -0.29343916888E+02  0.50528856922E+02  0.29999991101E+02 0.  0.
         12    1    1    2    0    0 -0.28086739121E+02  0.17987615292E+01  0.29343916888E+02  0.40659143078E+02  0.00000000000E+00 0. -1.
         11    1    3    3    0    0  0.50245981155E+01  0.23221344407E+01  0.11931927134E+01  0.56623849829E+01  0.51100000000E-03 0. -1.
        -11    1    3    3    0    0  0.64676029950E+01  0.81467524457E+01 -0.37616717974E+01  0.11061177102E+02  0.51100000000E-03 0.  1.
         12    1    3    3    0    0  0.16594538010E+02 -0.12267648416E+02 -0.26775437804E+02  0.33805294837E+02  0.00000000000E+00 0. -1.
</event>
<event>
 7    1  0.5456331E-013  0.5052884E+02  0.7816164E-02  0.1300439E+00
        -11   -1    0    0    0    0  0.00000000000E+00  0.00000000000E+00  0.45593999997E+02  0.45594000000E+02  0.51100000000E-03 0. -1.
         11   -1    0    0    0    0 -0.00000000000E+00 -0.00000000000E+00 -0.45593999997E+02  0.45594000000E+02  0.51100000000E-03 0.  1.
    9900012    2    1    2    0    0 -0.13381507947E+02 -0.20638127353E+02 -0.32375452790E+02  0.50528843603E+02  0.29999950614E+02 0.  0.
         12    1    1    2    0    0  0.13381507947E+02  0.20638127353E+02  0.32375452790E+02  0.40659156397E+02  0.00000000000E+00 0. -1.
         11    1    3    3    0    0 -0.37414063877E+01 -0.12053939749E+02 -0.94965560787E+01  0.15794941053E+02  0.51100000000E-03 0. -1.
        -11    1    3    3    0    0 -0.44604811617E+00 -0.10637622824E+02 -0.22964902509E+02  0.25312935937E+02  0.51100000000E-03 0.  1.
        -12    1    3    3    0    0 -0.91940534434E+01  0.20534352201E+01  0.86005797230E-01  0.94209666129E+01  0.00000000000E+00 0.  1.
</event>
<event>
 7    1  0.5456331E-013  0.5052886E+02  0.7816164E-02  0.1300439E+00
        -11   -1    0    0    0    0  0.00000000000E+00  0.00000000000E+00  0.45593999997E+02  0.45594000000E+02  0.51100000000E-03 0.  1.
         11   -1    0    0    0    0 -0.00000000000E+00 -0.00000000000E+00 -0.45593999997E+02  0.45594000000E+02  0.51100000000E-03 0. -1.
    9900012    2    1    2    0    0 -0.11324238544E+02  0.39040017113E+02  0.89695321982E+00  0.50528857857E+02  0.29999993941E+02 0.  0.
         12    1    1    2    0    0  0.11324238544E+02 -0.39040017113E+02 -0.89695321982E+00  0.40659142143E+02  0.00000000000E+00 0. -1.
         11    1    3    3    0    0 -0.19486319730E+01 -0.35420651083E+00 -0.96074313955E+00  0.22012851837E+01  0.51100000000E-03 0. -1.
        -11    1    3    3    0    0  0.43382601798E+01 -0.48502943745E+00  0.42445886965E+01  0.60887017012E+01  0.51100000000E-03 0.  1.
        -12    1    3    3    0    0 -0.13713866751E+02  0.39879253061E+02 -0.23868923372E+01  0.42238870972E+02  0.00000000000E+00 0.  1.
</event>
<event>
 7    1  0.5456331E-013  0.5052887E+02  0.7816164E-02  0.1300439E+00
        -11   -1    0    0    0    0  0.00000000000E+00  0.00000000000E+00  0.45593999997E+02  0.45594000000E+02  0.51100000000E-03 0. -1.
         11   -1    0    0    0    0 -0.00000000000E+00 -0.00000000000E+00 -0.45593999997E+02  0.45594000000E+02  0.51100000000E-03 0.  1.
    9900012    2    1    2    0    0 -0.31887281229E+02  0.21630827224E+02 -0.12979718820E+02  0.50528874441E+02  0.30000044350E+02 0.  0.
         12    1    1    2    0    0  0.31887281229E+02 -0.21630827224E+02  0.12979718820E+02  0.40659125559E+02  0.00000000000E+00 0. -1.
         11    1    3    3    0    0 -0.14491505829E+02  0.22743017305E+01 -0.68057827688E+01  0.16170802977E+02  0.51100000000E-03 0.  1.
        -11    1    3    3    0    0  0.43457653704E+01  0.22411023284E+01 -0.44874327335E+01  0.66366609902E+01  0.51100000000E-03 0. -1.
         12    1    3    3    0    0 -0.21741540771E+02  0.17115423166E+02 -0.16865033178E+01  0.27721410474E+02  0.00000000000E+00 0. -1.
</event>
<event>
 7    1  0.5456331E-013  0.5052887E+02  0.7816164E-02  0.1300439E+00
        -11   -1    0    0    0    0  0.00000000000E+00  0.00000000000E+00  0.45593999997E+02  0.45594000000E+02  0.51100000000E-03 0.  1.
         11   -1    0    0    0    0 -0.00000000000E+00 -0.00000000000E+00 -0.45593999997E+02  0.45594000000E+02  0.51100000000E-03 0. -1.
    9900012    2    1    2    0    0  0.11283492147E+02  0.27290048740E+01  0.38966653481E+02  0.50528871306E+02  0.30000034820E+02 0.  0.
         12    1    1    2    0    0 -0.11283492147E+02 -0.27290048740E+01 -0.38966653481E+02  0.40659128694E+02  0.00000000000E+00 0. -1.
         11    1    3    3    0    0 -0.14569132566E+01 -0.19845589368E+01 -0.11924760744E+01  0.27355200346E+01  0.51100000000E-03 0. -1.
        -11    1    3    3    0    0  0.11308651456E+02 -0.67402089610E+01  0.28464887809E+02  0.31361853466E+02  0.51100000000E-03 0.  1.
         12    1    3    3    0    0  0.14317539482E+01  0.11453772772E+02  0.11694241747E+02  0.16431497805E+02  0.00000000000E+00 0. -1.
</event>
<event>
 7    1  0.5456331E-013  0.5052886E+02  0.7816164E-02  0.1300439E+00
        -11   -1    0    0    0    0  0.00000000000E+00  0.00000000000E+00  0.45593999997E+02  0.45594000000E+02  0.51100000000E-03 0.  1.
         11   -1    0    0    0    0 -0.00000000000E+00 -0.00000000000E+00 -0.45593999997E+02  0.45594000000E+02  0.51100000000E-03 0. -1.
    9900012    2    1    2    0    0  0.16309765120E+02  0.36709619407E+02  0.62897754148E+01  0.50528857485E+02  0.29999992812E+02 0.  0.
         12    1    1    2    0    0 -0.16309765120E+02 -0.36709619407E+02 -0.62897754148E+01  0.40659142515E+02  0.00000000000E+00 0. -1.
         11    1    3    3    0    0 -0.10552218384E+00 -0.14588647656E+01  0.16209494395E+01  0.21833228534E+01  0.51100000000E-03 0. -1.
        -11    1    3    3    0    0 -0.43777828085E+01  0.13831271824E+02  0.72749938465E+01  0.16229436167E+02  0.51100000000E-03 0.  1.
         12    1    3    3    0    0  0.20793070112E+02  0.24337212349E+02 -0.26061678712E+01  0.32116098464E+02  0.00000000000E+00 0. -1.
</event>
<event>
 7    1  0.5456331E-013  0.5052887E+02  0.7816164E-02  0.1300439E+00
        -11   -1    0    0    0    0  0.00000000000E+00  0.00000000000E+00  0.45593999997E+02  0.45594000000E+02  0.51100000000E-03 0.  1.
         11   -1    0    0    0    0 -0.00000000000E+00 -0.00000000000E+00 -0.45593999997E+02  0.45594000000E+02  0.51100000000E-03 0. -1.
    9900012    2    1    2    0    0 -0.36591628178E+02 -0.11520415836E+01 -0.17688713511E+02  0.50528867715E+02  0.30000023906E+02 0.  0.
         12    1    1    2    0    0  0.36591628178E+02  0.11520415836E+01  0.17688713511E+02  0.40659132285E+02  0.00000000000E+00 0. -1.
         11    1    3    3    0    0 -0.11942052959E+02  0.50641949151E+01 -0.42844569650E+01  0.13660719994E+02  0.51100000000E-03 0. -1.
        -11    1    3    3    0    0 -0.97960146390E+01  0.83744352949E+01 -0.86192537474E+01  0.15504341480E+02  0.51100000000E-03 0.  1.
         12    1    3    3    0    0 -0.14853560579E+02 -0.14590671794E+02 -0.47850027988E+01  0.21363806240E+02  0.00000000000E+00 0. -1.
</event>
<event>
 7    1  0.5456331E-013  0.5052887E+02  0.7816164E-02  0.1300439E+00
        -11   -1    0    0    0    0  0.00000000000E+00  0.00000000000E+00  0.45593999997E+02  0.45594000000E+02  0.51100000000E-03 0.  1.
         11   -1    0    0    0    0 -0.00000000000E+00 -0.00000000000E+00 -0.45593999997E+02  0.45594000000E+02  0.51100000000E-03 0. -1.
    9900012    2    1    2    0    0 -0.18829238050E+02  0.15681388945E+01  0.36002299633E+02  0.50528870103E+02  0.30000031164E+02 0.  0.
         12    1    1    2    0    0  0.18829238050E+02 -0.15681388945E+01 -0.36002299633E+02  0.40659129897E+02  0.00000000000E+00 0. -1.
         11    1    3    3    0    0 -0.30122491564E+01 -0.51566069011E+01 -0.16463877616E+01  0.61947423381E+01  0.51100000000E-03 0. -1.
        -11    1    3    3    0    0  0.16427632110E+01 -0.29000369454E+01  0.72696981526E+01  0.79973368532E+01  0.51100000000E-03 0.  1.
        -12    1    3    3    0    0 -0.17459752105E+02  0.96247827410E+01  0.30378989242E+02  0.36336790911E+02  0.00000000000E+00 0.  1.
</event>
<event>
 7    1  0.5456331E-013  0.5052886E+02  0.7816164E-02  0.1300439E+00
        -11   -1    0    0    0    0  0.00000000000E+00  0.00000000000E+00  0.45593999997E+02  0.45594000000E+02  0.51100000000E-03 0.  1.
         11   -1    0    0    0    0 -0.00000000000E+00 -0.00000000000E+00 -0.45593999997E+02  0.45594000000E+02  0.51100000000E-03 0. -1.
    9900012    2    1    2    0    0 -0.45576771821E+01  0.39445116599E+02  0.87450559947E+01  0.50528860202E+02  0.30000001070E+02 0.  0.
         12    1    1    2    0    0  0.45576771821E+01 -0.39445116599E+02 -0.87450559947E+01  0.40659139798E+02  0.00000000000E+00 0. -1.
         11    1    3    3    0    0  0.58930131846E+01  0.32161013425E+02 -0.16874076117E+00  0.32696893776E+02  0.51100000000E-03 0. -1.
        -11    1    3    3    0    0  0.15333263999E+01  0.47043308408E+00  0.49295336171E+00  0.16779154964E+01  0.51100000000E-03 0.  1.
        -12    1    3    3    0    0 -0.11984016767E+02  0.68136700896E+01  0.84208433941E+01  0.16154050929E+02  0.00000000000E+00 0.  1.
</event>
<event>
 7    1  0.5456331E-013  0.5052885E+02  0.7816164E-02  0.1300439E+00
        -11   -1    0    0    0    0  0.00000000000E+00  0.00000000000E+00  0.45593999997E+02  0.45594000000E+02  0.51100000000E-03 0.  1.
         11   -1    0    0    0    0 -0.00000000000E+00 -0.00000000000E+00 -0.45593999997E+02  0.45594000000E+02  0.51100000000E-03 0. -1.
    9900012    2    1    2    0    0 -0.32150256381E+02 -0.62661343071E+01  0.24088652692E+02  0.50528848348E+02  0.29999965039E+02 0.  0.
         12    1    1    2    0    0  0.32150256381E+02  0.62661343071E+01 -0.24088652692E+02  0.40659151652E+02  0.00000000000E+00 0. -1.
         11    1    3    3    0    0 -0.22508441955E+02 -0.19277069848E+01  0.84131812923E+01  0.24106589000E+02  0.51100000000E-03 0. -1.
        -11    1    3    3    0    0 -0.93624897155E+01 -0.90211302463E+01  0.17135214324E+02  0.21509360167E+02  0.51100000000E-03 0.  1.
         12    1    3    3    0    0 -0.27932471049E+00  0.46827029240E+01 -0.14597429244E+01  0.49128991821E+01  0.00000000000E+00 0. -1.
</event>
<event>
 7    1  0.5456331E-013  0.5052885E+02  0.7816164E-02  0.1300439E+00
        -11   -1    0    0    0    0  0.00000000000E+00  0.00000000000E+00  0.45593999997E+02  0.45594000000E+02  0.51100000000E-03 0.  1.
         11   -1    0    0    0    0 -0.00000000000E+00 -0.00000000000E+00 -0.45593999997E+02  0.45594000000E+02  0.51100000000E-03 0. -1.
    9900012    2    1    2    0    0 -0.87568808396E+01  0.29098424269E+02  0.27014160582E+02  0.50528854302E+02  0.29999983135E+02 0.  0.
         12    1    1    2    0    0  0.87568808396E+01 -0.29098424269E+02 -0.27014160582E+02  0.40659145698E+02  0.00000000000E+00 0. -1.
         11    1    3    3    0    0  0.24232916225E+01  0.16551944458E+02  0.17476915874E+01  0.16819442137E+02  0.51100000000E-03 0. -1.
        -11    1    3    3    0    0 -0.19206658296E+01  0.81780312050E+01  0.25286182242E+01  0.87728593973E+01  0.51100000000E-03 0.  1.
         12    1    3    3    0    0 -0.92595066325E+01  0.43684486060E+01  0.22737850770E+02  0.24936552768E+02  0.00000000000E+00 0. -1.
</event>
<event>
 7    1  0.5456331E-013  0.5052888E+02  0.7816164E-02  0.1300439E+00
        -11   -1    0    0    0    0  0.00000000000E+00  0.00000000000E+00  0.45593999997E+02  0.45594000000E+02  0.51100000000E-03 0. -1.
         11   -1    0    0    0    0 -0.00000000000E+00 -0.00000000000E+00 -0.45593999997E+02  0.45594000000E+02  0.51100000000E-03 0.  1.
    9900012    2    1    2    0    0 -0.29463068895E+02 -0.17176970643E+02 -0.22136925926E+02  0.50528877547E+02  0.30000053792E+02 0.  0.
         12    1    1    2    0    0  0.29463068895E+02  0.17176970643E+02  0.22136925926E+02  0.40659122453E+02  0.00000000000E+00 0. -1.
         11    1    3    3    0    0  0.29776244765E+01 -0.24305880079E+01 -0.42064493714E+01  0.56980893431E+01  0.51100000000E-03 0. -1.
        -11    1    3    3    0    0 -0.25054648213E+01 -0.49717989023E+01  0.36481602411E+01  0.66562160198E+01  0.51100000000E-03 0.  1.
        -12    1    3    3    0    0 -0.29935228550E+02 -0.97745837333E+01 -0.21578636795E+02  0.38174572184E+02  0.00000000000E+00 0.  1.
</event>
<event>
 7    1  0.5456331E-013  0.5052886E+02  0.7816164E-02  0.1300439E+00
        -11   -1    0    0    0    0  0.00000000000E+00  0.00000000000E+00  0.45593999997E+02  0.45594000000E+02  0.51100000000E-03 0.  1.
         11   -1    0    0    0    0 -0.00000000000E+00 -0.00000000000E+00 -0.45593999997E+02  0.45594000000E+02  0.51100000000E-03 0. -1.
    9900012    2    1    2    0    0  0.25993433572E+02 -0.27525599994E+02 -0.14827279452E+02  0.50528862530E+02  0.30000008146E+02 0.  0.
         12    1    1    2    0    0 -0.25993433572E+02  0.27525599994E+02  0.14827279452E+02  0.40659137470E+02  0.00000000000E+00 0. -1.
         11    1    3    3    0    0  0.14294856591E+02 -0.72984583770E+01 -0.10839219234E+02  0.19367475145E+02  0.51100000000E-03 0. -1.
        -11    1    3    3    0    0  0.12989705335E+02 -0.58217882196E+01 -0.77628469868E+01  0.16213804500E+02  0.51100000000E-03 0.  1.
         12    1    3    3    0    0 -0.12911283542E+01 -0.14405353398E+02  0.37747867692E+01  0.14947582885E+02  0.00000000000E+00 0. -1.
</event>
<event>
 7    1  0.5456331E-013  0.5052886E+02  0.7816164E-02  0.1300439E+00
        -11   -1    0    0    0    0  0.00000000000E+00  0.00000000000E+00  0.45593999997E+02  0.45594000000E+02  0.51100000000E-03 0.  1.
         11   -1    0    0    0    0 -0.00000000000E+00 -0.00000000000E+00 -0.45593999997E+02  0.45594000000E+02  0.51100000000E-03 0. -1.
    9900012    2    1    2    0    0 -0.36159751423E+02  0.18382516623E+02 -0.27787609211E+01  0.50528855239E+02  0.29999985986E+02 0.  0.
         12    1    1    2    0    0  0.36159751423E+02 -0.18382516623E+02  0.27787609211E+01  0.40659144761E+02  0.00000000000E+00 0. -1.
         11    1    3    3    0    0 -0.12357626975E+02  0.91923998030E+01  0.61527142541E+01  0.16585145509E+02  0.51100000000E-03 0.  1.
        -11    1    3    3    0    0 -0.31240568575E+01 -0.43694276223E+01  0.33540108060E+01  0.63325364384E+01  0.51100000000E-03 0. -1.
        -12    1    3    3    0    0 -0.20678067591E+02  0.13559544443E+02 -0.12285485981E+02  0.27611173292E+02  0.00000000000E+00 0.  1.
</event>
<event>
 7    1  0.5456331E-013  0.5052882E+02  0.7816164E-02  0.1300439E+00
        -11   -1    0    0    0    0  0.00000000000E+00  0.00000000000E+00  0.45593999997E+02  0.45594000000E+02  0.51100000000E-03 0.  1.
         11   -1    0    0    0    0 -0.00000000000E+00 -0.00000000000E+00 -0.45593999997E+02  0.45594000000E+02  0.51100000000E-03 0. -1.
    9900012    2    1    2    0    0  0.34108062801E+02 -0.62704227516E+01  0.21224769081E+02  0.50528819339E+02  0.29999876861E+02 0.  0.
         12    1    1    2    0    0 -0.34108062801E+02  0.62704227516E+01 -0.21224769081E+02  0.40659180661E+02  0.00000000000E+00 0. -1.
         11    1    3    3    0    0 -0.10575415993E+01 -0.26376532777E+00  0.35662335149E+01  0.37290733603E+01  0.51100000000E-03 0. -1.
        -11    1    3    3    0    0 -0.24387300329E+01 -0.36125755553E+01  0.58838161831E+01  0.73223902828E+01  0.51100000000E-03 0.  1.
        -12    1    3    3    0    0  0.37604334433E+02 -0.23940818686E+01  0.11774719383E+02  0.39477355695E+02  0.00000000000E+00 0.  1.
</event>
<event>
 7    1  0.5456331E-013  0.5052886E+02  0.7816164E-02  0.1300439E+00
        -11   -1    0    0    0    0  0.00000000000E+00  0.00000000000E+00  0.45593999997E+02  0.45594000000E+02  0.51100000000E-03 0. -1.
         11   -1    0    0    0    0 -0.00000000000E+00 -0.00000000000E+00 -0.45593999997E+02  0.45594000000E+02  0.51100000000E-03 0.  1.
    9900012    2    1    2    0    0 -0.49406069715E+01  0.33973370635E+02 -0.21784544654E+02  0.50528857174E+02  0.29999991865E+02 0.  0.
         12    1    1    2    0    0  0.49406069715E+01 -0.33973370635E+02  0.21784544654E+02  0.40659142826E+02  0.00000000000E+00 0. -1.
         11    1    3    3    0    0 -0.85009407878E+00 -0.43196956158E+00  0.36416404386E+01  0.37644127019E+01  0.51100000000E-03 0.  1.
        -11    1    3    3    0    0  0.22068744817E+01  0.13495109728E+02 -0.58187622510E+00  0.13686740363E+02  0.51100000000E-03 0. -1.
        -12    1    3    3    0    0 -0.62973873744E+01  0.20910230469E+02 -0.24844308868E+02  0.33077704109E+02  0.00000000000E+00 0.  1.
</event>
<event>
 7    1  0.5456331E-013  0.5052886E+02  0.7816164E-02  0.1300439E+00
        -11   -1    0    0    0    0  0.00000000000E+00  0.00000000000E+00  0.45593999997E+02  0.45594000000E+02  0.51100000000E-03 0.  1.
         11   -1    0    0    0    0 -0.00000000000E+00 -0.00000000000E+00 -0.45593999997E+02  0.45594000000E+02  0.51100000000E-03 0. -1.
    9900012    2    1    2    0    0  0.40357090106E+02 -0.36052911810E+01  0.33871011635E+01  0.50528864488E+02  0.30000014097E+02 0.  0.
         12    1    1    2    0    0 -0.40357090106E+02  0.36052911810E+01 -0.33871011635E+01  0.40659135512E+02  0.00000000000E+00 0. -1.
         11    1    3    3    0    0  0.38606951599E+01 -0.31884730134E+01 -0.13555799419E+01  0.51873812771E+01  0.51100000000E-03 0. -1.
        -11    1    3    3    0    0  0.33931980004E+02  0.91705301601E+01  0.31517499053E+01  0.35290387050E+02  0.51100000000E-03 0.  1.
         12    1    3    3    0    0  0.25644149420E+01 -0.95873483277E+01  0.15909312001E+01  0.10051096161E+02  0.00000000000E+00 0. -1.
</event>
<event>
 7    1  0.5456331E-013  0.5052886E+02  0.7816164E-02  0.1300439E+00
        -11   -1    0    0    0    0  0.00000000000E+00  0.00000000000E+00  0.45593999997E+02  0.45594000000E+02  0.51100000000E-03 0. -1.
         11   -1    0    0    0    0 -0.00000000000E+00 -0.00000000000E+00 -0.45593999997E+02  0.45594000000E+02  0.51100000000E-03 0.  1.
    9900012    2    1    2    0    0 -0.40789981066E+01  0.34353971915E+02 -0.21361934648E+02  0.50528857562E+02  0.29999993047E+02 0.  0.
         12    1    1    2    0    0  0.40789981066E+01 -0.34353971915E+02  0.21361934648E+02  0.40659142438E+02  0.00000000000E+00 0. -1.
         11    1    3    3    0    0 -0.14516922609E+01  0.17995725678E+02  0.32549552212E+01  0.18345252433E+02  0.51100000000E-03 0. -1.
        -11    1    3    3    0    0  0.44781269759E+01  0.39534866294E+01 -0.10572632498E+02  0.12143485329E+02  0.51100000000E-03 0.  1.
        -12    1    3    3    0    0 -0.71054328216E+01  0.12404759608E+02 -0.14044257371E+02  0.20040119800E+02  0.00000000000E+00 0.  1.
</event>
<event>
 7    1  0.5456331E-013  0.5052885E+02  0.7816164E-02  0.1300439E+00
        -11   -1    0    0    0    0  0.00000000000E+00  0.00000000000E+00  0.45593999997E+02  0.45594000000E+02  0.51100000000E-03 0. -1.
         11   -1    0    0    0    0 -0.00000000000E+00 -0.00000000000E+00 -0.45593999997E+02  0.45594000000E+02  0.51100000000E-03 0.  1.
    9900012    2    1    2    0    0 -0.11301599084E+02 -0.34126450084E+02 -0.18995405361E+02  0.50528853895E+02  0.29999981898E+02 0.  0.
         12    1    1    2    0    0  0.11301599084E+02  0.34126450084E+02  0.18995405361E+02  0.40659146105E+02  0.00000000000E+00 0. -1.
         11    1    3    3    0    0  0.66255280323E+01 -0.11012020027E+02 -0.18264749128E+01  0.12980686332E+02  0.51100000000E-03 0. -1.
        -11    1    3    3    0    0 -0.28542902594E+01 -0.87482343262E+01 -0.13601998354E+02  0.16422330413E+02  0.51100000000E-03 0.  1.
        -12    1    3    3    0    0 -0.15072836857E+02 -0.14366195731E+02 -0.35669320941E+01  0.21125837149E+02  0.00000000000E+00 0.  1.
</event>
<event>
 7    1  0.5456331E-013  0.5052886E+02  0.7816164E-02  0.1300439E+00
        -11   -1    0    0    0    0  0.00000000000E+00  0.00000000000E+00  0.45593999997E+02  0.45594000000E+02  0.51100000000E-03 0.  1.
         11   -1    0    0    0    0 -0.00000000000E+00 -0.00000000000E+00 -0.45593999997E+02  0.45594000000E+02  0.51100000000E-03 0. -1.
    9900012    2    1    2    0    0 -0.56318835556E+01 -0.28779713961E+02  0.28163379492E+02  0.50528855980E+02  0.29999988236E+02 0.  0.
         12    1    1    2    0    0  0.56318835556E+01  0.28779713961E+02 -0.28163379492E+02  0.40659144020E+02  0.00000000000E+00 0. -1.
         11    1    3    3    0    0 -0.83989182025E+01 -0.22888028751E+01  0.46456043206E+01  0.98672227773E+01  0.51100000000E-03 0. -1.
        -11    1    3    3    0    0 -0.71216355659E+01 -0.12921370377E+02  0.47966696198E+01  0.15514107943E+02  0.51100000000E-03 0.  1.
        -12    1    3    3    0    0  0.98886702128E+01 -0.13569540709E+02  0.18721105551E+02  0.25147525260E+02  0.00000000000E+00 0.  1.
</event>
<event>
 7    1  0.5456331E-013  0.5052886E+02  0.7816164E-02  0.1300439E+00
        -11   -1    0    0    0    0  0.00000000000E+00  0.00000000000E+00  0.45593999997E+02  0.45594000000E+02  0.51100000000E-03 0.  1.
         11   -1    0    0    0    0 -0.00000000000E+00 -0.00000000000E+00 -0.45593999997E+02  0.45594000000E+02  0.51100000000E-03 0. -1.
    9900012    2    1    2    0    0  0.33963200809E+02 -0.21246802676E+02  0.69455064189E+01  0.50528859668E+02  0.29999999448E+02 0.  0.
         12    1    1    2    0    0 -0.33963200809E+02  0.21246802676E+02 -0.69455064189E+01  0.40659140332E+02  0.00000000000E+00 0. -1.
         11    1    3    3    0    0  0.11287210802E+02 -0.52701318659E+01 -0.88433341850E+00  0.12488293055E+02  0.51100000000E-03 0. -1.
        -11    1    3    3    0    0  0.13308967074E+02 -0.16487590547E+01 -0.72346923082E+01  0.15237709278E+02  0.51100000000E-03 0.  1.
        -12    1    3    3    0    0  0.93670229332E+01 -0.14327911755E+02  0.15064532146E+02  0.22802857335E+02  0.00000000000E+00 0.  1.
</event>
<event>
 7    1  0.5456331E-013  0.5052886E+02  0.7816164E-02  0.1300439E+00
        -11   -1    0    0    0    0  0.00000000000E+00  0.00000000000E+00  0.45593999997E+02  0.45594000000E+02  0.51100000000E-03 0.  1.
         11   -1    0    0    0    0 -0.00000000000E+00 -0.00000000000E+00 -0.45593999997E+02  0.45594000000E+02  0.51100000000E-03 0. -1.
    9900012    2    1    2    0    0 -0.10896524676E+02  0.15632488249E+02  0.35917360681E+02  0.50528859120E+02  0.29999997780E+02 0.  0.
         12    1    1    2    0    0  0.10896524676E+02 -0.15632488249E+02 -0.35917360681E+02  0.40659140880E+02  0.00000000000E+00 0. -1.
         11    1    3    3    0    0 -0.40365945770E+01  0.94832766193E+01  0.35808018771E+01  0.10910947418E+02  0.51100000000E-03 0. -1.
        -11    1    3    3    0    0 -0.12327277163E+02  0.10071272952E+02  0.25224623628E+02  0.29827402477E+02  0.51100000000E-03 0.  1.
        -12    1    3    3    0    0  0.54673470634E+01 -0.39220613224E+01  0.71119351757E+01  0.97905092243E+01  0.00000000000E+00 0.  1.
</event>
<event>
 7    1  0.5456331E-013  0.5052886E+02  0.7816164E-02  0.1300439E+00
        -11   -1    0    0    0    0  0.00000000000E+00  0.00000000000E+00  0.45593999997E+02  0.45594000000E+02  0.51100000000E-03 0.  1.
         11   -1    0    0    0    0 -0.00000000000E+00 -0.00000000000E+00 -0.45593999997E+02  0.45594000000E+02  0.51100000000E-03 0. -1.
    9900012    2    1    2    0    0  0.39593123164E+01 -0.21409440202E+02  0.34338390609E+02  0.50528863838E+02  0.30000012123E+02 0.  0.
         12    1    1    2    0    0 -0.39593123164E+01  0.21409440202E+02 -0.34338390609E+02  0.40659136162E+02  0.00000000000E+00 0. -1.
         11    1    3    3    0    0  0.44365785293E+01  0.33629093635E+01  0.10671259218E+02  0.12036119059E+02  0.51100000000E-03 0. -1.
        -11    1    3    3    0    0  0.47849186274E+01 -0.28048853152E+01  0.11657558352E+02  0.12909744184E+02  0.51100000000E-03 0.  1.
        -12    1    3    3    0    0 -0.52621848404E+01 -0.21967464250E+02  0.12009573039E+02  0.25583000595E+02  0.00000000000E+00 0.  1.
</event>
<event>
 7    1  0.5456331E-013  0.5052894E+02  0.7816164E-02  0.1300439E+00
        -11   -1    0    0    0    0  0.00000000000E+00  0.00000000000E+00  0.45593999997E+02  0.45594000000E+02  0.51100000000E-03 0.  1.
         11   -1    0    0    0    0 -0.00000000000E+00 -0.00000000000E+00 -0.45593999997E+02  0.45594000000E+02  0.51100000000E-03 0. -1.
    9900012    2    1    2    0    0 -0.12193597688E+02 -0.28498806707E+02  0.26311472279E+02  0.50528937274E+02  0.30000235337E+02 0.  0.
         12    1    1    2    0    0  0.12193597688E+02  0.28498806707E+02 -0.26311472279E+02  0.40659062726E+02  0.00000000000E+00 0. -1.
         11    1    3    3    0    0  0.37379679875E+01 -0.10102273614E+02  0.13314656722E+01  0.10853623264E+02  0.51100000000E-03 0. -1.
        -11    1    3    3    0    0  0.13073540377E+00 -0.88785758281E+01  0.50761262969E+00  0.88940357163E+01  0.51100000000E-03 0.  1.
        -12    1    3    3    0    0 -0.16062301079E+02 -0.95179572643E+01  0.24472393977E+02  0.30781278294E+02  0.00000000000E+00 0.  1.
</event>
<event>
 7    1  0.5456331E-013  0.5052886E+02  0.7816164E-02  0.1300439E+00
        -11   -1    0    0    0    0  0.00000000000E+00  0.00000000000E+00  0.45593999997E+02  0.45594000000E+02  0.51100000000E-03 0.  1.
         11   -1    0    0    0    0 -0.00000000000E+00 -0.00000000000E+00 -0.45593999997E+02  0.45594000000E+02  0.51100000000E-03 0. -1.
    9900012    2    1    2    0    0 -0.85430659342E+00  0.25220247932E+02  0.31880638872E+02  0.50528857358E+02  0.29999992426E+02 0.  0.
         12    1    1    2    0    0  0.85430659342E+00 -0.25220247932E+02 -0.31880638872E+02  0.40659142642E+02  0.00000000000E+00 0. -1.
         11    1    3    3    0    0  0.64151502491E+01  0.10950782534E+01 -0.49564939436E+00  0.65267922966E+01  0.51100000000E-03 0. -1.
        -11    1    3    3    0    0 -0.67341517925E+01  0.18372917527E+01  0.11538986340E+02  0.13486016734E+02  0.51100000000E-03 0.  1.
        -12    1    3    3    0    0 -0.53530505002E+00  0.22287877926E+02  0.20837301926E+02  0.30516048327E+02  0.00000000000E+00 0.  1.
</event>
<event>
 7    1  0.5456331E-013  0.5052886E+02  0.7816164E-02  0.1300439E+00
        -11   -1    0    0    0    0  0.00000000000E+00  0.00000000000E+00  0.45593999997E+02  0.45594000000E+02  0.51100000000E-03 0.  1.
         11   -1    0    0    0    0 -0.00000000000E+00 -0.00000000000E+00 -0.45593999997E+02  0.45594000000E+02  0.51100000000E-03 0. -1.
    9900012    2    1    2    0    0  0.21587781251E+02 -0.96982502923E+01  0.33061717937E+02  0.50528861408E+02  0.30000004737E+02 0.  0.
         12    1    1    2    0    0 -0.21587781251E+02  0.96982502923E+01 -0.33061717937E+02  0.40659138592E+02  0.00000000000E+00 0. -1.
         11    1    3    3    0    0  0.83398643087E+01 -0.73536125391E+01  0.10933302461E+02  0.15593782640E+02  0.51100000000E-03 0. -1.
        -11    1    3    3    0    0  0.95033622616E+01 -0.92999768295E+01  0.21730621166E+01  0.13473145977E+02  0.51100000000E-03 0.  1.
        -12    1    3    3    0    0  0.37445546808E+01  0.69553390763E+01  0.19955353359E+02  0.21461932791E+02  0.00000000000E+00 0.  1.
</event>
<event>
 7    1  0.5456331E-013  0.5052887E+02  0.7816164E-02  0.1300439E+00
        -11   -1    0    0    0    0  0.00000000000E+00  0.00000000000E+00  0.45593999997E+02  0.45594000000E+02  0.51100000000E-03 0.  1.
         11   -1    0    0    0    0 -0.00000000000E+00 -0.00000000000E+00 -0.45593999997E+02  0.45594000000E+02  0.51100000000E-03 0. -1.
    9900012    2    1    2    0    0  0.12320076359E+02 -0.49805493085E+01  0.38426228904E+02  0.50528865471E+02  0.30000017085E+02 0.  0.
         12    1    1    2    0    0 -0.12320076359E+02  0.49805493085E+01 -0.38426228904E+02  0.40659134529E+02  0.00000000000E+00 0. -1.
         11    1    3    3    0    0 -0.78729104005E+00 -0.39863482184E+01  0.36016730973E+01  0.54298111073E+01  0.51100000000E-03 0.  1.
        -11    1    3    3    0    0 -0.45096119987E+01  0.18360078544E+01  0.23424671787E+02  0.23925358384E+02  0.51100000000E-03 0. -1.
        -12    1    3    3    0    0  0.17616979397E+02 -0.28302089444E+01  0.11399884019E+02  0.21173695979E+02  0.00000000000E+00 0.  1.
</event>
<event>
 7    1  0.5456331E-013  0.5052887E+02  0.7816164E-02  0.1300439E+00
        -11   -1    0    0    0    0  0.00000000000E+00  0.00000000000E+00  0.45593999997E+02  0.45594000000E+02  0.51100000000E-03 0. -1.
         11   -1    0    0    0    0 -0.00000000000E+00 -0.00000000000E+00 -0.45593999997E+02  0.45594000000E+02  0.51100000000E-03 0.  1.
    9900012    2    1    2    0    0 -0.30188439542E+02 -0.12773097191E+02 -0.24055584411E+02  0.50528867752E+02  0.30000024018E+02 0.  0.
         12    1    1    2    0    0  0.30188439542E+02  0.12773097191E+02  0.24055584411E+02  0.40659132248E+02  0.00000000000E+00 0. -1.
         11    1    3    3    0    0 -0.95588424408E+01 -0.62998215292E+01  0.29713918426E+00  0.11451965424E+02  0.51100000000E-03 0. -1.
        -11    1    3    3    0    0 -0.30236721341E+01 -0.71985981135E+01 -0.19186452231E+02  0.20714303209E+02  0.51100000000E-03 0.  1.
         12    1    3    3    0    0 -0.17605924967E+02  0.72532245185E+00 -0.51662713650E+01  0.18362599119E+02  0.00000000000E+00 0. -1.
</event>
<event>
 7    1  0.5456331E-013  0.5052886E+02  0.7816164E-02  0.1300439E+00
        -11   -1    0    0    0    0  0.00000000000E+00  0.00000000000E+00  0.45593999997E+02  0.45594000000E+02  0.51100000000E-03 0.  1.
         11   -1    0    0    0    0 -0.00000000000E+00 -0.00000000000E+00 -0.45593999997E+02  0.45594000000E+02  0.51100000000E-03 0. -1.
    9900012    2    1    2    0    0  0.27220045199E+02  0.26112478810E+02  0.15178059595E+02  0.50528857076E+02  0.29999991568E+02 0.  0.
         12    1    1    2    0    0 -0.27220045199E+02 -0.26112478810E+02 -0.15178059595E+02  0.40659142924E+02  0.00000000000E+00 0. -1.
         11    1    3    3    0    0  0.85320167373E+01  0.20716858421E+02  0.77726836033E+01  0.23714935022E+02  0.51100000000E-03 0. -1.
        -11    1    3    3    0    0  0.98348078159E+00  0.45143685929E+01  0.78196635445E+01  0.90826150667E+01  0.51100000000E-03 0.  1.
         12    1    3    3    0    0  0.17704547680E+02  0.88125179597E+00 -0.41428755266E+00  0.17731306987E+02  0.00000000000E+00 0. -1.
</event>
<event>
 7    1  0.5456331E-013  0.5052886E+02  0.7816164E-02  0.1300439E+00
        -11   -1    0    0    0    0  0.00000000000E+00  0.00000000000E+00  0.45593999997E+02  0.45594000000E+02  0.51100000000E-03 0.  1.
         11   -1    0    0    0    0 -0.00000000000E+00 -0.00000000000E+00 -0.45593999997E+02  0.45594000000E+02  0.51100000000E-03 0. -1.
    9900012    2    1    2    0    0  0.19729060260E+02  0.16587198541E+02  0.31445100540E+02  0.50528864223E+02  0.30000013291E+02 0.  0.
         12    1    1    2    0    0 -0.19729060260E+02 -0.16587198541E+02 -0.31445100540E+02  0.40659135777E+02  0.00000000000E+00 0. -1.
         11    1    3    3    0    0 -0.34807215225E+01  0.12929139366E+01 -0.99513857290E-01  0.37144248590E+01  0.51100000000E-03 0. -1.
        -11    1    3    3    0    0 -0.64580741885E+00  0.10164162404E+02  0.96630107156E+01  0.14039267821E+02  0.51100000000E-03 0.  1.
         12    1    3    3    0    0  0.23855589202E+02  0.51301221997E+01  0.21881603682E+02  0.32775171542E+02  0.00000000000E+00 0. -1.
</event>
<event>
 7    1  0.5456331E-013  0.5052893E+02  0.7816164E-02  0.1300439E+00
        -11   -1    0    0    0    0  0.00000000000E+00  0.00000000000E+00  0.45593999997E+02  0.45594000000E+02  0.51100000000E-03 0. -1.
         11   -1    0    0    0    0 -0.00000000000E+00 -0.00000000000E+00 -0.45593999997E+02  0.45594000000E+02  0.51100000000E-03 0.  1.
    9900012    2    1    2    0    0  0.12975887428E+02  0.38524589531E+02  0.80161245161E+00  0.50528926774E+02  0.30000203421E+02 0.  0.
         12    1    1    2    0    0 -0.12975887428E+02 -0.38524589531E+02 -0.80161245161E+00  0.40659073226E+02  0.00000000000E+00 0. -1.
         11    1    3    3    0    0  0.11594333169E+01 -0.30705958484E+01  0.35400421815E+01  0.48274986679E+01  0.51100000000E-03 0. -1.
        -11    1    3    3    0    0 -0.29794186403E+01  0.57344001851E+01  0.16255154883E+01  0.66635262272E+01  0.51100000000E-03 0.  1.
         12    1    3    3    0    0  0.14795872752E+02  0.35860785194E+02 -0.43639452182E+01  0.39037901879E+02  0.00000000000E+00 0. -1.
</event>
<event>
 7    1  0.5456331E-013  0.5052886E+02  0.7816164E-02  0.1300439E+00
        -11   -1    0    0    0    0  0.00000000000E+00  0.00000000000E+00  0.45593999997E+02  0.45594000000E+02  0.51100000000E-03 0. -1.
         11   -1    0    0    0    0 -0.00000000000E+00 -0.00000000000E+00 -0.45593999997E+02  0.45594000000E+02  0.51100000000E-03 0.  1.
    9900012    2    1    2    0    0  0.16460777231E+01  0.39205333048E+02 -0.10648857193E+02  0.50528857476E+02  0.29999992783E+02 0.  0.
         12    1    1    2    0    0 -0.16460777231E+01 -0.39205333048E+02  0.10648857193E+02  0.40659142524E+02  0.00000000000E+00 0. -1.
         11    1    3    3    0    0  0.70950389133E+01  0.20471875253E+02 -0.87376788313E+01  0.23362026564E+02  0.51100000000E-03 0. -1.
        -11    1    3    3    0    0 -0.89726293174E+00  0.87770523210E+01 -0.10162483647E+02  0.13458001425E+02  0.51100000000E-03 0.  1.
         12    1    3    3    0    0 -0.45516982585E+01  0.99564054745E+01  0.82513052848E+01  0.13708829487E+02  0.00000000000E+00 0. -1.
</event>
<event>
 7    1  0.5456331E-013  0.5052886E+02  0.7816164E-02  0.1300439E+00
        -11   -1    0    0    0    0  0.00000000000E+00  0.00000000000E+00  0.45593999997E+02  0.45594000000E+02  0.51100000000E-03 0.  1.
         11   -1    0    0    0    0 -0.00000000000E+00 -0.00000000000E+00 -0.45593999997E+02  0.45594000000E+02  0.51100000000E-03 0. -1.
    9900012    2    1    2    0    0 -0.52227007682E+00 -0.30552575034E+01  0.40540825503E+02  0.50528857155E+02  0.29999991807E+02 0.  0.
         12    1    1    2    0    0  0.52227007682E+00  0.30552575034E+01 -0.40540825503E+02  0.40659142845E+02  0.00000000000E+00 0. -1.
         11    1    3    3    0    0 -0.43366292145E+01 -0.41728456375E+01  0.23903852988E+02  0.24649810985E+02  0.51100000000E-03 0. -1.
        -11    1    3    3    0    0  0.92817440686E+01  0.93271263571E+00  0.17971289766E+02  0.20248159964E+02  0.51100000000E-03 0.  1.
         12    1    3    3    0    0 -0.54673849310E+01  0.18487549839E+00 -0.13343172510E+01  0.56308862055E+01  0.00000000000E+00 0. -1.
</event>
<event>
 7    1  0.5456331E-013  0.5052886E+02  0.7816164E-02  0.1300439E+00
        -11   -1    0    0    0    0  0.00000000000E+00  0.00000000000E+00  0.45593999997E+02  0.45594000000E+02  0.51100000000E-03 0. -1.
         11   -1    0    0    0    0 -0.00000000000E+00 -0.00000000000E+00 -0.45593999997E+02  0.45594000000E+02  0.51100000000E-03 0.  1.
    9900012    2    1    2    0    0  0.91628187216E+01  0.39610502930E+02  0.46512185154E+00  0.50528861696E+02  0.30000005611E+02 0.  0.
         12    1    1    2    0    0 -0.91628187216E+01 -0.39610502930E+02 -0.46512185154E+00  0.40659138304E+02  0.00000000000E+00 0. -1.
         11    1    3    3    0    0 -0.61310794967E+00 -0.55921806878E+00 -0.56922522937E+01  0.57524223283E+01  0.51100000000E-03 0. -1.
        -11    1    3    3    0    0  0.12428159629E+01  0.20573348460E+02  0.10243072388E+02  0.23015816096E+02  0.51100000000E-03 0.  1.
        -12    1    3    3    0    0  0.85331107083E+01  0.19596372538E+02 -0.40856982426E+01  0.21760623271E+02  0.00000000000E+00 0.  1.
</event>
<event>
 7    1  0.5456331E-013  0.5052886E+02  0.7816164E-02  0.1300439E+00
        -11   -1    0    0    0    0  0.00000000000E+00  0.00000000000E+00  0.45593999997E+02  0.45594000000E+02  0.51100000000E-03 0.  1.
         11   -1    0    0    0    0 -0.00000000000E+00 -0.00000000000E+00 -0.45593999997E+02  0.45594000000E+02  0.51100000000E-03 0. -1.
    9900012    2    1    2    0    0 -0.30122255749E+02  0.21160247827E+01  0.27227517240E+02  0.50528861453E+02  0.30000004873E+02 0.  0.
         12    1    1    2    0    0  0.30122255749E+02 -0.21160247827E+01 -0.27227517240E+02  0.40659138547E+02  0.00000000000E+00 0. -1.
         11    1    3    3    0    0  0.33274953218E+01  0.23955572590E+01  0.84988895450E+01  0.94362091677E+01  0.51100000000E-03 0. -1.
        -11    1    3    3    0    0 -0.53936294905E+01 -0.36672555454E+01  0.91841468179E+01  0.11264482028E+02  0.51100000000E-03 0.  1.
        -12    1    3    3    0    0 -0.28056121580E+02  0.33877230692E+01  0.95444808774E+01  0.29828170258E+02  0.00000000000E+00 0.  1.
</event>
<event>
 7    1  0.5456331E-013  0.5052885E+02  0.7816164E-02  0.1300439E+00
        -11   -1    0    0    0    0  0.00000000000E+00  0.00000000000E+00  0.45593999997E+02  0.45594000000E+02  0.51100000000E-03 0.  1.
         11   -1    0    0    0    0 -0.00000000000E+00 -0.00000000000E+00 -0.45593999997E+02  0.45594000000E+02  0.51100000000E-03 0. -1.
    9900012    2    1    2    0    0  0.14162795800E+02 -0.36350612689E+02  0.11454879482E+02  0.50528854759E+02  0.29999984527E+02 0.  0.
         12    1    1    2    0    0 -0.14162795800E+02  0.36350612689E+02 -0.11454879482E+02  0.40659145241E+02  0.00000000000E+00 0. -1.
         11    1    3    3    0    0  0.83593716839E+00 -0.21647122374E+01  0.58071568971E+01  0.62536262688E+01  0.51100000000E-03 0. -1.
        -11    1    3    3    0    0 -0.22868629942E+01  0.18725153525E+01 -0.28136779883E+01  0.40807891617E+01  0.51100000000E-03 0.  1.
        -12    1    3    3    0    0  0.15613721626E+02 -0.36058415804E+02  0.84614005729E+01  0.40194439329E+02  0.00000000000E+00 0.  1.
</event>
<event>
 7    1  0.5456331E-013  0.5052885E+02  0.7816164E-02  0.1300439E+00
        -11   -1    0    0    0    0  0.00000000000E+00  0.00000000000E+00  0.45593999997E+02  0.45594000000E+02  0.51100000000E-03 0. -1.
         11   -1    0    0    0    0 -0.00000000000E+00 -0.00000000000E+00 -0.45593999997E+02  0.45594000000E+02  0.51100000000E-03 0.  1.
    9900012    2    1    2    0    0  0.19462514331E+02  0.14576846198E+02 -0.32586696119E+02  0.50528847609E+02  0.29999962793E+02 0.  0.
         12    1    1    2    0    0 -0.19462514331E+02 -0.14576846198E+02  0.32586696119E+02  0.40659152391E+02  0.00000000000E+00 0. -1.
         11    1    3    3    0    0 -0.42621398501E+00 -0.92198615340E+00 -0.29329180676E+01  0.31038243315E+01  0.51100000000E-03 0. -1.
        -11    1    3    3    0    0  0.18071224962E+02  0.13844818013E+02 -0.34878956317E+02  0.41650807333E+02  0.51100000000E-03 0.  1.
         12    1    3    3    0    0  0.18175033542E+01  0.16540143384E+01  0.52251782655E+01  0.57742159450E+01  0.00000000000E+00 0. -1.
</event>
<event>
 7    1  0.5456331E-013  0.5052886E+02  0.7816164E-02  0.1300439E+00
        -11   -1    0    0    0    0  0.00000000000E+00  0.00000000000E+00  0.45593999997E+02  0.45594000000E+02  0.51100000000E-03 0. -1.
         11   -1    0    0    0    0 -0.00000000000E+00 -0.00000000000E+00 -0.45593999997E+02  0.45594000000E+02  0.51100000000E-03 0.  1.
    9900012    2    1    2    0    0  0.44810282738E+01  0.40294774921E+02 -0.30687457245E+01  0.50528859569E+02  0.29999999145E+02 0.  0.
         12    1    1    2    0    0 -0.44810282738E+01 -0.40294774921E+02  0.30687457245E+01  0.40659140431E+02  0.00000000000E+00 0. -1.
         11    1    3    3    0    0  0.11826050201E+01  0.74570703545E+01  0.44482353021E+01  0.87631758210E+01  0.51100000000E-03 0. -1.
        -11    1    3    3    0    0 -0.84129700655E+01  0.22995331184E+02  0.50660725500E+00  0.24491222362E+02  0.51100000000E-03 0.  1.
        -12    1    3    3    0    0  0.11711393319E+02  0.98423733819E+01 -0.80235882816E+01  0.17274461386E+02  0.00000000000E+00 0.  1.
</event>
<event>
 7    1  0.5456331E-013  0.5052887E+02  0.7816164E-02  0.1300439E+00
        -11   -1    0    0    0    0  0.00000000000E+00  0.00000000000E+00  0.45593999997E+02  0.45594000000E+02  0.51100000000E-03 0.  1.
         11   -1    0    0    0    0 -0.00000000000E+00 -0.00000000000E+00 -0.45593999997E+02  0.45594000000E+02  0.51100000000E-03 0. -1.
    9900012    2    1    2    0    0  0.32900697886E+02 -0.18633187439E+02  0.14950365725E+02  0.50528867805E+02  0.30000024180E+02 0.  0.
         12    1    1    2    0    0 -0.32900697886E+02  0.18633187439E+02 -0.14950365725E+02  0.40659132195E+02  0.00000000000E+00 0. -1.
         11    1    3    3    0    0  0.12901431067E+02  0.37401444094E+01  0.53070000899E+01  0.14442986325E+02  0.51100000000E-03 0. -1.
        -11    1    3    3    0    0 -0.18609898248E+01 -0.59286422856E+01 -0.17460606199E+01  0.64545186055E+01  0.51100000000E-03 0.  1.
        -12    1    3    3    0    0  0.21860256644E+02 -0.16444689563E+02  0.11389426255E+02  0.29631362874E+02  0.00000000000E+00 0.  1.
</event>
<event>
 7    1  0.5456331E-013  0.5052887E+02  0.7816164E-02  0.1300439E+00
        -11   -1    0    0    0    0  0.00000000000E+00  0.00000000000E+00  0.45593999997E+02  0.45594000000E+02  0.51100000000E-03 0.  1.
         11   -1    0    0    0    0 -0.00000000000E+00 -0.00000000000E+00 -0.45593999997E+02  0.45594000000E+02  0.51100000000E-03 0. -1.
    9900012    2    1    2    0    0 -0.27291188486E+02 -0.12046326731E+02  0.27626835653E+02  0.50528868124E+02  0.30000025149E+02 0.  0.
         12    1    1    2    0    0  0.27291188486E+02  0.12046326731E+02 -0.27626835653E+02  0.40659131876E+02  0.00000000000E+00 0. -1.
         11    1    3    3    0    0 -0.16380231725E+01  0.52829247158E+01  0.11373317101E+02  0.12646926726E+02  0.51100000000E-03 0. -1.
        -11    1    3    3    0    0 -0.41261491345E+01 -0.27106540298E+01  0.99506700167E+01  0.11108041501E+02  0.51100000000E-03 0.  1.
         12    1    3    3    0    0 -0.21527016179E+02 -0.14618597417E+02  0.63028485357E+01  0.26773899897E+02  0.00000000000E+00 0. -1.
</event>
<event>
 7    1  0.5456331E-013  0.5052885E+02  0.7816164E-02  0.1300439E+00
        -11   -1    0    0    0    0  0.00000000000E+00  0.00000000000E+00  0.45593999997E+02  0.45594000000E+02  0.51100000000E-03 0.  1.
         11   -1    0    0    0    0 -0.00000000000E+00 -0.00000000000E+00 -0.45593999997E+02  0.45594000000E+02  0.51100000000E-03 0. -1.
    9900012    2    1    2    0    0 -0.17503863261E+02 -0.36005906068E+02  0.70962114515E+01  0.50528847060E+02  0.29999961123E+02 0.  0.
         12    1    1    2    0    0  0.17503863261E+02  0.36005906068E+02 -0.70962114515E+01  0.40659152940E+02  0.00000000000E+00 0. -1.
         11    1    3    3    0    0  0.16038521189E+01 -0.10481941632E+02  0.12689511899E+01  0.10679591723E+02  0.51100000000E-03 0. -1.
        -11    1    3    3    0    0  0.25687956978E+01 -0.18967782929E+01 -0.50632165505E+01  0.59860371974E+01  0.51100000000E-03 0.  1.
        -12    1    3    3    0    0 -0.21676511078E+02 -0.23627186143E+02  0.10890476812E+02  0.33863218139E+02  0.00000000000E+00 0.  1.
</event>
<event>
 7    1  0.5456331E-013  0.5052886E+02  0.7816164E-02  0.1300439E+00
        -11   -1    0    0    0    0  0.00000000000E+00  0.00000000000E+00  0.45593999997E+02  0.45594000000E+02  0.51100000000E-03 0.  1.
         11   -1    0    0    0    0 -0.00000000000E+00 -0.00000000000E+00 -0.45593999997E+02  0.45594000000E+02  0.51100000000E-03 0. -1.
    9900012    2    1    2    0    0 -0.85914568824E+01  0.37500203449E+02  0.13156267471E+02  0.50528858791E+02  0.29999996781E+02 0.  0.
         12    1    1    2    0    0  0.85914568824E+01 -0.37500203449E+02 -0.13156267471E+02  0.40659141209E+02  0.00000000000E+00 0. -1.
         11    1    3    3    0    0 -0.27199997934E+01  0.23336205219E+01 -0.19261387525E+01  0.40686845996E+01  0.51100000000E-03 0. -1.
        -11    1    3    3    0    0 -0.32295515271E+01  0.27445622724E+02 -0.18159529641E+01  0.27694582416E+02  0.51100000000E-03 0.  1.
        -12    1    3    3    0    0 -0.26419055620E+01  0.77209602036E+01  0.16898359187E+02  0.18765591776E+02  0.00000000000E+00 0.  1.
</event>
<event>
 7    1  0.5456331E-013  0.5052887E+02  0.7816164E-02  0.1300439E+00
        -11   -1    0    0    0    0  0.00000000000E+00  0.00000000000E+00  0.45593999997E+02  0.45594000000E+02  0.51100000000E-03 0.  1.
         11   -1    0    0    0    0 -0.00000000000E+00 -0.00000000000E+00 -0.45593999997E+02  0.45594000000E+02  0.51100000000E-03 0. -1.
    9900012    2    1    2    0    0 -0.27520944647E+02 -0.16467760310E+02  0.24991501736E+02  0.50528872083E+02  0.30000037184E+02 0.  0.
         12    1    1    2    0    0  0.27520944647E+02  0.16467760310E+02 -0.24991501736E+02  0.40659127917E+02  0.00000000000E+00 0. -1.
         11    1    3    3    0    0 -0.12126481826E+02 -0.14723273337E+01  0.16511179505E+02  0.20538703907E+02  0.51100000000E-03 0. -1.
        -11    1    3    3    0    0 -0.14131458618E+02 -0.13447441132E+01  0.79523164073E+01  0.16271010906E+02  0.51100000000E-03 0.  1.
         12    1    3    3    0    0 -0.12630042038E+01 -0.13650688864E+02  0.52800582365E+00  0.13719157271E+02  0.00000000000E+00 0. -1.
</event>
<event>
 7    1  0.5456331E-013  0.5052886E+02  0.7816164E-02  0.1300439E+00
        -11   -1    0    0    0    0  0.00000000000E+00  0.00000000000E+00  0.45593999997E+02  0.45594000000E+02  0.51100000000E-03 0.  1.
         11   -1    0    0    0    0 -0.00000000000E+00 -0.00000000000E+00 -0.45593999997E+02  0.45594000000E+02  0.51100000000E-03 0. -1.
    9900012    2    1    2    0    0  0.35038007586E+02 -0.38967762011E+01  0.20256318872E+02  0.50528864562E+02  0.30000014323E+02 0.  0.
         12    1    1    2    0    0 -0.35038007586E+02  0.38967762011E+01 -0.20256318872E+02  0.40659135438E+02  0.00000000000E+00 0. -1.
         11    1    3    3    0    0  0.66043054194E+00  0.13039412096E+01  0.70255592091E+01  0.71759956550E+01  0.51100000000E-03 0. -1.
        -11    1    3    3    0    0  0.12786346776E+02 -0.52530443949E+01  0.16489356155E+02  0.21517063135E+02  0.51100000000E-03 0.  1.
         12    1    3    3    0    0  0.21591230268E+02  0.52326984152E-01 -0.32585964931E+01  0.21835805772E+02  0.00000000000E+00 0. -1.
</event>
<event>
 7    1  0.5456331E-013  0.5052887E+02  0.7816164E-02  0.1300439E+00
        -11   -1    0    0    0    0  0.00000000000E+00  0.00000000000E+00  0.45593999997E+02  0.45594000000E+02  0.51100000000E-03 0.  1.
         11   -1    0    0    0    0 -0.00000000000E+00 -0.00000000000E+00 -0.45593999997E+02  0.45594000000E+02  0.51100000000E-03 0. -1.
    9900012    2    1    2    0    0  0.79547225945E+01  0.40472836023E+01  0.39667450494E+02  0.50528871323E+02  0.30000034873E+02 0.  0.
         12    1    1    2    0    0 -0.79547225945E+01 -0.40472836023E+01 -0.39667450494E+02  0.40659128677E+02  0.00000000000E+00 0. -1.
         11    1    3    3    0    0  0.25394956642E+01  0.41769157299E+01  0.20769784515E+02  0.21337282214E+02  0.51100000000E-03 0. -1.
        -11    1    3    3    0    0  0.45627255335E+01  0.96727458465E+00  0.23719446572E+02  0.24173668120E+02  0.51100000000E-03 0.  1.
         12    1    3    3    0    0  0.85250139682E+00 -0.10969067122E+01 -0.48217805929E+01  0.50179209891E+01  0.00000000000E+00 0. -1.
</event>
<event>
 7    1  0.5456331E-013  0.5052885E+02  0.7816164E-02  0.1300439E+00
        -11   -1    0    0    0    0  0.00000000000E+00  0.00000000000E+00  0.45593999997E+02  0.45594000000E+02  0.51100000000E-03 0.  1.
         11   -1    0    0    0    0 -0.00000000000E+00 -0.00000000000E+00 -0.45593999997E+02  0.45594000000E+02  0.51100000000E-03 0. -1.
    9900012    2    1    2    0    0 -0.18756842127E+02 -0.29744319253E+02  0.20411343376E+02  0.50528848597E+02  0.29999965795E+02 0.  0.
         12    1    1    2    0    0  0.18756842127E+02  0.29744319253E+02 -0.20411343376E+02  0.40659151403E+02  0.00000000000E+00 0. -1.
         11    1    3    3    0    0 -0.82839294968E+01 -0.22064164879E+00  0.13935709217E+02  0.16213456210E+02  0.51100000000E-03 0. -1.
        -11    1    3    3    0    0 -0.36064633269E+01 -0.16484595141E+01  0.37838427089E+01  0.54810092506E+01  0.51100000000E-03 0.  1.
         12    1    3    3    0    0 -0.68664493035E+01 -0.27875218090E+02  0.26917914504E+01  0.28834383136E+02  0.00000000000E+00 0. -1.
</event>
<event>
 7    1  0.5456331E-013  0.5052886E+02  0.7816164E-02  0.1300439E+00
        -11   -1    0    0    0    0  0.00000000000E+00  0.00000000000E+00  0.45593999997E+02  0.45594000000E+02  0.51100000000E-03 0. -1.
         11   -1    0    0    0    0 -0.00000000000E+00 -0.00000000000E+00 -0.45593999997E+02  0.45594000000E+02  0.51100000000E-03 0.  1.
    9900012    2    1    2    0    0  0.23234998084E+02 -0.84263779198E+01 -0.32284624434E+02  0.50528856432E+02  0.29999989610E+02 0.  0.
         12    1    1    2    0    0 -0.23234998084E+02  0.84263779198E+01  0.32284624434E+02  0.40659143568E+02  0.00000000000E+00 0. -1.
         11    1    3    3    0    0 -0.11646083596E+01  0.54661966545E+01 -0.17804003636E+01  0.58656154164E+01  0.51100000000E-03 0. -1.
        -11    1    3    3    0    0  0.56994361113E+01  0.37872780148E+01 -0.54672577615E+01  0.87588786063E+01  0.51100000000E-03 0.  1.
        -12    1    3    3    0    0  0.18700170333E+02 -0.17679852589E+02 -0.25036966309E+02  0.35904362409E+02  0.00000000000E+00 0.  1.
</event>
<event>
 7    1  0.5456331E-013  0.5052886E+02  0.7816164E-02  0.1300439E+00
        -11   -1    0    0    0    0  0.00000000000E+00  0.00000000000E+00  0.45593999997E+02  0.45594000000E+02  0.51100000000E-03 0.  1.
         11   -1    0    0    0    0 -0.00000000000E+00 -0.00000000000E+00 -0.45593999997E+02  0.45594000000E+02  0.51100000000E-03 0. -1.
    9900012    2    1    2    0    0  0.35521361579E+02 -0.18210089324E+02  0.77324907829E+01  0.50528857174E+02  0.29999991867E+02 0.  0.
         12    1    1    2    0    0 -0.35521361579E+02  0.18210089324E+02 -0.77324907829E+01  0.40659142826E+02  0.00000000000E+00 0. -1.
         11    1    3    3    0    0 -0.31843283870E+01 -0.53815215920E+01  0.51006957848E+01  0.80695613060E+01  0.51100000000E-03 0. -1.
        -11    1    3    3    0    0  0.13920956646E+02 -0.64345346786E+01  0.63417551306E+01  0.16595605709E+02  0.51100000000E-03 0.  1.
        -12    1    3    3    0    0  0.24784733320E+02 -0.63940330536E+01 -0.37099601325E+01  0.25863690159E+02  0.00000000000E+00 0.  1.
</event>
<event>
 7    1  0.5456331E-013  0.5052884E+02  0.7816164E-02  0.1300439E+00
        -11   -1    0    0    0    0  0.00000000000E+00  0.00000000000E+00  0.45593999997E+02  0.45594000000E+02  0.51100000000E-03 0.  1.
         11   -1    0    0    0    0 -0.00000000000E+00 -0.00000000000E+00 -0.45593999997E+02  0.45594000000E+02  0.51100000000E-03 0. -1.
    9900012    2    1    2    0    0 -0.26902476222E+02 -0.25620398042E+02  0.16523283897E+02  0.50528844408E+02  0.29999953061E+02 0.  0.
         12    1    1    2    0    0  0.26902476222E+02  0.25620398042E+02 -0.16523283897E+02  0.40659155592E+02  0.00000000000E+00 0. -1.
         11    1    3    3    0    0 -0.24717712722E+01 -0.78247901990E+01 -0.19905340780E+01  0.84438866085E+01  0.51100000000E-03 0. -1.
        -11    1    3    3    0    0 -0.55881978554E+01 -0.13491571480E+02  0.17412981868E+02  0.22725808986E+02  0.51100000000E-03 0.  1.
         12    1    3    3    0    0 -0.18842507095E+02 -0.43040363628E+01  0.11008361074E+01  0.19359148813E+02  0.00000000000E+00 0. -1.
</event>
<event>
 7    1  0.5456331E-013  0.5052885E+02  0.7816164E-02  0.1300439E+00
        -11   -1    0    0    0    0  0.00000000000E+00  0.00000000000E+00  0.45593999997E+02  0.45594000000E+02  0.51100000000E-03 0. -1.
         11   -1    0    0    0    0 -0.00000000000E+00 -0.00000000000E+00 -0.45593999997E+02  0.45594000000E+02  0.51100000000E-03 0.  1.
    9900012    2    1    2    0    0  0.40262685992E+02  0.56121276502E+01 -0.76607779012E+00  0.50528846846E+02  0.29999960472E+02 0.  0.
         12    1    1    2    0    0 -0.40262685992E+02 -0.56121276502E+01  0.76607779012E+00  0.40659153154E+02  0.00000000000E+00 0. -1.
         11    1    3    3    0    0  0.20878270129E+02  0.25594595252E+01  0.60527426931E+01  0.21888094732E+02  0.51100000000E-03 0.  1.
        -11    1    3    3    0    0  0.17368400782E+02 -0.48726530457E+01 -0.71976065397E-01  0.18039104031E+02  0.51100000000E-03 0. -1.
         12    1    3    3    0    0  0.20160150808E+01  0.79253211707E+01 -0.67468444178E+01  0.10601648082E+02  0.00000000000E+00 0. -1.
</event>
<event>
 7    1  0.5456331E-013  0.5052891E+02  0.7816164E-02  0.1300439E+00
        -11   -1    0    0    0    0  0.00000000000E+00  0.00000000000E+00  0.45593999997E+02  0.45594000000E+02  0.51100000000E-03 0.  1.
         11   -1    0    0    0    0 -0.00000000000E+00 -0.00000000000E+00 -0.45593999997E+02  0.45594000000E+02  0.51100000000E-03 0. -1.
    9900012    2    1    2    0    0  0.69180035023E+01  0.57797617218E+01  0.39647157660E+02  0.50528910874E+02  0.30000155093E+02 0.  0.
         12    1    1    2    0    0 -0.69180035023E+01 -0.57797617218E+01 -0.39647157660E+02  0.40659089126E+02  0.00000000000E+00 0. -1.
         11    1    3    3    0    0  0.41502312644E+01  0.19442460180E+01  0.20480664621E+01  0.50198693829E+01  0.51100000000E-03 0. -1.
        -11    1    3    3    0    0  0.12560408268E+02 -0.36151914795E+01  0.22612322061E+02  0.26118012454E+02  0.51100000000E-03 0.  1.
        -12    1    3    3    0    0 -0.97926360304E+01  0.74507071832E+01  0.14986769137E+02  0.19391029037E+02  0.00000000000E+00 0.  1.
</event>
<event>
 7    1  0.5456331E-013  0.5052884E+02  0.7816164E-02  0.1300439E+00
        -11   -1    0    0    0    0  0.00000000000E+00  0.00000000000E+00  0.45593999997E+02  0.45594000000E+02  0.51100000000E-03 0.  1.
         11   -1    0    0    0    0 -0.00000000000E+00 -0.00000000000E+00 -0.45593999997E+02  0.45594000000E+02  0.51100000000E-03 0. -1.
    9900012    2    1    2    0    0  0.30962594457E+02 -0.12416303597E+02  0.23244797362E+02  0.50528837995E+02  0.29999933570E+02 0.  0.
         12    1    1    2    0    0 -0.30962594457E+02  0.12416303597E+02 -0.23244797362E+02  0.40659162005E+02  0.00000000000E+00 0. -1.
         11    1    3    3    0    0 -0.26981407755E+01 -0.66938290055E+01  0.25371324438E+01  0.76501210251E+01  0.51100000000E-03 0. -1.
        -11    1    3    3    0    0  0.10901703887E+02 -0.95151689250E+01  0.76791338005E+01  0.16381534834E+02  0.51100000000E-03 0.  1.
         12    1    3    3    0    0  0.22759031345E+02  0.37926943333E+01  0.13028531118E+02  0.26497182137E+02  0.00000000000E+00 0. -1.
</event>
<event>
 7    1  0.5456331E-013  0.5052879E+02  0.7816164E-02  0.1300439E+00
        -11   -1    0    0    0    0  0.00000000000E+00  0.00000000000E+00  0.45593999997E+02  0.45594000000E+02  0.51100000000E-03 0. -1.
         11   -1    0    0    0    0 -0.00000000000E+00 -0.00000000000E+00 -0.45593999997E+02  0.45594000000E+02  0.51100000000E-03 0.  1.
    9900012    2    1    2    0    0  0.36624269520E+02  0.15609835874E+02 -0.82563458033E+01  0.50528790220E+02  0.29999788352E+02 0.  0.
         12    1    1    2    0    0 -0.36624269520E+02 -0.15609835874E+02  0.82563458033E+01  0.40659209780E+02  0.00000000000E+00 0. -1.
         11    1    3    3    0    0 -0.21617815113E+01 -0.27262401082E+01 -0.41119739009E+01  0.53864658221E+01  0.51100000000E-03 0. -1.
        -11    1    3    3    0    0  0.17820843548E+02  0.24368291942E+01  0.20727339958E+01  0.18105712572E+02  0.51100000000E-03 0.  1.
        -12    1    3    3    0    0  0.20965207484E+02  0.15899246788E+02 -0.62171058982E+01  0.27036611826E+02  0.00000000000E+00 0.  1.
</event>
<event>
 7    1  0.5456331E-013  0.5052888E+02  0.7816164E-02  0.1300439E+00
        -11   -1    0    0    0    0  0.00000000000E+00  0.00000000000E+00  0.45593999997E+02  0.45594000000E+02  0.51100000000E-03 0.  1.
         11   -1    0    0    0    0 -0.00000000000E+00 -0.00000000000E+00 -0.45593999997E+02  0.45594000000E+02  0.51100000000E-03 0. -1.
    9900012    2    1    2    0    0 -0.11136097220E+02  0.36617790356E+02 -0.13721830656E+02  0.50528882101E+02  0.30000067633E+02 0.  0.
         12    1    1    2    0    0  0.11136097220E+02 -0.36617790356E+02  0.13721830656E+02  0.40659117899E+02  0.00000000000E+00 0. -1.
         11    1    3    3    0    0  0.23172378563E+01 -0.10342969662E+01 -0.30141944196E+01  0.39401433676E+01  0.51100000000E-03 0.  1.
        -11    1    3    3    0    0  0.15169685224E+01  0.21323073346E+02 -0.11784042959E+02  0.24409799654E+02  0.51100000000E-03 0. -1.
        -12    1    3    3    0    0 -0.14970303598E+02  0.16329013975E+02  0.10764067227E+01  0.22178939079E+02  0.00000000000E+00 0.  1.
</event>
<event>
 7    1  0.5456331E-013  0.5052885E+02  0.7816164E-02  0.1300439E+00
        -11   -1    0    0    0    0  0.00000000000E+00  0.00000000000E+00  0.45593999997E+02  0.45594000000E+02  0.51100000000E-03 0.  1.
         11   -1    0    0    0    0 -0.00000000000E+00 -0.00000000000E+00 -0.45593999997E+02  0.45594000000E+02  0.51100000000E-03 0. -1.
    9900012    2    1    2    0    0 -0.37412892696E+02 -0.79187790269E+01  0.13810666585E+02  0.50528854502E+02  0.29999983743E+02 0.  0.
         12    1    1    2    0    0  0.37412892696E+02  0.79187790269E+01 -0.13810666585E+02  0.40659145498E+02  0.00000000000E+00 0. -1.
         11    1    3    3    0    0 -0.18921194428E+02 -0.88433780047E+01  0.15414275214E+02  0.25957981696E+02  0.51100000000E-03 0. -1.
        -11    1    3    3    0    0 -0.68563869470E+01 -0.66910201212E+01  0.28056055270E+01  0.99825455103E+01  0.51100000000E-03 0.  1.
        -12    1    3    3    0    0 -0.11635311321E+02  0.76156190990E+01 -0.44092141563E+01  0.14588327295E+02  0.00000000000E+00 0.  1.
</event>
<event>
 7    1  0.5456331E-013  0.5052886E+02  0.7816164E-02  0.1300439E+00
        -11   -1    0    0    0    0  0.00000000000E+00  0.00000000000E+00  0.45593999997E+02  0.45594000000E+02  0.51100000000E-03 0.  1.
         11   -1    0    0    0    0 -0.00000000000E+00 -0.00000000000E+00 -0.45593999997E+02  0.45594000000E+02  0.51100000000E-03 0. -1.
    9900012    2    1    2    0    0 -0.21582449148E+02 -0.32548661523E+02  0.11311417400E+02  0.50528860292E+02  0.30000001345E+02 0.  0.
         12    1    1    2    0    0  0.21582449148E+02  0.32548661523E+02 -0.11311417400E+02  0.40659139708E+02  0.00000000000E+00 0. -1.
         11    1    3    3    0    0 -0.23985880346E+02 -0.14194754578E+02  0.33029891372E+01  0.28066407875E+02  0.51100000000E-03 0. -1.
        -11    1    3    3    0    0 -0.11232355666E+01 -0.83921200154E+00 -0.16398035859E+01  0.21575196368E+01  0.51100000000E-03 0.  1.
        -12    1    3    3    0    0  0.35266667647E+01 -0.17514694943E+02  0.96482318482E+01  0.20304932780E+02  0.00000000000E+00 0.  1.
</event>
<event>
 7    1  0.5456331E-013  0.5052887E+02  0.7816164E-02  0.1300439E+00
        -11   -1    0    0    0    0  0.00000000000E+00  0.00000000000E+00  0.45593999997E+02  0.45594000000E+02  0.51100000000E-03 0. -1.
         11   -1    0    0    0    0 -0.00000000000E+00 -0.00000000000E+00 -0.45593999997E+02  0.45594000000E+02  0.51100000000E-03 0.  1.
    9900012    2    1    2    0    0  0.24839273184E+02  0.31972532601E+02  0.37326285309E+01  0.50528870042E+02  0.30000030979E+02 0.  0.
         12    1    1    2    0    0 -0.24839273184E+02 -0.31972532601E+02 -0.37326285309E+01  0.40659129958E+02  0.00000000000E+00 0. -1.
         11    1    3    3    0    0  0.20362758554E+02  0.10234025463E+02  0.45301179798E+01  0.23235730724E+02  0.51100000000E-03 0. -1.
        -11    1    3    3    0    0  0.94744754873E+01  0.71890353035E+01 -0.58861293764E+00  0.11907744531E+02  0.51100000000E-03 0.  1.
         12    1    3    3    0    0 -0.49979608568E+01  0.14549471834E+02 -0.20887651130E+00  0.15385394788E+02  0.00000000000E+00 0. -1.
</event>
<event>
 7    1  0.5456331E-013  0.5052885E+02  0.7816164E-02  0.1300439E+00
        -11   -1    0    0    0    0  0.00000000000E+00  0.00000000000E+00  0.45593999997E+02  0.45594000000E+02  0.51100000000E-03 0. -1.
         11   -1    0    0    0    0 -0.00000000000E+00 -0.00000000000E+00 -0.45593999997E+02  0.45594000000E+02  0.51100000000E-03 0.  1.
    9900012    2    1    2    0    0  0.40412290155E+02 -0.29157686091E+01  0.33928850851E+01  0.50528848861E+02  0.29999966597E+02 0.  0.
         12    1    1    2    0    0 -0.40412290155E+02  0.29157686091E+01 -0.33928850851E+01  0.40659151139E+02  0.00000000000E+00 0. -1.
         11    1    3    3    0    0  0.16719509009E+02  0.30055917039E+01 -0.14713900028E+01  0.17051115852E+02  0.51100000000E-03 0. -1.
        -11    1    3    3    0    0  0.18934234506E+02  0.43277277709E+01  0.90500374786E+01  0.21427497349E+02  0.51100000000E-03 0.  1.
        -12    1    3    3    0    0  0.47585466394E+01 -0.10249088084E+02 -0.41857623907E+01  0.12050235660E+02  0.00000000000E+00 0.  1.
</event>
<event>
 7    1  0.5456331E-013  0.5052886E+02  0.7816164E-02  0.1300439E+00
        -11   -1    0    0    0    0  0.00000000000E+00  0.00000000000E+00  0.45593999997E+02  0.45594000000E+02  0.51100000000E-03 0. -1.
         11   -1    0    0    0    0 -0.00000000000E+00 -0.00000000000E+00 -0.45593999997E+02  0.45594000000E+02  0.51100000000E-03 0.  1.
    9900012    2    1    2    0    0 -0.38552902406E+02  0.12513969724E+02 -0.31999293881E+01  0.50528864861E+02  0.30000015232E+02 0.  0.
         12    1    1    2    0    0  0.38552902406E+02 -0.12513969724E+02  0.31999293881E+01  0.40659135139E+02  0.00000000000E+00 0. -1.
         11    1    3    3    0    0 -0.14406007107E+02  0.63887905771E+01 -0.48033886138E+01  0.16474896911E+02  0.51100000000E-03 0. -1.
        -11    1    3    3    0    0 -0.14225588284E+02  0.56896661458E+01 -0.10368014909E+02  0.18499605301E+02  0.51100000000E-03 0.  1.
         12    1    3    3    0    0 -0.99213070149E+01  0.43551300068E+00  0.11971474135E+02  0.15554362649E+02  0.00000000000E+00 0. -1.
</event>
<event>
 7    1  0.5456331E-013  0.5052886E+02  0.7816164E-02  0.1300439E+00
        -11   -1    0    0    0    0  0.00000000000E+00  0.00000000000E+00  0.45593999997E+02  0.45594000000E+02  0.51100000000E-03 0. -1.
         11   -1    0    0    0    0 -0.00000000000E+00 -0.00000000000E+00 -0.45593999997E+02  0.45594000000E+02  0.51100000000E-03 0.  1.
    9900012    2    1    2    0    0  0.14663175079E+02  0.32599088081E+02 -0.19376694892E+02  0.50528861396E+02  0.30000004698E+02 0.  0.
         12    1    1    2    0    0 -0.14663175079E+02 -0.32599088081E+02  0.19376694892E+02  0.40659138604E+02  0.00000000000E+00 0. -1.
         11    1    3    3    0    0 -0.59911955024E+01  0.14217831748E+02 -0.10153843046E+02  0.18470021441E+02  0.51100000000E-03 0. -1.
        -11    1    3    3    0    0  0.10307315477E+02  0.10036879862E+01 -0.17794266798E+01  0.10507830484E+02  0.51100000000E-03 0.  1.
        -12    1    3    3    0    0  0.10347055105E+02  0.17377568347E+02 -0.74434251655E+01  0.21551009470E+02  0.00000000000E+00 0.  1.
</event>
<event>
 7    1  0.5456331E-013  0.5052885E+02  0.7816164E-02  0.1300439E+00
        -11   -1    0    0    0    0  0.00000000000E+00  0.00000000000E+00  0.45593999997E+02  0.45594000000E+02  0.51100000000E-03 0.  1.
         11   -1    0    0    0    0 -0.00000000000E+00 -0.00000000000E+00 -0.45593999997E+02  0.45594000000E+02  0.51100000000E-03 0. -1.
    9900012    2    1    2    0    0  0.31312623571E+02  0.25481040189E+02  0.48376452494E+01  0.50528848317E+02  0.29999964945E+02 0.  0.
         12    1    1    2    0    0 -0.31312623571E+02 -0.25481040189E+02 -0.48376452494E+01  0.40659151683E+02  0.00000000000E+00 0. -1.
         11    1    3    3    0    0  0.31683321528E+01  0.67902683663E+01 -0.46648529095E+01  0.88264900185E+01  0.51100000000E-03 0. -1.
        -11    1    3    3    0    0  0.14498539195E+02  0.20196058943E+02  0.12228129296E+02  0.27705876307E+02  0.51100000000E-03 0.  1.
         12    1    3    3    0    0  0.13645752223E+02 -0.15052871202E+01 -0.27256311371E+01  0.13996481992E+02  0.00000000000E+00 0. -1.
</event>
<event>
 7    1  0.5456331E-013  0.5052886E+02  0.7816164E-02  0.1300439E+00
        -11   -1    0    0    0    0  0.00000000000E+00  0.00000000000E+00  0.45593999997E+02  0.45594000000E+02  0.51100000000E-03 0.  1.
         11   -1    0    0    0    0 -0.00000000000E+00 -0.00000000000E+00 -0.45593999997E+02  0.45594000000E+02  0.51100000000E-03 0. -1.
    9900012    2    1    2    0    0  0.11285061696E+01  0.92438016102E+00  0.40632962966E+02  0.50528859769E+02  0.29999999755E+02 0.  0.
         12    1    1    2    0    0 -0.11285061696E+01 -0.92438016102E+00 -0.40632962966E+02  0.40659140231E+02  0.00000000000E+00 0. -1.
         11    1    3    3    0    0  0.49585760888E+01  0.15134684004E+00  0.10979183087E+02  0.12047939418E+02  0.51100000000E-03 0. -1.
        -11    1    3    3    0    0  0.27063189193E+01 -0.10772581967E+02  0.15640967066E+02  0.19183652815E+02  0.51100000000E-03 0.  1.
        -12    1    3    3    0    0 -0.65363888385E+01  0.11545615288E+02  0.14012812814E+02  0.19297267536E+02  0.00000000000E+00 0.  1.
</event>
<event>
 7    1  0.5456331E-013  0.5052886E+02  0.7816164E-02  0.1300439E+00
        -11   -1    0    0    0    0  0.00000000000E+00  0.00000000000E+00  0.45593999997E+02  0.45594000000E+02  0.51100000000E-03 0.  1.
         11   -1    0    0    0    0 -0.00000000000E+00 -0.00000000000E+00 -0.45593999997E+02  0.45594000000E+02  0.51100000000E-03 0. -1.
    9900012    2    1    2    0    0 -0.18287892093E+02 -0.36271398911E+02 -0.17619341187E+01  0.50528858494E+02  0.29999995880E+02 0.  0.
         12    1    1    2    0    0  0.18287892093E+02  0.36271398911E+02  0.17619341187E+01  0.40659141506E+02  0.00000000000E+00 0. -1.
         11    1    3    3    0    0 -0.56466532193E+00 -0.19147250478E+01  0.22902018906E+01  0.30380987303E+01  0.51100000000E-03 0. -1.
        -11    1    3    3    0    0 -0.24876929062E+02 -0.24712587814E+02 -0.90247489803E+00  0.35076887793E+02  0.51100000000E-03 0.  1.
        -12    1    3    3    0    0  0.71537022918E+01 -0.96440860485E+01 -0.31496611112E+01  0.12413871971E+02  0.00000000000E+00 0.  1.
</event>
<event>
 7    1  0.5456331E-013  0.5052886E+02  0.7816164E-02  0.1300439E+00
        -11   -1    0    0    0    0  0.00000000000E+00  0.00000000000E+00  0.45593999997E+02  0.45594000000E+02  0.51100000000E-03 0. -1.
         11   -1    0    0    0    0 -0.00000000000E+00 -0.00000000000E+00 -0.45593999997E+02  0.45594000000E+02  0.51100000000E-03 0.  1.
    9900012    2    1    2    0    0 -0.31268839432E+01 -0.24757794250E+02  0.32100465769E+02  0.50528859799E+02  0.29999999844E+02 0.  0.
         12    1    1    2    0    0  0.31268839432E+01  0.24757794250E+02 -0.32100465769E+02  0.40659140201E+02  0.00000000000E+00 0. -1.
         11    1    3    3    0    0  0.31829400231E+01 -0.61758067709E+01  0.90093644284E+01  0.11377185246E+02  0.51100000000E-03 0. -1.
        -11    1    3    3    0    0  0.61881118424E+00 -0.21635666912E+02  0.22994999551E+02  0.31579344747E+02  0.51100000000E-03 0.  1.
         12    1    3    3    0    0 -0.69286351505E+01  0.30536794337E+01  0.96101789844E-01  0.75723298057E+01  0.00000000000E+00 0. -1.
</event>
<event>
 7    1  0.5456331E-013  0.5052886E+02  0.7816164E-02  0.1300439E+00
        -11   -1    0    0    0    0  0.00000000000E+00  0.00000000000E+00  0.45593999997E+02  0.45594000000E+02  0.51100000000E-03 0. -1.
         11   -1    0    0    0    0 -0.00000000000E+00 -0.00000000000E+00 -0.45593999997E+02  0.45594000000E+02  0.51100000000E-03 0.  1.
    9900012    2    1    2    0    0 -0.14409147842E+02 -0.37073345374E+02  0.84326244628E+01  0.50528860387E+02  0.30000001632E+02 0.  0.
         12    1    1    2    0    0  0.14409147842E+02  0.37073345374E+02 -0.84326244628E+01  0.40659139613E+02  0.00000000000E+00 0. -1.
         11    1    3    3    0    0 -0.13845332115E+02 -0.10771953417E+02  0.15462795639E+01  0.17610201093E+02  0.51100000000E-03 0. -1.
        -11    1    3    3    0    0 -0.28792209024E+01  0.21675207363E+01  0.11725832115E+01  0.37898563028E+01  0.51100000000E-03 0.  1.
        -12    1    3    3    0    0  0.23154051754E+01 -0.28468912694E+02  0.57137616875E+01  0.29128802991E+02  0.00000000000E+00 0.  1.
</event>
<event>
 7    1  0.5456331E-013  0.5052886E+02  0.7816164E-02  0.1300439E+00
        -11   -1    0    0    0    0  0.00000000000E+00  0.00000000000E+00  0.45593999997E+02  0.45594000000E+02  0.51100000000E-03 0. -1.
         11   -1    0    0    0    0 -0.00000000000E+00 -0.00000000000E+00 -0.45593999997E+02  0.45594000000E+02  0.51100000000E-03 0.  1.
    9900012    2    1    2    0    0 -0.14740269218E+01  0.17212129844E+02 -0.36806730345E+02  0.50528861201E+02  0.30000004108E+02 0.  0.
         12    1    1    2    0    0  0.14740269218E+01 -0.17212129844E+02  0.36806730345E+02  0.40659138799E+02  0.00000000000E+00 0. -1.
         11    1    3    3    0    0 -0.45954590864E+01 -0.23759144466E+01 -0.21257192758E+02  0.21877647449E+02  0.51100000000E-03 0. -1.
        -11    1    3    3    0    0 -0.49865368727E+01  0.11850254061E+02 -0.83662497337E+01  0.15339107085E+02  0.51100000000E-03 0.  1.
        -12    1    3    3    0    0  0.81079690373E+01  0.77377902292E+01 -0.71832878535E+01  0.13312106668E+02  0.00000000000E+00 0.  1.
</event>
<event>
 7    1  0.5456331E-013  0.5052886E+02  0.7816164E-02  0.1300439E+00
        -11   -1    0    0    0    0  0.00000000000E+00  0.00000000000E+00  0.45593999997E+02  0.45594000000E+02  0.51100000000E-03 0.  1.
         11   -1    0    0    0    0 -0.00000000000E+00 -0.00000000000E+00 -0.45593999997E+02  0.45594000000E+02  0.51100000000E-03 0. -1.
    9900012    2    1    2    0    0  0.14311205243E+01  0.28856390879E+02  0.28608151309E+02  0.50528859307E+02  0.29999998351E+02 0.  0.
         12    1    1    2    0    0 -0.14311205243E+01 -0.28856390879E+02 -0.28608151309E+02  0.40659140693E+02  0.00000000000E+00 0. -1.
         11    1    3    3    0    0 -0.52043634125E+01  0.85464517141E+01  0.77484218901E+00  0.10036314867E+02  0.51100000000E-03 0. -1.
        -11    1    3    3    0    0  0.22070680328E+01  0.16970037522E+02  0.62670383772E+01  0.18224409265E+02  0.51100000000E-03 0.  1.
        -12    1    3    3    0    0  0.44284159039E+01  0.33399016432E+01  0.21566270743E+02  0.22268135175E+02  0.00000000000E+00 0.  1.
</event>
<event>
 7    1  0.5456331E-013  0.5052886E+02  0.7816164E-02  0.1300439E+00
        -11   -1    0    0    0    0  0.00000000000E+00  0.00000000000E+00  0.45593999997E+02  0.45594000000E+02  0.51100000000E-03 0.  1.
         11   -1    0    0    0    0 -0.00000000000E+00 -0.00000000000E+00 -0.45593999997E+02  0.45594000000E+02  0.51100000000E-03 0. -1.
    9900012    2    1    2    0    0  0.22281871191E+02 -0.67417850772E+00  0.34003376275E+02  0.50528857135E+02  0.29999991746E+02 0.  0.
         12    1    1    2    0    0 -0.22281871191E+02  0.67417850772E+00 -0.34003376275E+02  0.40659142865E+02  0.00000000000E+00 0. -1.
         11    1    3    3    0    0  0.51224173810E+01  0.87824257816E+01  0.49779843637E+01  0.11320357372E+02  0.51100000000E-03 0. -1.
        -11    1    3    3    0    0  0.13960540035E+02  0.15378319873E+01  0.20849261119E+02  0.25138681245E+02  0.51100000000E-03 0.  1.
         12    1    3    3    0    0  0.31989137746E+01 -0.10994436277E+02  0.81761307930E+01  0.14069818518E+02  0.00000000000E+00 0. -1.
</event>
<event>
 7    1  0.5456331E-013  0.5052886E+02  0.7816164E-02  0.1300439E+00
        -11   -1    0    0    0    0  0.00000000000E+00  0.00000000000E+00  0.45593999997E+02  0.45594000000E+02  0.51100000000E-03 0.  1.
         11   -1    0    0    0    0 -0.00000000000E+00 -0.00000000000E+00 -0.45593999997E+02  0.45594000000E+02  0.51100000000E-03 0. -1.
    9900012    2    1    2    0    0  0.71480517489E+01  0.36703939933E+02  0.15965326671E+02  0.50528861960E+02  0.30000006415E+02 0.  0.
         12    1    1    2    0    0 -0.71480517489E+01 -0.36703939933E+02 -0.15965326671E+02  0.40659138040E+02  0.00000000000E+00 0. -1.
         11    1    3    3    0    0  0.12061429017E+02  0.14420437654E+02  0.76869233147E+01  0.20310487004E+02  0.51100000000E-03 0.  1.
        -11    1    3    3    0    0 -0.10402367559E+01  0.17013023727E+02 -0.28780079167E+01  0.17286063713E+02  0.51100000000E-03 0. -1.
         12    1    3    3    0    0 -0.38731405118E+01  0.52704785519E+01  0.11156411273E+02  0.12932311243E+02  0.00000000000E+00 0. -1.
</event>
<event>
 7    1  0.5456331E-013  0.5052886E+02  0.7816164E-02  0.1300439E+00
        -11   -1    0    0    0    0  0.00000000000E+00  0.00000000000E+00  0.45593999997E+02  0.45594000000E+02  0.51100000000E-03 0.  1.
         11   -1    0    0    0    0 -0.00000000000E+00 -0.00000000000E+00 -0.45593999997E+02  0.45594000000E+02  0.51100000000E-03 0. -1.
    9900012    2    1    2    0    0 -0.25849819328E+02 -0.30601890814E+02  0.69625320045E+01  0.50528859175E+02  0.29999997948E+02 0.  0.
         12    1    1    2    0    0  0.25849819328E+02  0.30601890814E+02 -0.69625320045E+01  0.40659140825E+02  0.00000000000E+00 0. -1.
         11    1    3    3    0    0 -0.48074454359E+01  0.39850357712E+00  0.26748634081E+01  0.55159071088E+01  0.51100000000E-03 0. -1.
        -11    1    3    3    0    0 -0.80618891092E+01 -0.55189502472E+00 -0.63157970238E+01  0.10256117025E+02  0.51100000000E-03 0.  1.
        -12    1    3    3    0    0 -0.12980484783E+02 -0.30448499367E+02  0.10603465620E+02  0.34756835041E+02  0.00000000000E+00 0.  1.
</event>
<event>
 7    1  0.5456331E-013  0.5052885E+02  0.7816164E-02  0.1300439E+00
        -11   -1    0    0    0    0  0.00000000000E+00  0.00000000000E+00  0.45593999997E+02  0.45594000000E+02  0.51100000000E-03 0.  1.
         11   -1    0    0    0    0 -0.00000000000E+00 -0.00000000000E+00 -0.45593999997E+02  0.45594000000E+02  0.51100000000E-03 0. -1.
    9900012    2    1    2    0    0 -0.15289130682E+02  0.99304038376E+01  0.36342753328E+02  0.50528853958E+02  0.29999982091E+02 0.  0.
         12    1    1    2    0    0  0.15289130682E+02 -0.99304038376E+01 -0.36342753328E+02  0.40659146042E+02  0.00000000000E+00 0. -1.
         11    1    3    3    0    0 -0.30094794439E+01  0.76448255240E+01  0.11603251341E+01  0.82973898603E+01  0.51100000000E-03 0. -1.
        -11    1    3    3    0    0 -0.16103638854E+02  0.65588174563E+01  0.23674257648E+02  0.29373725440E+02  0.51100000000E-03 0.  1.
        -12    1    3    3    0    0  0.38239876167E+01 -0.42732391427E+01  0.11508170547E+02  0.12857738658E+02  0.00000000000E+00 0.  1.
</event>
<event>
 7    1  0.5456331E-013  0.5052886E+02  0.7816164E-02  0.1300439E+00
        -11   -1    0    0    0    0  0.00000000000E+00  0.00000000000E+00  0.45593999997E+02  0.45594000000E+02  0.51100000000E-03 0.  1.
         11   -1    0    0    0    0 -0.00000000000E+00 -0.00000000000E+00 -0.45593999997E+02  0.45594000000E+02  0.51100000000E-03 0. -1.
    9900012    2    1    2    0    0 -0.24510667967E+02  0.20205657298E+02  0.25379606574E+02  0.50528857598E+02  0.29999993155E+02 0.  0.
         12    1    1    2    0    0  0.24510667967E+02 -0.20205657298E+02 -0.25379606574E+02  0.40659142402E+02  0.00000000000E+00 0. -1.
         11    1    3    3    0    0 -0.13464049783E+02  0.11618014738E+02  0.15504689725E+01  0.17851130421E+02  0.51100000000E-03 0.  1.
        -11    1    3    3    0    0 -0.14847607958E+02  0.28424437465E+01  0.13533674702E+02  0.20290177420E+02  0.51100000000E-03 0. -1.
         12    1    3    3    0    0  0.38009897744E+01  0.57451988137E+01  0.10295462899E+02  0.12387549757E+02  0.00000000000E+00 0. -1.
</event>
<event>
 7    1  0.5456331E-013  0.5052888E+02  0.7816164E-02  0.1300439E+00
        -11   -1    0    0    0    0  0.00000000000E+00  0.00000000000E+00  0.45593999997E+02  0.45594000000E+02  0.51100000000E-03 0. -1.
         11   -1    0    0    0    0 -0.00000000000E+00 -0.00000000000E+00 -0.45593999997E+02  0.45594000000E+02  0.51100000000E-03 0.  1.
    9900012    2    1    2    0    0 -0.16501409537E+02  0.37135420558E+02 -0.13519922933E+01  0.50528882205E+02  0.30000067950E+02 0.  0.
         12    1    1    2    0    0  0.16501409537E+02 -0.37135420558E+02  0.13519922933E+01  0.40659117795E+02  0.00000000000E+00 0. -1.
         11    1    3    3    0    0  0.10352950637E+01  0.15333448226E+02  0.23927580986E+01  0.15553512849E+02  0.51100000000E-03 0. -1.
        -11    1    3    3    0    0  0.21204122166E+01  0.10370695642E+01  0.46161415706E+01  0.51846334982E+01  0.51100000000E-03 0.  1.
        -12    1    3    3    0    0 -0.19657116817E+02  0.20764902767E+02 -0.83608919625E+01  0.29790735857E+02  0.00000000000E+00 0.  1.
</event>
<event>
 7    1  0.5456331E-013  0.5052884E+02  0.7816164E-02  0.1300439E+00
        -11   -1    0    0    0    0  0.00000000000E+00  0.00000000000E+00  0.45593999997E+02  0.45594000000E+02  0.51100000000E-03 0.  1.
         11   -1    0    0    0    0 -0.00000000000E+00 -0.00000000000E+00 -0.45593999997E+02  0.45594000000E+02  0.51100000000E-03 0. -1.
    9900012    2    1    2    0    0  0.16234984941E+02  0.91852522981E+01  0.36127884721E+02  0.50528835593E+02  0.29999926270E+02 0.  0.
         12    1    1    2    0    0 -0.16234984941E+02 -0.91852522981E+01 -0.36127884721E+02  0.40659164407E+02  0.00000000000E+00 0. -1.
         11    1    3    3    0    0 -0.34513261132E+01 -0.19053654986E+01  0.13793511056E+01  0.41766828174E+01  0.51100000000E-03 0. -1.
        -11    1    3    3    0    0  0.14323261576E+02 -0.28791032616E+01  0.11022083380E+02  0.18301130568E+02  0.51100000000E-03 0.  1.
         12    1    3    3    0    0  0.53630494783E+01  0.13969721058E+02  0.23726450235E+02  0.28051022208E+02  0.00000000000E+00 0. -1.
</event>
<event>
 7    1  0.5756898E-013  0.5052885E+02  0.7816164E-02  0.1300439E+00
        -11   -1    0    0    0    0  0.00000000000E+00  0.00000000000E+00  0.45593999997E+02  0.45594000000E+02  0.51100000000E-03 0.  1.
         11   -1    0    0    0    0 -0.00000000000E+00 -0.00000000000E+00 -0.45593999997E+02  0.45594000000E+02  0.51100000000E-03 0. -1.
    9900012    2    1    2    0    0 -0.10267995487E+02  0.27598057665E+02  0.28037148985E+02  0.50528852918E+02  0.29999978929E+02 0.  0.
         12    1    1    2    0    0  0.10267995487E+02 -0.27598057665E+02 -0.28037148985E+02  0.40659147082E+02  0.00000000000E+00 0. -1.
         11    1    3    3    0    0 -0.78584021372E+01  0.50920188513E+01  0.15380738201E+02  0.18006949992E+02  0.51100000000E-03 0. -1.
        -11    1    3    3    0    0 -0.27622566658E+01  0.14467395500E+02  0.17699120774E+02  0.23025952117E+02  0.51100000000E-03 0.  1.
         12    1    3    3    0    0  0.35266331604E+00  0.80386433135E+01 -0.50427099896E+01  0.94959508094E+01  0.00000000000E+00 0. -1.
</event>
<event>
 7    1  0.5456331E-013  0.5052886E+02  0.7816164E-02  0.1300439E+00
        -11   -1    0    0    0    0  0.00000000000E+00  0.00000000000E+00  0.45593999997E+02  0.45594000000E+02  0.51100000000E-03 0.  1.
         11   -1    0    0    0    0 -0.00000000000E+00 -0.00000000000E+00 -0.45593999997E+02  0.45594000000E+02  0.51100000000E-03 0. -1.
    9900012    2    1    2    0    0  0.22914430618E+02 -0.16188289145E+02  0.29428455011E+02  0.50528858343E+02  0.29999995418E+02 0.  0.
         12    1    1    2    0    0 -0.22914430618E+02  0.16188289145E+02 -0.29428455011E+02  0.40659141657E+02  0.00000000000E+00 0. -1.
         11    1    3    3    0    0  0.37010373685E+01 -0.10878911033E+01  0.75304967016E+01  0.84610617236E+01  0.51100000000E-03 0. -1.
        -11    1    3    3    0    0  0.10611024097E+02 -0.45805282515E-01  0.22330469722E+02  0.24723385868E+02  0.51100000000E-03 0.  1.
         12    1    3    3    0    0  0.86023691529E+01 -0.15054592759E+02 -0.43251141248E+00  0.17344410751E+02  0.00000000000E+00 0. -1.
</event>
<event>
 7    1  0.5456331E-013  0.5052887E+02  0.7816164E-02  0.1300439E+00
        -11   -1    0    0    0    0  0.00000000000E+00  0.00000000000E+00  0.45593999997E+02  0.45594000000E+02  0.51100000000E-03 0.  1.
         11   -1    0    0    0    0 -0.00000000000E+00 -0.00000000000E+00 -0.45593999997E+02  0.45594000000E+02  0.51100000000E-03 0. -1.
    9900012    2    1    2    0    0 -0.30378571349E+02  0.19441861030E+02  0.18770215210E+02  0.50528873883E+02  0.30000042656E+02 0.  0.
         12    1    1    2    0    0  0.30378571349E+02 -0.19441861030E+02 -0.18770215210E+02  0.40659126117E+02  0.00000000000E+00 0. -1.
         11    1    3    3    0    0 -0.13814093347E+02  0.43649361841E+01  0.20534681339E+01  0.14632107659E+02  0.51100000000E-03 0. -1.
        -11    1    3    3    0    0 -0.11072632496E+02 -0.16331878606E+01 -0.60676921126E+00  0.11208865336E+02  0.51100000000E-03 0.  1.
         12    1    3    3    0    0 -0.54918455056E+01  0.16710112707E+02  0.17323516287E+02  0.24687900888E+02  0.00000000000E+00 0. -1.
</event>
<event>
 7    1  0.5456331E-013  0.5052887E+02  0.7816164E-02  0.1300439E+00
        -11   -1    0    0    0    0  0.00000000000E+00  0.00000000000E+00  0.45593999997E+02  0.45594000000E+02  0.51100000000E-03 0.  1.
         11   -1    0    0    0    0 -0.00000000000E+00 -0.00000000000E+00 -0.45593999997E+02  0.45594000000E+02  0.51100000000E-03 0. -1.
    9900012    2    1    2    0    0 -0.13377116189E+02  0.84532370895E+01  0.37453446628E+02  0.50528866719E+02  0.30000020880E+02 0.  0.
         12    1    1    2    0    0  0.13377116189E+02 -0.84532370895E+01 -0.37453446628E+02  0.40659133281E+02  0.00000000000E+00 0. -1.
         11    1    3    3    0    0 -0.96819598140E+01  0.55893998655E+01  0.30501764010E+02  0.32485986897E+02  0.51100000000E-03 0. -1.
        -11    1    3    3    0    0 -0.85512582324E+01  0.44582558859E+00  0.88319414152E+01  0.12301461996E+02  0.51100000000E-03 0.  1.
         12    1    3    3    0    0  0.48561018575E+01  0.24180116354E+01 -0.18802587969E+01  0.57414178269E+01  0.00000000000E+00 0. -1.
</event>
<event>
 7    1  0.5456331E-013  0.5052886E+02  0.7816164E-02  0.1300439E+00
        -11   -1    0    0    0    0  0.00000000000E+00  0.00000000000E+00  0.45593999997E+02  0.45594000000E+02  0.51100000000E-03 0.  1.
         11   -1    0    0    0    0 -0.00000000000E+00 -0.00000000000E+00 -0.45593999997E+02  0.45594000000E+02  0.51100000000E-03 0. -1.
    9900012    2    1    2    0    0 -0.21743205967E+02  0.26699970519E+02  0.21621987661E+02  0.50528858570E+02  0.29999996110E+02 0.  0.
         12    1    1    2    0    0  0.21743205967E+02 -0.26699970519E+02 -0.21621987661E+02  0.40659141430E+02  0.00000000000E+00 0. -1.
         11    1    3    3    0    0 -0.10309687379E+02  0.14702084097E+02  0.19567058172E+02  0.26557686203E+02  0.51100000000E-03 0. -1.
        -11    1    3    3    0    0 -0.53778856973E+00 -0.23390658022E+01  0.51666738652E+01  0.56969258784E+01  0.51100000000E-03 0.  1.
        -12    1    3    3    0    0 -0.10895730018E+02  0.14336952223E+02 -0.31117443770E+01  0.18274246489E+02  0.00000000000E+00 0.  1.
</event>
<event>
 7    1  0.5456331E-013  0.5052887E+02  0.7816164E-02  0.1300439E+00
        -11   -1    0    0    0    0  0.00000000000E+00  0.00000000000E+00  0.45593999997E+02  0.45594000000E+02  0.51100000000E-03 0.  1.
         11   -1    0    0    0    0 -0.00000000000E+00 -0.00000000000E+00 -0.45593999997E+02  0.45594000000E+02  0.51100000000E-03 0. -1.
    9900012    2    1    2    0    0 -0.10359640900E+02 -0.38957936745E+02 -0.53030417724E+01  0.50528865147E+02  0.30000016101E+02 0.  0.
         12    1    1    2    0    0  0.10359640900E+02  0.38957936745E+02  0.53030417724E+01  0.40659134853E+02  0.00000000000E+00 0. -1.
         11    1    3    3    0    0  0.47442205972E+01 -0.13254777043E+02  0.44234708119E+01  0.14756823432E+02  0.51100000000E-03 0. -1.
        -11    1    3    3    0    0 -0.53035054701E+01 -0.21292842558E+02 -0.11665574725E+02  0.24851518030E+02  0.51100000000E-03 0.  1.
         12    1    3    3    0    0 -0.98003560267E+01 -0.44103171444E+01  0.19390621411E+01  0.10920523685E+02  0.00000000000E+00 0. -1.
</event>
<event>
 7    1  0.5456331E-013  0.5052885E+02  0.7816164E-02  0.1300439E+00
        -11   -1    0    0    0    0  0.00000000000E+00  0.00000000000E+00  0.45593999997E+02  0.45594000000E+02  0.51100000000E-03 0.  1.
         11   -1    0    0    0    0 -0.00000000000E+00 -0.00000000000E+00 -0.45593999997E+02  0.45594000000E+02  0.51100000000E-03 0. -1.
    9900012    2    1    2    0    0  0.17173475573E+02  0.17100102107E+02  0.32646965410E+02  0.50528854586E+02  0.29999984000E+02 0.  0.
         12    1    1    2    0    0 -0.17173475573E+02 -0.17100102107E+02 -0.32646965410E+02  0.40659145414E+02  0.00000000000E+00 0. -1.
         11    1    3    3    0    0 -0.15006463258E+01  0.12366919703E+01  0.18953216027E+01  0.27154356305E+01  0.51100000000E-03 0. -1.
        -11    1    3    3    0    0  0.13759687514E+02  0.19470383284E+02  0.33507051382E+02  0.41123561595E+02  0.51100000000E-03 0.  1.
        -12    1    3    3    0    0  0.49144343844E+01 -0.36069731469E+01 -0.27554075746E+01  0.66898573605E+01  0.00000000000E+00 0.  1.
</event>
<event>
 7    1  0.5456331E-013  0.5052886E+02  0.7816164E-02  0.1300439E+00
        -11   -1    0    0    0    0  0.00000000000E+00  0.00000000000E+00  0.45593999997E+02  0.45594000000E+02  0.51100000000E-03 0.  1.
         11   -1    0    0    0    0 -0.00000000000E+00 -0.00000000000E+00 -0.45593999997E+02  0.45594000000E+02  0.51100000000E-03 0. -1.
    9900012    2    1    2    0    0 -0.10463588436E+02 -0.32108118292E+02  0.22643936245E+02  0.50528858447E+02  0.29999995735E+02 0.  0.
         12    1    1    2    0    0  0.10463588436E+02  0.32108118292E+02 -0.22643936245E+02  0.40659141553E+02  0.00000000000E+00 0. -1.
         11    1    3    3    0    0 -0.11008531959E+02 -0.56107312508E+00  0.29940307128E+01  0.11422206403E+02  0.51100000000E-03 0. -1.
        -11    1    3    3    0    0 -0.45631764559E+01 -0.24559839881E+02  0.16288660622E+02  0.29821615977E+02  0.51100000000E-03 0.  1.
        -12    1    3    3    0    0  0.51081199787E+01 -0.69872052855E+01  0.33612449098E+01  0.92850360668E+01  0.00000000000E+00 0.  1.
</event>
<event>
 7    1  0.5456331E-013  0.5052887E+02  0.7816164E-02  0.1300439E+00
        -11   -1    0    0    0    0  0.00000000000E+00  0.00000000000E+00  0.45593999997E+02  0.45594000000E+02  0.51100000000E-03 0. -1.
         11   -1    0    0    0    0 -0.00000000000E+00 -0.00000000000E+00 -0.45593999997E+02  0.45594000000E+02  0.51100000000E-03 0.  1.
    9900012    2    1    2    0    0  0.37471504844E+02  0.31299278376E+01 -0.15467859594E+02  0.50528870595E+02  0.30000032659E+02 0.  0.
         12    1    1    2    0    0 -0.37471504844E+02 -0.31299278376E+01  0.15467859594E+02  0.40659129405E+02  0.00000000000E+00 0. -1.
         11    1    3    3    0    0  0.10334392042E+01 -0.29643435596E+00  0.52404051522E+01  0.53495529100E+01  0.51100000000E-03 0. -1.
        -11    1    3    3    0    0  0.90943824156E+01  0.16626505127E+01  0.21549968844E+01  0.94929558137E+01  0.51100000000E-03 0.  1.
        -12    1    3    3    0    0  0.27343683225E+02  0.17637116808E+01 -0.22863261631E+02  0.35686361871E+02  0.00000000000E+00 0.  1.
</event>
<event>
 7    1  0.5456331E-013  0.5052886E+02  0.7816164E-02  0.1300439E+00
        -11   -1    0    0    0    0  0.00000000000E+00  0.00000000000E+00  0.45593999997E+02  0.45594000000E+02  0.51100000000E-03 0.  1.
         11   -1    0    0    0    0 -0.00000000000E+00 -0.00000000000E+00 -0.45593999997E+02  0.45594000000E+02  0.51100000000E-03 0. -1.
    9900012    2    1    2    0    0 -0.25956505430E+02 -0.30506220272E+02  0.69854162854E+01  0.50528859698E+02  0.29999999538E+02 0.  0.
         12    1    1    2    0    0  0.25956505430E+02  0.30506220272E+02 -0.69854162854E+01  0.40659140302E+02  0.00000000000E+00 0. -1.
         11    1    3    3    0    0  0.17335056571E+01 -0.48657790779E+01  0.31485924389E+01  0.60493373609E+01  0.51100000000E-03 0. -1.
        -11    1    3    3    0    0 -0.79423515982E+00 -0.11358694935E+02  0.77544112936E+01  0.13776126266E+02  0.51100000000E-03 0.  1.
        -12    1    3    3    0    0 -0.26895775927E+02 -0.14281746259E+02 -0.39175874471E+01  0.30703396072E+02  0.00000000000E+00 0.  1.
</event>
<event>
 7    1  0.5456331E-013  0.5052889E+02  0.7816164E-02  0.1300439E+00
        -11   -1    0    0    0    0  0.00000000000E+00  0.00000000000E+00  0.45593999997E+02  0.45594000000E+02  0.51100000000E-03 0.  1.
         11   -1    0    0    0    0 -0.00000000000E+00 -0.00000000000E+00 -0.45593999997E+02  0.45594000000E+02  0.51100000000E-03 0. -1.
    9900012    2    1    2    0    0 -0.17463354201E+02 -0.32839044905E+02  0.16425333111E+02  0.50528890590E+02  0.30000093437E+02 0.  0.
         12    1    1    2    0    0  0.17463354201E+02  0.32839044905E+02 -0.16425333111E+02  0.40659109410E+02  0.00000000000E+00 0. -1.
         11    1    3    3    0    0  0.49244652566E+01 -0.10425700162E+02  0.28538320610E+01  0.11878128625E+02  0.51100000000E-03 0. -1.
        -11    1    3    3    0    0  0.27008765599E+01 -0.30629681275E+01 -0.23234955698E+00  0.40902927181E+01  0.51100000000E-03 0.  1.
         12    1    3    3    0    0 -0.25088696017E+02 -0.19350376615E+02  0.13803850607E+02  0.34560469247E+02  0.00000000000E+00 0. -1.
</event>
<event>
 7    1  0.5456331E-013  0.5052886E+02  0.7816164E-02  0.1300439E+00
        -11   -1    0    0    0    0  0.00000000000E+00  0.00000000000E+00  0.45593999997E+02  0.45594000000E+02  0.51100000000E-03 0.  1.
         11   -1    0    0    0    0 -0.00000000000E+00 -0.00000000000E+00 -0.45593999997E+02  0.45594000000E+02  0.51100000000E-03 0. -1.
    9900012    2    1    2    0    0 -0.16071926229E+02 -0.18028886938E+02  0.32708075561E+02  0.50528858545E+02  0.29999996034E+02 0.  0.
         12    1    1    2    0    0  0.16071926229E+02  0.18028886938E+02 -0.32708075561E+02  0.40659141455E+02  0.00000000000E+00 0. -1.
         11    1    3    3    0    0 -0.15147987455E+02 -0.41008258670E+01  0.26281645691E+02  0.30610507954E+02  0.51100000000E-03 0. -1.
        -11    1    3    3    0    0 -0.33584633313E+01 -0.20668480908E+01  0.67365379423E+01  0.78059003764E+01  0.51100000000E-03 0.  1.
         12    1    3    3    0    0  0.24345245569E+01 -0.11861212981E+02 -0.31010807217E+00  0.12112450215E+02  0.00000000000E+00 0. -1.
</event>
<event>
 7    1  0.5456331E-013  0.5052884E+02  0.7816164E-02  0.1300439E+00
        -11   -1    0    0    0    0  0.00000000000E+00  0.00000000000E+00  0.45593999997E+02  0.45594000000E+02  0.51100000000E-03 0.  1.
         11   -1    0    0    0    0 -0.00000000000E+00 -0.00000000000E+00 -0.45593999997E+02  0.45594000000E+02  0.51100000000E-03 0. -1.
    9900012    2    1    2    0    0  0.15581667612E+02 -0.18784220426E+02  0.32519717205E+02  0.50528839781E+02  0.29999938999E+02 0.  0.
         12    1    1    2    0    0 -0.15581667612E+02  0.18784220426E+02 -0.32519717205E+02  0.40659160219E+02  0.00000000000E+00 0. -1.
         11    1    3    3    0    0  0.69710628191E+01 -0.51944979368E+01  0.20076511219E+01  0.89223981603E+01  0.51100000000E-03 0. -1.
        -11    1    3    3    0    0  0.50456274886E+01 -0.19049237714E+02  0.28744377292E+02  0.34850696412E+02  0.51100000000E-03 0.  1.
         12    1    3    3    0    0  0.35649773043E+01  0.54595152244E+01  0.17676887912E+01  0.67557452090E+01  0.00000000000E+00 0. -1.
</event>
<event>
 7    1  0.5456331E-013  0.5052885E+02  0.7816164E-02  0.1300439E+00
        -11   -1    0    0    0    0  0.00000000000E+00  0.00000000000E+00  0.45593999997E+02  0.45594000000E+02  0.51100000000E-03 0.  1.
         11   -1    0    0    0    0 -0.00000000000E+00 -0.00000000000E+00 -0.45593999997E+02  0.45594000000E+02  0.51100000000E-03 0. -1.
    9900012    2    1    2    0    0 -0.84357714226E+01 -0.14177335354E+02  0.37161907702E+02  0.50528850215E+02  0.29999970712E+02 0.  0.
         12    1    1    2    0    0  0.84357714226E+01  0.14177335354E+02 -0.37161907702E+02  0.40659149785E+02  0.00000000000E+00 0. -1.
         11    1    3    3    0    0  0.64565585224E+01  0.21363835712E+00  0.92849280345E+00  0.65264759593E+01  0.51100000000E-03 0.  1.
        -11    1    3    3    0    0  0.23575828139E+01 -0.45020745862E+01  0.75731971764E+01  0.91203173211E+01  0.51100000000E-03 0. -1.
        -12    1    3    3    0    0 -0.17249912759E+02 -0.98888991254E+01  0.28660217722E+02  0.34882056934E+02  0.00000000000E+00 0.  1.
</event>
<event>
 7    1  0.5456331E-013  0.5052886E+02  0.7816164E-02  0.1300439E+00
        -11   -1    0    0    0    0  0.00000000000E+00  0.00000000000E+00  0.45593999997E+02  0.45594000000E+02  0.51100000000E-03 0.  1.
         11   -1    0    0    0    0 -0.00000000000E+00 -0.00000000000E+00 -0.45593999997E+02  0.45594000000E+02  0.51100000000E-03 0. -1.
    9900012    2    1    2    0    0  0.17173736699E+02 -0.18765107242E+02  0.31719062553E+02  0.50528863127E+02  0.30000009960E+02 0.  0.
         12    1    1    2    0    0 -0.17173736699E+02  0.18765107242E+02 -0.31719062553E+02  0.40659136873E+02  0.00000000000E+00 0. -1.
         11    1    3    3    0    0  0.10697610468E+02 -0.19880199545E+02  0.99539709407E+01  0.24672712486E+02  0.51100000000E-03 0. -1.
        -11    1    3    3    0    0  0.98603629305E+00  0.59521387656E+01  0.61683534011E+01  0.86283722334E+01  0.51100000000E-03 0.  1.
        -12    1    3    3    0    0  0.54900899384E+01 -0.48370464630E+01  0.15596738212E+02  0.17227778407E+02  0.00000000000E+00 0.  1.
</event>
<event>
 7    1  0.5456331E-013  0.5052886E+02  0.7816164E-02  0.1300439E+00
        -11   -1    0    0    0    0  0.00000000000E+00  0.00000000000E+00  0.45593999997E+02  0.45594000000E+02  0.51100000000E-03 0.  1.
         11   -1    0    0    0    0 -0.00000000000E+00 -0.00000000000E+00 -0.45593999997E+02  0.45594000000E+02  0.51100000000E-03 0. -1.
    9900012    2    1    2    0    0  0.94011824044E+01 -0.27503460503E+02  0.28431378349E+02  0.50528857792E+02  0.29999993744E+02 0.  0.
         12    1    1    2    0    0 -0.94011824044E+01  0.27503460503E+02 -0.28431378349E+02  0.40659142208E+02  0.00000000000E+00 0. -1.
         11    1    3    3    0    0 -0.96262700570E+00 -0.10340811551E+02  0.21559250157E+01  0.10606933922E+02  0.51100000000E-03 0. -1.
        -11    1    3    3    0    0  0.30659732419E+01 -0.76770405820E+01 -0.25988822635E+01  0.86655255639E+01  0.51100000000E-03 0.  1.
         12    1    3    3    0    0  0.72978361683E+01 -0.94856083706E+01  0.28874335597E+02  0.31256398306E+02  0.00000000000E+00 0. -1.
</event>
<event>
 7    1  0.5456331E-013  0.5052887E+02  0.7816164E-02  0.1300439E+00
        -11   -1    0    0    0    0  0.00000000000E+00  0.00000000000E+00  0.45593999997E+02  0.45594000000E+02  0.51100000000E-03 0. -1.
         11   -1    0    0    0    0 -0.00000000000E+00 -0.00000000000E+00 -0.45593999997E+02  0.45594000000E+02  0.51100000000E-03 0.  1.
    9900012    2    1    2    0    0  0.13250723755E+02 -0.18085937146E+01 -0.38396775156E+02  0.50528867770E+02  0.30000024074E+02 0.  0.
         12    1    1    2    0    0 -0.13250723755E+02  0.18085937146E+01  0.38396775156E+02  0.40659132230E+02  0.00000000000E+00 0. -1.
         11    1    3    3    0    0  0.14659570465E+01  0.78986203478E+01 -0.77109160573E+01  0.11135324879E+02  0.51100000000E-03 0. -1.
        -11    1    3    3    0    0 -0.31739032935E+00 -0.18824963260E+01 -0.22965029687E+02  0.23044242617E+02  0.51100000000E-03 0.  1.
        -12    1    3    3    0    0  0.12102157038E+02 -0.78247177364E+01 -0.77208294125E+01  0.16349300274E+02  0.00000000000E+00 0.  1.
</event>
<event>
 7    1  0.5456331E-013  0.5052885E+02  0.7816164E-02  0.1300439E+00
        -11   -1    0    0    0    0  0.00000000000E+00  0.00000000000E+00  0.45593999997E+02  0.45594000000E+02  0.51100000000E-03 0.  1.
         11   -1    0    0    0    0 -0.00000000000E+00 -0.00000000000E+00 -0.45593999997E+02  0.45594000000E+02  0.51100000000E-03 0. -1.
    9900012    2    1    2    0    0 -0.34684360641E+01  0.24228580822E+02  0.32467092697E+02  0.50528852376E+02  0.29999977281E+02 0.  0.
         12    1    1    2    0    0  0.34684360641E+01 -0.24228580822E+02 -0.32467092697E+02  0.40659147624E+02  0.00000000000E+00 0. -1.
         11    1    3    3    0    0 -0.40729428912E+01  0.44155634760E+01  0.62656599882E+00  0.60397557746E+01  0.51100000000E-03 0.  1.
        -11    1    3    3    0    0  0.11408142885E+02  0.14855549686E+02  0.23073444331E+02  0.29718965563E+02  0.51100000000E-03 0. -1.
         12    1    3    3    0    0 -0.10803636057E+02  0.49574676598E+01  0.87670823669E+01  0.14770131038E+02  0.00000000000E+00 0. -1.
</event>
<event>
 7    1  0.5456331E-013  0.5052884E+02  0.7816164E-02  0.1300439E+00
        -11   -1    0    0    0    0  0.00000000000E+00  0.00000000000E+00  0.45593999997E+02  0.45594000000E+02  0.51100000000E-03 0.  1.
         11   -1    0    0    0    0 -0.00000000000E+00 -0.00000000000E+00 -0.45593999997E+02  0.45594000000E+02  0.51100000000E-03 0. -1.
    9900012    2    1    2    0    0  0.91759313424E+00  0.35185108796E+02  0.20355179880E+02  0.50528841055E+02  0.29999942870E+02 0.  0.
         12    1    1    2    0    0 -0.91759313424E+00 -0.35185108796E+02 -0.20355179880E+02  0.40659158945E+02  0.00000000000E+00 0. -1.
         11    1    3    3    0    0  0.87536206854E+01  0.26313977461E+02  0.21935125906E+02  0.35358181991E+02  0.51100000000E-03 0.  1.
        -11    1    3    3    0    0 -0.28246504607E+00  0.10286429107E+01 -0.38952342443E+01  0.40386560660E+01  0.51100000000E-03 0. -1.
        -12    1    3    3    0    0 -0.75535625051E+01  0.78424884250E+01  0.23152882184E+01  0.11132002998E+02  0.00000000000E+00 0.  1.
</event>
<event>
 7    1  0.5456331E-013  0.5052886E+02  0.7816164E-02  0.1300439E+00
        -11   -1    0    0    0    0  0.00000000000E+00  0.00000000000E+00  0.45593999997E+02  0.45594000000E+02  0.51100000000E-03 0.  1.
         11   -1    0    0    0    0 -0.00000000000E+00 -0.00000000000E+00 -0.45593999997E+02  0.45594000000E+02  0.51100000000E-03 0. -1.
    9900012    2    1    2    0    0 -0.10018189826E+02 -0.28300889778E+02  0.27420088774E+02  0.50528858863E+02  0.29999997000E+02 0.  0.
         12    1    1    2    0    0  0.10018189826E+02  0.28300889778E+02 -0.27420088774E+02  0.40659141137E+02  0.00000000000E+00 0. -1.
         11    1    3    3    0    0 -0.84118224262E+01 -0.63853348124E+00  0.40352544390E+00  0.84456683917E+01  0.51100000000E-03 0. -1.
        -11    1    3    3    0    0  0.58027316167E+01 -0.56733579242E+01  0.11850108183E+02  0.14362581542E+02  0.51100000000E-03 0.  1.
        -12    1    3    3    0    0 -0.74090990160E+01 -0.21988998373E+02  0.15166455148E+02  0.27720608929E+02  0.00000000000E+00 0.  1.
</event>
<event>
 7    1  0.5456331E-013  0.5052883E+02  0.7816164E-02  0.1300439E+00
        -11   -1    0    0    0    0  0.00000000000E+00  0.00000000000E+00  0.45593999997E+02  0.45594000000E+02  0.51100000000E-03 0. -1.
         11   -1    0    0    0    0 -0.00000000000E+00 -0.00000000000E+00 -0.45593999997E+02  0.45594000000E+02  0.51100000000E-03 0.  1.
    9900012    2    1    2    0    0  0.30257377525E+02  0.18612434876E+01 -0.27096027904E+02  0.50528833135E+02  0.29999918796E+02 0.  0.
         12    1    1    2    0    0 -0.30257377525E+02 -0.18612434876E+01  0.27096027904E+02  0.40659166865E+02  0.00000000000E+00 0. -1.
         11    1    3    3    0    0  0.36096666893E+01  0.36061391384E+01 -0.13064774593E+02  0.14025771583E+02  0.51100000000E-03 0. -1.
        -11    1    3    3    0    0  0.16069965392E+02 -0.27779900315E+00 -0.18863107650E+02  0.24781803616E+02  0.51100000000E-03 0.  1.
         12    1    3    3    0    0  0.10577745443E+02 -0.14670966477E+01  0.48318543382E+01  0.11721257935E+02  0.00000000000E+00 0. -1.
</event>
<event>
 7    1  0.5456331E-013  0.5052886E+02  0.7816164E-02  0.1300439E+00
        -11   -1    0    0    0    0  0.00000000000E+00  0.00000000000E+00  0.45593999997E+02  0.45594000000E+02  0.51100000000E-03 0. -1.
         11   -1    0    0    0    0 -0.00000000000E+00 -0.00000000000E+00 -0.45593999997E+02  0.45594000000E+02  0.51100000000E-03 0.  1.
    9900012    2    1    2    0    0  0.14100947377E+02 -0.24401658082E+02 -0.29306796640E+02  0.50528856338E+02  0.29999989324E+02 0.  0.
         12    1    1    2    0    0 -0.14100947377E+02  0.24401658082E+02  0.29306796640E+02  0.40659143662E+02  0.00000000000E+00 0. -1.
         11    1    3    3    0    0  0.20379671540E+01 -0.14434096699E+02  0.10249930495E+01  0.14613249763E+02  0.51100000000E-03 0. -1.
        -11    1    3    3    0    0  0.80397815839E+00 -0.22832717505E+01  0.24982645948E+00  0.24335415112E+01  0.51100000000E-03 0.  1.
        -12    1    3    3    0    0  0.11259002064E+02 -0.76842896330E+01 -0.30581616149E+02  0.33482065063E+02  0.00000000000E+00 0.  1.
</event>
<event>
 7    1  0.5456331E-013  0.5052882E+02  0.7816164E-02  0.1300439E+00
        -11   -1    0    0    0    0  0.00000000000E+00  0.00000000000E+00  0.45593999997E+02  0.45594000000E+02  0.51100000000E-03 0.  1.
         11   -1    0    0    0    0 -0.00000000000E+00 -0.00000000000E+00 -0.45593999997E+02  0.45594000000E+02  0.51100000000E-03 0. -1.
    9900012    2    1    2    0    0  0.14830537999E+02 -0.26605079941E+02  0.26933136345E+02  0.50528819371E+02  0.29999876960E+02 0.  0.
         12    1    1    2    0    0 -0.14830537999E+02  0.26605079941E+02 -0.26933136345E+02  0.40659180629E+02  0.00000000000E+00 0. -1.
         11    1    3    3    0    0  0.11249563507E+02 -0.20896546529E+01  0.84368161770E+01  0.14216159929E+02  0.51100000000E-03 0. -1.
        -11    1    3    3    0    0 -0.29222434951E+01 -0.11563352808E+02  0.18269314660E+02  0.21817848052E+02  0.51100000000E-03 0.  1.
        -12    1    3    3    0    0  0.65032179876E+01 -0.12952072480E+02  0.22700550803E+00  0.14494811390E+02  0.00000000000E+00 0.  1.
</event>
<event>
 7    1  0.5456331E-013  0.5052887E+02  0.7816164E-02  0.1300439E+00
        -11   -1    0    0    0    0  0.00000000000E+00  0.00000000000E+00  0.45593999997E+02  0.45594000000E+02  0.51100000000E-03 0.  1.
         11   -1    0    0    0    0 -0.00000000000E+00 -0.00000000000E+00 -0.45593999997E+02  0.45594000000E+02  0.51100000000E-03 0. -1.
    9900012    2    1    2    0    0 -0.12839759810E+02 -0.34210139254E+02  0.17831770995E+02  0.50528866751E+02  0.30000020975E+02 0.  0.
         12    1    1    2    0    0  0.12839759810E+02  0.34210139254E+02 -0.17831770995E+02  0.40659133249E+02  0.00000000000E+00 0. -1.
         11    1    3    3    0    0 -0.63435709631E+01  0.11152731650E+01  0.28853438373E+01  0.70576154696E+01  0.51100000000E-03 0. -1.
        -11    1    3    3    0    0 -0.46303505102E+01 -0.44180724677E+01 -0.36348988719E+01  0.73601630585E+01  0.51100000000E-03 0.  1.
         12    1    3    3    0    0 -0.18658383367E+01 -0.30907339951E+02  0.18581326030E+02  0.36111088222E+02  0.00000000000E+00 0. -1.
</event>
<event>
 7    1  0.5456331E-013  0.5052887E+02  0.7816164E-02  0.1300439E+00
        -11   -1    0    0    0    0  0.00000000000E+00  0.00000000000E+00  0.45593999997E+02  0.45594000000E+02  0.51100000000E-03 0.  1.
         11   -1    0    0    0    0 -0.00000000000E+00 -0.00000000000E+00 -0.45593999997E+02  0.45594000000E+02  0.51100000000E-03 0. -1.
    9900012    2    1    2    0    0 -0.39474833143E+02 -0.11152058703E+01  0.96777317070E+01  0.50528872774E+02  0.30000039283E+02 0.  0.
         12    1    1    2    0    0  0.39474833143E+02  0.11152058703E+01 -0.96777317070E+01  0.40659127226E+02  0.00000000000E+00 0. -1.
         11    1    3    3    0    0 -0.16846331451E+02  0.81971163086E+01 -0.31949064217E+00  0.18737493794E+02  0.51100000000E-03 0. -1.
        -11    1    3    3    0    0 -0.83847463841E+01 -0.74718772174E+00  0.12410857568E+02  0.14996387807E+02  0.51100000000E-03 0.  1.
        -12    1    3    3    0    0 -0.14243755308E+02 -0.85651344571E+01 -0.24136352189E+01  0.16794991173E+02  0.00000000000E+00 0.  1.
</event>
<event>
 7    1  0.5456331E-013  0.5052884E+02  0.7816164E-02  0.1300439E+00
        -11   -1    0    0    0    0  0.00000000000E+00  0.00000000000E+00  0.45593999997E+02  0.45594000000E+02  0.51100000000E-03 0.  1.
         11   -1    0    0    0    0 -0.00000000000E+00 -0.00000000000E+00 -0.45593999997E+02  0.45594000000E+02  0.51100000000E-03 0. -1.
    9900012    2    1    2    0    0  0.10545359157E+01  0.38955968384E+02  0.11596897287E+02  0.50528836882E+02  0.29999930188E+02 0.  0.
         12    1    1    2    0    0 -0.10545359157E+01 -0.38955968384E+02 -0.11596897287E+02  0.40659163118E+02  0.00000000000E+00 0. -1.
         11    1    3    3    0    0  0.35750885755E+00  0.34255230325E+01  0.13402192401E+02  0.13837658112E+02  0.51100000000E-03 0. -1.
        -11    1    3    3    0    0 -0.22090319179E+01  0.34978955616E+01  0.14006108131E+01  0.43677003429E+01  0.51100000000E-03 0.  1.
        -12    1    3    3    0    0  0.29060589760E+01  0.32032549790E+02 -0.32059059267E+01  0.32323478427E+02  0.00000000000E+00 0.  1.
</event>
<event>
 7    1  0.5456331E-013  0.5052886E+02  0.7816164E-02  0.1300439E+00
        -11   -1    0    0    0    0  0.00000000000E+00  0.00000000000E+00  0.45593999997E+02  0.45594000000E+02  0.51100000000E-03 0.  1.
         11   -1    0    0    0    0 -0.00000000000E+00 -0.00000000000E+00 -0.45593999997E+02  0.45594000000E+02  0.51100000000E-03 0. -1.
    9900012    2    1    2    0    0 -0.24508885828E+02  0.31524282837E+02 -0.76615726670E+01  0.50528860946E+02  0.30000003331E+02 0.  0.
         12    1    1    2    0    0  0.24508885828E+02 -0.31524282837E+02  0.76615726670E+01  0.40659139054E+02  0.00000000000E+00 0. -1.
         11    1    3    3    0    0 -0.82957917577E+01  0.10136117749E+02 -0.47033052253E+01  0.13916972523E+02  0.51100000000E-03 0. -1.
        -11    1    3    3    0    0 -0.19213751162E+02  0.79170513602E+01 -0.74840213479E+01  0.22087519367E+02  0.51100000000E-03 0.  1.
         12    1    3    3    0    0  0.30006570924E+01  0.13471113728E+02  0.45257539062E+01  0.14524369056E+02  0.00000000000E+00 0. -1.
</event>
<event>
 7    1  0.5456331E-013  0.5052886E+02  0.7816164E-02  0.1300439E+00
        -11   -1    0    0    0    0  0.00000000000E+00  0.00000000000E+00  0.45593999997E+02  0.45594000000E+02  0.51100000000E-03 0. -1.
         11   -1    0    0    0    0 -0.00000000000E+00 -0.00000000000E+00 -0.45593999997E+02  0.45594000000E+02  0.51100000000E-03 0.  1.
    9900012    2    1    2    0    0 -0.35671853302E+00  0.22418368572E+02 -0.33918359854E+02  0.50528860404E+02  0.30000001683E+02 0.  0.
         12    1    1    2    0    0  0.35671853302E+00 -0.22418368572E+02  0.33918359854E+02  0.40659139596E+02  0.00000000000E+00 0. -1.
         11    1    3    3    0    0  0.20989048219E+01  0.74196035622E+01 -0.24286322177E+02  0.25481000052E+02  0.51100000000E-03 0. -1.
        -11    1    3    3    0    0 -0.13032220925E+01  0.12907822087E+02 -0.14602866018E+02  0.19533406130E+02  0.51100000000E-03 0.  1.
         12    1    3    3    0    0 -0.11524012624E+01  0.20909429223E+01  0.49708283409E+01  0.55144542222E+01  0.00000000000E+00 0. -1.
</event>
<event>
 7    1  0.5456331E-013  0.5052879E+02  0.7816164E-02  0.1300439E+00
        -11   -1    0    0    0    0  0.00000000000E+00  0.00000000000E+00  0.45593999997E+02  0.45594000000E+02  0.51100000000E-03 0. -1.
         11   -1    0    0    0    0 -0.00000000000E+00 -0.00000000000E+00 -0.45593999997E+02  0.45594000000E+02  0.51100000000E-03 0.  1.
    9900012    2    1    2    0    0 -0.22382301171E+00 -0.31742396883E+01 -0.40534492228E+02  0.50528794960E+02  0.29999802760E+02 0.  0.
         12    1    1    2    0    0  0.22382301171E+00  0.31742396883E+01  0.40534492228E+02  0.40659205040E+02  0.00000000000E+00 0. -1.
         11    1    3    3    0    0  0.82418095652E+00 -0.23622711859E+01 -0.27669658362E+02  0.27782541164E+02  0.51100000000E-03 0. -1.
        -11    1    3    3    0    0  0.65328401210E+01 -0.10195460720E+01 -0.13604951175E+02  0.15126538632E+02  0.51100000000E-03 0.  1.
         12    1    3    3    0    0 -0.75808440892E+01  0.20757756964E+00  0.74011730938E+00  0.76197151642E+01  0.00000000000E+00 0. -1.
</event>
<event>
 7    1  0.5456331E-013  0.5052886E+02  0.7816164E-02  0.1300439E+00
        -11   -1    0    0    0    0  0.00000000000E+00  0.00000000000E+00  0.45593999997E+02  0.45594000000E+02  0.51100000000E-03 0.  1.
         11   -1    0    0    0    0 -0.00000000000E+00 -0.00000000000E+00 -0.45593999997E+02  0.45594000000E+02  0.51100000000E-03 0. -1.
    9900012    2    1    2    0    0 -0.21588011487E+02 -0.21586866027E+02  0.26853874004E+02  0.50528861127E+02  0.30000003882E+02 0.  0.
         12    1    1    2    0    0  0.21588011487E+02  0.21586866027E+02 -0.26853874004E+02  0.40659138873E+02  0.00000000000E+00 0. -1.
         11    1    3    3    0    0  0.54382226028E+01 -0.66925566836E+01  0.54171156034E+01  0.10183797021E+02  0.51100000000E-03 0. -1.
        -11    1    3    3    0    0 -0.99432200702E+00 -0.27582424497E+01  0.82217686358E+01  0.87289207481E+01  0.51100000000E-03 0.  1.
        -12    1    3    3    0    0 -0.26031912083E+02 -0.12136066894E+02  0.13214989765E+02  0.31616143358E+02  0.00000000000E+00 0.  1.
</event>
<event>
 7    1  0.5456331E-013  0.5052901E+02  0.7816164E-02  0.1300438E+00
        -11   -1    0    0    0    0  0.00000000000E+00  0.00000000000E+00  0.45593999997E+02  0.45594000000E+02  0.51100000000E-03 0. -1.
         11   -1    0    0    0    0 -0.00000000000E+00 -0.00000000000E+00 -0.45593999997E+02  0.45594000000E+02  0.51100000000E-03 0.  1.
    9900012    2    1    2    0    0  0.26959123139E+02  0.18063367483E+02 -0.24496411129E+02  0.50529006856E+02  0.30000446836E+02 0.  0.
         12    1    1    2    0    0 -0.26959123139E+02 -0.18063367483E+02  0.24496411129E+02  0.40658993144E+02  0.00000000000E+00 0. -1.
         11    1    3    3    0    0 -0.12824826015E+01  0.43249364959E+01 -0.73984657472E+01  0.86652832031E+01  0.51100000000E-03 0. -1.
        -11    1    3    3    0    0  0.71819034770E+01 -0.55378257223E+01 -0.10951266685E+01  0.91349085362E+01  0.51100000000E-03 0.  1.
        -12    1    3    3    0    0  0.21059702263E+02  0.19276256710E+02 -0.16002818714E+02  0.32728815117E+02  0.00000000000E+00 0.  1.
</event>
<event>
 7    1  0.5456331E-013  0.5052885E+02  0.7816164E-02  0.1300439E+00
        -11   -1    0    0    0    0  0.00000000000E+00  0.00000000000E+00  0.45593999997E+02  0.45594000000E+02  0.51100000000E-03 0. -1.
         11   -1    0    0    0    0 -0.00000000000E+00 -0.00000000000E+00 -0.45593999997E+02  0.45594000000E+02  0.51100000000E-03 0.  1.
    9900012    2    1    2    0    0 -0.37081387490E+02  0.86324738746E+01 -0.14269474568E+02  0.50528845953E+02  0.29999957760E+02 0.  0.
         12    1    1    2    0    0  0.37081387490E+02 -0.86324738746E+01  0.14269474568E+02  0.40659154047E+02  0.00000000000E+00 0. -1.
         11    1    3    3    0    0 -0.11165534211E+02 -0.79870523885E+00  0.57454329829E+01  0.12582411720E+02  0.51100000000E-03 0. -1.
        -11    1    3    3    0    0 -0.54602036527E+01 -0.47165787444E+01 -0.60919162345E+01  0.94430600258E+01  0.51100000000E-03 0.  1.
         12    1    3    3    0    0 -0.20455649626E+02  0.14147757858E+02 -0.13922991316E+02  0.28503374207E+02  0.00000000000E+00 0. -1.
</event>
<event>
 7    1  0.5456331E-013  0.5052886E+02  0.7816164E-02  0.1300439E+00
        -11   -1    0    0    0    0  0.00000000000E+00  0.00000000000E+00  0.45593999997E+02  0.45594000000E+02  0.51100000000E-03 0.  1.
         11   -1    0    0    0    0 -0.00000000000E+00 -0.00000000000E+00 -0.45593999997E+02  0.45594000000E+02  0.51100000000E-03 0. -1.
    9900012    2    1    2    0    0  0.45241237054E+01 -0.39678661659E+02  0.76355828789E+01  0.50528855736E+02  0.29999987495E+02 0.  0.
         12    1    1    2    0    0 -0.45241237054E+01  0.39678661659E+02 -0.76355828789E+01  0.40659144264E+02  0.00000000000E+00 0. -1.
         11    1    3    3    0    0  0.38399841134E+01  0.91818753372E+00 -0.21374590163E+01  0.44896856956E+01  0.51100000000E-03 0. -1.
        -11    1    3    3    0    0  0.22323337068E+01  0.87770937611E-01  0.44490787140E+01  0.49784856312E+01  0.51100000000E-03 0.  1.
        -12    1    3    3    0    0 -0.15481941148E+01 -0.40684620131E+02  0.53239631812E+01  0.41060684409E+02  0.00000000000E+00 0.  1.
</event>
<event>
 7    1  0.5456331E-013  0.5052886E+02  0.7816164E-02  0.1300439E+00
        -11   -1    0    0    0    0  0.00000000000E+00  0.00000000000E+00  0.45593999997E+02  0.45594000000E+02  0.51100000000E-03 0.  1.
         11   -1    0    0    0    0 -0.00000000000E+00 -0.00000000000E+00 -0.45593999997E+02  0.45594000000E+02  0.51100000000E-03 0. -1.
    9900012    2    1    2    0    0 -0.12775043964E+02  0.37934161076E+02  0.71388609556E+01  0.50528860061E+02  0.30000000643E+02 0.  0.
         12    1    1    2    0    0  0.12775043964E+02 -0.37934161076E+02 -0.71388609556E+01  0.40659139939E+02  0.00000000000E+00 0. -1.
         11    1    3    3    0    0 -0.83096565603E+01  0.18616123118E+02 -0.25674184228E+01  0.20547556296E+02  0.51100000000E-03 0. -1.
        -11    1    3    3    0    0 -0.53470813343E+01  0.23480880812E+02  0.87301152366E+01  0.25615580314E+02  0.51100000000E-03 0.  1.
         12    1    3    3    0    0  0.88169393073E+00 -0.41628428551E+01  0.97616414171E+00  0.43657234515E+01  0.00000000000E+00 0. -1.
</event>
<event>
 7    1  0.5456331E-013  0.5052886E+02  0.7816164E-02  0.1300439E+00
        -11   -1    0    0    0    0  0.00000000000E+00  0.00000000000E+00  0.45593999997E+02  0.45594000000E+02  0.51100000000E-03 0.  1.
         11   -1    0    0    0    0 -0.00000000000E+00 -0.00000000000E+00 -0.45593999997E+02  0.45594000000E+02  0.51100000000E-03 0. -1.
    9900012    2    1    2    0    0  0.25141722845E+02  0.22844677810E+02  0.22342334104E+02  0.50528862957E+02  0.30000009445E+02 0.  0.
         12    1    1    2    0    0 -0.25141722845E+02 -0.22844677810E+02 -0.22342334104E+02  0.40659137043E+02  0.00000000000E+00 0. -1.
         11    1    3    3    0    0 -0.15211506310E+01 -0.58687339939E+00  0.27088230969E+01  0.31616518563E+01  0.51100000000E-03 0. -1.
        -11    1    3    3    0    0  0.45354855189E+01  0.11025399772E+01  0.14854146299E+02  0.15570224334E+02  0.51100000000E-03 0.  1.
         12    1    3    3    0    0  0.22127387958E+02  0.22329011232E+02  0.47793647080E+01  0.31796986766E+02  0.00000000000E+00 0. -1.
</event>
<event>
 7    1  0.5456331E-013  0.5052886E+02  0.7816164E-02  0.1300439E+00
        -11   -1    0    0    0    0  0.00000000000E+00  0.00000000000E+00  0.45593999997E+02  0.45594000000E+02  0.51100000000E-03 0.  1.
         11   -1    0    0    0    0 -0.00000000000E+00 -0.00000000000E+00 -0.45593999997E+02  0.45594000000E+02  0.51100000000E-03 0. -1.
    9900012    2    1    2    0    0  0.12467522127E+02  0.46931638714E+00  0.38697630063E+02  0.50528856645E+02  0.29999990258E+02 0.  0.
         12    1    1    2    0    0 -0.12467522127E+02 -0.46931638714E+00 -0.38697630063E+02  0.40659143355E+02  0.00000000000E+00 0. -1.
         11    1    3    3    0    0 -0.23724845078E+01  0.43874461077E+01 -0.22137056105E+01  0.54570009051E+01  0.51100000000E-03 0. -1.
        -11    1    3    3    0    0  0.70213606637E+01 -0.67729221405E+01  0.15334039256E+02  0.18174287883E+02  0.51100000000E-03 0.  1.
        -12    1    3    3    0    0  0.78186459709E+01  0.28547924199E+01  0.25577296418E+02  0.26897567857E+02  0.00000000000E+00 0.  1.
</event>
<event>
 7    1  0.5456331E-013  0.5052887E+02  0.7816164E-02  0.1300439E+00
        -11   -1    0    0    0    0  0.00000000000E+00  0.00000000000E+00  0.45593999997E+02  0.45594000000E+02  0.51100000000E-03 0. -1.
         11   -1    0    0    0    0 -0.00000000000E+00 -0.00000000000E+00 -0.45593999997E+02  0.45594000000E+02  0.51100000000E-03 0.  1.
    9900012    2    1    2    0    0 -0.14109842616E+02 -0.32390040558E+02  0.20123682415E+02  0.50528868431E+02  0.30000026082E+02 0.  0.
         12    1    1    2    0    0  0.14109842616E+02  0.32390040558E+02 -0.20123682415E+02  0.40659131569E+02  0.00000000000E+00 0. -1.
         11    1    3    3    0    0 -0.43049561878E+01 -0.13237766387E+02  0.17346447825E+02  0.22241186099E+02  0.51100000000E-03 0.  1.
        -11    1    3    3    0    0 -0.58247641745E+01 -0.86517416437E+01  0.10389281097E+02  0.14721333945E+02  0.51100000000E-03 0. -1.
        -12    1    3    3    0    0 -0.39801222541E+01 -0.10500532528E+02 -0.76120465069E+01  0.13566348387E+02  0.00000000000E+00 0.  1.
</event>
<event>
 7    1  0.5456331E-013  0.5052886E+02  0.7816164E-02  0.1300439E+00
        -11   -1    0    0    0    0  0.00000000000E+00  0.00000000000E+00  0.45593999997E+02  0.45594000000E+02  0.51100000000E-03 0.  1.
         11   -1    0    0    0    0 -0.00000000000E+00 -0.00000000000E+00 -0.45593999997E+02  0.45594000000E+02  0.51100000000E-03 0. -1.
    9900012    2    1    2    0    0  0.32510874769E+02 -0.23182259092E+02 -0.76675466440E+01  0.50528863433E+02  0.30000010890E+02 0.  0.
         12    1    1    2    0    0 -0.32510874769E+02  0.23182259092E+02  0.76675466440E+01  0.40659136567E+02  0.00000000000E+00 0. -1.
         11    1    3    3    0    0 -0.21897612595E+01 -0.32189111310E+01  0.23103404600E+01  0.45270428035E+01  0.51100000000E-03 0. -1.
        -11    1    3    3    0    0  0.22101373627E+02 -0.21893644238E+02 -0.24669740303E+01  0.31207184034E+02  0.51100000000E-03 0.  1.
         12    1    3    3    0    0  0.12599262402E+02  0.19302962768E+01 -0.75109130736E+01  0.14794636595E+02  0.00000000000E+00 0. -1.
</event>
<event>
 7    1  0.5456331E-013  0.5052898E+02  0.7816164E-02  0.1300438E+00
        -11   -1    0    0    0    0  0.00000000000E+00  0.00000000000E+00  0.45593999997E+02  0.45594000000E+02  0.51100000000E-03 0.  1.
         11   -1    0    0    0    0 -0.00000000000E+00 -0.00000000000E+00 -0.45593999997E+02  0.45594000000E+02  0.51100000000E-03 0. -1.
    9900012    2    1    2    0    0  0.62425235618E+01  0.71261351989E+01  0.39539913871E+02  0.50528982646E+02  0.30000373247E+02 0.  0.
         12    1    1    2    0    0 -0.62425235618E+01 -0.71261351989E+01 -0.39539913871E+02  0.40659017354E+02  0.00000000000E+00 0. -1.
         11    1    3    3    0    0  0.13885712581E+00  0.46985783195E+01  0.17897123630E+02  0.18504133430E+02  0.51100000000E-03 0. -1.
        -11    1    3    3    0    0 -0.50704956120E+01  0.73690900159E+01  0.16499772528E+02  0.18768481748E+02  0.51100000000E-03 0.  1.
         12    1    3    3    0    0  0.11174162048E+02 -0.49415331364E+01  0.51430177135E+01  0.13256367467E+02  0.00000000000E+00 0. -1.
</event>
<event>
 7    1  0.5456331E-013  0.5052886E+02  0.7816164E-02  0.1300439E+00
        -11   -1    0    0    0    0  0.00000000000E+00  0.00000000000E+00  0.45593999997E+02  0.45594000000E+02  0.51100000000E-03 0. -1.
         11   -1    0    0    0    0 -0.00000000000E+00 -0.00000000000E+00 -0.45593999997E+02  0.45594000000E+02  0.51100000000E-03 0.  1.
    9900012    2    1    2    0    0  0.33858028114E+02 -0.13001320192E+02 -0.18378401414E+02  0.50528855480E+02  0.29999986718E+02 0.  0.
         12    1    1    2    0    0 -0.33858028114E+02  0.13001320192E+02  0.18378401414E+02  0.40659144520E+02  0.00000000000E+00 0. -1.
         11    1    3    3    0    0  0.24152021383E+02 -0.37710040390E+01 -0.22430974154E+02  0.33176636510E+02  0.51100000000E-03 0. -1.
        -11    1    3    3    0    0  0.66589809564E+00 -0.20993722078E+01 -0.30960243824E+01  0.37994935423E+01  0.51100000000E-03 0.  1.
         12    1    3    3    0    0  0.90401086363E+01 -0.71309439455E+01  0.71485971226E+01  0.13552725428E+02  0.00000000000E+00 0. -1.
</event>
<event>
 7    1  0.5456331E-013  0.5052887E+02  0.7816164E-02  0.1300439E+00
        -11   -1    0    0    0    0  0.00000000000E+00  0.00000000000E+00  0.45593999997E+02  0.45594000000E+02  0.51100000000E-03 0.  1.
         11   -1    0    0    0    0 -0.00000000000E+00 -0.00000000000E+00 -0.45593999997E+02  0.45594000000E+02  0.51100000000E-03 0. -1.
    9900012    2    1    2    0    0  0.40531511393E+02 -0.31678192663E+01 -0.57150796745E+00  0.50528866757E+02  0.30000020995E+02 0.  0.
         12    1    1    2    0    0 -0.40531511393E+02  0.31678192663E+01  0.57150796745E+00  0.40659133243E+02  0.00000000000E+00 0. -1.
         11    1    3    3    0    0  0.54742513083E+01  0.72489965465E+01  0.18457834903E+00  0.90856726633E+01  0.51100000000E-03 0. -1.
        -11    1    3    3    0    0  0.31200918688E+02 -0.32971138188E+01  0.46356801402E+01  0.31715261581E+02  0.51100000000E-03 0.  1.
         12    1    3    3    0    0  0.38563413967E+01 -0.71197019939E+01 -0.53917664567E+01  0.97279325128E+01  0.00000000000E+00 0. -1.
</event>
<event>
 7    1  0.5456331E-013  0.5052886E+02  0.7816164E-02  0.1300439E+00
        -11   -1    0    0    0    0  0.00000000000E+00  0.00000000000E+00  0.45593999997E+02  0.45594000000E+02  0.51100000000E-03 0.  1.
         11   -1    0    0    0    0 -0.00000000000E+00 -0.00000000000E+00 -0.45593999997E+02  0.45594000000E+02  0.51100000000E-03 0. -1.
    9900012    2    1    2    0    0  0.29174488257E+02  0.38880391416E+01 -0.28051703859E+02  0.50528859542E+02  0.29999999063E+02 0.  0.
         12    1    1    2    0    0 -0.29174488257E+02 -0.38880391416E+01  0.28051703859E+02  0.40659140458E+02  0.00000000000E+00 0. -1.
         11    1    3    3    0    0  0.22642211513E+01 -0.74692786191E+01 -0.63726537953E+00  0.78308957302E+01  0.51100000000E-03 0. -1.
        -11    1    3    3    0    0 -0.19023075575E+00 -0.22099223832E+01 -0.78160326833E+00  0.23517756292E+01  0.51100000000E-03 0.  1.
        -12    1    3    3    0    0  0.27100497862E+02  0.13567240144E+02 -0.26632835211E+02  0.40346188182E+02  0.00000000000E+00 0.  1.
</event>
<event>
 7    1  0.5456331E-013  0.5052886E+02  0.7816164E-02  0.1300439E+00
        -11   -1    0    0    0    0  0.00000000000E+00  0.00000000000E+00  0.45593999997E+02  0.45594000000E+02  0.51100000000E-03 0.  1.
         11   -1    0    0    0    0 -0.00000000000E+00 -0.00000000000E+00 -0.45593999997E+02  0.45594000000E+02  0.51100000000E-03 0. -1.
    9900012    2    1    2    0    0 -0.58507457974E+01  0.38708942102E+02  0.10979614602E+02  0.50528863734E+02  0.30000011806E+02 0.  0.
         12    1    1    2    0    0  0.58507457974E+01 -0.38708942102E+02 -0.10979614602E+02  0.40659136266E+02  0.00000000000E+00 0. -1.
         11    1    3    3    0    0 -0.86719179793E+01  0.10760230279E+02 -0.11038255027E+01  0.13863734998E+02  0.51100000000E-03 0. -1.
        -11    1    3    3    0    0 -0.75683085823E+01  0.19829423421E+02  0.54921189448E+01  0.21923701758E+02  0.51100000000E-03 0.  1.
         12    1    3    3    0    0  0.10389480764E+02  0.81192884019E+01  0.65913211600E+01  0.14741426978E+02  0.00000000000E+00 0. -1.
</event>
<event>
 7    1  0.5456331E-013  0.5052886E+02  0.7816164E-02  0.1300439E+00
        -11   -1    0    0    0    0  0.00000000000E+00  0.00000000000E+00  0.45593999997E+02  0.45594000000E+02  0.51100000000E-03 0.  1.
         11   -1    0    0    0    0 -0.00000000000E+00 -0.00000000000E+00 -0.45593999997E+02  0.45594000000E+02  0.51100000000E-03 0. -1.
    9900012    2    1    2    0    0 -0.13223515301E+02 -0.24479146315E+02  0.29649212327E+02  0.50528858926E+02  0.29999997192E+02 0.  0.
         12    1    1    2    0    0  0.13223515301E+02  0.24479146315E+02 -0.29649212327E+02  0.40659141074E+02  0.00000000000E+00 0. -1.
         11    1    3    3    0    0 -0.14840723074E+02 -0.29346627831E+01  0.49354753130E+01  0.15912832050E+02  0.51100000000E-03 0. -1.
        -11    1    3    3    0    0 -0.33951781398E+01 -0.19866284668E+01  0.53564912134E+01  0.66457449279E+01  0.51100000000E-03 0.  1.
         12    1    3    3    0    0  0.50123859132E+01 -0.19557855065E+02  0.19357245801E+02  0.27970281949E+02  0.00000000000E+00 0. -1.
</event>
<event>
 7    1  0.5456331E-013  0.5052883E+02  0.7816164E-02  0.1300439E+00
        -11   -1    0    0    0    0  0.00000000000E+00  0.00000000000E+00  0.45593999997E+02  0.45594000000E+02  0.51100000000E-03 0.  1.
         11   -1    0    0    0    0 -0.00000000000E+00 -0.00000000000E+00 -0.45593999997E+02  0.45594000000E+02  0.51100000000E-03 0. -1.
    9900012    2    1    2    0    0  0.34676058433E+02 -0.21187574054E+02  0.13510647176E+01  0.50528834999E+02  0.29999924462E+02 0.  0.
         12    1    1    2    0    0 -0.34676058433E+02  0.21187574054E+02 -0.13510647176E+01  0.40659165001E+02  0.00000000000E+00 0. -1.
         11    1    3    3    0    0  0.10736896781E+01 -0.39579879359E+01 -0.53529520750E+01  0.67433355399E+01  0.51100000000E-03 0. -1.
        -11    1    3    3    0    0  0.12627205848E+02 -0.16557956966E+02 -0.22991062953E+01  0.20949896335E+02  0.51100000000E-03 0.  1.
         12    1    3    3    0    0  0.20975162907E+02 -0.67162915151E+00  0.90031230878E+01  0.22835603124E+02  0.00000000000E+00 0. -1.
</event>
<event>
 7    1  0.5456331E-013  0.5052885E+02  0.7816164E-02  0.1300439E+00
        -11   -1    0    0    0    0  0.00000000000E+00  0.00000000000E+00  0.45593999997E+02  0.45594000000E+02  0.51100000000E-03 0. -1.
         11   -1    0    0    0    0 -0.00000000000E+00 -0.00000000000E+00 -0.45593999997E+02  0.45594000000E+02  0.51100000000E-03 0.  1.
    9900012    2    1    2    0    0  0.71877962512E+01 -0.39936237571E+02 -0.25688733644E+01  0.50528848550E+02  0.29999965653E+02 0.  0.
         12    1    1    2    0    0 -0.71877962512E+01  0.39936237571E+02  0.25688733644E+01  0.40659151450E+02  0.00000000000E+00 0. -1.
         11    1    3    3    0    0 -0.42800404462E+01 -0.83210991133E+01 -0.55008368354E+01  0.10854429641E+02  0.51100000000E-03 0. -1.
        -11    1    3    3    0    0 -0.33883285894E+01  0.37637427366E+00 -0.21603614221E+01  0.40360364169E+01  0.51100000000E-03 0.  1.
        -12    1    3    3    0    0  0.14856165287E+02 -0.31991512731E+02  0.50923248931E+01  0.35638382492E+02  0.00000000000E+00 0.  1.
</event>
<event>
 7    1  0.5456331E-013  0.5052888E+02  0.7816164E-02  0.1300439E+00
        -11   -1    0    0    0    0  0.00000000000E+00  0.00000000000E+00  0.45593999997E+02  0.45594000000E+02  0.51100000000E-03 0. -1.
         11   -1    0    0    0    0 -0.00000000000E+00 -0.00000000000E+00 -0.45593999997E+02  0.45594000000E+02  0.51100000000E-03 0.  1.
    9900012    2    1    2    0    0  0.12515035209E+02 -0.91963996577E+01 -0.37576108311E+02  0.50528883080E+02  0.30000070609E+02 0.  0.
         12    1    1    2    0    0 -0.12515035209E+02  0.91963996577E+01  0.37576108311E+02  0.40659116920E+02  0.00000000000E+00 0. -1.
         11    1    3    3    0    0  0.31306472261E+01 -0.80002784984E+01 -0.23823266556E+02  0.25324956817E+02  0.51100000000E-03 0. -1.
        -11    1    3    3    0    0  0.54494794480E+00 -0.83715769989E+01 -0.10346036038E+02  0.13319937375E+02  0.51100000000E-03 0.  1.
         12    1    3    3    0    0  0.88394400381E+01  0.71754558396E+01 -0.34068057163E+01  0.11883988888E+02  0.00000000000E+00 0. -1.
</event>
<event>
 7    1  0.5456331E-013  0.5052886E+02  0.7816164E-02  0.1300439E+00
        -11   -1    0    0    0    0  0.00000000000E+00  0.00000000000E+00  0.45593999997E+02  0.45594000000E+02  0.51100000000E-03 0. -1.
         11   -1    0    0    0    0 -0.00000000000E+00 -0.00000000000E+00 -0.45593999997E+02  0.45594000000E+02  0.51100000000E-03 0.  1.
    9900012    2    1    2    0    0 -0.51318835394E+01 -0.53773831745E+01 -0.39973906038E+02  0.50528860284E+02  0.30000001320E+02 0.  0.
         12    1    1    2    0    0  0.51318835394E+01  0.53773831745E+01  0.39973906038E+02  0.40659139716E+02  0.00000000000E+00 0. -1.
         11    1    3    3    0    0  0.65669715248E+01  0.41232230154E+01 -0.16620792161E+01  0.79302326967E+01  0.51100000000E-03 0. -1.
        -11    1    3    3    0    0  0.82520271331E-01 -0.35745449707E+01 -0.23084939943E+01  0.42559753436E+01  0.51100000000E-03 0.  1.
        -12    1    3    3    0    0 -0.11781375335E+02 -0.59260612192E+01 -0.36003332828E+02  0.38342652244E+02  0.00000000000E+00 0.  1.
</event>
<event>
 7    1  0.5456331E-013  0.5052886E+02  0.7816164E-02  0.1300439E+00
        -11   -1    0    0    0    0  0.00000000000E+00  0.00000000000E+00  0.45593999997E+02  0.45594000000E+02  0.51100000000E-03 0.  1.
         11   -1    0    0    0    0 -0.00000000000E+00 -0.00000000000E+00 -0.45593999997E+02  0.45594000000E+02  0.51100000000E-03 0. -1.
    9900012    2    1    2    0    0  0.36150342418E+02 -0.93699036376E+01  0.16078654329E+02  0.50528862330E+02  0.30000007537E+02 0.  0.
         12    1    1    2    0    0 -0.36150342418E+02  0.93699036376E+01 -0.16078654329E+02  0.40659137670E+02  0.00000000000E+00 0. -1.
         11    1    3    3    0    0  0.80914623602E+01  0.75679396790E+01  0.27258635167E+01  0.11409461262E+02  0.51100000000E-03 0. -1.
        -11    1    3    3    0    0  0.11325752063E+02  0.17923476517E+01  0.60409522135E+01  0.12960643263E+02  0.51100000000E-03 0.  1.
         12    1    3    3    0    0  0.16733127995E+02 -0.18730190968E+02  0.73118385984E+01  0.26158757805E+02  0.00000000000E+00 0. -1.
</event>
<event>
 7    1  0.5456331E-013  0.5052885E+02  0.7816164E-02  0.1300439E+00
        -11   -1    0    0    0    0  0.00000000000E+00  0.00000000000E+00  0.45593999997E+02  0.45594000000E+02  0.51100000000E-03 0.  1.
         11   -1    0    0    0    0 -0.00000000000E+00 -0.00000000000E+00 -0.45593999997E+02  0.45594000000E+02  0.51100000000E-03 0. -1.
    9900012    2    1    2    0    0  0.25778598035E+02 -0.11430282843E+02  0.29291273623E+02  0.50528853514E+02  0.29999980740E+02 0.  0.
         12    1    1    2    0    0 -0.25778598035E+02  0.11430282843E+02 -0.29291273623E+02  0.40659146486E+02  0.00000000000E+00 0. -1.
         11    1    3    3    0    0  0.59044275484E+01 -0.44932246216E+01  0.21318619522E+01  0.77198554273E+01  0.51100000000E-03 0. -1.
        -11    1    3    3    0    0  0.78184796390E+00 -0.12966099385E+02  0.12146489156E+02  0.17783931471E+02  0.51100000000E-03 0.  1.
        -12    1    3    3    0    0  0.19092322523E+02  0.60290411631E+01  0.15012922515E+02  0.25025066615E+02  0.00000000000E+00 0.  1.
</event>
<event>
 7    1  0.5456331E-013  0.5052886E+02  0.7816164E-02  0.1300439E+00
        -11   -1    0    0    0    0  0.00000000000E+00  0.00000000000E+00  0.45593999997E+02  0.45594000000E+02  0.51100000000E-03 0.  1.
         11   -1    0    0    0    0 -0.00000000000E+00 -0.00000000000E+00 -0.45593999997E+02  0.45594000000E+02  0.51100000000E-03 0. -1.
    9900012    2    1    2    0    0 -0.17103175667E+02 -0.33963854469E+02  0.14391088138E+02  0.50528862699E+02  0.30000008659E+02 0.  0.
         12    1    1    2    0    0  0.17103175667E+02  0.33963854469E+02 -0.14391088138E+02  0.40659137301E+02  0.00000000000E+00 0. -1.
         11    1    3    3    0    0 -0.14064182490E+01  0.10391883715E+01 -0.90761152983E+00  0.19701989018E+01  0.51100000000E-03 0. -1.
        -11    1    3    3    0    0 -0.19572611707E+02 -0.12855432685E+02  0.56326243243E+01  0.24084761481E+02  0.51100000000E-03 0.  1.
         12    1    3    3    0    0  0.38758542884E+01 -0.22147610155E+02  0.96660753435E+01  0.24473902316E+02  0.00000000000E+00 0. -1.
</event>
<event>
 7    1  0.5456331E-013  0.5052886E+02  0.7816164E-02  0.1300439E+00
        -11   -1    0    0    0    0  0.00000000000E+00  0.00000000000E+00  0.45593999997E+02  0.45594000000E+02  0.51100000000E-03 0.  1.
         11   -1    0    0    0    0 -0.00000000000E+00 -0.00000000000E+00 -0.45593999997E+02  0.45594000000E+02  0.51100000000E-03 0. -1.
    9900012    2    1    2    0    0  0.28287780248E+01 -0.22963445516E+02  0.33434171491E+02  0.50528860335E+02  0.30000001473E+02 0.  0.
         12    1    1    2    0    0 -0.28287780248E+01  0.22963445516E+02 -0.33434171491E+02  0.40659139665E+02  0.00000000000E+00 0. -1.
         11    1    3    3    0    0  0.44344236232E+01 -0.46941591818E+01 -0.22616609510E+01  0.68421015641E+01  0.51100000000E-03 0. -1.
        -11    1    3    3    0    0 -0.32956385057E+01 -0.45079367171E+00 -0.44570774204E+00  0.33560547891E+01  0.51100000000E-03 0.  1.
        -12    1    3    3    0    0  0.16899929073E+01 -0.17818492662E+02  0.36141540184E+02  0.40330703981E+02  0.00000000000E+00 0.  1.
</event>
<event>
 7    1  0.5456331E-013  0.5052887E+02  0.7816164E-02  0.1300439E+00
        -11   -1    0    0    0    0  0.00000000000E+00  0.00000000000E+00  0.45593999997E+02  0.45594000000E+02  0.51100000000E-03 0.  1.
         11   -1    0    0    0    0 -0.00000000000E+00 -0.00000000000E+00 -0.45593999997E+02  0.45594000000E+02  0.51100000000E-03 0. -1.
    9900012    2    1    2    0    0 -0.11659637234E+02 -0.15618516039E+01  0.38920153948E+02  0.50528869362E+02  0.30000028913E+02 0.  0.
         12    1    1    2    0    0  0.11659637234E+02  0.15618516039E+01 -0.38920153948E+02  0.40659130638E+02  0.00000000000E+00 0. -1.
         11    1    3    3    0    0 -0.26401516383E+01 -0.65729022884E+01  0.74771248142E+00  0.71226764199E+01  0.51100000000E-03 0. -1.
        -11    1    3    3    0    0  0.41962109639E+01 -0.12630636857E+01  0.17760381142E+02  0.18293022027E+02  0.51100000000E-03 0.  1.
         12    1    3    3    0    0 -0.13215696560E+02  0.62741143702E+01  0.20412060325E+02  0.25113170915E+02  0.00000000000E+00 0. -1.
</event>
<event>
 7    1  0.5456331E-013  0.5052886E+02  0.7816164E-02  0.1300439E+00
        -11   -1    0    0    0    0  0.00000000000E+00  0.00000000000E+00  0.45593999997E+02  0.45594000000E+02  0.51100000000E-03 0.  1.
         11   -1    0    0    0    0 -0.00000000000E+00 -0.00000000000E+00 -0.45593999997E+02  0.45594000000E+02  0.51100000000E-03 0. -1.
    9900012    2    1    2    0    0  0.19352042014E+02 -0.11641440666E+02  0.33810364647E+02  0.50528862915E+02  0.30000009318E+02 0.  0.
         12    1    1    2    0    0 -0.19352042014E+02  0.11641440666E+02 -0.33810364647E+02  0.40659137085E+02  0.00000000000E+00 0. -1.
         11    1    3    3    0    0  0.11582429180E+02 -0.34327235027E+01  0.67720223400E+01  0.13849062899E+02  0.51100000000E-03 0. -1.
        -11    1    3    3    0    0  0.64211584034E+01  0.45189751954E+01  0.21209175229E+02  0.22615957336E+02  0.51100000000E-03 0.  1.
        -12    1    3    3    0    0  0.13484544312E+01 -0.12727692358E+02  0.58291670779E+01  0.14063842681E+02  0.00000000000E+00 0.  1.
</event>
<event>
 7    1  0.5456331E-013  0.5052885E+02  0.7816164E-02  0.1300439E+00
        -11   -1    0    0    0    0  0.00000000000E+00  0.00000000000E+00  0.45593999997E+02  0.45594000000E+02  0.51100000000E-03 0. -1.
         11   -1    0    0    0    0 -0.00000000000E+00 -0.00000000000E+00 -0.45593999997E+02  0.45594000000E+02  0.51100000000E-03 0.  1.
    9900012    2    1    2    0    0  0.16220067252E+02  0.19706344382E+02 -0.31650211260E+02  0.50528850189E+02  0.29999970635E+02 0.  0.
         12    1    1    2    0    0 -0.16220067252E+02 -0.19706344382E+02  0.31650211260E+02  0.40659149811E+02  0.00000000000E+00 0. -1.
         11    1    3    3    0    0  0.46789922146E+00  0.23230093747E+01 -0.13406121450E+02  0.13613941194E+02  0.51100000000E-03 0. -1.
        -11    1    3    3    0    0  0.62462070211E+01  0.73149837477E+01 -0.20724231095E+02  0.22847709822E+02  0.51100000000E-03 0.  1.
         12    1    3    3    0    0  0.95059610090E+01  0.10068351259E+02  0.24801412846E+01  0.14067199173E+02  0.00000000000E+00 0. -1.
</event>
<event>
 7    1  0.5456331E-013  0.5052894E+02  0.7816164E-02  0.1300438E+00
        -11   -1    0    0    0    0  0.00000000000E+00  0.00000000000E+00  0.45593999997E+02  0.45594000000E+02  0.51100000000E-03 0.  1.
         11   -1    0    0    0    0 -0.00000000000E+00 -0.00000000000E+00 -0.45593999997E+02  0.45594000000E+02  0.51100000000E-03 0. -1.
    9900012    2    1    2    0    0 -0.31083416753E+02  0.26042217995E+02 -0.29635971893E+01  0.50528944140E+02  0.30000256207E+02 0.  0.
         12    1    1    2    0    0  0.31083416753E+02 -0.26042217995E+02  0.29635971893E+01  0.40659055860E+02  0.00000000000E+00 0. -1.
         11    1    3    3    0    0 -0.10296275285E+02 -0.77838728063E+00  0.27995310049E+01  0.10698436596E+02  0.51100000000E-03 0. -1.
        -11    1    3    3    0    0  0.21872342951E+01  0.10981357053E+02  0.58483610214E+00  0.11212324920E+02  0.51100000000E-03 0.  1.
         12    1    3    3    0    0 -0.22974375764E+02  0.15839248222E+02 -0.63479642963E+01  0.28618182624E+02  0.00000000000E+00 0. -1.
</event>
<event>
 7    1  0.5456331E-013  0.5052886E+02  0.7816164E-02  0.1300439E+00
        -11   -1    0    0    0    0  0.00000000000E+00  0.00000000000E+00  0.45593999997E+02  0.45594000000E+02  0.51100000000E-03 0.  1.
         11   -1    0    0    0    0 -0.00000000000E+00 -0.00000000000E+00 -0.45593999997E+02  0.45594000000E+02  0.51100000000E-03 0. -1.
    9900012    2    1    2    0    0 -0.17807441239E+02 -0.36514109340E+02  0.16675021315E+01  0.50528859481E+02  0.29999998878E+02 0.  0.
         12    1    1    2    0    0  0.17807441239E+02  0.36514109340E+02 -0.16675021315E+01  0.40659140519E+02  0.00000000000E+00 0. -1.
         11    1    3    3    0    0 -0.39762795884E+01 -0.39219080874E+01  0.46794097394E+01  0.72862224905E+01  0.51100000000E-03 0. -1.
        -11    1    3    3    0    0  0.19725686000E+01 -0.10021806945E+01  0.63300089557E+01  0.67055504372E+01  0.51100000000E-03 0.  1.
        -12    1    3    3    0    0 -0.15803730250E+02 -0.31590020558E+02 -0.93419165636E+01  0.36537086553E+02  0.00000000000E+00 0.  1.
</event>
<event>
 7    1  0.5456331E-013  0.5052886E+02  0.7816164E-02  0.1300439E+00
        -11   -1    0    0    0    0  0.00000000000E+00  0.00000000000E+00  0.45593999997E+02  0.45594000000E+02  0.51100000000E-03 0.  1.
         11   -1    0    0    0    0 -0.00000000000E+00 -0.00000000000E+00 -0.45593999997E+02  0.45594000000E+02  0.51100000000E-03 0. -1.
    9900012    2    1    2    0    0 -0.20189283957E+01 -0.10315838467E+02  0.39276877539E+02  0.50528859523E+02  0.29999999006E+02 0.  0.
         12    1    1    2    0    0  0.20189283957E+01  0.10315838467E+02 -0.39276877539E+02  0.40659140477E+02  0.00000000000E+00 0. -1.
         11    1    3    3    0    0  0.90936256432E+01 -0.14749437294E+02  0.24007542612E+02  0.29607465788E+02  0.51100000000E-03 0. -1.
        -11    1    3    3    0    0  0.91543527192E+00  0.32249735823E+00  0.33797024842E+01  0.35163070722E+01  0.51100000000E-03 0.  1.
        -12    1    3    3    0    0 -0.12027989311E+02  0.41111014686E+01  0.11889632442E+02  0.17405086663E+02  0.00000000000E+00 0.  1.
</event>
<event>
 7    1  0.5456331E-013  0.5052889E+02  0.7816164E-02  0.1300439E+00
        -11   -1    0    0    0    0  0.00000000000E+00  0.00000000000E+00  0.45593999997E+02  0.45594000000E+02  0.51100000000E-03 0.  1.
         11   -1    0    0    0    0 -0.00000000000E+00 -0.00000000000E+00 -0.45593999997E+02  0.45594000000E+02  0.51100000000E-03 0. -1.
    9900012    2    1    2    0    0  0.24190658622E+01  0.26820627002E+02  0.30462521423E+02  0.50528891256E+02  0.30000095461E+02 0.  0.
         12    1    1    2    0    0 -0.24190658622E+01 -0.26820627002E+02 -0.30462521423E+02  0.40659108744E+02  0.00000000000E+00 0. -1.
         11    1    3    3    0    0 -0.38850603529E+01 -0.23351866310E+01  0.71242771730E+01  0.84440580319E+01  0.51100000000E-03 0. -1.
        -11    1    3    3    0    0  0.10190013331E+02  0.80350055095E+01  0.12547319709E+02  0.18050842567E+02  0.51100000000E-03 0.  1.
         12    1    3    3    0    0 -0.38858871162E+01  0.21120808123E+02  0.10790924541E+02  0.24033990657E+02  0.00000000000E+00 0. -1.
</event>
<event>
 7    1  0.5456331E-013  0.5052886E+02  0.7816164E-02  0.1300439E+00
        -11   -1    0    0    0    0  0.00000000000E+00  0.00000000000E+00  0.45593999997E+02  0.45594000000E+02  0.51100000000E-03 0. -1.
         11   -1    0    0    0    0 -0.00000000000E+00 -0.00000000000E+00 -0.45593999997E+02  0.45594000000E+02  0.51100000000E-03 0.  1.
    9900012    2    1    2    0    0  0.70617361151E+01  0.40037689438E+02  0.52995210802E+00  0.50528861523E+02  0.30000005085E+02 0.  0.
         12    1    1    2    0    0 -0.70617361151E+01 -0.40037689438E+02 -0.52995210802E+00  0.40659138477E+02  0.00000000000E+00 0. -1.
         11    1    3    3    0    0  0.20581832244E+01  0.25051266869E+01  0.92581864347E+01  0.98094747170E+01  0.51100000000E-03 0. -1.
        -11    1    3    3    0    0 -0.21163399786E+01  0.84551797273E+00 -0.12765977621E+01  0.26121825462E+01  0.51100000000E-03 0.  1.
        -12    1    3    3    0    0  0.71198928693E+01  0.36687044778E+02 -0.74516365646E+01  0.38107204260E+02  0.00000000000E+00 0.  1.
</event>
<event>
 7    1  0.5456331E-013  0.5052886E+02  0.7816164E-02  0.1300439E+00
        -11   -1    0    0    0    0  0.00000000000E+00  0.00000000000E+00  0.45593999997E+02  0.45594000000E+02  0.51100000000E-03 0. -1.
         11   -1    0    0    0    0 -0.00000000000E+00 -0.00000000000E+00 -0.45593999997E+02  0.45594000000E+02  0.51100000000E-03 0.  1.
    9900012    2    1    2    0    0 -0.34304741863E+02 -0.10803762861E+02 -0.18963882611E+02  0.50528862651E+02  0.30000008515E+02 0.  0.
         12    1    1    2    0    0  0.34304741863E+02  0.10803762861E+02  0.18963882611E+02  0.40659137349E+02  0.00000000000E+00 0. -1.
         11    1    3    3    0    0 -0.10202711029E+02 -0.15097998656E+02 -0.10921813013E+02  0.21244549313E+02  0.51100000000E-03 0. -1.
        -11    1    3    3    0    0 -0.13485460516E+02  0.11445005856E+01 -0.11418212975E+02  0.17707148690E+02  0.51100000000E-03 0.  1.
        -12    1    3    3    0    0 -0.10616570318E+02  0.31497352090E+01  0.33761433768E+01  0.11577164649E+02  0.00000000000E+00 0.  1.
</event>
<event>
 7    1  0.5456331E-013  0.5052886E+02  0.7816164E-02  0.1300439E+00
        -11   -1    0    0    0    0  0.00000000000E+00  0.00000000000E+00  0.45593999997E+02  0.45594000000E+02  0.51100000000E-03 0.  1.
         11   -1    0    0    0    0 -0.00000000000E+00 -0.00000000000E+00 -0.45593999997E+02  0.45594000000E+02  0.51100000000E-03 0. -1.
    9900012    2    1    2    0    0  0.30363166884E+02  0.27038797691E+02 -0.38315831087E+00  0.50528864568E+02  0.30000014341E+02 0.  0.
         12    1    1    2    0    0 -0.30363166884E+02 -0.27038797691E+02  0.38315831087E+00  0.40659135432E+02  0.00000000000E+00 0. -1.
         11    1    3    3    0    0  0.55278124707E+01 -0.52764750920E+01  0.36231486078E+00  0.76504360939E+01  0.51100000000E-03 0. -1.
        -11    1    3    3    0    0  0.29058665995E+01  0.27283833722E+01  0.41176924771E+01  0.57309273348E+01  0.51100000000E-03 0.  1.
         12    1    3    3    0    0  0.21929487814E+02  0.29586889411E+02 -0.48631656487E+01  0.37147501139E+02  0.00000000000E+00 0. -1.
</event>
<event>
 7    1  0.5456331E-013  0.5052886E+02  0.7816164E-02  0.1300439E+00
        -11   -1    0    0    0    0  0.00000000000E+00  0.00000000000E+00  0.45593999997E+02  0.45594000000E+02  0.51100000000E-03 0.  1.
         11   -1    0    0    0    0 -0.00000000000E+00 -0.00000000000E+00 -0.45593999997E+02  0.45594000000E+02  0.51100000000E-03 0. -1.
    9900012    2    1    2    0    0 -0.26484497682E+02  0.26033638972E+02  0.16552545895E+02  0.50528858946E+02  0.29999997253E+02 0.  0.
         12    1    1    2    0    0  0.26484497682E+02 -0.26033638972E+02 -0.16552545895E+02  0.40659141054E+02  0.00000000000E+00 0. -1.
         11    1    3    3    0    0  0.76191477364E+00 -0.20160236395E+01  0.35692588652E+01  0.41694693362E+01  0.51100000000E-03 0. -1.
        -11    1    3    3    0    0  0.10211720989E+00 -0.55519723639E+00  0.61777649634E+01  0.62035032119E+01  0.51100000000E-03 0.  1.
        -12    1    3    3    0    0 -0.27348529666E+02  0.28604859848E+02  0.68055220663E+01  0.40155886398E+02  0.00000000000E+00 0.  1.
</event>
<event>
 7    1  0.5456331E-013  0.5052886E+02  0.7816164E-02  0.1300439E+00
        -11   -1    0    0    0    0  0.00000000000E+00  0.00000000000E+00  0.45593999997E+02  0.45594000000E+02  0.51100000000E-03 0.  1.
         11   -1    0    0    0    0 -0.00000000000E+00 -0.00000000000E+00 -0.45593999997E+02  0.45594000000E+02  0.51100000000E-03 0. -1.
    9900012    2    1    2    0    0 -0.39600633960E+02 -0.87648408306E+01 -0.28517828949E+01  0.50528864366E+02  0.30000013728E+02 0.  0.
         12    1    1    2    0    0  0.39600633960E+02  0.87648408306E+01  0.28517828949E+01  0.40659135634E+02  0.00000000000E+00 0. -1.
         11    1    3    3    0    0 -0.30347817237E+01  0.36084898464E+01  0.15075933680E+01  0.49501451601E+01  0.51100000000E-03 0. -1.
        -11    1    3    3    0    0 -0.26963947446E+02  0.22253850137E+01  0.16369239771E+01  0.27105097689E+02  0.51100000000E-03 0.  1.
        -12    1    3    3    0    0 -0.96019047898E+01 -0.14598715691E+02 -0.59963002400E+01  0.18473621518E+02  0.00000000000E+00 0.  1.
</event>
<event>
 7    1  0.5456331E-013  0.5052886E+02  0.7816164E-02  0.1300439E+00
        -11   -1    0    0    0    0  0.00000000000E+00  0.00000000000E+00  0.45593999997E+02  0.45594000000E+02  0.51100000000E-03 0.  1.
         11   -1    0    0    0    0 -0.00000000000E+00 -0.00000000000E+00 -0.45593999997E+02  0.45594000000E+02  0.51100000000E-03 0. -1.
    9900012    2    1    2    0    0  0.29847476821E+02 -0.27407655705E+02 -0.33337906889E+01  0.50528860509E+02  0.30000002002E+02 0.  0.
         12    1    1    2    0    0 -0.29847476821E+02  0.27407655705E+02  0.33337906889E+01  0.40659139491E+02  0.00000000000E+00 0. -1.
         11    1    3    3    0    0  0.19035848200E+02 -0.31648586108E+01 -0.42473530147E+01  0.19759044881E+02  0.51100000000E-03 0. -1.
        -11    1    3    3    0    0  0.13363496555E+02 -0.14265288345E+02 -0.29540359906E+01  0.19768859872E+02  0.51100000000E-03 0.  1.
         12    1    3    3    0    0 -0.25518679342E+01 -0.99775087496E+01  0.38675983164E+01  0.11000955756E+02  0.00000000000E+00 0. -1.
</event>
<event>
 7    1  0.5920075E-013  0.5052886E+02  0.7816164E-02  0.1300439E+00
        -11   -1    0    0    0    0  0.00000000000E+00  0.00000000000E+00  0.45593999997E+02  0.45594000000E+02  0.51100000000E-03 0. -1.
         11   -1    0    0    0    0 -0.00000000000E+00 -0.00000000000E+00 -0.45593999997E+02  0.45594000000E+02  0.51100000000E-03 0.  1.
    9900012    2    1    2    0    0  0.25785778238E+02  0.53790718017E+01 -0.30972975592E+02  0.50528856012E+02  0.29999988335E+02 0.  0.
         12    1    1    2    0    0 -0.25785778238E+02 -0.53790718017E+01  0.30972975592E+02  0.40659143988E+02  0.00000000000E+00 0. -1.
         11    1    3    3    0    0  0.50055720135E+01  0.36135941838E+01  0.25283847373E+01  0.66713224887E+01  0.51100000000E-03 0. -1.
        -11    1    3    3    0    0  0.19765551618E+02  0.83236054997E+01 -0.23112989470E+02  0.31530457050E+02  0.51100000000E-03 0.  1.
         12    1    3    3    0    0  0.10146546066E+01 -0.65581278818E+01 -0.10388370859E+02  0.12327076473E+02  0.00000000000E+00 0. -1.
</event>
<event>
 7    1  0.5456331E-013  0.5052886E+02  0.7816164E-02  0.1300439E+00
        -11   -1    0    0    0    0  0.00000000000E+00  0.00000000000E+00  0.45593999997E+02  0.45594000000E+02  0.51100000000E-03 0.  1.
         11   -1    0    0    0    0 -0.00000000000E+00 -0.00000000000E+00 -0.45593999997E+02  0.45594000000E+02  0.51100000000E-03 0. -1.
    9900012    2    1    2    0    0  0.27396802057E+02 -0.11713960430E+02  0.27665208232E+02  0.50528863531E+02  0.30000011188E+02 0.  0.
         12    1    1    2    0    0 -0.27396802057E+02  0.11713960430E+02 -0.27665208232E+02  0.40659136469E+02  0.00000000000E+00 0. -1.
         11    1    3    3    0    0  0.78765484265E+01 -0.61886524786E+01  0.27892192787E+01  0.10398037270E+02  0.51100000000E-03 0. -1.
        -11    1    3    3    0    0  0.15483428502E+02 -0.14726469736E+02  0.18187500588E+02  0.28060481944E+02  0.51100000000E-03 0.  1.
        -12    1    3    3    0    0  0.40368251288E+01  0.92011617847E+01  0.66884883656E+01  0.12070344317E+02  0.00000000000E+00 0.  1.
</event>
<event>
 7    1  0.5456331E-013  0.5052884E+02  0.7816164E-02  0.1300439E+00
        -11   -1    0    0    0    0  0.00000000000E+00  0.00000000000E+00  0.45593999997E+02  0.45594000000E+02  0.51100000000E-03 0.  1.
         11   -1    0    0    0    0 -0.00000000000E+00 -0.00000000000E+00 -0.45593999997E+02  0.45594000000E+02  0.51100000000E-03 0. -1.
    9900012    2    1    2    0    0 -0.32057099457E+02  0.24903334055E+02 -0.23094253084E+01  0.50528842140E+02  0.29999946168E+02 0.  0.
         12    1    1    2    0    0  0.32057099457E+02 -0.24903334055E+02  0.23094253084E+01  0.40659157860E+02  0.00000000000E+00 0. -1.
         11    1    3    3    0    0 -0.23549562112E+01  0.17989069515E+01  0.45455167730E+01  0.54261964553E+01  0.51100000000E-03 0. -1.
        -11    1    3    3    0    0 -0.25724495058E+02  0.14681420009E+02  0.49870758426E+01  0.30036056086E+02  0.51100000000E-03 0.  1.
        -12    1    3    3    0    0 -0.39776481873E+01  0.84230070943E+01 -0.11842017924E+02  0.15066589598E+02  0.00000000000E+00 0.  1.
</event>
<event>
 7    1  0.5456331E-013  0.5052888E+02  0.7816164E-02  0.1300439E+00
        -11   -1    0    0    0    0  0.00000000000E+00  0.00000000000E+00  0.45593999997E+02  0.45594000000E+02  0.51100000000E-03 0.  1.
         11   -1    0    0    0    0 -0.00000000000E+00 -0.00000000000E+00 -0.45593999997E+02  0.45594000000E+02  0.51100000000E-03 0. -1.
    9900012    2    1    2    0    0 -0.41199483700E+01 -0.56845463273E+01  0.40048422583E+02  0.50528878110E+02  0.30000055502E+02 0.  0.
         12    1    1    2    0    0  0.41199483700E+01  0.56845463273E+01 -0.40048422583E+02  0.40659121890E+02  0.00000000000E+00 0. -1.
         11    1    3    3    0    0  0.73906910098E+01  0.11572434999E+01  0.48271284422E+01  0.89029599224E+01  0.51100000000E-03 0. -1.
        -11    1    3    3    0    0  0.26108327838E+01  0.27615650459E+00 -0.39663142190E+00  0.26551886912E+01  0.51100000000E-03 0.  1.
        -12    1    3    3    0    0 -0.14121472164E+02 -0.71179463319E+01  0.35617925563E+02  0.38970729496E+02  0.00000000000E+00 0.  1.
</event>
<event>
 7    1  0.5456331E-013  0.5052887E+02  0.7816164E-02  0.1300439E+00
        -11   -1    0    0    0    0  0.00000000000E+00  0.00000000000E+00  0.45593999997E+02  0.45594000000E+02  0.51100000000E-03 0.  1.
         11   -1    0    0    0    0 -0.00000000000E+00 -0.00000000000E+00 -0.45593999997E+02  0.45594000000E+02  0.51100000000E-03 0. -1.
    9900012    2    1    2    0    0  0.43070998468E+01 -0.24568189604E+02  0.32109464042E+02  0.50528871497E+02  0.30000035403E+02 0.  0.
         12    1    1    2    0    0 -0.43070998468E+01  0.24568189604E+02 -0.32109464042E+02  0.40659128503E+02  0.00000000000E+00 0. -1.
         11    1    3    3    0    0 -0.73602405741E+00  0.89898398705E+00  0.64255652701E+01  0.65297620878E+01  0.51100000000E-03 0. -1.
        -11    1    3    3    0    0 -0.31955408170E+01  0.29600976253E+01  0.90606344955E+01  0.10053295817E+02  0.51100000000E-03 0.  1.
        -12    1    3    3    0    0  0.82386647212E+01 -0.28427271217E+02  0.16623264277E+02  0.33945813592E+02  0.00000000000E+00 0.  1.
</event>
<event>
 7    1  0.5456331E-013  0.5052885E+02  0.7816164E-02  0.1300439E+00
        -11   -1    0    0    0    0  0.00000000000E+00  0.00000000000E+00  0.45593999997E+02  0.45594000000E+02  0.51100000000E-03 0.  1.
         11   -1    0    0    0    0 -0.00000000000E+00 -0.00000000000E+00 -0.45593999997E+02  0.45594000000E+02  0.51100000000E-03 0. -1.
    9900012    2    1    2    0    0  0.29260037874E+02  0.28142821692E+02  0.22357140421E+01  0.50528847937E+02  0.29999963790E+02 0.  0.
         12    1    1    2    0    0 -0.29260037874E+02 -0.28142821692E+02 -0.22357140421E+01  0.40659152063E+02  0.00000000000E+00 0. -1.
         11    1    3    3    0    0 -0.84826017436E+00  0.11023898358E+01 -0.53120171201E+01  0.54911141692E+01  0.51100000000E-03 0. -1.
        -11    1    3    3    0    0 -0.16371585707E+01  0.62225130297E+01  0.88446294737E+00  0.64947849508E+01  0.51100000000E-03 0.  1.
         12    1    3    3    0    0  0.31745456619E+02  0.20817918827E+02  0.66632682148E+01  0.38542948817E+02  0.00000000000E+00 0. -1.
</event>
<event>
 7    1  0.5456331E-013  0.5052886E+02  0.7816164E-02  0.1300439E+00
        -11   -1    0    0    0    0  0.00000000000E+00  0.00000000000E+00  0.45593999997E+02  0.45594000000E+02  0.51100000000E-03 0.  1.
         11   -1    0    0    0    0 -0.00000000000E+00 -0.00000000000E+00 -0.45593999997E+02  0.45594000000E+02  0.51100000000E-03 0. -1.
    9900012    2    1    2    0    0 -0.37857307699E+02  0.33980869303E+01  0.14437560691E+02  0.50528857120E+02  0.29999991702E+02 0.  0.
         12    1    1    2    0    0  0.37857307699E+02 -0.33980869303E+01 -0.14437560691E+02  0.40659142880E+02  0.00000000000E+00 0. -1.
         11    1    3    3    0    0 -0.44677245329E+01 -0.51928978016E+01  0.11783578387E+02  0.13630094275E+02  0.51100000000E-03 0. -1.
        -11    1    3    3    0    0 -0.55012079993E+01 -0.32727957171E+01 -0.54060183127E+00  0.64239187307E+01  0.51100000000E-03 0.  1.
         12    1    3    3    0    0 -0.27888375167E+02  0.11863780449E+02  0.31945841352E+01  0.30474844114E+02  0.00000000000E+00 0. -1.
</event>
<event>
 7    1  0.5456331E-013  0.5052885E+02  0.7816164E-02  0.1300439E+00
        -11   -1    0    0    0    0  0.00000000000E+00  0.00000000000E+00  0.45593999997E+02  0.45594000000E+02  0.51100000000E-03 0.  1.
         11   -1    0    0    0    0 -0.00000000000E+00 -0.00000000000E+00 -0.45593999997E+02  0.45594000000E+02  0.51100000000E-03 0. -1.
    9900012    2    1    2    0    0  0.12933656840E+02  0.19851686832E+02  0.33042355563E+02  0.50528853298E+02  0.29999980086E+02 0.  0.
         12    1    1    2    0    0 -0.12933656840E+02 -0.19851686832E+02 -0.33042355563E+02  0.40659146702E+02  0.00000000000E+00 0. -1.
         11    1    3    3    0    0  0.98478502785E-01 -0.30799568489E+00 -0.28056020319E+01  0.28241746369E+01  0.51100000000E-03 0. -1.
        -11    1    3    3    0    0  0.97394784831E+01 -0.19390382834E-01  0.56692263760E+01  0.11269336497E+02  0.51100000000E-03 0.  1.
        -12    1    3    3    0    0  0.30956998546E+01  0.20179072900E+02  0.30178731219E+02  0.36435342165E+02  0.00000000000E+00 0.  1.
</event>
<event>
 7    1  0.5456331E-013  0.5052886E+02  0.7816164E-02  0.1300439E+00
        -11   -1    0    0    0    0  0.00000000000E+00  0.00000000000E+00  0.45593999997E+02  0.45594000000E+02  0.51100000000E-03 0. -1.
         11   -1    0    0    0    0 -0.00000000000E+00 -0.00000000000E+00 -0.45593999997E+02  0.45594000000E+02  0.51100000000E-03 0.  1.
    9900012    2    1    2    0    0 -0.26319813406E+02  0.23867160294E+02 -0.19768450851E+02  0.50528861209E+02  0.30000004130E+02 0.  0.
         12    1    1    2    0    0  0.26319813406E+02 -0.23867160294E+02  0.19768450851E+02  0.40659138791E+02  0.00000000000E+00 0. -1.
         11    1    3    3    0    0 -0.74828062522E+01  0.15727748642E+02  0.38734040303E+01  0.17842581814E+02  0.51100000000E-03 0. -1.
        -11    1    3    3    0    0 -0.86502825904E+01  0.65657218561E+01 -0.64203272013E+01  0.12615732005E+02  0.51100000000E-03 0.  1.
        -12    1    3    3    0    0 -0.10186724563E+02  0.15736897965E+01 -0.17221527680E+02  0.20070547390E+02  0.00000000000E+00 0.  1.
</event>
<event>
 7    1  0.5456331E-013  0.5052886E+02  0.7816164E-02  0.1300439E+00
        -11   -1    0    0    0    0  0.00000000000E+00  0.00000000000E+00  0.45593999997E+02  0.45594000000E+02  0.51100000000E-03 0. -1.
         11   -1    0    0    0    0 -0.00000000000E+00 -0.00000000000E+00 -0.45593999997E+02  0.45594000000E+02  0.51100000000E-03 0.  1.
    9900012    2    1    2    0    0  0.30354459471E+02 -0.21013187197E+01 -0.26969554110E+02  0.50528860818E+02  0.30000002942E+02 0.  0.
         12    1    1    2    0    0 -0.30354459471E+02  0.21013187197E+01  0.26969554110E+02  0.40659139182E+02  0.00000000000E+00 0. -1.
         11    1    3    3    0    0  0.56695367904E+01 -0.34217202978E+00  0.67417710611E+00  0.57197241321E+01  0.51100000000E-03 0. -1.
        -11    1    3    3    0    0  0.36006490102E+01  0.89909603026E+01 -0.19553165847E+01  0.98805517895E+01  0.51100000000E-03 0.  1.
        -12    1    3    3    0    0  0.21084273670E+02 -0.10750106993E+02 -0.25688414632E+02  0.34928584896E+02  0.00000000000E+00 0.  1.
</event>
<event>
 7    1  0.5456331E-013  0.5052885E+02  0.7816164E-02  0.1300439E+00
        -11   -1    0    0    0    0  0.00000000000E+00  0.00000000000E+00  0.45593999997E+02  0.45594000000E+02  0.51100000000E-03 0.  1.
         11   -1    0    0    0    0 -0.00000000000E+00 -0.00000000000E+00 -0.45593999997E+02  0.45594000000E+02  0.51100000000E-03 0. -1.
    9900012    2    1    2    0    0  0.33254633563E+02 -0.17295571428E+02  0.15753064681E+02  0.50528849846E+02  0.29999969591E+02 0.  0.
         12    1    1    2    0    0 -0.33254633563E+02  0.17295571428E+02 -0.15753064681E+02  0.40659150154E+02  0.00000000000E+00 0. -1.
         11    1    3    3    0    0  0.51383024851E+01 -0.63885741542E+01 -0.79111783557E+01  0.11393102097E+02  0.51100000000E-03 0. -1.
        -11    1    3    3    0    0  0.16402778486E+02 -0.94999771102E+01  0.11405312278E+02  0.22121976756E+02  0.51100000000E-03 0.  1.
        -12    1    3    3    0    0  0.11713552591E+02 -0.14070201639E+01  0.12258930759E+02  0.17013770993E+02  0.00000000000E+00 0.  1.
</event>
<event>
 7    1  0.5456331E-013  0.5052893E+02  0.7816164E-02  0.1300439E+00
        -11   -1    0    0    0    0  0.00000000000E+00  0.00000000000E+00  0.45593999997E+02  0.45594000000E+02  0.51100000000E-03 0.  1.
         11   -1    0    0    0    0 -0.00000000000E+00 -0.00000000000E+00 -0.45593999997E+02  0.45594000000E+02  0.51100000000E-03 0. -1.
    9900012    2    1    2    0    0  0.18485776298E+02 -0.31547131964E+02  0.17782423072E+02  0.50528929293E+02  0.30000211078E+02 0.  0.
         12    1    1    2    0    0 -0.18485776298E+02  0.31547131964E+02 -0.17782423072E+02  0.40659070707E+02  0.00000000000E+00 0. -1.
         11    1    3    3    0    0 -0.11295533343E+01 -0.16363568897E+01 -0.21092871015E+00  0.19995113871E+01  0.51100000000E-03 0. -1.
        -11    1    3    3    0    0  0.14122078332E+02  0.36690175389E+00  0.76527231184E+01  0.16066483271E+02  0.51100000000E-03 0.  1.
        -12    1    3    3    0    0  0.54932513004E+01 -0.30277676828E+02  0.10340628663E+02  0.32462934635E+02  0.00000000000E+00 0.  1.
</event>
<event>
 7    1  0.5456331E-013  0.5052886E+02  0.7816164E-02  0.1300439E+00
        -11   -1    0    0    0    0  0.00000000000E+00  0.00000000000E+00  0.45593999997E+02  0.45594000000E+02  0.51100000000E-03 0.  1.
         11   -1    0    0    0    0 -0.00000000000E+00 -0.00000000000E+00 -0.45593999997E+02  0.45594000000E+02  0.51100000000E-03 0. -1.
    9900012    2    1    2    0    0  0.21641453018E+02 -0.11295916107E+02  0.32514855076E+02  0.50528855764E+02  0.29999987581E+02 0.  0.
         12    1    1    2    0    0 -0.21641453018E+02  0.11295916107E+02 -0.32514855076E+02  0.40659144236E+02  0.00000000000E+00 0. -1.
         11    1    3    3    0    0  0.11640162908E+02  0.15745671069E+01  0.47602846987E+01  0.12674106074E+02  0.51100000000E-03 0. -1.
        -11    1    3    3    0    0  0.11246652059E+02  0.13254440943E+01  0.10169372789E+02  0.15220385270E+02  0.51100000000E-03 0.  1.
         12    1    3    3    0    0 -0.12453619488E+01 -0.14195927308E+02  0.17585197587E+02  0.22634364420E+02  0.00000000000E+00 0. -1.
</event>
<event>
 7    1  0.5456331E-013  0.5052886E+02  0.7816164E-02  0.1300439E+00
        -11   -1    0    0    0    0  0.00000000000E+00  0.00000000000E+00  0.45593999997E+02  0.45594000000E+02  0.51100000000E-03 0. -1.
         11   -1    0    0    0    0 -0.00000000000E+00 -0.00000000000E+00 -0.45593999997E+02  0.45594000000E+02  0.51100000000E-03 0.  1.
    9900012    2    1    2    0    0 -0.83677759948E+01  0.30888133428E+02 -0.25081248448E+02  0.50528862214E+02  0.30000007185E+02 0.  0.
         12    1    1    2    0    0  0.83677759948E+01 -0.30888133428E+02  0.25081248448E+02  0.40659137786E+02  0.00000000000E+00 0. -1.
         11    1    3    3    0    0  0.34795265075E+01 -0.18850312494E+01 -0.21949489606E+01  0.45252899055E+01  0.51100000000E-03 0. -1.
        -11    1    3    3    0    0 -0.31529990188E+01  0.12487539875E+02 -0.19939554934E+02  0.23737436807E+02  0.51100000000E-03 0.  1.
         12    1    3    3    0    0 -0.86943034835E+01  0.20285624803E+02 -0.29467445544E+01  0.22266135502E+02  0.00000000000E+00 0. -1.
</event>
<event>
 7    1  0.5456331E-013  0.5052878E+02  0.7816164E-02  0.1300439E+00
        -11   -1    0    0    0    0  0.00000000000E+00  0.00000000000E+00  0.45593999997E+02  0.45594000000E+02  0.51100000000E-03 0.  1.
         11   -1    0    0    0    0 -0.00000000000E+00 -0.00000000000E+00 -0.45593999997E+02  0.45594000000E+02  0.51100000000E-03 0. -1.
    9900012    2    1    2    0    0  0.35564295907E+02 -0.17271385058E+02  0.94895833372E+01  0.50528781155E+02  0.29999760797E+02 0.  0.
         12    1    1    2    0    0 -0.35564295907E+02  0.17271385058E+02 -0.94895833372E+01  0.40659218845E+02  0.00000000000E+00 0. -1.
         11    1    3    3    0    0 -0.17681727977E+01 -0.12961429475E+01 -0.68533051692E+00  0.22969762213E+01  0.51100000000E-03 0.  1.
        -11    1    3    3    0    0  0.22943177932E+02 -0.19817718368E+02  0.22058112167E+00  0.30317981978E+02  0.51100000000E-03 0. -1.
        -12    1    3    3    0    0  0.14389290773E+02  0.38424762573E+01  0.99543327325E+01  0.17913822955E+02  0.00000000000E+00 0.  1.
</event>
<event>
 7    1  0.5456331E-013  0.5052886E+02  0.7816164E-02  0.1300439E+00
        -11   -1    0    0    0    0  0.00000000000E+00  0.00000000000E+00  0.45593999997E+02  0.45594000000E+02  0.51100000000E-03 0. -1.
         11   -1    0    0    0    0 -0.00000000000E+00 -0.00000000000E+00 -0.45593999997E+02  0.45594000000E+02  0.51100000000E-03 0.  1.
    9900012    2    1    2    0    0  0.21542830086E+02  0.29690706059E+02 -0.17536655282E+02  0.50528857942E+02  0.29999994200E+02 0.  0.
         12    1    1    2    0    0 -0.21542830086E+02 -0.29690706059E+02  0.17536655282E+02  0.40659142058E+02  0.00000000000E+00 0. -1.
         11    1    3    3    0    0  0.98560232921E+01  0.22732012200E+02 -0.10963931354E+02  0.27094157392E+02  0.51100000000E-03 0. -1.
        -11    1    3    3    0    0  0.12519324528E+02  0.13695610221E+01 -0.10628142148E+02  0.16479277587E+02  0.51100000000E-03 0.  1.
         12    1    3    3    0    0 -0.83251773362E+00  0.55891328374E+01  0.40554182199E+01  0.69554229626E+01  0.00000000000E+00 0. -1.
</event>
<event>
 7    1  0.5456331E-013  0.5052886E+02  0.7816164E-02  0.1300439E+00
        -11   -1    0    0    0    0  0.00000000000E+00  0.00000000000E+00  0.45593999997E+02  0.45594000000E+02  0.51100000000E-03 0.  1.
         11   -1    0    0    0    0 -0.00000000000E+00 -0.00000000000E+00 -0.45593999997E+02  0.45594000000E+02  0.51100000000E-03 0. -1.
    9900012    2    1    2    0    0  0.22875796324E+02  0.19950697534E+02  0.27052419134E+02  0.50528858709E+02  0.29999996531E+02 0.  0.
         12    1    1    2    0    0 -0.22875796324E+02 -0.19950697534E+02 -0.27052419134E+02  0.40659141291E+02  0.00000000000E+00 0. -1.
         11    1    3    3    0    0  0.78841094042E+00 -0.35978550766E+01 -0.28615159183E+01  0.46641640811E+01  0.51100000000E-03 0. -1.
        -11    1    3    3    0    0  0.76283901042E+01  0.75229837484E+01  0.18673968879E+02  0.21529160086E+02  0.51100000000E-03 0.  1.
        -12    1    3    3    0    0  0.14458995279E+02  0.16025568863E+02  0.11239966173E+02  0.24335534541E+02  0.00000000000E+00 0.  1.
</event>
<event>
 7    1  0.5456331E-013  0.5052885E+02  0.7816164E-02  0.1300439E+00
        -11   -1    0    0    0    0  0.00000000000E+00  0.00000000000E+00  0.45593999997E+02  0.45594000000E+02  0.51100000000E-03 0.  1.
         11   -1    0    0    0    0 -0.00000000000E+00 -0.00000000000E+00 -0.45593999997E+02  0.45594000000E+02  0.51100000000E-03 0. -1.
    9900012    2    1    2    0    0  0.25336767507E+02  0.16146089953E+02  0.27395590468E+02  0.50528851146E+02  0.29999973542E+02 0.  0.
         12    1    1    2    0    0 -0.25336767507E+02 -0.16146089953E+02 -0.27395590468E+02  0.40659148854E+02  0.00000000000E+00 0. -1.
         11    1    3    3    0    0 -0.29011807978E+01  0.39381665240E+01  0.15958329831E+01  0.51451616849E+01  0.51100000000E-03 0. -1.
        -11    1    3    3    0    0 -0.23773852074E+01  0.54763811580E+01  0.35895771872E+01  0.69661880290E+01  0.51100000000E-03 0.  1.
        -12    1    3    3    0    0  0.30615333512E+02  0.67315422714E+01  0.22210180298E+02  0.38417501432E+02  0.00000000000E+00 0.  1.
</event>
<event>
 7    1  0.5456331E-013  0.5052885E+02  0.7816164E-02  0.1300439E+00
        -11   -1    0    0    0    0  0.00000000000E+00  0.00000000000E+00  0.45593999997E+02  0.45594000000E+02  0.51100000000E-03 0.  1.
         11   -1    0    0    0    0 -0.00000000000E+00 -0.00000000000E+00 -0.45593999997E+02  0.45594000000E+02  0.51100000000E-03 0. -1.
    9900012    2    1    2    0    0  0.34345534929E+02  0.15240386461E+02  0.15533240393E+02  0.50528847203E+02  0.29999961559E+02 0.  0.
         12    1    1    2    0    0 -0.34345534929E+02 -0.15240386461E+02 -0.15533240393E+02  0.40659152797E+02  0.00000000000E+00 0. -1.
         11    1    3    3    0    0  0.17124562419E+02  0.54196137438E+01 -0.33653128319E+01  0.18274249147E+02  0.51100000000E-03 0. -1.
        -11    1    3    3    0    0  0.87346206358E+01  0.11699319996E+02  0.42238232714E+01  0.15198959481E+02  0.51100000000E-03 0.  1.
        -12    1    3    3    0    0  0.84863518741E+01 -0.18785472781E+01  0.14674729953E+02  0.17055638575E+02  0.00000000000E+00 0.  1.
</event>
<event>
 7    1  0.5456331E-013  0.5052886E+02  0.7816164E-02  0.1300439E+00
        -11   -1    0    0    0    0  0.00000000000E+00  0.00000000000E+00  0.45593999997E+02  0.45594000000E+02  0.51100000000E-03 0. -1.
         11   -1    0    0    0    0 -0.00000000000E+00 -0.00000000000E+00 -0.45593999997E+02  0.45594000000E+02  0.51100000000E-03 0.  1.
    9900012    2    1    2    0    0  0.12522536342E+01  0.34857685125E+02 -0.20893526484E+02  0.50528858342E+02  0.29999995416E+02 0.  0.
         12    1    1    2    0    0 -0.12522536342E+01 -0.34857685125E+02  0.20893526484E+02  0.40659141658E+02  0.00000000000E+00 0. -1.
         11    1    3    3    0    0  0.43037041907E+01  0.89979970669E+01 -0.10295049915E+02  0.14334359909E+02  0.51100000000E-03 0. -1.
        -11    1    3    3    0    0  0.89485703891E+01  0.78504929854E+01 -0.81250916874E+01  0.14412642621E+02  0.51100000000E-03 0.  1.
        -12    1    3    3    0    0 -0.12000020946E+02  0.18009195073E+02 -0.24733848809E+01  0.21781855812E+02  0.00000000000E+00 0.  1.
</event>
<event>
 7    1  0.5456331E-013  0.5052886E+02  0.7816164E-02  0.1300439E+00
        -11   -1    0    0    0    0  0.00000000000E+00  0.00000000000E+00  0.45593999997E+02  0.45594000000E+02  0.51100000000E-03 0.  1.
         11   -1    0    0    0    0 -0.00000000000E+00 -0.00000000000E+00 -0.45593999997E+02  0.45594000000E+02  0.51100000000E-03 0. -1.
    9900012    2    1    2    0    0  0.23385853599E+02  0.17250454144E+02  0.28437458928E+02  0.50528863425E+02  0.30000010866E+02 0.  0.
         12    1    1    2    0    0 -0.23385853599E+02 -0.17250454144E+02 -0.28437458928E+02  0.40659136575E+02  0.00000000000E+00 0. -1.
         11    1    3    3    0    0  0.15920582968E+01 -0.51532655414E+00  0.85263265349E+01  0.86889847231E+01  0.51100000000E-03 0. -1.
        -11    1    3    3    0    0  0.50129116637E+01 -0.30120930677E+01  0.12995877229E+02  0.14251133752E+02  0.51100000000E-03 0.  1.
         12    1    3    3    0    0  0.16780883639E+02  0.20777873766E+02  0.69152551641E+01  0.27588744950E+02  0.00000000000E+00 0. -1.
</event>
<event>
 7    1  0.5456331E-013  0.5052887E+02  0.7816164E-02  0.1300439E+00
        -11   -1    0    0    0    0  0.00000000000E+00  0.00000000000E+00  0.45593999997E+02  0.45594000000E+02  0.51100000000E-03 0.  1.
         11   -1    0    0    0    0 -0.00000000000E+00 -0.00000000000E+00 -0.45593999997E+02  0.45594000000E+02  0.51100000000E-03 0. -1.
    9900012    2    1    2    0    0 -0.22443685166E+02 -0.29011567943E+02  0.17543500650E+02  0.50528874414E+02  0.30000044270E+02 0.  0.
         12    1    1    2    0    0  0.22443685166E+02  0.29011567943E+02 -0.17543500650E+02  0.40659125586E+02  0.00000000000E+00 0. -1.
         11    1    3    3    0    0 -0.10669706955E+02 -0.10479684259E+02 -0.63207707430E+01  0.16236334923E+02  0.51100000000E-03 0. -1.
        -11    1    3    3    0    0 -0.59455117073E+01 -0.73689426701E+01  0.30177482098E+01  0.99376672341E+01  0.51100000000E-03 0.  1.
         12    1    3    3    0    0 -0.58284665041E+01 -0.11162941014E+02  0.20846523183E+02  0.24354872258E+02  0.00000000000E+00 0. -1.
</event>
<event>
 7    1  0.5456331E-013  0.5052888E+02  0.7816164E-02  0.1300439E+00
        -11   -1    0    0    0    0  0.00000000000E+00  0.00000000000E+00  0.45593999997E+02  0.45594000000E+02  0.51100000000E-03 0.  1.
         11   -1    0    0    0    0 -0.00000000000E+00 -0.00000000000E+00 -0.45593999997E+02  0.45594000000E+02  0.51100000000E-03 0. -1.
    9900012    2    1    2    0    0 -0.93633043888E+01  0.90533891225E+00  0.39555951036E+02  0.50528875932E+02  0.30000048884E+02 0.  0.
         12    1    1    2    0    0  0.93633043888E+01 -0.90533891225E+00 -0.39555951036E+02  0.40659124068E+02  0.00000000000E+00 0. -1.
         11    1    3    3    0    0 -0.84053575522E+01  0.51417842374E+01  0.35734396336E+02  0.37067978937E+02  0.51100000000E-03 0.  1.
        -11    1    3    3    0    0 -0.48873622152E+01  0.22019173991E+01  0.14264630604E+01  0.55470304469E+01  0.51100000000E-03 0. -1.
        -12    1    3    3    0    0  0.39294153787E+01 -0.64383627243E+01  0.23950916397E+01  0.79138665486E+01  0.00000000000E+00 0.  1.
</event>
<event>
 7    1  0.5456331E-013  0.5052889E+02  0.7816164E-02  0.1300439E+00
        -11   -1    0    0    0    0  0.00000000000E+00  0.00000000000E+00  0.45593999997E+02  0.45594000000E+02  0.51100000000E-03 0. -1.
         11   -1    0    0    0    0 -0.00000000000E+00 -0.00000000000E+00 -0.45593999997E+02  0.45594000000E+02  0.51100000000E-03 0.  1.
    9900012    2    1    2    0    0  0.82588773691E+01 -0.39324211562E+02  0.62097464030E+01  0.50528885146E+02  0.30000076888E+02 0.  0.
         12    1    1    2    0    0 -0.82588773691E+01  0.39324211562E+02 -0.62097464030E+01  0.40659114854E+02  0.00000000000E+00 0. -1.
         11    1    3    3    0    0  0.14645140909E+02 -0.17446977960E+02  0.34383729214E+01  0.23036918214E+02  0.51100000000E-03 0. -1.
        -11    1    3    3    0    0  0.27747626712E+01 -0.14632186679E+02  0.47791016802E+01  0.15640972093E+02  0.51100000000E-03 0.  1.
         12    1    3    3    0    0 -0.91610262107E+01 -0.72450469228E+01 -0.20077281986E+01  0.11850994839E+02  0.00000000000E+00 0. -1.
</event>
<event>
 7    1  0.5456331E-013  0.5052884E+02  0.7816164E-02  0.1300439E+00
        -11   -1    0    0    0    0  0.00000000000E+00  0.00000000000E+00  0.45593999997E+02  0.45594000000E+02  0.51100000000E-03 0.  1.
         11   -1    0    0    0    0 -0.00000000000E+00 -0.00000000000E+00 -0.45593999997E+02  0.45594000000E+02  0.51100000000E-03 0. -1.
    9900012    2    1    2    0    0  0.16159061141E+02  0.15345567592E+02  0.34008315123E+02  0.50528841140E+02  0.29999943130E+02 0.  0.
         12    1    1    2    0    0 -0.16159061141E+02 -0.15345567592E+02 -0.34008315123E+02  0.40659158860E+02  0.00000000000E+00 0. -1.
         11    1    3    3    0    0  0.15317721758E+02  0.95864242084E+01  0.13076423564E+02  0.22305268043E+02  0.51100000000E-03 0. -1.
        -11    1    3    3    0    0  0.58881013484E+01  0.50396763807E+01  0.21723526918E+02  0.23064685073E+02  0.51100000000E-03 0.  1.
         12    1    3    3    0    0 -0.50467619656E+01  0.71946700259E+00 -0.79163535925E+00  0.51588880243E+01  0.00000000000E+00 0. -1.
</event>
<event>
 7    1  0.5456331E-013  0.5052885E+02  0.7816164E-02  0.1300439E+00
        -11   -1    0    0    0    0  0.00000000000E+00  0.00000000000E+00  0.45593999997E+02  0.45594000000E+02  0.51100000000E-03 0. -1.
         11   -1    0    0    0    0 -0.00000000000E+00 -0.00000000000E+00 -0.45593999997E+02  0.45594000000E+02  0.51100000000E-03 0.  1.
    9900012    2    1    2    0    0  0.29582717640E+02 -0.26065229388E+02  0.99314034472E+01  0.50528854160E+02  0.29999982706E+02 0.  0.
         12    1    1    2    0    0 -0.29582717640E+02  0.26065229388E+02 -0.99314034472E+01  0.40659145840E+02  0.00000000000E+00 0. -1.
         11    1    3    3    0    0  0.72218670595E+00 -0.17893184005E+02 -0.19560744364E+01  0.18014266983E+02  0.51100000000E-03 0.  1.
        -11    1    3    3    0    0  0.15566561131E+02 -0.31877569570E+01  0.45242357982E+01  0.16521147953E+02  0.51100000000E-03 0. -1.
        -12    1    3    3    0    0  0.13293969803E+02 -0.49842884258E+01  0.73632420854E+01  0.15993439225E+02  0.00000000000E+00 0.  1.
</event>
<event>
 7    1  0.5456331E-013  0.5052888E+02  0.7816164E-02  0.1300439E+00
        -11   -1    0    0    0    0  0.00000000000E+00  0.00000000000E+00  0.45593999997E+02  0.45594000000E+02  0.51100000000E-03 0. -1.
         11   -1    0    0    0    0 -0.00000000000E+00 -0.00000000000E+00 -0.45593999997E+02  0.45594000000E+02  0.51100000000E-03 0.  1.
    9900012    2    1    2    0    0  0.12665467182E+02 -0.12393981469E+02 -0.36594254389E+02  0.50528876917E+02  0.30000051878E+02 0.  0.
         12    1    1    2    0    0 -0.12665467182E+02  0.12393981469E+02  0.36594254389E+02  0.40659123083E+02  0.00000000000E+00 0. -1.
         11    1    3    3    0    0  0.91942633286E+00 -0.13153224171E+01  0.33134299138E+00  0.16386599042E+01  0.51100000000E-03 0. -1.
        -11    1    3    3    0    0 -0.12056912899E+01 -0.13348557524E+02 -0.49003754603E+01  0.14270646775E+02  0.51100000000E-03 0.  1.
         12    1    3    3    0    0  0.12951732139E+02  0.22698984717E+01 -0.32025221920E+02  0.34619570238E+02  0.00000000000E+00 0. -1.
</event>
<event>
 7    1  0.5456331E-013  0.5052886E+02  0.7816164E-02  0.1300439E+00
        -11   -1    0    0    0    0  0.00000000000E+00  0.00000000000E+00  0.45593999997E+02  0.45594000000E+02  0.51100000000E-03 0. -1.
         11   -1    0    0    0    0 -0.00000000000E+00 -0.00000000000E+00 -0.45593999997E+02  0.45594000000E+02  0.51100000000E-03 0.  1.
    9900012    2    1    2    0    0  0.16864427759E+02  0.70331486021E+01 -0.36322053178E+02  0.50528860191E+02  0.30000001037E+02 0.  0.
         12    1    1    2    0    0 -0.16864427759E+02 -0.70331486021E+01  0.36322053178E+02  0.40659139809E+02  0.00000000000E+00 0. -1.
         11    1    3    3    0    0 -0.69116317926E+01  0.21005687565E+01 -0.52201115295E+01  0.89124972807E+01  0.51100000000E-03 0. -1.
        -11    1    3    3    0    0 -0.13666261843E+00  0.27506663412E+01 -0.73181033178E+01  0.78191737686E+01  0.51100000000E-03 0.  1.
        -12    1    3    3    0    0  0.23912722170E+02  0.21819135044E+01 -0.23783838331E+02  0.33797189142E+02  0.00000000000E+00 0.  1.
</event>
<event>
 7    1  0.5456331E-013  0.5052886E+02  0.7816164E-02  0.1300439E+00
        -11   -1    0    0    0    0  0.00000000000E+00  0.00000000000E+00  0.45593999997E+02  0.45594000000E+02  0.51100000000E-03 0.  1.
         11   -1    0    0    0    0 -0.00000000000E+00 -0.00000000000E+00 -0.45593999997E+02  0.45594000000E+02  0.51100000000E-03 0. -1.
    9900012    2    1    2    0    0 -0.34887576504E+02  0.95266573053E+01  0.18581328769E+02  0.50528856225E+02  0.29999988980E+02 0.  0.
         12    1    1    2    0    0  0.34887576504E+02 -0.95266573053E+01 -0.18581328769E+02  0.40659143775E+02  0.00000000000E+00 0. -1.
         11    1    3    3    0    0 -0.38645241010E+01  0.49514980723E+01  0.43710322371E+01  0.76523070225E+01  0.51100000000E-03 0. -1.
        -11    1    3    3    0    0 -0.17822241034E+02  0.10662338007E+02  0.18401562404E+02  0.27747706687E+02  0.51100000000E-03 0.  1.
        -12    1    3    3    0    0 -0.13200811369E+02 -0.60871787742E+01 -0.41912658718E+01  0.15128842515E+02  0.00000000000E+00 0.  1.
</event>
<event>
 7    1  0.5456331E-013  0.5052886E+02  0.7816164E-02  0.1300439E+00
        -11   -1    0    0    0    0  0.00000000000E+00  0.00000000000E+00  0.45593999997E+02  0.45594000000E+02  0.51100000000E-03 0.  1.
         11   -1    0    0    0    0 -0.00000000000E+00 -0.00000000000E+00 -0.45593999997E+02  0.45594000000E+02  0.51100000000E-03 0. -1.
    9900012    2    1    2    0    0 -0.13284721020E+01  0.22364456289E+02  0.33929806623E+02  0.50528861782E+02  0.30000005871E+02 0.  0.
         12    1    1    2    0    0  0.13284721020E+01 -0.22364456289E+02 -0.33929806623E+02  0.40659138218E+02  0.00000000000E+00 0. -1.
         11    1    3    3    0    0  0.26169003206E+01  0.17459886570E+01 -0.32825424950E+01  0.45466173328E+01  0.51100000000E-03 0. -1.
        -11    1    3    3    0    0 -0.22588741774E+01  0.25921911750E+01  0.22194784048E+02  0.22459528198E+02  0.51100000000E-03 0.  1.
         12    1    3    3    0    0 -0.16864982451E+01  0.18026276457E+02  0.15017565069E+02  0.23522716251E+02  0.00000000000E+00 0. -1.
</event>
<event>
 7    1  0.5456331E-013  0.5052884E+02  0.7816164E-02  0.1300439E+00
        -11   -1    0    0    0    0  0.00000000000E+00  0.00000000000E+00  0.45593999997E+02  0.45594000000E+02  0.51100000000E-03 0. -1.
         11   -1    0    0    0    0 -0.00000000000E+00 -0.00000000000E+00 -0.45593999997E+02  0.45594000000E+02  0.51100000000E-03 0.  1.
    9900012    2    1    2    0    0  0.38052222331E+01 -0.22949409369E+02 -0.33346841414E+02  0.50528844341E+02  0.29999952858E+02 0.  0.
         12    1    1    2    0    0 -0.38052222331E+01  0.22949409369E+02  0.33346841414E+02  0.40659155659E+02  0.00000000000E+00 0. -1.
         11    1    3    3    0    0 -0.21698106026E+00 -0.51841143691E+01  0.28051660032E+00  0.51962305951E+01  0.51100000000E-03 0. -1.
        -11    1    3    3    0    0 -0.26166015621E+01 -0.12425055983E+02 -0.23469977178E+01  0.12912668913E+02  0.51100000000E-03 0.  1.
        -12    1    3    3    0    0  0.66388048555E+01 -0.53402390173E+01 -0.31280360296E+02  0.32419944833E+02  0.00000000000E+00 0.  1.
</event>
<event>
 7    1  0.5456331E-013  0.5052886E+02  0.7816164E-02  0.1300439E+00
        -11   -1    0    0    0    0  0.00000000000E+00  0.00000000000E+00  0.45593999997E+02  0.45594000000E+02  0.51100000000E-03 0.  1.
         11   -1    0    0    0    0 -0.00000000000E+00 -0.00000000000E+00 -0.45593999997E+02  0.45594000000E+02  0.51100000000E-03 0. -1.
    9900012    2    1    2    0    0  0.40562719168E+02  0.26292433199E+01 -0.95835280062E+00  0.50528861459E+02  0.30000004892E+02 0.  0.
         12    1    1    2    0    0 -0.40562719168E+02 -0.26292433199E+01  0.95835280062E+00  0.40659138541E+02  0.00000000000E+00 0. -1.
         11    1    3    3    0    0  0.69549718733E+01  0.69151286148E+00  0.21730402775E+01  0.73192846717E+01  0.51100000000E-03 0. -1.
        -11    1    3    3    0    0  0.96727610245E+00  0.68773694153E+01  0.57579893945E+01  0.90215450595E+01  0.51100000000E-03 0.  1.
         12    1    3    3    0    0  0.32640471193E+02 -0.49396389569E+01 -0.88893824726E+01  0.34188031728E+02  0.00000000000E+00 0. -1.
</event>
<event>
 7    1  0.5456331E-013  0.5052886E+02  0.7816164E-02  0.1300439E+00
        -11   -1    0    0    0    0  0.00000000000E+00  0.00000000000E+00  0.45593999997E+02  0.45594000000E+02  0.51100000000E-03 0.  1.
         11   -1    0    0    0    0 -0.00000000000E+00 -0.00000000000E+00 -0.45593999997E+02  0.45594000000E+02  0.51100000000E-03 0. -1.
    9900012    2    1    2    0    0  0.22254505974E+02  0.15422371477E+02  0.30332382775E+02  0.50528855605E+02  0.29999987097E+02 0.  0.
         12    1    1    2    0    0 -0.22254505974E+02 -0.15422371477E+02 -0.30332382775E+02  0.40659144395E+02  0.00000000000E+00 0. -1.
         11    1    3    3    0    0  0.65340821242E+01  0.27064843630E+00  0.10774352317E+02  0.12603735473E+02  0.51100000000E-03 0. -1.
        -11    1    3    3    0    0 -0.40235691487E+00 -0.46283802492E+01  0.93499297630E+01  0.10440545084E+02  0.51100000000E-03 0.  1.
        -12    1    3    3    0    0  0.16122780765E+02  0.19780103290E+02  0.10208100695E+02  0.27484575048E+02  0.00000000000E+00 0.  1.
</event>
<event>
 7    1  0.5456331E-013  0.5052883E+02  0.7816164E-02  0.1300439E+00
        -11   -1    0    0    0    0  0.00000000000E+00  0.00000000000E+00  0.45593999997E+02  0.45594000000E+02  0.51100000000E-03 0. -1.
         11   -1    0    0    0    0 -0.00000000000E+00 -0.00000000000E+00 -0.45593999997E+02  0.45594000000E+02  0.51100000000E-03 0.  1.
    9900012    2    1    2    0    0 -0.26923546081E+02 -0.29251564644E+02 -0.85227221749E+01  0.50528829313E+02  0.29999907180E+02 0.  0.
         12    1    1    2    0    0  0.26923546081E+02  0.29251564644E+02  0.85227221749E+01  0.40659170687E+02  0.00000000000E+00 0. -1.
         11    1    3    3    0    0  0.12784379218E+01 -0.96428947608E+00  0.12880117245E+01  0.20550504075E+01  0.51100000000E-03 0. -1.
        -11    1    3    3    0    0 -0.49516138762E+01 -0.22932122072E+02 -0.29337046870E+01  0.23643335766E+02  0.51100000000E-03 0.  1.
         12    1    3    3    0    0 -0.23250370127E+02 -0.53551530954E+01 -0.68770292124E+01  0.24830443139E+02  0.00000000000E+00 0. -1.
</event>
<event>
 7    1  0.5456331E-013  0.5052887E+02  0.7816164E-02  0.1300439E+00
        -11   -1    0    0    0    0  0.00000000000E+00  0.00000000000E+00  0.45593999997E+02  0.45594000000E+02  0.51100000000E-03 0. -1.
         11   -1    0    0    0    0 -0.00000000000E+00 -0.00000000000E+00 -0.45593999997E+02  0.45594000000E+02  0.51100000000E-03 0.  1.
    9900012    2    1    2    0    0 -0.49485819757E+01 -0.36033778665E+02 -0.18172589656E+02  0.50528872079E+02  0.30000037171E+02 0.  0.
         12    1    1    2    0    0  0.49485819757E+01  0.36033778665E+02  0.18172589656E+02  0.40659127921E+02  0.00000000000E+00 0. -1.
         11    1    3    3    0    0 -0.19982465474E+01 -0.58204272251E+00 -0.12615910927E+02  0.12786437024E+02  0.51100000000E-03 0. -1.
        -11    1    3    3    0    0  0.21433754400E+01 -0.34364794361E+01 -0.33384687507E+01  0.52486972719E+01  0.51100000000E-03 0.  1.
        -12    1    3    3    0    0 -0.50937108683E+01 -0.32015256507E+02 -0.22182099788E+01  0.32493737783E+02  0.00000000000E+00 0.  1.
</event>
<event>
 7    1  0.5456331E-013  0.5052884E+02  0.7816164E-02  0.1300439E+00
        -11   -1    0    0    0    0  0.00000000000E+00  0.00000000000E+00  0.45593999997E+02  0.45594000000E+02  0.51100000000E-03 0. -1.
         11   -1    0    0    0    0 -0.00000000000E+00 -0.00000000000E+00 -0.45593999997E+02  0.45594000000E+02  0.51100000000E-03 0.  1.
    9900012    2    1    2    0    0  0.19728949441E+01 -0.30458899227E+02 -0.26861316885E+02  0.50528841113E+02  0.29999943048E+02 0.  0.
         12    1    1    2    0    0 -0.19728949441E+01  0.30458899227E+02  0.26861316885E+02  0.40659158887E+02  0.00000000000E+00 0. -1.
         11    1    3    3    0    0 -0.14217830508E+01 -0.78666344553E+01 -0.15431466779E+02  0.17379170633E+02  0.51100000000E-03 0. -1.
        -11    1    3    3    0    0  0.19055678245E+01 -0.97883872566E+01 -0.16515414215E+02  0.19292553506E+02  0.51100000000E-03 0.  1.
         12    1    3    3    0    0  0.14891101704E+01 -0.12803877515E+02  0.50855641090E+01  0.13857116974E+02  0.00000000000E+00 0. -1.
</event>
<event>
 7    1  0.5456331E-013  0.5052886E+02  0.7816164E-02  0.1300439E+00
        -11   -1    0    0    0    0  0.00000000000E+00  0.00000000000E+00  0.45593999997E+02  0.45594000000E+02  0.51100000000E-03 0. -1.
         11   -1    0    0    0    0 -0.00000000000E+00 -0.00000000000E+00 -0.45593999997E+02  0.45594000000E+02  0.51100000000E-03 0.  1.
    9900012    2    1    2    0    0 -0.26624859641E+02  0.28900504487E+02 -0.10442366217E+02  0.50528864216E+02  0.30000013271E+02 0.  0.
         12    1    1    2    0    0  0.26624859641E+02 -0.28900504487E+02  0.10442366217E+02  0.40659135784E+02  0.00000000000E+00 0. -1.
         11    1    3    3    0    0  0.36162778301E+01  0.81582460204E+01 -0.87620971968E+01  0.12506350028E+02  0.51100000000E-03 0.  1.
        -11    1    3    3    0    0 -0.93934412698E+01  0.12103082314E+02 -0.20194242598E+01  0.15453136089E+02  0.51100000000E-03 0. -1.
        -12    1    3    3    0    0 -0.20847696202E+02  0.86391761524E+01  0.33915523989E+00  0.22569378099E+02  0.00000000000E+00 0.  1.
</event>
<event>
 7    1  0.5456331E-013  0.5052886E+02  0.7816164E-02  0.1300439E+00
        -11   -1    0    0    0    0  0.00000000000E+00  0.00000000000E+00  0.45593999997E+02  0.45594000000E+02  0.51100000000E-03 0.  1.
         11   -1    0    0    0    0 -0.00000000000E+00 -0.00000000000E+00 -0.45593999997E+02  0.45594000000E+02  0.51100000000E-03 0. -1.
    9900012    2    1    2    0    0  0.38887111784E+02 -0.30349281776E+01  0.11478140118E+02  0.50528856471E+02  0.29999989730E+02 0.  0.
         12    1    1    2    0    0 -0.38887111784E+02  0.30349281776E+01 -0.11478140118E+02  0.40659143529E+02  0.00000000000E+00 0. -1.
         11    1    3    3    0    0  0.13809167169E+02 -0.80183399176E+01  0.17488255009E+02  0.23681763795E+02  0.51100000000E-03 0. -1.
        -11    1    3    3    0    0  0.35328822156E+01 -0.12263780281E+01 -0.10224071338E+01  0.38769287362E+01  0.51100000000E-03 0.  1.
         12    1    3    3    0    0  0.21545062399E+02  0.62097897681E+01 -0.49877077572E+01  0.22970163940E+02  0.00000000000E+00 0. -1.
</event>
<event>
 7    1  0.5456331E-013  0.5052886E+02  0.7816164E-02  0.1300439E+00
        -11   -1    0    0    0    0  0.00000000000E+00  0.00000000000E+00  0.45593999997E+02  0.45594000000E+02  0.51100000000E-03 0. -1.
         11   -1    0    0    0    0 -0.00000000000E+00 -0.00000000000E+00 -0.45593999997E+02  0.45594000000E+02  0.51100000000E-03 0.  1.
    9900012    2    1    2    0    0  0.22085899576E+02  0.24967902580E+02 -0.23280519268E+02  0.50528859617E+02  0.29999999293E+02 0.  0.
         12    1    1    2    0    0 -0.22085899576E+02 -0.24967902580E+02  0.23280519268E+02  0.40659140383E+02  0.00000000000E+00 0. -1.
         11    1    3    3    0    0  0.13333618150E+02  0.59002481411E+01 -0.14308752207E+02  0.20428869060E+02  0.51100000000E-03 0. -1.
        -11    1    3    3    0    0  0.15047894708E+02  0.12472180081E+02 -0.70832665113E+01  0.20788628523E+02  0.51100000000E-03 0.  1.
         12    1    3    3    0    0 -0.62956132828E+01  0.65954743574E+01 -0.18885005494E+01  0.93113620341E+01  0.00000000000E+00 0. -1.
</event>
<event>
 7    1  0.5456331E-013  0.5052887E+02  0.7816164E-02  0.1300439E+00
        -11   -1    0    0    0    0  0.00000000000E+00  0.00000000000E+00  0.45593999997E+02  0.45594000000E+02  0.51100000000E-03 0.  1.
         11   -1    0    0    0    0 -0.00000000000E+00 -0.00000000000E+00 -0.45593999997E+02  0.45594000000E+02  0.51100000000E-03 0. -1.
    9900012    2    1    2    0    0  0.16012045479E+02 -0.33911137754E+02  0.15710323287E+02  0.50528866684E+02  0.30000020774E+02 0.  0.
         12    1    1    2    0    0 -0.16012045479E+02  0.33911137754E+02 -0.15710323287E+02  0.40659133316E+02  0.00000000000E+00 0. -1.
         11    1    3    3    0    0 -0.34180212503E+00 -0.78288818055E+01  0.12064459719E+02  0.14386083817E+02  0.51100000000E-03 0. -1.
        -11    1    3    3    0    0  0.20082848473E+01 -0.16506042403E+02  0.78530311476E+01  0.18388929885E+02  0.51100000000E-03 0.  1.
        -12    1    3    3    0    0  0.14345562757E+02 -0.95762135457E+01 -0.42071675799E+01  0.17753852983E+02  0.00000000000E+00 0.  1.
</event>
<event>
 7    1  0.5456331E-013  0.5052888E+02  0.7816164E-02  0.1300439E+00
        -11   -1    0    0    0    0  0.00000000000E+00  0.00000000000E+00  0.45593999997E+02  0.45594000000E+02  0.51100000000E-03 0. -1.
         11   -1    0    0    0    0 -0.00000000000E+00 -0.00000000000E+00 -0.45593999997E+02  0.45594000000E+02  0.51100000000E-03 0.  1.
    9900012    2    1    2    0    0  0.30827329875E+02 -0.19035079064E+02 -0.18452802320E+02  0.50528875370E+02  0.30000047174E+02 0.  0.
         12    1    1    2    0    0 -0.30827329875E+02  0.19035079064E+02  0.18452802320E+02  0.40659124630E+02  0.00000000000E+00 0. -1.
         11    1    3    3    0    0  0.93872359660E+01  0.54965372010E+01  0.40498724855E+00  0.10885593012E+02  0.51100000000E-03 0. -1.
        -11    1    3    3    0    0  0.43097994786E+01 -0.10650890653E+00 -0.54137623172E+01  0.69205880083E+01  0.51100000000E-03 0.  1.
         12    1    3    3    0    0  0.17130294431E+02 -0.24425107359E+02 -0.13444027251E+02  0.32722694350E+02  0.00000000000E+00 0. -1.
</event>
<event>
 7    1  0.5456331E-013  0.5052888E+02  0.7816164E-02  0.1300439E+00
        -11   -1    0    0    0    0  0.00000000000E+00  0.00000000000E+00  0.45593999997E+02  0.45594000000E+02  0.51100000000E-03 0.  1.
         11   -1    0    0    0    0 -0.00000000000E+00 -0.00000000000E+00 -0.45593999997E+02  0.45594000000E+02  0.51100000000E-03 0. -1.
    9900012    2    1    2    0    0  0.14146953386E+02 -0.25317892468E+02  0.28496173065E+02  0.50528882345E+02  0.30000068377E+02 0.  0.
         12    1    1    2    0    0 -0.14146953386E+02  0.25317892468E+02 -0.28496173065E+02  0.40659117655E+02  0.00000000000E+00 0. -1.
         11    1    3    3    0    0 -0.71740968579E+01 -0.16015620120E+02  0.13129768107E+02  0.21917083847E+02  0.51100000000E-03 0. -1.
        -11    1    3    3    0    0  0.13589404176E+01 -0.26027515302E+01  0.29750779653E+01  0.41799669553E+01  0.51100000000E-03 0.  1.
         12    1    3    3    0    0  0.19962109826E+02 -0.66995208171E+01  0.12391326993E+02  0.24431831543E+02  0.00000000000E+00 0. -1.
</event>
<event>
 7    1  0.5456331E-013  0.5052885E+02  0.7816164E-02  0.1300439E+00
        -11   -1    0    0    0    0  0.00000000000E+00  0.00000000000E+00  0.45593999997E+02  0.45594000000E+02  0.51100000000E-03 0. -1.
         11   -1    0    0    0    0 -0.00000000000E+00 -0.00000000000E+00 -0.45593999997E+02  0.45594000000E+02  0.51100000000E-03 0.  1.
    9900012    2    1    2    0    0 -0.25378191150E+02 -0.98407678331E+01 -0.30203854864E+02  0.50528854089E+02  0.29999982488E+02 0.  0.
         12    1    1    2    0    0  0.25378191150E+02  0.98407678331E+01  0.30203854864E+02  0.40659145911E+02  0.00000000000E+00 0. -1.
         11    1    3    3    0    0 -0.36154622981E+01  0.14551360680E+01 -0.17669861077E+01  0.42791621576E+01  0.51100000000E-03 0. -1.
        -11    1    3    3    0    0 -0.19919060323E+02  0.43863330396E+01 -0.13123657856E+02  0.24253644623E+02  0.51100000000E-03 0.  1.
         12    1    3    3    0    0 -0.18436685287E+01 -0.15682236941E+02 -0.15313210900E+02  0.21996047308E+02  0.00000000000E+00 0. -1.
</event>
<event>
 7    1  0.5456331E-013  0.5052886E+02  0.7816164E-02  0.1300439E+00
        -11   -1    0    0    0    0  0.00000000000E+00  0.00000000000E+00  0.45593999997E+02  0.45594000000E+02  0.51100000000E-03 0. -1.
         11   -1    0    0    0    0 -0.00000000000E+00 -0.00000000000E+00 -0.45593999997E+02  0.45594000000E+02  0.51100000000E-03 0.  1.
    9900012    2    1    2    0    0  0.31417018405E+01 -0.34577681691E+02 -0.21158434599E+02  0.50528859376E+02  0.29999998559E+02 0.  0.
         12    1    1    2    0    0 -0.31417018405E+01  0.34577681691E+02  0.21158434599E+02  0.40659140624E+02  0.00000000000E+00 0. -1.
         11    1    3    3    0    0 -0.38629123626E+01 -0.14260766672E+01  0.17218498959E+01  0.44632447733E+01  0.51100000000E-03 0.  1.
        -11    1    3    3    0    0 -0.64531507091E+00 -0.20344723937E+01  0.38068050666E+01  0.43643183360E+01  0.51100000000E-03 0. -1.
        -12    1    3    3    0    0  0.76499292740E+01 -0.31117132631E+02 -0.26687089562E+02  0.41701296267E+02  0.00000000000E+00 0.  1.
</event>
<event>
 7    1  0.5456331E-013  0.5052886E+02  0.7816164E-02  0.1300439E+00
        -11   -1    0    0    0    0  0.00000000000E+00  0.00000000000E+00  0.45593999997E+02  0.45594000000E+02  0.51100000000E-03 0. -1.
         11   -1    0    0    0    0 -0.00000000000E+00 -0.00000000000E+00 -0.45593999997E+02  0.45594000000E+02  0.51100000000E-03 0.  1.
    9900012    2    1    2    0    0  0.28024425456E+01 -0.38080813533E+02 -0.13970089587E+02  0.50528862692E+02  0.30000008639E+02 0.  0.
         12    1    1    2    0    0 -0.28024425456E+01  0.38080813533E+02  0.13970089587E+02  0.40659137308E+02  0.00000000000E+00 0. -1.
         11    1    3    3    0    0  0.14018450951E+01 -0.10720568165E+02 -0.76559264061E+01  0.13247979501E+02  0.51100000000E-03 0.  1.
        -11    1    3    3    0    0 -0.94149226867E+01 -0.19396724931E+02 -0.93661921356E+01  0.23507429946E+02  0.51100000000E-03 0. -1.
         12    1    3    3    0    0  0.10815520137E+02 -0.79635204359E+01  0.30520289547E+01  0.13773453246E+02  0.00000000000E+00 0. -1.
</event>
<event>
 7    1  0.5456331E-013  0.5052885E+02  0.7816164E-02  0.1300439E+00
        -11   -1    0    0    0    0  0.00000000000E+00  0.00000000000E+00  0.45593999997E+02  0.45594000000E+02  0.51100000000E-03 0. -1.
         11   -1    0    0    0    0 -0.00000000000E+00 -0.00000000000E+00 -0.45593999997E+02  0.45594000000E+02  0.51100000000E-03 0.  1.
    9900012    2    1    2    0    0 -0.33326120340E+02 -0.40419996149E-02 -0.23292403529E+02  0.50528851271E+02  0.29999973922E+02 0.  0.
         12    1    1    2    0    0  0.33326120340E+02  0.40419996149E-02  0.23292403529E+02  0.40659148729E+02  0.00000000000E+00 0. -1.
         11    1    3    3    0    0 -0.93651219904E+01  0.36480450661E+01 -0.47556644996E+01  0.11118906771E+02  0.51100000000E-03 0. -1.
        -11    1    3    3    0    0 -0.88999877604E+01  0.74739896941E+01 -0.17039026236E+02  0.20625196227E+02  0.51100000000E-03 0.  1.
        -12    1    3    3    0    0 -0.15061010589E+02 -0.11126076760E+02 -0.14977127938E+01  0.18784748272E+02  0.00000000000E+00 0.  1.
</event>
<event>
 7    1  0.5456331E-013  0.5052886E+02  0.7816164E-02  0.1300439E+00
        -11   -1    0    0    0    0  0.00000000000E+00  0.00000000000E+00  0.45593999997E+02  0.45594000000E+02  0.51100000000E-03 0.  1.
         11   -1    0    0    0    0 -0.00000000000E+00 -0.00000000000E+00 -0.45593999997E+02  0.45594000000E+02  0.51100000000E-03 0. -1.
    9900012    2    1    2    0    0 -0.14683175798E+02 -0.37889313028E+02  0.14035765941E+01  0.50528859324E+02  0.29999998401E+02 0.  0.
         12    1    1    2    0    0  0.14683175798E+02  0.37889313028E+02 -0.14035765941E+01  0.40659140676E+02  0.00000000000E+00 0. -1.
         11    1    3    3    0    0 -0.80948157744E+01 -0.23579720068E+02 -0.67652405281E+01  0.25832106390E+02  0.51100000000E-03 0. -1.
        -11    1    3    3    0    0 -0.11807799073E+01 -0.14383859365E+02 -0.54340858776E+00  0.14442470168E+02  0.51100000000E-03 0.  1.
         12    1    3    3    0    0 -0.54075801160E+01  0.74266404237E-01  0.87122257099E+01  0.10254282765E+02  0.00000000000E+00 0. -1.
</event>
<event>
 7    1  0.5456331E-013  0.5052886E+02  0.7816164E-02  0.1300439E+00
        -11   -1    0    0    0    0  0.00000000000E+00  0.00000000000E+00  0.45593999997E+02  0.45594000000E+02  0.51100000000E-03 0. -1.
         11   -1    0    0    0    0 -0.00000000000E+00 -0.00000000000E+00 -0.45593999997E+02  0.45594000000E+02  0.51100000000E-03 0.  1.
    9900012    2    1    2    0    0 -0.25866738658E+02 -0.11428105678E+02 -0.29214315194E+02  0.50528856128E+02  0.29999988686E+02 0.  0.
         12    1    1    2    0    0  0.25866738658E+02  0.11428105678E+02  0.29214315194E+02  0.40659143872E+02  0.00000000000E+00 0. -1.
         11    1    3    3    0    0 -0.83010201958E+00  0.28619626255E+01  0.95835310502E+00  0.31302300822E+01  0.51100000000E-03 0. -1.
        -11    1    3    3    0    0 -0.18366728290E+02 -0.25759252679E+01 -0.28233078725E+02  0.33779858402E+02  0.51100000000E-03 0.  1.
         12    1    3    3    0    0 -0.66699083486E+01 -0.11714143035E+02 -0.19395895734E+01  0.13618767644E+02  0.00000000000E+00 0. -1.
</event>
<event>
 7    1  0.5456331E-013  0.5052885E+02  0.7816164E-02  0.1300439E+00
        -11   -1    0    0    0    0  0.00000000000E+00  0.00000000000E+00  0.45593999997E+02  0.45594000000E+02  0.51100000000E-03 0.  1.
         11   -1    0    0    0    0 -0.00000000000E+00 -0.00000000000E+00 -0.45593999997E+02  0.45594000000E+02  0.51100000000E-03 0. -1.
    9900012    2    1    2    0    0  0.10767145874E+02 -0.36902533282E+02  0.13245292871E+02  0.50528853721E+02  0.29999981370E+02 0.  0.
         12    1    1    2    0    0 -0.10767145874E+02  0.36902533282E+02 -0.13245292871E+02  0.40659146279E+02  0.00000000000E+00 0. -1.
         11    1    3    3    0    0  0.10203696593E+02 -0.90731802304E+01  0.11056386793E+02  0.17569340136E+02  0.51100000000E-03 0. -1.
        -11    1    3    3    0    0 -0.79997940700E+01 -0.95165089964E+01  0.27618707989E+01  0.12735327998E+02  0.51100000000E-03 0.  1.
         12    1    3    3    0    0  0.85632433518E+01 -0.18312844055E+02 -0.57296472062E+00  0.20224185587E+02  0.00000000000E+00 0. -1.
</event>
<event>
 7    1  0.5456331E-013  0.5052886E+02  0.7816164E-02  0.1300439E+00
        -11   -1    0    0    0    0  0.00000000000E+00  0.00000000000E+00  0.45593999997E+02  0.45594000000E+02  0.51100000000E-03 0. -1.
         11   -1    0    0    0    0 -0.00000000000E+00 -0.00000000000E+00 -0.45593999997E+02  0.45594000000E+02  0.51100000000E-03 0.  1.
    9900012    2    1    2    0    0 -0.34794799858E+02  0.15654163029E+02 -0.14051161475E+02  0.50528855197E+02  0.29999985858E+02 0.  0.
         12    1    1    2    0    0  0.34794799858E+02 -0.15654163029E+02  0.14051161475E+02  0.40659144803E+02  0.00000000000E+00 0. -1.
         11    1    3    3    0    0 -0.12552596965E+02  0.33635589900E+01 -0.58030044494E+01  0.14232219804E+02  0.51100000000E-03 0. -1.
        -11    1    3    3    0    0 -0.18619289069E+02 -0.34542984608E+01 -0.66099183193E+01  0.20057445593E+02  0.51100000000E-03 0.  1.
         12    1    3    3    0    0 -0.36229138237E+01  0.15744902500E+02 -0.16382387068E+01  0.16239189800E+02  0.00000000000E+00 0. -1.
</event>
<event>
 7    1  0.5456331E-013  0.5052886E+02  0.7816164E-02  0.1300439E+00
        -11   -1    0    0    0    0  0.00000000000E+00  0.00000000000E+00  0.45593999997E+02  0.45594000000E+02  0.51100000000E-03 0. -1.
         11   -1    0    0    0    0 -0.00000000000E+00 -0.00000000000E+00 -0.45593999997E+02  0.45594000000E+02  0.51100000000E-03 0.  1.
    9900012    2    1    2    0    0 -0.16810785835E+02  0.94256194938E+01 -0.35801130428E+02  0.50528858799E+02  0.29999996807E+02 0.  0.
         12    1    1    2    0    0  0.16810785835E+02 -0.94256194938E+01  0.35801130428E+02  0.40659141201E+02  0.00000000000E+00 0. -1.
         11    1    3    3    0    0  0.14943329624E+01  0.46068006593E+01 -0.10439600827E+02  0.11508297398E+02  0.51100000000E-03 0. -1.
        -11    1    3    3    0    0 -0.62312246614E+01  0.16181248333E+01 -0.25731011151E+02  0.26524166789E+02  0.51100000000E-03 0.  1.
         12    1    3    3    0    0 -0.12073894136E+02  0.32006940012E+01  0.36948154931E+00  0.12496394612E+02  0.00000000000E+00 0. -1.
</event>
<event>
 7    1  0.5456331E-013  0.5052875E+02  0.7816164E-02  0.1300439E+00
        -11   -1    0    0    0    0  0.00000000000E+00  0.00000000000E+00  0.45593999997E+02  0.45594000000E+02  0.51100000000E-03 0.  1.
         11   -1    0    0    0    0 -0.00000000000E+00 -0.00000000000E+00 -0.45593999997E+02  0.45594000000E+02  0.51100000000E-03 0. -1.
    9900012    2    1    2    0    0  0.15648193298E+02  0.63515589911E+01  0.36986027129E+02  0.50528751877E+02  0.29999671805E+02 0.  0.
         12    1    1    2    0    0 -0.15648193298E+02 -0.63515589911E+01 -0.36986027129E+02  0.40659248123E+02  0.00000000000E+00 0. -1.
         11    1    3    3    0    0  0.16494561473E+02 -0.19352922603E-01  0.15393018173E+02  0.22561381639E+02  0.51100000000E-03 0. -1.
        -11    1    3    3    0    0  0.51881152473E+01  0.13824230777E+01  0.41118151989E+00  0.53848587622E+01  0.51100000000E-03 0.  1.
         12    1    3    3    0    0 -0.60344834221E+01  0.49884888360E+01  0.21181827436E+02  0.22582511476E+02  0.00000000000E+00 0. -1.
</event>
<event>
 7    1  0.5456331E-013  0.5052886E+02  0.7816164E-02  0.1300439E+00
        -11   -1    0    0    0    0  0.00000000000E+00  0.00000000000E+00  0.45593999997E+02  0.45594000000E+02  0.51100000000E-03 0. -1.
         11   -1    0    0    0    0 -0.00000000000E+00 -0.00000000000E+00 -0.45593999997E+02  0.45594000000E+02  0.51100000000E-03 0.  1.
    9900012    2    1    2    0    0  0.36264824915E+02  0.66320135187E+01 -0.17147735922E+02  0.50528856174E+02  0.29999988828E+02 0.  0.
         12    1    1    2    0    0 -0.36264824915E+02 -0.66320135187E+01  0.17147735922E+02  0.40659143826E+02  0.00000000000E+00 0. -1.
         11    1    3    3    0    0  0.13877805825E+02  0.13370208539E+02 -0.54029304798E+00  0.19278171276E+02  0.51100000000E-03 0. -1.
        -11    1    3    3    0    0 -0.76205708354E+00 -0.64627551510E+00 -0.41447030839E+01  0.42634454323E+01  0.51100000000E-03 0.  1.
        -12    1    3    3    0    0  0.23149076173E+02 -0.60919195056E+01 -0.12462739790E+02  0.26987239466E+02  0.00000000000E+00 0.  1.
</event>
<event>
 7    1  0.5456331E-013  0.5052886E+02  0.7816164E-02  0.1300439E+00
        -11   -1    0    0    0    0  0.00000000000E+00  0.00000000000E+00  0.45593999997E+02  0.45594000000E+02  0.51100000000E-03 0. -1.
         11   -1    0    0    0    0 -0.00000000000E+00 -0.00000000000E+00 -0.45593999997E+02  0.45594000000E+02  0.51100000000E-03 0.  1.
    9900012    2    1    2    0    0 -0.35443774233E+02 -0.19754381262E+02 -0.25824256796E+01  0.50528860397E+02  0.30000001662E+02 0.  0.
         12    1    1    2    0    0  0.35443774233E+02  0.19754381262E+02  0.25824256796E+01  0.40659139603E+02  0.00000000000E+00 0. -1.
         11    1    3    3    0    0 -0.39839351319E+01 -0.60430865620E+01  0.10053448766E+02  0.12387996879E+02  0.51100000000E-03 0. -1.
        -11    1    3    3    0    0 -0.18638245042E+02 -0.13065059314E+02 -0.53578205241E+01  0.23383459841E+02  0.51100000000E-03 0.  1.
        -12    1    3    3    0    0 -0.12821594059E+02 -0.64623538560E+00 -0.72780539212E+01  0.14757403676E+02  0.00000000000E+00 0.  1.
</event>
<event>
 7    1  0.5456331E-013  0.5052885E+02  0.7816164E-02  0.1300439E+00
        -11   -1    0    0    0    0  0.00000000000E+00  0.00000000000E+00  0.45593999997E+02  0.45594000000E+02  0.51100000000E-03 0.  1.
         11   -1    0    0    0    0 -0.00000000000E+00 -0.00000000000E+00 -0.45593999997E+02  0.45594000000E+02  0.51100000000E-03 0. -1.
    9900012    2    1    2    0    0 -0.40090583087E+02 -0.27690977105E+01  0.61841418832E+01  0.50528851396E+02  0.29999974303E+02 0.  0.
         12    1    1    2    0    0  0.40090583087E+02  0.27690977105E+01 -0.61841418832E+01  0.40659148604E+02  0.00000000000E+00 0. -1.
         11    1    3    3    0    0 -0.18069962044E+02 -0.10698446625E+01 -0.97562938759E+01  0.20563398706E+02  0.51100000000E-03 0. -1.
        -11    1    3    3    0    0 -0.31913918533E+01 -0.20655151839E+01 -0.16971747379E+01  0.41631403157E+01  0.51100000000E-03 0.  1.
        -12    1    3    3    0    0 -0.18829229190E+02  0.36626213595E+00  0.17637610497E+02  0.25802312375E+02  0.00000000000E+00 0.  1.
</event>
<event>
 7    1  0.5456331E-013  0.5052885E+02  0.7816164E-02  0.1300439E+00
        -11   -1    0    0    0    0  0.00000000000E+00  0.00000000000E+00  0.45593999997E+02  0.45594000000E+02  0.51100000000E-03 0.  1.
         11   -1    0    0    0    0 -0.00000000000E+00 -0.00000000000E+00 -0.45593999997E+02  0.45594000000E+02  0.51100000000E-03 0. -1.
    9900012    2    1    2    0    0 -0.16620223722E+02  0.19317745308E+02  0.31682158594E+02  0.50528852277E+02  0.29999976983E+02 0.  0.
         12    1    1    2    0    0  0.16620223722E+02 -0.19317745308E+02 -0.31682158594E+02  0.40659147723E+02  0.00000000000E+00 0. -1.
         11    1    3    3    0    0 -0.10397242350E+02 -0.18070365053E+01  0.37457654149E+01  0.11198160037E+02  0.51100000000E-03 0. -1.
        -11    1    3    3    0    0 -0.50397948738E+01  0.33179247916E+01 -0.17107338478E+00  0.60363419102E+01  0.51100000000E-03 0.  1.
        -12    1    3    3    0    0 -0.11831864986E+01  0.17806857021E+02  0.28107466564E+02  0.33294350330E+02  0.00000000000E+00 0.  1.
</event>
<event>
 7    1  0.5456331E-013  0.5052886E+02  0.7816164E-02  0.1300439E+00
        -11   -1    0    0    0    0  0.00000000000E+00  0.00000000000E+00  0.45593999997E+02  0.45594000000E+02  0.51100000000E-03 0.  1.
         11   -1    0    0    0    0 -0.00000000000E+00 -0.00000000000E+00 -0.45593999997E+02  0.45594000000E+02  0.51100000000E-03 0. -1.
    9900012    2    1    2    0    0  0.25227659736E+02 -0.31571912087E+02  0.44660352980E+01  0.50528856873E+02  0.29999990950E+02 0.  0.
         12    1    1    2    0    0 -0.25227659736E+02  0.31571912087E+02 -0.44660352980E+01  0.40659143127E+02  0.00000000000E+00 0. -1.
         11    1    3    3    0    0  0.11521140551E+02 -0.37698481679E+01  0.68947527607E+01  0.13945825565E+02  0.51100000000E-03 0. -1.
        -11    1    3    3    0    0  0.88833042654E+01 -0.19708607646E+02  0.75127375684E+01  0.22886317660E+02  0.51100000000E-03 0.  1.
        -12    1    3    3    0    0  0.48232149197E+01 -0.80934562736E+01 -0.99414550310E+01  0.13696713648E+02  0.00000000000E+00 0.  1.
</event>
<event>
 7    1  0.5456331E-013  0.5052885E+02  0.7816164E-02  0.1300439E+00
        -11   -1    0    0    0    0  0.00000000000E+00  0.00000000000E+00  0.45593999997E+02  0.45594000000E+02  0.51100000000E-03 0.  1.
         11   -1    0    0    0    0 -0.00000000000E+00 -0.00000000000E+00 -0.45593999997E+02  0.45594000000E+02  0.51100000000E-03 0. -1.
    9900012    2    1    2    0    0 -0.43155232334E+01 -0.79428552355E+01  0.39641567109E+02  0.50528849333E+02  0.29999968033E+02 0.  0.
         12    1    1    2    0    0  0.43155232334E+01  0.79428552355E+01 -0.39641567109E+02  0.40659150667E+02  0.00000000000E+00 0. -1.
         11    1    3    3    0    0  0.39639433596E+01 -0.38745292333E+01  0.20808093861E+02  0.21533731542E+02  0.51100000000E-03 0. -1.
        -11    1    3    3    0    0 -0.37413264083E+01 -0.71798925418E+01  0.21431810532E+02  0.22910060741E+02  0.51100000000E-03 0.  1.
         12    1    3    3    0    0 -0.45381401847E+01  0.31115665396E+01 -0.25983372834E+01  0.60850570503E+01  0.00000000000E+00 0. -1.
</event>
<event>
 7    1  0.5456331E-013  0.5052885E+02  0.7816164E-02  0.1300439E+00
        -11   -1    0    0    0    0  0.00000000000E+00  0.00000000000E+00  0.45593999997E+02  0.45594000000E+02  0.51100000000E-03 0.  1.
         11   -1    0    0    0    0 -0.00000000000E+00 -0.00000000000E+00 -0.45593999997E+02  0.45594000000E+02  0.51100000000E-03 0. -1.
    9900012    2    1    2    0    0  0.23526775586E+02  0.66962676251E+01  0.32477954695E+02  0.50528847147E+02  0.29999961387E+02 0.  0.
         12    1    1    2    0    0 -0.23526775586E+02 -0.66962676251E+01 -0.32477954695E+02  0.40659152853E+02  0.00000000000E+00 0. -1.
         11    1    3    3    0    0  0.14129890218E+02  0.29171474272E+00  0.75901697847E+01  0.16042118709E+02  0.51100000000E-03 0. -1.
        -11    1    3    3    0    0  0.10407744689E+02  0.87188967197E+01  0.50455198719E+01  0.14484390928E+02  0.51100000000E-03 0.  1.
        -12    1    3    3    0    0 -0.10108593216E+01 -0.23143438373E+01  0.19842265038E+02  0.20002337509E+02  0.00000000000E+00 0.  1.
</event>
<event>
 7    1  0.5456331E-013  0.5052882E+02  0.7816164E-02  0.1300439E+00
        -11   -1    0    0    0    0  0.00000000000E+00  0.00000000000E+00  0.45593999997E+02  0.45594000000E+02  0.51100000000E-03 0. -1.
         11   -1    0    0    0    0 -0.00000000000E+00 -0.00000000000E+00 -0.45593999997E+02  0.45594000000E+02  0.51100000000E-03 0.  1.
    9900012    2    1    2    0    0 -0.36026515757E+02  0.16518457363E+02  0.90774125113E+01  0.50528822818E+02  0.29999887436E+02 0.  0.
         12    1    1    2    0    0  0.36026515757E+02 -0.16518457363E+02 -0.90774125113E+01  0.40659177182E+02  0.00000000000E+00 0. -1.
         11    1    3    3    0    0 -0.71947361219E+01  0.15249111216E+02  0.12808215551E+01  0.16909764187E+02  0.51100000000E-03 0. -1.
        -11    1    3    3    0    0 -0.63714087136E+01  0.70363704365E+01  0.28160625168E+01  0.99012911418E+01  0.51100000000E-03 0.  1.
         12    1    3    3    0    0 -0.22460370922E+02 -0.57670242901E+01  0.49805284394E+01  0.23717767489E+02  0.00000000000E+00 0. -1.
</event>
<event>
 7    1  0.5456331E-013  0.5052886E+02  0.7816164E-02  0.1300439E+00
        -11   -1    0    0    0    0  0.00000000000E+00  0.00000000000E+00  0.45593999997E+02  0.45594000000E+02  0.51100000000E-03 0. -1.
         11   -1    0    0    0    0 -0.00000000000E+00 -0.00000000000E+00 -0.45593999997E+02  0.45594000000E+02  0.51100000000E-03 0.  1.
    9900012    2    1    2    0    0 -0.14754058047E+02 -0.81425851718E-01 -0.37887688385E+02  0.50528858467E+02  0.29999995797E+02 0.  0.
         12    1    1    2    0    0  0.14754058047E+02  0.81425851718E-01  0.37887688385E+02  0.40659141533E+02  0.00000000000E+00 0. -1.
         11    1    3    3    0    0  0.35027451721E+01 -0.19490587990E+01 -0.34569128406E+01  0.52932315830E+01  0.51100000000E-03 0. -1.
        -11    1    3    3    0    0 -0.17781041512E+02 -0.74930148968E+01 -0.27430795174E+02  0.33537430337E+02  0.51100000000E-03 0.  1.
         12    1    3    3    0    0 -0.47576170702E+00  0.93606478441E+01 -0.69999803703E+01  0.11698196547E+02  0.00000000000E+00 0. -1.
</event>
<event>
 7    1  0.5456331E-013  0.5052886E+02  0.7816164E-02  0.1300439E+00
        -11   -1    0    0    0    0  0.00000000000E+00  0.00000000000E+00  0.45593999997E+02  0.45594000000E+02  0.51100000000E-03 0.  1.
         11   -1    0    0    0    0 -0.00000000000E+00 -0.00000000000E+00 -0.45593999997E+02  0.45594000000E+02  0.51100000000E-03 0. -1.
    9900012    2    1    2    0    0  0.33932881163E+02 -0.20858158578E+02  0.81646924811E+01  0.50528863184E+02  0.30000010134E+02 0.  0.
         12    1    1    2    0    0 -0.33932881163E+02  0.20858158578E+02 -0.81646924811E+01  0.40659136816E+02  0.00000000000E+00 0. -1.
         11    1    3    3    0    0  0.30165182923E+02 -0.16809180370E+02  0.48070583562E+00  0.34535747912E+02  0.51100000000E-03 0. -1.
        -11    1    3    3    0    0  0.54566147243E+01  0.27644909878E+01  0.64071709434E+01  0.88582670105E+01  0.51100000000E-03 0.  1.
         12    1    3    3    0    0 -0.16889164843E+01 -0.68134691960E+01  0.12768157021E+01  0.71348482613E+01  0.00000000000E+00 0. -1.
</event>
<event>
 7    1  0.5456331E-013  0.5052886E+02  0.7816164E-02  0.1300439E+00
        -11   -1    0    0    0    0  0.00000000000E+00  0.00000000000E+00  0.45593999997E+02  0.45594000000E+02  0.51100000000E-03 0. -1.
         11   -1    0    0    0    0 -0.00000000000E+00 -0.00000000000E+00 -0.45593999997E+02  0.45594000000E+02  0.51100000000E-03 0.  1.
    9900012    2    1    2    0    0 -0.10103472363E+02 -0.19019262381E+02 -0.34487000473E+02  0.50528859614E+02  0.29999999282E+02 0.  0.
         12    1    1    2    0    0  0.10103472363E+02  0.19019262381E+02  0.34487000473E+02  0.40659140386E+02  0.00000000000E+00 0. -1.
         11    1    3    3    0    0 -0.67286384193E+01 -0.92346896814E+01 -0.17353785045E+02  0.20777582249E+02  0.51100000000E-03 0. -1.
        -11    1    3    3    0    0 -0.30931770645E+01 -0.12478834743E+02 -0.21242114534E+02  0.24829750120E+02  0.51100000000E-03 0.  1.
         12    1    3    3    0    0 -0.28165687919E+00  0.26942620425E+01  0.41088991059E+01  0.49215272440E+01  0.00000000000E+00 0. -1.
</event>
<event>
 7    1  0.5456331E-013  0.5052884E+02  0.7816164E-02  0.1300439E+00
        -11   -1    0    0    0    0  0.00000000000E+00  0.00000000000E+00  0.45593999997E+02  0.45594000000E+02  0.51100000000E-03 0.  1.
         11   -1    0    0    0    0 -0.00000000000E+00 -0.00000000000E+00 -0.45593999997E+02  0.45594000000E+02  0.51100000000E-03 0. -1.
    9900012    2    1    2    0    0  0.54541110698E+01 -0.17063810858E+02  0.36499947737E+02  0.50528841704E+02  0.29999944843E+02 0.  0.
         12    1    1    2    0    0 -0.54541110698E+01  0.17063810858E+02 -0.36499947737E+02  0.40659158296E+02  0.00000000000E+00 0. -1.
         11    1    3    3    0    0  0.54436998940E+01 -0.36164235315E+01  0.58114933987E+01  0.87456185305E+01  0.51100000000E-03 0. -1.
        -11    1    3    3    0    0  0.39238533487E+01 -0.14097063916E+02  0.33741188412E+02  0.36777596875E+02  0.51100000000E-03 0.  1.
        -12    1    3    3    0    0 -0.39134421729E+01  0.64967659017E+00 -0.30527340740E+01  0.50056262984E+01  0.00000000000E+00 0.  1.
</event>
<event>
 7    1  0.5456331E-013  0.5052887E+02  0.7816164E-02  0.1300439E+00
        -11   -1    0    0    0    0  0.00000000000E+00  0.00000000000E+00  0.45593999997E+02  0.45594000000E+02  0.51100000000E-03 0. -1.
         11   -1    0    0    0    0 -0.00000000000E+00 -0.00000000000E+00 -0.45593999997E+02  0.45594000000E+02  0.51100000000E-03 0.  1.
    9900012    2    1    2    0    0  0.39801892467E+02 -0.61219801751E+01  0.56120737599E+01  0.50528872401E+02  0.30000038149E+02 0.  0.
         12    1    1    2    0    0 -0.39801892467E+02  0.61219801751E+01 -0.56120737599E+01  0.40659127599E+02  0.00000000000E+00 0. -1.
         11    1    3    3    0    0  0.14307895999E+02  0.48138183338E+01 -0.25214434218E+01  0.15305110652E+02  0.51100000000E-03 0. -1.
        -11    1    3    3    0    0  0.11208078635E+02  0.46560768199E+01  0.70793826755E+01  0.14050542245E+02  0.51100000000E-03 0.  1.
        -12    1    3    3    0    0  0.14285917833E+02 -0.15591875329E+02  0.10541345063E+01  0.21173219504E+02  0.00000000000E+00 0.  1.
</event>
<event>
 7    1  0.5456331E-013  0.5052885E+02  0.7816164E-02  0.1300439E+00
        -11   -1    0    0    0    0  0.00000000000E+00  0.00000000000E+00  0.45593999997E+02  0.45594000000E+02  0.51100000000E-03 0.  1.
         11   -1    0    0    0    0 -0.00000000000E+00 -0.00000000000E+00 -0.45593999997E+02  0.45594000000E+02  0.51100000000E-03 0. -1.
    9900012    2    1    2    0    0  0.32761593287E+02  0.48734227852E+00  0.24075020020E+02  0.50528854827E+02  0.29999984733E+02 0.  0.
         12    1    1    2    0    0 -0.32761593287E+02 -0.48734227852E+00 -0.24075020020E+02  0.40659145173E+02  0.00000000000E+00 0. -1.
         11    1    3    3    0    0  0.15770359554E+02  0.32882947560E+01  0.14416367824E+02  0.21618251187E+02  0.51100000000E-03 0. -1.
        -11    1    3    3    0    0  0.14282193481E+02  0.58283473326E+01  0.12028122428E+02  0.19560838752E+02  0.51100000000E-03 0.  1.
         12    1    3    3    0    0  0.27090402512E+01 -0.86292998100E+01 -0.23694702315E+01  0.93497648886E+01  0.00000000000E+00 0. -1.
</event>
<event>
 7    1  0.5456331E-013  0.5052886E+02  0.7816164E-02  0.1300439E+00
        -11   -1    0    0    0    0  0.00000000000E+00  0.00000000000E+00  0.45593999997E+02  0.45594000000E+02  0.51100000000E-03 0. -1.
         11   -1    0    0    0    0 -0.00000000000E+00 -0.00000000000E+00 -0.45593999997E+02  0.45594000000E+02  0.51100000000E-03 0.  1.
    9900012    2    1    2    0    0  0.13146710505E+02 -0.31753175170E+02  0.21727076889E+02  0.50528855879E+02  0.29999987931E+02 0.  0.
         12    1    1    2    0    0 -0.13146710505E+02  0.31753175170E+02 -0.21727076889E+02  0.40659144121E+02  0.00000000000E+00 0. -1.
         11    1    3    3    0    0 -0.72072164994E+00 -0.17033572439E+01  0.68997737099E+01  0.71433705704E+01  0.51100000000E-03 0. -1.
        -11    1    3    3    0    0 -0.48837449627E+01 -0.20921489044E+00  0.45411583721E+01  0.66720952745E+01  0.51100000000E-03 0.  1.
        -12    1    3    3    0    0  0.18751177118E+02 -0.29840603036E+02  0.10286144807E+02  0.36713390035E+02  0.00000000000E+00 0.  1.
</event>
<event>
 7    1  0.5456331E-013  0.5052886E+02  0.7816164E-02  0.1300439E+00
        -11   -1    0    0    0    0  0.00000000000E+00  0.00000000000E+00  0.45593999997E+02  0.45594000000E+02  0.51100000000E-03 0.  1.
         11   -1    0    0    0    0 -0.00000000000E+00 -0.00000000000E+00 -0.45593999997E+02  0.45594000000E+02  0.51100000000E-03 0. -1.
    9900012    2    1    2    0    0 -0.11248343248E+02 -0.39029787693E+02  0.18209764690E+01  0.50528861932E+02  0.30000006327E+02 0.  0.
         12    1    1    2    0    0  0.11248343248E+02  0.39029787693E+02 -0.18209764690E+01  0.40659138068E+02  0.00000000000E+00 0. -1.
         11    1    3    3    0    0  0.77187293018E+01 -0.19453066868E+02  0.72141914025E+01  0.22136963442E+02  0.51100000000E-03 0. -1.
        -11    1    3    3    0    0 -0.25762270057E+01 -0.35040535963E+01  0.11923959757E+01  0.45096724509E+01  0.51100000000E-03 0.  1.
         12    1    3    3    0    0 -0.16390845544E+02 -0.16072667229E+02 -0.65856109092E+01  0.23882226038E+02  0.00000000000E+00 0. -1.
</event>
<event>
 7    1  0.5456331E-013  0.5052886E+02  0.7816164E-02  0.1300439E+00
        -11   -1    0    0    0    0  0.00000000000E+00  0.00000000000E+00  0.45593999997E+02  0.45594000000E+02  0.51100000000E-03 0.  1.
         11   -1    0    0    0    0 -0.00000000000E+00 -0.00000000000E+00 -0.45593999997E+02  0.45594000000E+02  0.51100000000E-03 0. -1.
    9900012    2    1    2    0    0  0.19931909867E+02 -0.15741801714E+02  0.31750285725E+02  0.50528855939E+02  0.29999988113E+02 0.  0.
         12    1    1    2    0    0 -0.19931909867E+02  0.15741801714E+02 -0.31750285725E+02  0.40659144061E+02  0.00000000000E+00 0. -1.
         11    1    3    3    0    0 -0.15528799048E+01 -0.38717001357E+01 -0.43393530555E+01  0.60192593515E+01  0.51100000000E-03 0. -1.
        -11    1    3    3    0    0  0.14717808826E+01 -0.97321257986E+00  0.87144870226E+01  0.88913197007E+01  0.51100000000E-03 0.  1.
        -12    1    3    3    0    0  0.20013008889E+02 -0.10896888998E+02  0.27375151758E+02  0.35618276887E+02  0.00000000000E+00 0.  1.
</event>
<event>
 7    1  0.5456331E-013  0.5052886E+02  0.7816164E-02  0.1300439E+00
        -11   -1    0    0    0    0  0.00000000000E+00  0.00000000000E+00  0.45593999997E+02  0.45594000000E+02  0.51100000000E-03 0. -1.
         11   -1    0    0    0    0 -0.00000000000E+00 -0.00000000000E+00 -0.45593999997E+02  0.45594000000E+02  0.51100000000E-03 0.  1.
    9900012    2    1    2    0    0 -0.58480823202E+01  0.17976802548E+02  0.35997221821E+02  0.50528862337E+02  0.30000007560E+02 0.  0.
         12    1    1    2    0    0  0.58480823202E+01 -0.17976802548E+02 -0.35997221821E+02  0.40659137663E+02  0.00000000000E+00 0. -1.
         11    1    3    3    0    0 -0.11078809596E+01  0.73026807346E+01  0.14521423253E+02  0.16291969792E+02  0.51100000000E-03 0. -1.
        -11    1    3    3    0    0  0.77710971901E+01  0.11741007931E+02  0.12122647167E+02  0.18579553099E+02  0.51100000000E-03 0.  1.
         12    1    3    3    0    0 -0.12511298551E+02 -0.10668861172E+01  0.93531514003E+01  0.15657339446E+02  0.00000000000E+00 0. -1.
</event>
<event>
 7    1  0.5456331E-013  0.5052885E+02  0.7816164E-02  0.1300439E+00
        -11   -1    0    0    0    0  0.00000000000E+00  0.00000000000E+00  0.45593999997E+02  0.45594000000E+02  0.51100000000E-03 0.  1.
         11   -1    0    0    0    0 -0.00000000000E+00 -0.00000000000E+00 -0.45593999997E+02  0.45594000000E+02  0.51100000000E-03 0. -1.
    9900012    2    1    2    0    0  0.13389112899E+02  0.62773032813E+01  0.37874707290E+02  0.50528851792E+02  0.29999975507E+02 0.  0.
         12    1    1    2    0    0 -0.13389112899E+02 -0.62773032813E+01 -0.37874707290E+02  0.40659148208E+02  0.00000000000E+00 0. -1.
         11    1    3    3    0    0  0.61695537733E+01 -0.51374336737E+01  0.67131538106E+01  0.10465326218E+02  0.51100000000E-03 0. -1.
        -11    1    3    3    0    0  0.58763998054E+01  0.14030516482E+01 -0.12021597341E+01  0.61600176045E+01  0.51100000000E-03 0.  1.
        -12    1    3    3    0    0  0.13431593204E+01  0.10011685307E+02  0.32363713213E+02  0.33903507969E+02  0.00000000000E+00 0.  1.
</event>
<event>
 7    1  0.5456331E-013  0.5052885E+02  0.7816164E-02  0.1300439E+00
        -11   -1    0    0    0    0  0.00000000000E+00  0.00000000000E+00  0.45593999997E+02  0.45594000000E+02  0.51100000000E-03 0. -1.
         11   -1    0    0    0    0 -0.00000000000E+00 -0.00000000000E+00 -0.45593999997E+02  0.45594000000E+02  0.51100000000E-03 0.  1.
    9900012    2    1    2    0    0  0.14215416515E+02  0.35925602033E+02  0.12666483715E+02  0.50528846568E+02  0.29999959627E+02 0.  0.
         12    1    1    2    0    0 -0.14215416515E+02 -0.35925602033E+02 -0.12666483715E+02  0.40659153432E+02  0.00000000000E+00 0. -1.
         11    1    3    3    0    0  0.33716249588E+01  0.14185351206E+02  0.54633755175E+01  0.15570501469E+02  0.51100000000E-03 0. -1.
        -11    1    3    3    0    0  0.16852866926E+02  0.21436700892E+02  0.89394426573E+01  0.28696078199E+02  0.51100000000E-03 0.  1.
         12    1    3    3    0    0 -0.60090753696E+01  0.30354993622E+00 -0.17363344602E+01  0.62622668994E+01  0.00000000000E+00 0. -1.
</event>
<event>
 7    1  0.5456331E-013  0.5052885E+02  0.7816164E-02  0.1300439E+00
        -11   -1    0    0    0    0  0.00000000000E+00  0.00000000000E+00  0.45593999997E+02  0.45594000000E+02  0.51100000000E-03 0. -1.
         11   -1    0    0    0    0 -0.00000000000E+00 -0.00000000000E+00 -0.45593999997E+02  0.45594000000E+02  0.51100000000E-03 0.  1.
    9900012    2    1    2    0    0  0.21230912604E+02  0.18839984395E+02 -0.29111335130E+02  0.50528849799E+02  0.29999969449E+02 0.  0.
         12    1    1    2    0    0 -0.21230912604E+02 -0.18839984395E+02  0.29111335130E+02  0.40659150201E+02  0.00000000000E+00 0. -1.
         11    1    3    3    0    0  0.23089832290E+02  0.16121844991E+02 -0.10475721128E+02  0.30046546798E+02  0.51100000000E-03 0. -1.
        -11    1    3    3    0    0  0.29862426343E+01  0.43618413814E+00 -0.51053946210E+01  0.59306792335E+01  0.51100000000E-03 0.  1.
        -12    1    3    3    0    0 -0.48451623202E+01  0.22819552659E+01 -0.13530219382E+02  0.14551623767E+02  0.00000000000E+00 0.  1.
</event>
<event>
 7    1  0.5456331E-013  0.5052885E+02  0.7816164E-02  0.1300439E+00
        -11   -1    0    0    0    0  0.00000000000E+00  0.00000000000E+00  0.45593999997E+02  0.45594000000E+02  0.51100000000E-03 0.  1.
         11   -1    0    0    0    0 -0.00000000000E+00 -0.00000000000E+00 -0.45593999997E+02  0.45594000000E+02  0.51100000000E-03 0. -1.
    9900012    2    1    2    0    0 -0.63997292633E+01  0.38875714554E+02  0.10044332716E+02  0.50528851750E+02  0.29999975378E+02 0.  0.
         12    1    1    2    0    0  0.63997292633E+01 -0.38875714554E+02 -0.10044332716E+02  0.40659148250E+02  0.00000000000E+00 0. -1.
         11    1    3    3    0    0 -0.50459533065E+01  0.13793113473E+02  0.64494101049E+01  0.16040776634E+02  0.51100000000E-03 0. -1.
        -11    1    3    3    0    0 -0.11299383550E+02  0.16747905169E+02  0.64377924862E+01  0.21204093202E+02  0.51100000000E-03 0.  1.
         12    1    3    3    0    0  0.99456075934E+01  0.83346959116E+01 -0.28428698754E+01  0.13283981913E+02  0.00000000000E+00 0. -1.
</event>
<event>
 7    1  0.5456331E-013  0.5052886E+02  0.7816164E-02  0.1300439E+00
        -11   -1    0    0    0    0  0.00000000000E+00  0.00000000000E+00  0.45593999997E+02  0.45594000000E+02  0.51100000000E-03 0.  1.
         11   -1    0    0    0    0 -0.00000000000E+00 -0.00000000000E+00 -0.45593999997E+02  0.45594000000E+02  0.51100000000E-03 0. -1.
    9900012    2    1    2    0    0  0.42779213014E+01 -0.13517165684E+02  0.38107104169E+02  0.50528858753E+02  0.29999996665E+02 0.  0.
         12    1    1    2    0    0 -0.42779213014E+01  0.13517165684E+02 -0.38107104169E+02  0.40659141247E+02  0.00000000000E+00 0. -1.
         11    1    3    3    0    0 -0.10389072280E+02 -0.11358456931E+01  0.42744552725E+01  0.11291321287E+02  0.51100000000E-03 0.  1.
        -11    1    3    3    0    0  0.45266722000E+01 -0.37655712702E+01  0.61019391561E+01  0.84796196804E+01  0.51100000000E-03 0. -1.
        -12    1    3    3    0    0  0.10140321381E+02 -0.86157487211E+01  0.27730709741E+02  0.30757917785E+02  0.00000000000E+00 0.  1.
</event>
<event>
 7    1  0.5456331E-013  0.5052884E+02  0.7816164E-02  0.1300439E+00
        -11   -1    0    0    0    0  0.00000000000E+00  0.00000000000E+00  0.45593999997E+02  0.45594000000E+02  0.51100000000E-03 0.  1.
         11   -1    0    0    0    0 -0.00000000000E+00 -0.00000000000E+00 -0.45593999997E+02  0.45594000000E+02  0.51100000000E-03 0. -1.
    9900012    2    1    2    0    0  0.36787161949E+02 -0.58484421904E+01  0.16299305390E+02  0.50528844616E+02  0.29999953695E+02 0.  0.
         12    1    1    2    0    0 -0.36787161949E+02  0.58484421904E+01 -0.16299305390E+02  0.40659155384E+02  0.00000000000E+00 0. -1.
         11    1    3    3    0    0  0.16439669873E+02  0.82906279528E+00 -0.98049866925E+00  0.16489738281E+02  0.51100000000E-03 0. -1.
        -11    1    3    3    0    0  0.65855631358E+01 -0.37767698867E+01 -0.39619187196E+01  0.85633190291E+01  0.51100000000E-03 0.  1.
        -12    1    3    3    0    0  0.13761928940E+02 -0.29007350989E+01  0.21241722779E+02  0.25475787307E+02  0.00000000000E+00 0.  1.
</event>
<event>
 7    1  0.5456331E-013  0.5052877E+02  0.7816164E-02  0.1300439E+00
        -11   -1    0    0    0    0  0.00000000000E+00  0.00000000000E+00  0.45593999997E+02  0.45594000000E+02  0.51100000000E-03 0. -1.
         11   -1    0    0    0    0 -0.00000000000E+00 -0.00000000000E+00 -0.45593999997E+02  0.45594000000E+02  0.51100000000E-03 0.  1.
    9900012    2    1    2    0    0 -0.32794335182E+02  0.19830315092E+02 -0.13581736681E+02  0.50528765035E+02  0.29999711799E+02 0.  0.
         12    1    1    2    0    0  0.32794335182E+02 -0.19830315092E+02  0.13581736681E+02  0.40659234965E+02  0.00000000000E+00 0. -1.
         11    1    3    3    0    0 -0.24041466784E+02  0.10655565783E+02 -0.14658592731E+02  0.30106603069E+02  0.51100000000E-03 0. -1.
        -11    1    3    3    0    0 -0.13098581024E+02  0.52362461381E+01 -0.11396909957E+01  0.14152384756E+02  0.51100000000E-03 0.  1.
         12    1    3    3    0    0  0.43457126258E+01  0.39385031712E+01  0.22165470457E+01  0.62697772099E+01  0.00000000000E+00 0. -1.
</event>
<event>
 7    1  0.5456331E-013  0.5052887E+02  0.7816164E-02  0.1300439E+00
        -11   -1    0    0    0    0  0.00000000000E+00  0.00000000000E+00  0.45593999997E+02  0.45594000000E+02  0.51100000000E-03 0. -1.
         11   -1    0    0    0    0 -0.00000000000E+00 -0.00000000000E+00 -0.45593999997E+02  0.45594000000E+02  0.51100000000E-03 0.  1.
    9900012    2    1    2    0    0 -0.24778636015E+02  0.32214347938E+02  0.11914473647E+01  0.50528873562E+02  0.30000041679E+02 0.  0.
         12    1    1    2    0    0  0.24778636015E+02 -0.32214347938E+02 -0.11914473647E+01  0.40659126438E+02  0.00000000000E+00 0. -1.
         11    1    3    3    0    0 -0.62085018659E+00  0.70661414479E+01 -0.26020706537E+01  0.75555662835E+01  0.51100000000E-03 0. -1.
        -11    1    3    3    0    0 -0.13603118058E+02  0.13914413236E+02 -0.10361453235E+02  0.22045757642E+02  0.51100000000E-03 0.  1.
         12    1    3    3    0    0 -0.10554667771E+02  0.11233793255E+02  0.14154971253E+02  0.20927549637E+02  0.00000000000E+00 0. -1.
</event>
<event>
 7    1  0.5456331E-013  0.5052886E+02  0.7816164E-02  0.1300439E+00
        -11   -1    0    0    0    0  0.00000000000E+00  0.00000000000E+00  0.45593999997E+02  0.45594000000E+02  0.51100000000E-03 0.  1.
         11   -1    0    0    0    0 -0.00000000000E+00 -0.00000000000E+00 -0.45593999997E+02  0.45594000000E+02  0.51100000000E-03 0. -1.
    9900012    2    1    2    0    0 -0.26180108273E+02  0.22061591175E+02 -0.21932929922E+02  0.50528864626E+02  0.30000014518E+02 0.  0.
         12    1    1    2    0    0  0.26180108273E+02 -0.22061591175E+02  0.21932929922E+02  0.40659135374E+02  0.00000000000E+00 0. -1.
         11    1    3    3    0    0 -0.45375371519E+01  0.74585292886E+01 -0.37948213821E+01  0.95194312928E+01  0.51100000000E-03 0. -1.
        -11    1    3    3    0    0  0.48141911711E+01  0.81738169368E+01 -0.36168677516E+01  0.10152312670E+02  0.51100000000E-03 0.  1.
        -12    1    3    3    0    0 -0.26456762293E+02  0.64292449496E+01 -0.14521240788E+02  0.30857120664E+02  0.00000000000E+00 0.  1.
</event>
<event>
 7    1  0.5456331E-013  0.5052885E+02  0.7816164E-02  0.1300439E+00
        -11   -1    0    0    0    0  0.00000000000E+00  0.00000000000E+00  0.45593999997E+02  0.45594000000E+02  0.51100000000E-03 0.  1.
         11   -1    0    0    0    0 -0.00000000000E+00 -0.00000000000E+00 -0.45593999997E+02  0.45594000000E+02  0.51100000000E-03 0. -1.
    9900012    2    1    2    0    0  0.26708937317E+01 -0.33216358196E+02  0.23296051256E+02  0.50528854297E+02  0.29999983122E+02 0.  0.
         12    1    1    2    0    0 -0.26708937317E+01  0.33216358196E+02 -0.23296051256E+02  0.40659145703E+02  0.00000000000E+00 0. -1.
         11    1    3    3    0    0 -0.33190532269E+01  0.14388391747E+01  0.77097455022E+00  0.36987531023E+01  0.51100000000E-03 0. -1.
        -11    1    3    3    0    0  0.83854032972E+01 -0.33032109709E+01  0.85431319783E+01  0.12418184063E+02  0.51100000000E-03 0.  1.
        -12    1    3    3    0    0 -0.23954563386E+01 -0.31351986400E+02  0.13981944727E+02  0.34411917132E+02  0.00000000000E+00 0.  1.
</event>
<event>
 7    1  0.5456331E-013  0.5052886E+02  0.7816164E-02  0.1300439E+00
        -11   -1    0    0    0    0  0.00000000000E+00  0.00000000000E+00  0.45593999997E+02  0.45594000000E+02  0.51100000000E-03 0.  1.
         11   -1    0    0    0    0 -0.00000000000E+00 -0.00000000000E+00 -0.45593999997E+02  0.45594000000E+02  0.51100000000E-03 0. -1.
    9900012    2    1    2    0    0  0.22565170851E+02  0.30744313950E+02  0.14098444307E+02  0.50528857022E+02  0.29999991405E+02 0.  0.
         12    1    1    2    0    0 -0.22565170851E+02 -0.30744313950E+02 -0.14098444307E+02  0.40659142978E+02  0.00000000000E+00 0. -1.
         11    1    3    3    0    0  0.21332417723E+01 -0.38403674985E+01  0.56974989405E+01  0.71944865988E+01  0.51100000000E-03 0. -1.
        -11    1    3    3    0    0  0.18151467519E+02  0.18682080783E+02  0.80564232347E+01  0.27265396954E+02  0.51100000000E-03 0.  1.
        -12    1    3    3    0    0  0.22804615601E+01  0.15902600666E+02  0.34452213161E+00  0.16068973470E+02  0.00000000000E+00 0.  1.
</event>
<event>
 7    1  0.5456331E-013  0.5052886E+02  0.7816164E-02  0.1300439E+00
        -11   -1    0    0    0    0  0.00000000000E+00  0.00000000000E+00  0.45593999997E+02  0.45594000000E+02  0.51100000000E-03 0.  1.
         11   -1    0    0    0    0 -0.00000000000E+00 -0.00000000000E+00 -0.45593999997E+02  0.45594000000E+02  0.51100000000E-03 0. -1.
    9900012    2    1    2    0    0  0.17505898612E+02 -0.70457397764E+01  0.36014810060E+02  0.50528862296E+02  0.30000007435E+02 0.  0.
         12    1    1    2    0    0 -0.17505898612E+02  0.70457397764E+01 -0.36014810060E+02  0.40659137704E+02  0.00000000000E+00 0. -1.
         11    1    3    3    0    0  0.36929475102E+01  0.53306406518E+01  0.72195755473E+01  0.97044248885E+01  0.51100000000E-03 0. -1.
        -11    1    3    3    0    0  0.17623666519E+02 -0.29686925543E+01  0.23030336015E+02  0.29151383059E+02  0.51100000000E-03 0.  1.
         12    1    3    3    0    0 -0.38107154176E+01 -0.94076878739E+01  0.57648984977E+01  0.11673054348E+02  0.00000000000E+00 0. -1.
</event>
<event>
 7    1  0.5456331E-013  0.5052883E+02  0.7816164E-02  0.1300439E+00
        -11   -1    0    0    0    0  0.00000000000E+00  0.00000000000E+00  0.45593999997E+02  0.45594000000E+02  0.51100000000E-03 0.  1.
         11   -1    0    0    0    0 -0.00000000000E+00 -0.00000000000E+00 -0.45593999997E+02  0.45594000000E+02  0.51100000000E-03 0. -1.
    9900012    2    1    2    0    0 -0.30184438780E+02  0.19560108551E+02  0.18959695918E+02  0.50528828092E+02  0.29999903468E+02 0.  0.
         12    1    1    2    0    0  0.30184438780E+02 -0.19560108551E+02 -0.18959695918E+02  0.40659171908E+02  0.00000000000E+00 0. -1.
         11    1    3    3    0    0 -0.18154876577E+02  0.68445170367E+01  0.56697597227E+01  0.20213686764E+02  0.51100000000E-03 0. -1.
        -11    1    3    3    0    0 -0.10404703270E+02  0.95046649256E+01 -0.23320015984E+01  0.14284072851E+02  0.51100000000E-03 0.  1.
         12    1    3    3    0    0 -0.16248589322E+01  0.32109265888E+01  0.15621937794E+02  0.16031068478E+02  0.00000000000E+00 0. -1.
</event>
<event>
 7    1  0.5456331E-013  0.5052886E+02  0.7816164E-02  0.1300439E+00
        -11   -1    0    0    0    0  0.00000000000E+00  0.00000000000E+00  0.45593999997E+02  0.45594000000E+02  0.51100000000E-03 0. -1.
         11   -1    0    0    0    0 -0.00000000000E+00 -0.00000000000E+00 -0.45593999997E+02  0.45594000000E+02  0.51100000000E-03 0.  1.
    9900012    2    1    2    0    0 -0.24287589708E+02  0.29676453215E+02 -0.13512461493E+02  0.50528861976E+02  0.30000006462E+02 0.  0.
         12    1    1    2    0    0  0.24287589708E+02 -0.29676453215E+02  0.13512461493E+02  0.40659138024E+02  0.00000000000E+00 0. -1.
         11    1    3    3    0    0 -0.13305082949E+02  0.40953047790E+01 -0.49679947008E+00  0.13929952027E+02  0.51100000000E-03 0. -1.
        -11    1    3    3    0    0 -0.99700080780E+01  0.28254762100E+02 -0.83106292697E+01  0.31093394822E+02  0.51100000000E-03 0.  1.
         12    1    3    3    0    0 -0.10124986811E+01 -0.26736136641E+01 -0.47050327531E+01  0.55055151269E+01  0.00000000000E+00 0. -1.
</event>
<event>
 7    1  0.5456331E-013  0.5052886E+02  0.7816164E-02  0.1300439E+00
        -11   -1    0    0    0    0  0.00000000000E+00  0.00000000000E+00  0.45593999997E+02  0.45594000000E+02  0.51100000000E-03 0. -1.
         11   -1    0    0    0    0 -0.00000000000E+00 -0.00000000000E+00 -0.45593999997E+02  0.45594000000E+02  0.51100000000E-03 0.  1.
    9900012    2    1    2    0    0  0.29879107718E+02  0.71799581289E+01 -0.26624282862E+02  0.50528864315E+02  0.30000013571E+02 0.  0.
         12    1    1    2    0    0 -0.29879107718E+02 -0.71799581289E+01  0.26624282862E+02  0.40659135685E+02  0.00000000000E+00 0. -1.
         11    1    3    3    0    0  0.70771107087E+01  0.12504703228E+01 -0.18509200628E+01  0.74212584749E+01  0.51100000000E-03 0. -1.
        -11    1    3    3    0    0  0.21895077838E+02  0.13588979668E+02 -0.24236383650E+02  0.35375939488E+02  0.51100000000E-03 0.  1.
        -12    1    3    3    0    0  0.90691917046E+00 -0.76594918620E+01 -0.53697914908E+00  0.77316663516E+01  0.00000000000E+00 0.  1.
</event>
<event>
 7    1  0.5456331E-013  0.5052886E+02  0.7816164E-02  0.1300439E+00
        -11   -1    0    0    0    0  0.00000000000E+00  0.00000000000E+00  0.45593999997E+02  0.45594000000E+02  0.51100000000E-03 0.  1.
         11   -1    0    0    0    0 -0.00000000000E+00 -0.00000000000E+00 -0.45593999997E+02  0.45594000000E+02  0.51100000000E-03 0. -1.
    9900012    2    1    2    0    0 -0.14404903408E+02  0.18473188795E+02  0.33232606303E+02  0.50528855049E+02  0.29999985407E+02 0.  0.
         12    1    1    2    0    0  0.14404903408E+02 -0.18473188795E+02 -0.33232606303E+02  0.40659144951E+02  0.00000000000E+00 0. -1.
         11    1    3    3    0    0  0.47568479051E+01  0.37527395580E+01  0.14544157475E+01  0.62310497999E+01  0.51100000000E-03 0. -1.
        -11    1    3    3    0    0 -0.71255735404E+01  0.11892422879E+02  0.48859999009E+01  0.14699541337E+02  0.51100000000E-03 0.  1.
        -12    1    3    3    0    0 -0.12036177772E+02  0.28280263584E+01  0.26892190654E+02  0.29598263913E+02  0.00000000000E+00 0.  1.
</event>
<event>
 7    1  0.5456331E-013  0.5052886E+02  0.7816164E-02  0.1300439E+00
        -11   -1    0    0    0    0  0.00000000000E+00  0.00000000000E+00  0.45593999997E+02  0.45594000000E+02  0.51100000000E-03 0. -1.
         11   -1    0    0    0    0 -0.00000000000E+00 -0.00000000000E+00 -0.45593999997E+02  0.45594000000E+02  0.51100000000E-03 0.  1.
    9900012    2    1    2    0    0  0.20986826471E+02 -0.34598058007E+02 -0.39614643581E+01  0.50528859539E+02  0.29999999055E+02 0.  0.
         12    1    1    2    0    0 -0.20986826471E+02  0.34598058007E+02  0.39614643581E+01  0.40659140461E+02  0.00000000000E+00 0. -1.
         11    1    3    3    0    0  0.83441605786E+01 -0.35382713661E+01 -0.29637704900E+01  0.95356340010E+01  0.51100000000E-03 0. -1.
        -11    1    3    3    0    0  0.17243075879E+02 -0.18005329811E+02 -0.70181629862E+01  0.25899231250E+02  0.51100000000E-03 0.  1.
         12    1    3    3    0    0 -0.46004099868E+01 -0.13054456830E+02  0.60204691181E+01  0.15093994288E+02  0.00000000000E+00 0. -1.
</event>
<event>
 7    1  0.5456331E-013  0.5052886E+02  0.7816164E-02  0.1300439E+00
        -11   -1    0    0    0    0  0.00000000000E+00  0.00000000000E+00  0.45593999997E+02  0.45594000000E+02  0.51100000000E-03 0.  1.
         11   -1    0    0    0    0 -0.00000000000E+00 -0.00000000000E+00 -0.45593999997E+02  0.45594000000E+02  0.51100000000E-03 0. -1.
    9900012    2    1    2    0    0  0.30148005882E+02 -0.32112004168E+01 -0.27091542738E+02  0.50528858903E+02  0.29999997123E+02 0.  0.
         12    1    1    2    0    0 -0.30148005882E+02  0.32112004168E+01  0.27091542738E+02  0.40659141097E+02  0.00000000000E+00 0. -1.
         11    1    3    3    0    0 -0.25101149172E+01 -0.27772350841E+01 -0.32412046339E+01  0.49516784376E+01  0.51100000000E-03 0. -1.
        -11    1    3    3    0    0  0.48456205049E+01 -0.53713391078E+00  0.39336726073E+01  0.62643699889E+01  0.51100000000E-03 0.  1.
         12    1    3    3    0    0  0.27812500295E+02  0.10316857813E+00 -0.27784010711E+02  0.39312810477E+02  0.00000000000E+00 0. -1.
</event>
<event>
 7    1  0.5456331E-013  0.5052887E+02  0.7816164E-02  0.1300439E+00
        -11   -1    0    0    0    0  0.00000000000E+00  0.00000000000E+00  0.45593999997E+02  0.45594000000E+02  0.51100000000E-03 0.  1.
         11   -1    0    0    0    0 -0.00000000000E+00 -0.00000000000E+00 -0.45593999997E+02  0.45594000000E+02  0.51100000000E-03 0. -1.
    9900012    2    1    2    0    0  0.30152712289E+01  0.21724543811E+02  0.34236196519E+02  0.50528870441E+02  0.30000032193E+02 0.  0.
         12    1    1    2    0    0 -0.30152712289E+01 -0.21724543811E+02 -0.34236196519E+02  0.40659129559E+02  0.00000000000E+00 0. -1.
         11    1    3    3    0    0 -0.75611047300E+01  0.10418959171E+02  0.12675347840E+02  0.18066251910E+02  0.51100000000E-03 0. -1.
        -11    1    3    3    0    0 -0.35797260871E+01 -0.24794276075E+01  0.53949072418E+01  0.69330386216E+01  0.51100000000E-03 0.  1.
        -12    1    3    3    0    0  0.14156102046E+02  0.13785012248E+02  0.16165941438E+02  0.25529579910E+02  0.00000000000E+00 0.  1.
</event>
<event>
 7    1  0.5456331E-013  0.5052885E+02  0.7816164E-02  0.1300439E+00
        -11   -1    0    0    0    0  0.00000000000E+00  0.00000000000E+00  0.45593999997E+02  0.45594000000E+02  0.51100000000E-03 0. -1.
         11   -1    0    0    0    0 -0.00000000000E+00 -0.00000000000E+00 -0.45593999997E+02  0.45594000000E+02  0.51100000000E-03 0.  1.
    9900012    2    1    2    0    0  0.39436579753E+02  0.15287321403E+01 -0.97767975195E+01  0.50528848333E+02  0.29999964992E+02 0.  0.
         12    1    1    2    0    0 -0.39436579753E+02 -0.15287321403E+01  0.97767975195E+01  0.40659151667E+02  0.00000000000E+00 0. -1.
         11    1    3    3    0    0  0.14520053239E+01  0.86724830390E+01 -0.39951517426E+00  0.88022664216E+01  0.51100000000E-03 0. -1.
        -11    1    3    3    0    0  0.14679512526E+02  0.31664329248E+01 -0.52634674709E+01  0.15912839959E+02  0.51100000000E-03 0.  1.
         12    1    3    3    0    0  0.23305061903E+02 -0.10310183823E+02 -0.41138148743E+01  0.25813741952E+02  0.00000000000E+00 0. -1.
</event>
<event>
 7    1  0.5456331E-013  0.5052886E+02  0.7816164E-02  0.1300439E+00
        -11   -1    0    0    0    0  0.00000000000E+00  0.00000000000E+00  0.45593999997E+02  0.45594000000E+02  0.51100000000E-03 0. -1.
         11   -1    0    0    0    0 -0.00000000000E+00 -0.00000000000E+00 -0.45593999997E+02  0.45594000000E+02  0.51100000000E-03 0.  1.
    9900012    2    1    2    0    0  0.41832594712E+01 -0.37339757446E+02 -0.15537330211E+02  0.50528858641E+02  0.29999996326E+02 0.  0.
         12    1    1    2    0    0 -0.41832594712E+01  0.37339757446E+02  0.15537330211E+02  0.40659141359E+02  0.00000000000E+00 0. -1.
         11    1    3    3    0    0 -0.17777743094E+01 -0.15027633199E+02  0.39801134066E+01  0.15647093789E+02  0.51100000000E-03 0. -1.
        -11    1    3    3    0    0 -0.26770090294E+01 -0.54542900586E+01  0.18267256198E+01  0.63444924255E+01  0.51100000000E-03 0.  1.
         12    1    3    3    0    0  0.86380428100E+01 -0.16857834189E+02 -0.21344169237E+02  0.28537272427E+02  0.00000000000E+00 0. -1.
</event>
<event>
 7    1  0.5456331E-013  0.5052886E+02  0.7816164E-02  0.1300439E+00
        -11   -1    0    0    0    0  0.00000000000E+00  0.00000000000E+00  0.45593999997E+02  0.45594000000E+02  0.51100000000E-03 0. -1.
         11   -1    0    0    0    0 -0.00000000000E+00 -0.00000000000E+00 -0.45593999997E+02  0.45594000000E+02  0.51100000000E-03 0.  1.
    9900012    2    1    2    0    0 -0.17970095518E+02  0.18784427562E+02 -0.31263189542E+02  0.50528855001E+02  0.29999985260E+02 0.  0.
         12    1    1    2    0    0  0.17970095518E+02 -0.18784427562E+02  0.31263189542E+02  0.40659144999E+02  0.00000000000E+00 0. -1.
         11    1    3    3    0    0 -0.97015498235E+00  0.13202403771E+02 -0.18557041673E+02  0.22794921845E+02  0.51100000000E-03 0. -1.
        -11    1    3    3    0    0 -0.60737199770E+00  0.70426298394E+01 -0.78744929784E+01  0.10581832343E+02  0.51100000000E-03 0.  1.
        -12    1    3    3    0    0 -0.16392568538E+02 -0.14606060489E+01 -0.48316548904E+01  0.17152100813E+02  0.00000000000E+00 0.  1.
</event>
<event>
 7    1  0.5456331E-013  0.5052886E+02  0.7816164E-02  0.1300439E+00
        -11   -1    0    0    0    0  0.00000000000E+00  0.00000000000E+00  0.45593999997E+02  0.45594000000E+02  0.51100000000E-03 0. -1.
         11   -1    0    0    0    0 -0.00000000000E+00 -0.00000000000E+00 -0.45593999997E+02  0.45594000000E+02  0.51100000000E-03 0.  1.
    9900012    2    1    2    0    0  0.21800669594E+02 -0.32579401336E+02 -0.10792531109E+02  0.50528864324E+02  0.30000013599E+02 0.  0.
         12    1    1    2    0    0 -0.21800669594E+02  0.32579401336E+02  0.10792531109E+02  0.40659135676E+02  0.00000000000E+00 0. -1.
         11    1    3    3    0    0  0.51778452041E+01 -0.38203346462E+01 -0.52188897139E+01  0.82850375903E+01  0.51100000000E-03 0. -1.
        -11    1    3    3    0    0  0.62217143882E+01 -0.84738417273E+01 -0.14373756721E+02  0.17807880449E+02  0.51100000000E-03 0.  1.
         12    1    3    3    0    0  0.10401110002E+02 -0.20285224963E+02  0.88001153266E+01  0.24435946285E+02  0.00000000000E+00 0. -1.
</event>
<event>
 7    1  0.5456331E-013  0.5052886E+02  0.7816164E-02  0.1300439E+00
        -11   -1    0    0    0    0  0.00000000000E+00  0.00000000000E+00  0.45593999997E+02  0.45594000000E+02  0.51100000000E-03 0.  1.
         11   -1    0    0    0    0 -0.00000000000E+00 -0.00000000000E+00 -0.45593999997E+02  0.45594000000E+02  0.51100000000E-03 0. -1.
    9900012    2    1    2    0    0 -0.49392176908E+00 -0.59589214896E+01  0.40217069439E+02  0.50528863532E+02  0.30000011192E+02 0.  0.
         12    1    1    2    0    0  0.49392176908E+00  0.59589214896E+01 -0.40217069439E+02  0.40659136468E+02  0.00000000000E+00 0. -1.
         11    1    3    3    0    0 -0.11676419767E+01 -0.12106989613E+01  0.20173511544E+02  0.20243511258E+02  0.51100000000E-03 0. -1.
        -11    1    3    3    0    0 -0.58299191992E+01  0.47092917921E+01  0.16740769511E+02  0.18341721597E+02  0.51100000000E-03 0.  1.
         12    1    3    3    0    0  0.65036394069E+01 -0.94575143204E+01  0.33027883846E+01  0.11943630678E+02  0.00000000000E+00 0. -1.
</event>
<event>
 7    1  0.5456331E-013  0.5052886E+02  0.7816164E-02  0.1300439E+00
        -11   -1    0    0    0    0  0.00000000000E+00  0.00000000000E+00  0.45593999997E+02  0.45594000000E+02  0.51100000000E-03 0.  1.
         11   -1    0    0    0    0 -0.00000000000E+00 -0.00000000000E+00 -0.45593999997E+02  0.45594000000E+02  0.51100000000E-03 0. -1.
    9900012    2    1    2    0    0  0.21273961353E+01  0.36672174754E+02  0.17429610138E+02  0.50528861728E+02  0.30000005707E+02 0.  0.
         12    1    1    2    0    0 -0.21273961353E+01 -0.36672174754E+02 -0.17429610138E+02  0.40659138272E+02  0.00000000000E+00 0. -1.
         11    1    3    3    0    0 -0.22820205318E+01  0.35397268416E+01  0.85645030839E+01  0.95440032039E+01  0.51100000000E-03 0. -1.
        -11    1    3    3    0    0 -0.48419101642E+01 -0.63853775238E+00  0.21283855294E+01  0.53274618462E+01  0.51100000000E-03 0.  1.
         12    1    3    3    0    0  0.92513268313E+01  0.33770985665E+02  0.67367215244E+01  0.35657396677E+02  0.00000000000E+00 0. -1.
</event>
<event>
 7    1  0.5456331E-013  0.5052886E+02  0.7816164E-02  0.1300439E+00
        -11   -1    0    0    0    0  0.00000000000E+00  0.00000000000E+00  0.45593999997E+02  0.45594000000E+02  0.51100000000E-03 0.  1.
         11   -1    0    0    0    0 -0.00000000000E+00 -0.00000000000E+00 -0.45593999997E+02  0.45594000000E+02  0.51100000000E-03 0. -1.
    9900012    2    1    2    0    0 -0.16723788410E+02 -0.78582405761E+01  0.36217799262E+02  0.50528855554E+02  0.29999986942E+02 0.  0.
         12    1    1    2    0    0  0.16723788410E+02  0.78582405761E+01 -0.36217799262E+02  0.40659144446E+02  0.00000000000E+00 0. -1.
         11    1    3    3    0    0 -0.88640366834E+01 -0.58687990554E+01  0.52064391378E+01  0.11837269847E+02  0.51100000000E-03 0. -1.
        -11    1    3    3    0    0 -0.14895961421E+02 -0.35100446175E+01  0.16573393622E+02  0.22558534001E+02  0.51100000000E-03 0.  1.
         12    1    3    3    0    0  0.70362096945E+01  0.15206030968E+01  0.14437966501E+02  0.16133051706E+02  0.00000000000E+00 0. -1.
</event>
<event>
 7    1  0.5456331E-013  0.5052885E+02  0.7816164E-02  0.1300439E+00
        -11   -1    0    0    0    0  0.00000000000E+00  0.00000000000E+00  0.45593999997E+02  0.45594000000E+02  0.51100000000E-03 0. -1.
         11   -1    0    0    0    0 -0.00000000000E+00 -0.00000000000E+00 -0.45593999997E+02  0.45594000000E+02  0.51100000000E-03 0.  1.
    9900012    2    1    2    0    0  0.39386819883E+02 -0.83332100079E+00 -0.10057352175E+02  0.50528851741E+02  0.29999975351E+02 0.  0.
         12    1    1    2    0    0 -0.39386819883E+02  0.83332100079E+00  0.10057352175E+02  0.40659148259E+02  0.00000000000E+00 0. -1.
         11    1    3    3    0    0 -0.28867221586E+01  0.15222912885E+01 -0.38010343571E+01  0.50098301401E+01  0.51100000000E-03 0. -1.
        -11    1    3    3    0    0  0.14652831085E+02  0.47105774453E+01  0.27182827468E+01  0.15629589246E+02  0.51100000000E-03 0.  1.
        -12    1    3    3    0    0  0.27620710957E+02 -0.70661897346E+01 -0.89746005651E+01  0.29889432354E+02  0.00000000000E+00 0.  1.
</event>
<event>
 7    1  0.5456331E-013  0.5052886E+02  0.7816164E-02  0.1300439E+00
        -11   -1    0    0    0    0  0.00000000000E+00  0.00000000000E+00  0.45593999997E+02  0.45594000000E+02  0.51100000000E-03 0.  1.
         11   -1    0    0    0    0 -0.00000000000E+00 -0.00000000000E+00 -0.45593999997E+02  0.45594000000E+02  0.51100000000E-03 0. -1.
    9900012    2    1    2    0    0 -0.17555920812E+02  0.25240135880E+02  0.26606218198E+02  0.50528860048E+02  0.30000000603E+02 0.  0.
         12    1    1    2    0    0  0.17555920812E+02 -0.25240135880E+02 -0.26606218198E+02  0.40659139952E+02  0.00000000000E+00 0. -1.
         11    1    3    3    0    0 -0.47412994975E+01  0.70277278471E+01  0.13499656733E+00  0.84786263010E+01  0.51100000000E-03 0. -1.
        -11    1    3    3    0    0 -0.10493851049E+02  0.11771847313E+02  0.11411824969E+01  0.15811375549E+02  0.51100000000E-03 0.  1.
         12    1    3    3    0    0 -0.23207702653E+01  0.64405607197E+01  0.25330039134E+02  0.26238858198E+02  0.00000000000E+00 0. -1.
</event>
<event>
 7    1  0.5456331E-013  0.5052887E+02  0.7816164E-02  0.1300439E+00
        -11   -1    0    0    0    0  0.00000000000E+00  0.00000000000E+00  0.45593999997E+02  0.45594000000E+02  0.51100000000E-03 0.  1.
         11   -1    0    0    0    0 -0.00000000000E+00 -0.00000000000E+00 -0.45593999997E+02  0.45594000000E+02  0.51100000000E-03 0. -1.
    9900012    2    1    2    0    0  0.24517073594E+02 -0.30357279393E+02  0.11424267021E+02  0.50528865888E+02  0.30000018353E+02 0.  0.
         12    1    1    2    0    0 -0.24517073594E+02  0.30357279393E+02 -0.11424267021E+02  0.40659134112E+02  0.00000000000E+00 0. -1.
         11    1    3    3    0    0  0.96978618141E+01 -0.16491260702E+02  0.19877932837E+02  0.27588809642E+02  0.51100000000E-03 0.  1.
        -11    1    3    3    0    0  0.10971841970E+02 -0.11106012701E+02 -0.33287648620E+01  0.15962628546E+02  0.51100000000E-03 0. -1.
        -12    1    3    3    0    0  0.38473698099E+01 -0.27600059900E+01 -0.51249009543E+01  0.69774277001E+01  0.00000000000E+00 0.  1.
</event>
<event>
 7    1  0.5456331E-013  0.5052889E+02  0.7816164E-02  0.1300439E+00
        -11   -1    0    0    0    0  0.00000000000E+00  0.00000000000E+00  0.45593999997E+02  0.45594000000E+02  0.51100000000E-03 0.  1.
         11   -1    0    0    0    0 -0.00000000000E+00 -0.00000000000E+00 -0.45593999997E+02  0.45594000000E+02  0.51100000000E-03 0. -1.
    9900012    2    1    2    0    0  0.21881294368E+02  0.13871459523E+02  0.31336154370E+02  0.50528892739E+02  0.30000099971E+02 0.  0.
         12    1    1    2    0    0 -0.21881294368E+02 -0.13871459523E+02 -0.31336154370E+02  0.40659107261E+02  0.00000000000E+00 0. -1.
         11    1    3    3    0    0 -0.24172513611E+01 -0.21268558020E+01 -0.84535998376E+00  0.33288516801E+01  0.51100000000E-03 0. -1.
        -11    1    3    3    0    0  0.93974463822E+01  0.15624776205E+02  0.24175220147E+02  0.30280140346E+02  0.51100000000E-03 0.  1.
         12    1    3    3    0    0  0.14901099347E+02  0.37353911993E+00  0.80062942072E+01  0.16919900714E+02  0.00000000000E+00 0. -1.
</event>
<event>
 7    1  0.5456331E-013  0.5052886E+02  0.7816164E-02  0.1300439E+00
        -11   -1    0    0    0    0  0.00000000000E+00  0.00000000000E+00  0.45593999997E+02  0.45594000000E+02  0.51100000000E-03 0. -1.
         11   -1    0    0    0    0 -0.00000000000E+00 -0.00000000000E+00 -0.45593999997E+02  0.45594000000E+02  0.51100000000E-03 0.  1.
    9900012    2    1    2    0    0  0.17326267576E+02  0.34409895110E+02 -0.12997123315E+02  0.50528860264E+02  0.30000001259E+02 0.  0.
         12    1    1    2    0    0 -0.17326267576E+02 -0.34409895110E+02  0.12997123315E+02  0.40659139736E+02  0.00000000000E+00 0. -1.
         11    1    3    3    0    0 -0.48626336940E+00 -0.24725287146E+01 -0.18284001696E+01  0.31133418942E+01  0.51100000000E-03 0. -1.
        -11    1    3    3    0    0 -0.29424481812E+00  0.47097751749E+01  0.52082746079E+01  0.70281353760E+01  0.51100000000E-03 0.  1.
        -12    1    3    3    0    0  0.18106775763E+02  0.32172648650E+02 -0.16376997753E+02  0.40387382994E+02  0.00000000000E+00 0.  1.
</event>
<event>
 7    1  0.5456331E-013  0.5052887E+02  0.7816164E-02  0.1300439E+00
        -11   -1    0    0    0    0  0.00000000000E+00  0.00000000000E+00  0.45593999997E+02  0.45594000000E+02  0.51100000000E-03 0.  1.
         11   -1    0    0    0    0 -0.00000000000E+00 -0.00000000000E+00 -0.45593999997E+02  0.45594000000E+02  0.51100000000E-03 0. -1.
    9900012    2    1    2    0    0 -0.22683674422E+02  0.32600321215E+02  0.87083373892E+01  0.50528866110E+02  0.30000019029E+02 0.  0.
         12    1    1    2    0    0  0.22683674422E+02 -0.32600321215E+02 -0.87083373892E+01  0.40659133890E+02  0.00000000000E+00 0. -1.
         11    1    3    3    0    0 -0.10370856522E+02  0.18038738994E+02  0.10197053103E+02  0.23171764320E+02  0.51100000000E-03 0. -1.
        -11    1    3    3    0    0 -0.59217894375E+01  0.13006275626E+02  0.75623189672E+01  0.16168471302E+02  0.51100000000E-03 0.  1.
         12    1    3    3    0    0 -0.63910284628E+01  0.15553065949E+01 -0.90510346807E+01  0.11188630489E+02  0.00000000000E+00 0. -1.
</event>
<event>
 7    1  0.5456331E-013  0.5052886E+02  0.7816164E-02  0.1300439E+00
        -11   -1    0    0    0    0  0.00000000000E+00  0.00000000000E+00  0.45593999997E+02  0.45594000000E+02  0.51100000000E-03 0.  1.
         11   -1    0    0    0    0 -0.00000000000E+00 -0.00000000000E+00 -0.45593999997E+02  0.45594000000E+02  0.51100000000E-03 0. -1.
    9900012    2    1    2    0    0  0.29003747498E+02  0.25882113679E+02  0.11919072674E+02  0.50528862395E+02  0.30000007734E+02 0.  0.
         12    1    1    2    0    0 -0.29003747498E+02 -0.25882113679E+02 -0.11919072674E+02  0.40659137605E+02  0.00000000000E+00 0. -1.
         11    1    3    3    0    0  0.77580427258E+01  0.66869798908E+01  0.31413512255E+01  0.10713123484E+02  0.51100000000E-03 0. -1.
        -11    1    3    3    0    0  0.20696526330E+02  0.21921873534E+02  0.14499502654E+02  0.33453704113E+02  0.51100000000E-03 0.  1.
         12    1    3    3    0    0  0.54917844216E+00 -0.27267397459E+01 -0.57217812060E+01  0.63620347982E+01  0.00000000000E+00 0. -1.
</event>
<event>
 7    1  0.5456331E-013  0.5052888E+02  0.7816164E-02  0.1300439E+00
        -11   -1    0    0    0    0  0.00000000000E+00  0.00000000000E+00  0.45593999997E+02  0.45594000000E+02  0.51100000000E-03 0.  1.
         11   -1    0    0    0    0 -0.00000000000E+00 -0.00000000000E+00 -0.45593999997E+02  0.45594000000E+02  0.51100000000E-03 0. -1.
    9900012    2    1    2    0    0 -0.39222419893E+02  0.30557762901E+01  0.10267796768E+02  0.50528884891E+02  0.30000076115E+02 0.  0.
         12    1    1    2    0    0  0.39222419893E+02 -0.30557762901E+01 -0.10267796768E+02  0.40659115109E+02  0.00000000000E+00 0. -1.
         11    1    3    3    0    0 -0.96249644372E+01 -0.45606669290E+00 -0.50936607815E+01  0.10899234728E+02  0.51100000000E-03 0. -1.
        -11    1    3    3    0    0 -0.15590210758E+02  0.27481471511E+01 -0.34119236531E+01  0.16194079398E+02  0.51100000000E-03 0.  1.
         12    1    3    3    0    0 -0.14007244697E+02  0.76369583189E+00  0.18773381202E+02  0.23435570765E+02  0.00000000000E+00 0. -1.
</event>
<event>
 7    1  0.5456331E-013  0.5052885E+02  0.7816164E-02  0.1300439E+00
        -11   -1    0    0    0    0  0.00000000000E+00  0.00000000000E+00  0.45593999997E+02  0.45594000000E+02  0.51100000000E-03 0.  1.
         11   -1    0    0    0    0 -0.00000000000E+00 -0.00000000000E+00 -0.45593999997E+02  0.45594000000E+02  0.51100000000E-03 0. -1.
    9900012    2    1    2    0    0  0.12667403563E+02 -0.31888653075E+02  0.21813235345E+02  0.50528849195E+02  0.29999967613E+02 0.  0.
         12    1    1    2    0    0 -0.12667403563E+02  0.31888653075E+02 -0.21813235345E+02  0.40659150805E+02  0.00000000000E+00 0. -1.
         11    1    3    3    0    0  0.61804044907E+01 -0.84044142420E+01  0.98191791610E+01  0.14326474028E+02  0.51100000000E-03 0. -1.
        -11    1    3    3    0    0  0.51743045804E+01  0.68080315417E+00  0.10773417182E+02  0.11970941436E+02  0.51100000000E-03 0.  1.
         12    1    3    3    0    0  0.13126944915E+01 -0.24165041988E+02  0.12206390015E+01  0.24231433731E+02  0.00000000000E+00 0. -1.
</event>
<event>
 7    1  0.5456331E-013  0.5052878E+02  0.7816164E-02  0.1300439E+00
        -11   -1    0    0    0    0  0.00000000000E+00  0.00000000000E+00  0.45593999997E+02  0.45594000000E+02  0.51100000000E-03 0.  1.
         11   -1    0    0    0    0 -0.00000000000E+00 -0.00000000000E+00 -0.45593999997E+02  0.45594000000E+02  0.51100000000E-03 0. -1.
    9900012    2    1    2    0    0  0.31775337049E+02  0.15802208234E+01  0.25318032117E+02  0.50528783423E+02  0.29999767690E+02 0.  0.
         12    1    1    2    0    0 -0.31775337049E+02 -0.15802208234E+01 -0.25318032117E+02  0.40659216577E+02  0.00000000000E+00 0. -1.
         11    1    3    3    0    0  0.84933820177E+01  0.19636178819E+01 -0.20964825235E+01  0.89659674613E+01  0.51100000000E-03 0. -1.
        -11    1    3    3    0    0  0.12254085738E+02  0.29623264323E+01  0.88465142587E+00  0.12638061701E+02  0.51100000000E-03 0.  1.
        -12    1    3    3    0    0  0.11027869294E+02 -0.33457234909E+01  0.26529863214E+02  0.28924754260E+02  0.00000000000E+00 0.  1.
</event>
<event>
 7    1  0.5456331E-013  0.5052885E+02  0.7816164E-02  0.1300439E+00
        -11   -1    0    0    0    0  0.00000000000E+00  0.00000000000E+00  0.45593999997E+02  0.45594000000E+02  0.51100000000E-03 0.  1.
         11   -1    0    0    0    0 -0.00000000000E+00 -0.00000000000E+00 -0.45593999997E+02  0.45594000000E+02  0.51100000000E-03 0. -1.
    9900012    2    1    2    0    0  0.80640706446E+01  0.96767594497E+01  0.38658731079E+02  0.50528851000E+02  0.29999973098E+02 0.  0.
         12    1    1    2    0    0 -0.80640706446E+01 -0.96767594497E+01 -0.38658731079E+02  0.40659149000E+02  0.00000000000E+00 0. -1.
         11    1    3    3    0    0  0.75742924286E+01  0.92489767499E+01  0.97341032914E+01  0.15416427727E+02  0.51100000000E-03 0. -1.
        -11    1    3    3    0    0  0.10023640363E+02  0.83457679423E+00  0.11770226121E+02  0.15482509737E+02  0.51100000000E-03 0.  1.
         12    1    3    3    0    0 -0.95338621471E+01 -0.40679409444E+00  0.17154401666E+02  0.19629913535E+02  0.00000000000E+00 0. -1.
</event>
<event>
 7    1  0.5456331E-013  0.5052887E+02  0.7816164E-02  0.1300439E+00
        -11   -1    0    0    0    0  0.00000000000E+00  0.00000000000E+00  0.45593999997E+02  0.45594000000E+02  0.51100000000E-03 0.  1.
         11   -1    0    0    0    0 -0.00000000000E+00 -0.00000000000E+00 -0.45593999997E+02  0.45594000000E+02  0.51100000000E-03 0. -1.
    9900012    2    1    2    0    0  0.10261409288E+02 -0.31291311082E+02 -0.23847902473E+02  0.50528866682E+02  0.30000020766E+02 0.  0.
         12    1    1    2    0    0 -0.10261409288E+02  0.31291311082E+02  0.23847902473E+02  0.40659133318E+02  0.00000000000E+00 0. -1.
         11    1    3    3    0    0  0.52877629543E+00 -0.30319514250E+01 -0.13292628437E+02  0.13644277366E+02  0.51100000000E-03 0. -1.
        -11    1    3    3    0    0  0.79769869467E+01 -0.21416307098E+02 -0.16056787721E+02  0.27930466567E+02  0.51100000000E-03 0.  1.
        -12    1    3    3    0    0  0.17556460456E+01 -0.68430525597E+01  0.55015136853E+01  0.89541227489E+01  0.00000000000E+00 0.  1.
</event>
<event>
 7    1  0.5456331E-013  0.5052883E+02  0.7816164E-02  0.1300439E+00
        -11   -1    0    0    0    0  0.00000000000E+00  0.00000000000E+00  0.45593999997E+02  0.45594000000E+02  0.51100000000E-03 0.  1.
         11   -1    0    0    0    0 -0.00000000000E+00 -0.00000000000E+00 -0.45593999997E+02  0.45594000000E+02  0.51100000000E-03 0. -1.
    9900012    2    1    2    0    0  0.69574525362E+01  0.32920842064E+02  0.22824995494E+02  0.50528826284E+02  0.29999897973E+02 0.  0.
         12    1    1    2    0    0 -0.69574525362E+01 -0.32920842064E+02 -0.22824995494E+02  0.40659173716E+02  0.00000000000E+00 0. -1.
         11    1    3    3    0    0  0.53880888174E+01 -0.21928587124E+01  0.59408645710E+01  0.83146859562E+01  0.51100000000E-03 0. -1.
        -11    1    3    3    0    0 -0.53485066075E+01  0.15698960242E+02  0.13377004410E+02  0.21307466364E+02  0.51100000000E-03 0.  1.
        -12    1    3    3    0    0  0.69178703262E+01  0.19414740534E+02  0.35071265129E+01  0.20906673964E+02  0.00000000000E+00 0.  1.
</event>
<event>
 7    1  0.5456331E-013  0.5052887E+02  0.7816164E-02  0.1300439E+00
        -11   -1    0    0    0    0  0.00000000000E+00  0.00000000000E+00  0.45593999997E+02  0.45594000000E+02  0.51100000000E-03 0.  1.
         11   -1    0    0    0    0 -0.00000000000E+00 -0.00000000000E+00 -0.45593999997E+02  0.45594000000E+02  0.51100000000E-03 0. -1.
    9900012    2    1    2    0    0  0.10228042485E+02 -0.14811999422E+02  0.36457605109E+02  0.50528866337E+02  0.30000019719E+02 0.  0.
         12    1    1    2    0    0 -0.10228042485E+02  0.14811999422E+02 -0.36457605109E+02  0.40659133663E+02  0.00000000000E+00 0. -1.
         11    1    3    3    0    0  0.50478557425E+01 -0.10118107539E+02  0.20865954970E+01  0.11498296778E+02  0.51100000000E-03 0.  1.
        -11    1    3    3    0    0 -0.18162864674E+01  0.31071090282E+01  0.57172182830E+00  0.36441582231E+01  0.51100000000E-03 0. -1.
        -12    1    3    3    0    0  0.69964732097E+01 -0.78010009104E+01  0.33799287783E+02  0.35386411336E+02  0.00000000000E+00 0.  1.
</event>
<event>
 7    1  0.5456331E-013  0.5052886E+02  0.7816164E-02  0.1300439E+00
        -11   -1    0    0    0    0  0.00000000000E+00  0.00000000000E+00  0.45593999997E+02  0.45594000000E+02  0.51100000000E-03 0.  1.
         11   -1    0    0    0    0 -0.00000000000E+00 -0.00000000000E+00 -0.45593999997E+02  0.45594000000E+02  0.51100000000E-03 0. -1.
    9900012    2    1    2    0    0  0.17059655582E+02 -0.30816537847E+02  0.20309470762E+02  0.50528862576E+02  0.30000008285E+02 0.  0.
         12    1    1    2    0    0 -0.17059655582E+02  0.30816537847E+02 -0.20309470762E+02  0.40659137424E+02  0.00000000000E+00 0. -1.
         11    1    3    3    0    0  0.63204577034E+01 -0.33630217656E+01 -0.33462557335E+01  0.79028810362E+01  0.51100000000E-03 0. -1.
        -11    1    3    3    0    0  0.97651683489E+01 -0.11710331771E+02  0.13507709772E+01  0.15307350050E+02  0.51100000000E-03 0.  1.
        -12    1    3    3    0    0  0.97402953001E+00 -0.15743184310E+02  0.22304955518E+02  0.27318631489E+02  0.00000000000E+00 0.  1.
</event>
<event>
 7    1  0.5456331E-013  0.5052886E+02  0.7816164E-02  0.1300439E+00
        -11   -1    0    0    0    0  0.00000000000E+00  0.00000000000E+00  0.45593999997E+02  0.45594000000E+02  0.51100000000E-03 0.  1.
         11   -1    0    0    0    0 -0.00000000000E+00 -0.00000000000E+00 -0.45593999997E+02  0.45594000000E+02  0.51100000000E-03 0. -1.
    9900012    2    1    2    0    0 -0.23106511004E+02 -0.28260414382E+02  0.17905417724E+02  0.50528857662E+02  0.29999993349E+02 0.  0.
         12    1    1    2    0    0  0.23106511004E+02  0.28260414382E+02 -0.17905417724E+02  0.40659142338E+02  0.00000000000E+00 0. -1.
         11    1    3    3    0    0  0.95156690053E+00 -0.85327097342E+01 -0.11242510765E+01  0.86589003758E+01  0.51100000000E-03 0. -1.
        -11    1    3    3    0    0 -0.12367797197E+02 -0.13022733185E+02 -0.70399574280E+00  0.17973580539E+02  0.51100000000E-03 0.  1.
        -12    1    3    3    0    0 -0.11690280707E+02 -0.67049714627E+01  0.19733664543E+02  0.23896376747E+02  0.00000000000E+00 0.  1.
</event>
<event>
 7    1  0.5456331E-013  0.5052886E+02  0.7816164E-02  0.1300439E+00
        -11   -1    0    0    0    0  0.00000000000E+00  0.00000000000E+00  0.45593999997E+02  0.45594000000E+02  0.51100000000E-03 0. -1.
         11   -1    0    0    0    0 -0.00000000000E+00 -0.00000000000E+00 -0.45593999997E+02  0.45594000000E+02  0.51100000000E-03 0.  1.
    9900012    2    1    2    0    0 -0.21118870752E+02 -0.93480338882E+01 -0.33463013092E+02  0.50528859765E+02  0.29999999743E+02 0.  0.
         12    1    1    2    0    0  0.21118870752E+02  0.93480338882E+01  0.33463013092E+02  0.40659140235E+02  0.00000000000E+00 0. -1.
         11    1    3    3    0    0 -0.16111221495E+02 -0.14113473458E+02 -0.23554584583E+02  0.31836771920E+02  0.51100000000E-03 0.  1.
        -11    1    3    3    0    0  0.32050050272E+01 -0.23392080306E+01 -0.59134220022E+01  0.71212717595E+01  0.51100000000E-03 0. -1.
        -12    1    3    3    0    0 -0.82126542839E+01  0.71046476006E+01 -0.39950065070E+01  0.11570816086E+02  0.00000000000E+00 0.  1.
</event>
<event>
 7    1  0.5456331E-013  0.5052885E+02  0.7816164E-02  0.1300439E+00
        -11   -1    0    0    0    0  0.00000000000E+00  0.00000000000E+00  0.45593999997E+02  0.45594000000E+02  0.51100000000E-03 0.  1.
         11   -1    0    0    0    0 -0.00000000000E+00 -0.00000000000E+00 -0.45593999997E+02  0.45594000000E+02  0.51100000000E-03 0. -1.
    9900012    2    1    2    0    0  0.29486327425E+02  0.13653142508E+02  0.24440013903E+02  0.50528854843E+02  0.29999984780E+02 0.  0.
         12    1    1    2    0    0 -0.29486327425E+02 -0.13653142508E+02 -0.24440013903E+02  0.40659145157E+02  0.00000000000E+00 0. -1.
         11    1    3    3    0    0  0.22986257965E+02  0.59271122437E+01  0.24520819361E+02  0.34128716606E+02  0.51100000000E-03 0.  1.
        -11    1    3    3    0    0 -0.11032968307E+01 -0.30092564216E+01  0.43716306462E+00  0.32348106457E+01  0.51100000000E-03 0. -1.
        -12    1    3    3    0    0  0.76033662908E+01  0.10735286686E+02 -0.51796852303E+00  0.13165327591E+02  0.00000000000E+00 0.  1.
</event>
<event>
 7    1  0.5456331E-013  0.5052887E+02  0.7816164E-02  0.1300439E+00
        -11   -1    0    0    0    0  0.00000000000E+00  0.00000000000E+00  0.45593999997E+02  0.45594000000E+02  0.51100000000E-03 0.  1.
         11   -1    0    0    0    0 -0.00000000000E+00 -0.00000000000E+00 -0.45593999997E+02  0.45594000000E+02  0.51100000000E-03 0. -1.
    9900012    2    1    2    0    0 -0.80746156812E+01 -0.10991713376E+02  0.38303359091E+02  0.50528874345E+02  0.30000044060E+02 0.  0.
         12    1    1    2    0    0  0.80746156812E+01  0.10991713376E+02 -0.38303359091E+02  0.40659125655E+02  0.00000000000E+00 0. -1.
         11    1    3    3    0    0 -0.11310538911E+02 -0.48774346688E+00  0.11599387578E+02  0.16208392165E+02  0.51100000000E-03 0. -1.
        -11    1    3    3    0    0 -0.55649032835E+01 -0.31869618910E+01  0.20118570879E+02  0.21115912699E+02  0.51100000000E-03 0.  1.
        -12    1    3    3    0    0  0.88008265132E+01 -0.73170080180E+01  0.65854006342E+01  0.13204569480E+02  0.00000000000E+00 0.  1.
</event>
<event>
 7    1  0.5456331E-013  0.5052886E+02  0.7816164E-02  0.1300439E+00
        -11   -1    0    0    0    0  0.00000000000E+00  0.00000000000E+00  0.45593999997E+02  0.45594000000E+02  0.51100000000E-03 0.  1.
         11   -1    0    0    0    0 -0.00000000000E+00 -0.00000000000E+00 -0.45593999997E+02  0.45594000000E+02  0.51100000000E-03 0. -1.
    9900012    2    1    2    0    0 -0.12774928402E+02 -0.31080522051E+02  0.22890346873E+02  0.50528860478E+02  0.30000001910E+02 0.  0.
         12    1    1    2    0    0  0.12774928402E+02  0.31080522051E+02 -0.22890346873E+02  0.40659139522E+02  0.00000000000E+00 0. -1.
         11    1    3    3    0    0  0.18776135086E+01 -0.27538167115E+01 -0.19321299238E+01  0.38525401064E+01  0.51100000000E-03 0. -1.
        -11    1    3    3    0    0  0.36786655892E+01 -0.17030778331E+02  0.72016168421E+01  0.18853203347E+02  0.51100000000E-03 0.  1.
         12    1    3    3    0    0 -0.18331207500E+02 -0.11295927009E+02  0.17620859955E+02  0.27823117024E+02  0.00000000000E+00 0. -1.
</event>
<event>
 7    1  0.5456331E-013  0.5052886E+02  0.7816164E-02  0.1300439E+00
        -11   -1    0    0    0    0  0.00000000000E+00  0.00000000000E+00  0.45593999997E+02  0.45594000000E+02  0.51100000000E-03 0. -1.
         11   -1    0    0    0    0 -0.00000000000E+00 -0.00000000000E+00 -0.45593999997E+02  0.45594000000E+02  0.51100000000E-03 0.  1.
    9900012    2    1    2    0    0 -0.17210467417E+02 -0.19890534532E+02 -0.31005355844E+02  0.50528860269E+02  0.30000001273E+02 0.  0.
         12    1    1    2    0    0  0.17210467417E+02  0.19890534532E+02  0.31005355844E+02  0.40659139731E+02  0.00000000000E+00 0. -1.
         11    1    3    3    0    0  0.86844723960E+00  0.55250585520E+00 -0.82935484318E+00  0.13218521268E+01  0.51100000000E-03 0. -1.
        -11    1    3    3    0    0 -0.10990692604E+02 -0.97372533184E+00  0.17251673157E+01  0.11167795998E+02  0.51100000000E-03 0.  1.
         12    1    3    3    0    0 -0.70882220533E+01 -0.19469315055E+02 -0.31901168316E+02  0.38039212144E+02  0.00000000000E+00 0. -1.
</event>
<event>
 7    1  0.5456331E-013  0.5052882E+02  0.7816164E-02  0.1300439E+00
        -11   -1    0    0    0    0  0.00000000000E+00  0.00000000000E+00  0.45593999997E+02  0.45594000000E+02  0.51100000000E-03 0.  1.
         11   -1    0    0    0    0 -0.00000000000E+00 -0.00000000000E+00 -0.45593999997E+02  0.45594000000E+02  0.51100000000E-03 0. -1.
    9900012    2    1    2    0    0  0.14835905749E+02 -0.20924045964E+02  0.31547566834E+02  0.50528821798E+02  0.29999884338E+02 0.  0.
         12    1    1    2    0    0 -0.14835905749E+02  0.20924045964E+02 -0.31547566834E+02  0.40659178202E+02  0.00000000000E+00 0. -1.
         11    1    3    3    0    0 -0.91155594385E+00  0.22585640756E+01  0.14435998210E+02  0.14640016752E+02  0.51100000000E-03 0. -1.
        -11    1    3    3    0    0 -0.74183258265E+00 -0.60685554824E+01  0.87933419205E+01  0.10709833968E+02  0.51100000000E-03 0.  1.
        -12    1    3    3    0    0  0.16489294275E+02 -0.17114054557E+02  0.83182267039E+01  0.25178971079E+02  0.00000000000E+00 0.  1.
</event>
<event>
 7    1  0.5456331E-013  0.5052886E+02  0.7816164E-02  0.1300439E+00
        -11   -1    0    0    0    0  0.00000000000E+00  0.00000000000E+00  0.45593999997E+02  0.45594000000E+02  0.51100000000E-03 0.  1.
         11   -1    0    0    0    0 -0.00000000000E+00 -0.00000000000E+00 -0.45593999997E+02  0.45594000000E+02  0.51100000000E-03 0. -1.
    9900012    2    1    2    0    0 -0.12434941225E+02 -0.17292778892E+02  0.34633764847E+02  0.50528860406E+02  0.30000001689E+02 0.  0.
         12    1    1    2    0    0  0.12434941225E+02  0.17292778892E+02 -0.34633764847E+02  0.40659139594E+02  0.00000000000E+00 0. -1.
         11    1    3    3    0    0 -0.43691807048E+01  0.27997248451E-01  0.60890678546E+01  0.74944827358E+01  0.51100000000E-03 0. -1.
        -11    1    3    3    0    0 -0.96284819751E+01 -0.19404925068E+02  0.32039574786E+02  0.38675484933E+02  0.51100000000E-03 0.  1.
         12    1    3    3    0    0  0.15627214546E+01  0.20841489279E+01 -0.34948777939E+01  0.43588927370E+01  0.00000000000E+00 0. -1.
</event>
<event>
 7    1  0.5456331E-013  0.5052886E+02  0.7816164E-02  0.1300439E+00
        -11   -1    0    0    0    0  0.00000000000E+00  0.00000000000E+00  0.45593999997E+02  0.45594000000E+02  0.51100000000E-03 0. -1.
         11   -1    0    0    0    0 -0.00000000000E+00 -0.00000000000E+00 -0.45593999997E+02  0.45594000000E+02  0.51100000000E-03 0.  1.
    9900012    2    1    2    0    0 -0.26929158118E+02 -0.28630107565E+02 -0.10406887370E+02  0.50528856861E+02  0.29999990913E+02 0.  0.
         12    1    1    2    0    0  0.26929158118E+02  0.28630107565E+02  0.10406887370E+02  0.40659143139E+02  0.00000000000E+00 0. -1.
         11    1    3    3    0    0 -0.17474945812E+01 -0.33606338609E+01 -0.18374697451E+01  0.42099753662E+01  0.51100000000E-03 0. -1.
        -11    1    3    3    0    0 -0.31261745962E+02 -0.18124905129E+02 -0.66361164783E+01  0.36740263863E+02  0.51100000000E-03 0.  1.
         12    1    3    3    0    0  0.60800824251E+01 -0.71445685749E+01 -0.19333011461E+01  0.95786176319E+01  0.00000000000E+00 0. -1.
</event>
<event>
 7    1  0.5456331E-013  0.5052886E+02  0.7816164E-02  0.1300439E+00
        -11   -1    0    0    0    0  0.00000000000E+00  0.00000000000E+00  0.45593999997E+02  0.45594000000E+02  0.51100000000E-03 0.  1.
         11   -1    0    0    0    0 -0.00000000000E+00 -0.00000000000E+00 -0.45593999997E+02  0.45594000000E+02  0.51100000000E-03 0. -1.
    9900012    2    1    2    0    0  0.17836285182E+02  0.17448234540E+02  0.32102825557E+02  0.50528863679E+02  0.30000011639E+02 0.  0.
         12    1    1    2    0    0 -0.17836285182E+02 -0.17448234540E+02 -0.32102825557E+02  0.40659136321E+02  0.00000000000E+00 0. -1.
         11    1    3    3    0    0 -0.44717343615E+00  0.29160260898E+01 -0.37412772469E+01  0.47644861148E+01  0.51100000000E-03 0. -1.
        -11    1    3    3    0    0  0.61069125368E+01  0.64709476240E+01  0.23160078153E+01  0.91940979082E+01  0.51100000000E-03 0.  1.
         12    1    3    3    0    0  0.12176546081E+02  0.80612608264E+01  0.33528094988E+02  0.36570279656E+02  0.00000000000E+00 0. -1.
</event>
<event>
 7    1  0.5456331E-013  0.5052886E+02  0.7816164E-02  0.1300439E+00
        -11   -1    0    0    0    0  0.00000000000E+00  0.00000000000E+00  0.45593999997E+02  0.45594000000E+02  0.51100000000E-03 0.  1.
         11   -1    0    0    0    0 -0.00000000000E+00 -0.00000000000E+00 -0.45593999997E+02  0.45594000000E+02  0.51100000000E-03 0. -1.
    9900012    2    1    2    0    0  0.38613875199E+01 -0.38291792557E+02  0.13114639822E+02  0.50528862424E+02  0.30000007823E+02 0.  0.
         12    1    1    2    0    0 -0.38613875199E+01  0.38291792557E+02 -0.13114639822E+02  0.40659137576E+02  0.00000000000E+00 0. -1.
         11    1    3    3    0    0 -0.81593644871E+01 -0.84181780412E+01  0.23924457081E+01  0.11965147182E+02  0.51100000000E-03 0. -1.
        -11    1    3    3    0    0 -0.33651781509E+01  0.82128744831E-01  0.89480481134E+00  0.34830798196E+01  0.51100000000E-03 0.  1.
        -12    1    3    3    0    0  0.15385930158E+02 -0.29955743260E+02  0.98273893030E+01  0.35080635422E+02  0.00000000000E+00 0.  1.
</event>
<event>
 7    1  0.5456331E-013  0.5052886E+02  0.7816164E-02  0.1300439E+00
        -11   -1    0    0    0    0  0.00000000000E+00  0.00000000000E+00  0.45593999997E+02  0.45594000000E+02  0.51100000000E-03 0. -1.
         11   -1    0    0    0    0 -0.00000000000E+00 -0.00000000000E+00 -0.45593999997E+02  0.45594000000E+02  0.51100000000E-03 0.  1.
    9900012    2    1    2    0    0 -0.27901910924E+02 -0.29494599109E+02  0.21720197247E+01  0.50528859828E+02  0.29999999933E+02 0.  0.
         12    1    1    2    0    0  0.27901910924E+02  0.29494599109E+02 -0.21720197247E+01  0.40659140172E+02  0.00000000000E+00 0. -1.
         11    1    3    3    0    0 -0.71022011847E+01  0.21950768443E+01  0.17491173957E+01  0.76366901171E+01  0.51100000000E-03 0.  1.
        -11    1    3    3    0    0 -0.44448823620E+01  0.21560894267E+01  0.18493249661E+01  0.52750074806E+01  0.51100000000E-03 0. -1.
        -12    1    3    3    0    0 -0.16354827377E+02 -0.33845765380E+02 -0.14264226371E+01  0.37617162230E+02  0.00000000000E+00 0.  1.
</event>
<event>
 7    1  0.5456331E-013  0.5052890E+02  0.7816164E-02  0.1300439E+00
        -11   -1    0    0    0    0  0.00000000000E+00  0.00000000000E+00  0.45593999997E+02  0.45594000000E+02  0.51100000000E-03 0.  1.
         11   -1    0    0    0    0 -0.00000000000E+00 -0.00000000000E+00 -0.45593999997E+02  0.45594000000E+02  0.51100000000E-03 0. -1.
    9900012    2    1    2    0    0  0.29020757338E+01  0.15165100946E+02  0.37613293713E+02  0.50528902688E+02  0.30000130209E+02 0.  0.
         12    1    1    2    0    0 -0.29020757338E+01 -0.15165100946E+02 -0.37613293713E+02  0.40659097312E+02  0.00000000000E+00 0. -1.
         11    1    3    3    0    0  0.34135983405E+01 -0.11836515676E+01  0.14910468040E+01  0.39085682156E+01  0.51100000000E-03 0. -1.
        -11    1    3    3    0    0  0.72962233194E+00  0.59244763924E+00 -0.36782857919E+01  0.37964627722E+01  0.51100000000E-03 0.  1.
        -12    1    3    3    0    0 -0.12411449386E+01  0.15756304875E+02  0.39800532701E+02  0.42823871700E+02  0.00000000000E+00 0.  1.
</event>
<event>
 7    1  0.5456331E-013  0.5052887E+02  0.7816164E-02  0.1300439E+00
        -11   -1    0    0    0    0  0.00000000000E+00  0.00000000000E+00  0.45593999997E+02  0.45594000000E+02  0.51100000000E-03 0.  1.
         11   -1    0    0    0    0 -0.00000000000E+00 -0.00000000000E+00 -0.45593999997E+02  0.45594000000E+02  0.51100000000E-03 0. -1.
    9900012    2    1    2    0    0  0.32406252423E+02  0.23168150994E+02 -0.81385807051E+01  0.50528869261E+02  0.30000028605E+02 0.  0.
         12    1    1    2    0    0 -0.32406252423E+02 -0.23168150994E+02  0.81385807051E+01  0.40659130739E+02  0.00000000000E+00 0. -1.
         11    1    3    3    0    0  0.50728991102E+01  0.17970236407E+02 -0.10412985201E+02  0.21379755915E+02  0.51100000000E-03 0. -1.
        -11    1    3    3    0    0  0.58542062350E+01  0.47451420252E+01 -0.82990061169E-01  0.75362451587E+01  0.51100000000E-03 0.  1.
         12    1    3    3    0    0  0.21479147078E+02  0.45277256127E+00  0.23573945575E+01  0.21612868187E+02  0.00000000000E+00 0. -1.
</event>
<event>
 7    1  0.5456331E-013  0.5052885E+02  0.7816164E-02  0.1300439E+00
        -11   -1    0    0    0    0  0.00000000000E+00  0.00000000000E+00  0.45593999997E+02  0.45594000000E+02  0.51100000000E-03 0.  1.
         11   -1    0    0    0    0 -0.00000000000E+00 -0.00000000000E+00 -0.45593999997E+02  0.45594000000E+02  0.51100000000E-03 0. -1.
    9900012    2    1    2    0    0 -0.75430230970E+01  0.94485091898E+01  0.38820038061E+02  0.50528845085E+02  0.29999955119E+02 0.  0.
         12    1    1    2    0    0  0.75430230970E+01 -0.94485091898E+01 -0.38820038061E+02  0.40659154915E+02  0.00000000000E+00 0. -1.
         11    1    3    3    0    0  0.58454303214E+01  0.42415730319E+01  0.25476762857E+02  0.26480661687E+02  0.51100000000E-03 0. -1.
        -11    1    3    3    0    0 -0.66583183951E+01 -0.23066477926E+01  0.11939637367E+02  0.13863937702E+02  0.51100000000E-03 0.  1.
         12    1    3    3    0    0 -0.67301350233E+01  0.75135839505E+01  0.14036378370E+01  0.10184245696E+02  0.00000000000E+00 0. -1.
</event>
<event>
 7    1  0.5456331E-013  0.5052887E+02  0.7816164E-02  0.1300439E+00
        -11   -1    0    0    0    0  0.00000000000E+00  0.00000000000E+00  0.45593999997E+02  0.45594000000E+02  0.51100000000E-03 0. -1.
         11   -1    0    0    0    0 -0.00000000000E+00 -0.00000000000E+00 -0.45593999997E+02  0.45594000000E+02  0.51100000000E-03 0.  1.
    9900012    2    1    2    0    0  0.36163537430E+02  0.17343921616E+02 -0.66747355739E+01  0.50528866322E+02  0.30000019671E+02 0.  0.
         12    1    1    2    0    0 -0.36163537430E+02 -0.17343921616E+02  0.66747355739E+01  0.40659133678E+02  0.00000000000E+00 0. -1.
         11    1    3    3    0    0  0.10640253030E+02  0.16878049355E+02  0.70093218695E+01  0.21147437857E+02  0.51100000000E-03 0. -1.
        -11    1    3    3    0    0  0.11516140117E+02 -0.19984405370E+01 -0.49636194604E+01  0.12698534017E+02  0.51100000000E-03 0.  1.
        -12    1    3    3    0    0  0.14007144283E+02  0.24643127980E+01 -0.87204379830E+01  0.16682894447E+02  0.00000000000E+00 0.  1.
</event>
<event>
 7    1  0.5456331E-013  0.5052886E+02  0.7816164E-02  0.1300439E+00
        -11   -1    0    0    0    0  0.00000000000E+00  0.00000000000E+00  0.45593999997E+02  0.45594000000E+02  0.51100000000E-03 0.  1.
         11   -1    0    0    0    0 -0.00000000000E+00 -0.00000000000E+00 -0.45593999997E+02  0.45594000000E+02  0.51100000000E-03 0. -1.
    9900012    2    1    2    0    0 -0.15473577952E+02 -0.27635196347E+02  0.25495687367E+02  0.50528858763E+02  0.29999996697E+02 0.  0.
         12    1    1    2    0    0  0.15473577952E+02  0.27635196347E+02 -0.25495687367E+02  0.40659141237E+02  0.00000000000E+00 0. -1.
         11    1    3    3    0    0 -0.71956352449E+01  0.53380679256E+00  0.14507350474E+02  0.16202633561E+02  0.51100000000E-03 0. -1.
        -11    1    3    3    0    0 -0.91613005681E+01 -0.18142380439E+02  0.12911526868E+02  0.24078681908E+02  0.51100000000E-03 0.  1.
        -12    1    3    3    0    0  0.88335786107E+00 -0.10026622701E+02 -0.19231899754E+01  0.10247543295E+02  0.00000000000E+00 0.  1.
</event>
<event>
 7    1  0.5456331E-013  0.5052886E+02  0.7816164E-02  0.1300439E+00
        -11   -1    0    0    0    0  0.00000000000E+00  0.00000000000E+00  0.45593999997E+02  0.45594000000E+02  0.51100000000E-03 0.  1.
         11   -1    0    0    0    0 -0.00000000000E+00 -0.00000000000E+00 -0.45593999997E+02  0.45594000000E+02  0.51100000000E-03 0. -1.
    9900012    2    1    2    0    0 -0.35301636134E+02  0.17047970637E+02  0.10785479547E+02  0.50528863442E+02  0.30000010919E+02 0.  0.
         12    1    1    2    0    0  0.35301636134E+02 -0.17047970637E+02 -0.10785479547E+02  0.40659136558E+02  0.00000000000E+00 0. -1.
         11    1    3    3    0    0 -0.49069817601E+01 -0.60675587770E+01  0.48380650862E+01  0.91815365569E+01  0.51100000000E-03 0. -1.
        -11    1    3    3    0    0 -0.19478940810E+02  0.86792151245E+01 -0.23180047976E+01  0.21450665648E+02  0.51100000000E-03 0.  1.
        -12    1    3    3    0    0 -0.10915713564E+02  0.14436314289E+02  0.82654192579E+01  0.19896661237E+02  0.00000000000E+00 0.  1.
</event>
<event>
 7    1  0.5456331E-013  0.5052884E+02  0.7816164E-02  0.1300439E+00
        -11   -1    0    0    0    0  0.00000000000E+00  0.00000000000E+00  0.45593999997E+02  0.45594000000E+02  0.51100000000E-03 0.  1.
         11   -1    0    0    0    0 -0.00000000000E+00 -0.00000000000E+00 -0.45593999997E+02  0.45594000000E+02  0.51100000000E-03 0. -1.
    9900012    2    1    2    0    0  0.30540718845E+02  0.67662932663E+01  0.25974007467E+02  0.50528839949E+02  0.29999939509E+02 0.  0.
         12    1    1    2    0    0 -0.30540718845E+02 -0.67662932663E+01 -0.25974007467E+02  0.40659160051E+02  0.00000000000E+00 0. -1.
         11    1    3    3    0    0  0.19007167877E+02 -0.26243254478E+01  0.64898090327E+01  0.20255298969E+02  0.51100000000E-03 0. -1.
        -11    1    3    3    0    0  0.10825723157E+02  0.14450063831E+02  0.14901308833E+02  0.23410459880E+02  0.51100000000E-03 0.  1.
         12    1    3    3    0    0  0.70782781100E+00 -0.50594451164E+01  0.45828896009E+01  0.68630811003E+01  0.00000000000E+00 0. -1.
</event>
<event>
 7    1  0.5456331E-013  0.5052883E+02  0.7816164E-02  0.1300439E+00
        -11   -1    0    0    0    0  0.00000000000E+00  0.00000000000E+00  0.45593999997E+02  0.45594000000E+02  0.51100000000E-03 0.  1.
         11   -1    0    0    0    0 -0.00000000000E+00 -0.00000000000E+00 -0.45593999997E+02  0.45594000000E+02  0.51100000000E-03 0. -1.
    9900012    2    1    2    0    0 -0.24093583498E+02  0.22919982740E+02  0.23395335798E+02  0.50528829919E+02  0.29999909020E+02 0.  0.
         12    1    1    2    0    0  0.24093583498E+02 -0.22919982740E+02 -0.23395335798E+02  0.40659170081E+02  0.00000000000E+00 0. -1.
         11    1    3    3    0    0 -0.96576754415E+01  0.86043926227E+01  0.45059935848E+01  0.13697088953E+02  0.51100000000E-03 0. -1.
        -11    1    3    3    0    0 -0.14055682624E+02  0.16328926678E+02  0.41382529189E+01  0.21939033661E+02  0.51100000000E-03 0.  1.
        -12    1    3    3    0    0 -0.38022543286E+00 -0.20133365609E+01  0.14751089295E+02  0.14892707305E+02  0.00000000000E+00 0.  1.
</event>
<event>
 7    1  0.5456331E-013  0.5052887E+02  0.7816164E-02  0.1300439E+00
        -11   -1    0    0    0    0  0.00000000000E+00  0.00000000000E+00  0.45593999997E+02  0.45594000000E+02  0.51100000000E-03 0.  1.
         11   -1    0    0    0    0 -0.00000000000E+00 -0.00000000000E+00 -0.45593999997E+02  0.45594000000E+02  0.51100000000E-03 0. -1.
    9900012    2    1    2    0    0 -0.38080930970E+02 -0.37792606670E+01  0.13737720873E+02  0.50528867084E+02  0.30000021989E+02 0.  0.
         12    1    1    2    0    0  0.38080930970E+02  0.37792606670E+01 -0.13737720873E+02  0.40659132916E+02  0.00000000000E+00 0. -1.
         11    1    3    3    0    0 -0.40658992610E+01  0.18566086074E+01  0.79571471405E+01  0.91265942825E+01  0.51100000000E-03 0.  1.
        -11    1    3    3    0    0 -0.33420596517E+02 -0.10938746139E+02  0.27667340026E+01  0.35273889153E+02  0.51100000000E-03 0. -1.
         12    1    3    3    0    0 -0.59443519163E+00  0.53028768643E+01  0.30138397294E+01  0.61283836490E+01  0.00000000000E+00 0. -1.
</event>
<event>
 7    1  0.5456331E-013  0.5052886E+02  0.7816164E-02  0.1300439E+00
        -11   -1    0    0    0    0  0.00000000000E+00  0.00000000000E+00  0.45593999997E+02  0.45594000000E+02  0.51100000000E-03 0.  1.
         11   -1    0    0    0    0 -0.00000000000E+00 -0.00000000000E+00 -0.45593999997E+02  0.45594000000E+02  0.51100000000E-03 0. -1.
    9900012    2    1    2    0    0 -0.16566295427E+02 -0.28278245678E+02  0.24063751749E+02  0.50528862392E+02  0.30000007726E+02 0.  0.
         12    1    1    2    0    0  0.16566295427E+02  0.28278245678E+02 -0.24063751749E+02  0.40659137608E+02  0.00000000000E+00 0. -1.
         11    1    3    3    0    0 -0.55918798105E+01 -0.50472150112E+01  0.15486222555E+02  0.17221108805E+02  0.51100000000E-03 0. -1.
        -11    1    3    3    0    0 -0.31717087772E+01 -0.12179383817E+02  0.13916864836E+02  0.18763695101E+02  0.51100000000E-03 0.  1.
         12    1    3    3    0    0 -0.78027068397E+01 -0.11051646850E+02 -0.53393356425E+01  0.14544058486E+02  0.00000000000E+00 0. -1.
</event>
<event>
 7    1  0.5456331E-013  0.5052885E+02  0.7816164E-02  0.1300439E+00
        -11   -1    0    0    0    0  0.00000000000E+00  0.00000000000E+00  0.45593999997E+02  0.45594000000E+02  0.51100000000E-03 0.  1.
         11   -1    0    0    0    0 -0.00000000000E+00 -0.00000000000E+00 -0.45593999997E+02  0.45594000000E+02  0.51100000000E-03 0. -1.
    9900012    2    1    2    0    0  0.17935690124E+02  0.36481381273E+02 -0.76576660045E+00  0.50528849021E+02  0.29999967086E+02 0.  0.
         12    1    1    2    0    0 -0.17935690124E+02 -0.36481381273E+02  0.76576660045E+00  0.40659150979E+02  0.00000000000E+00 0. -1.
         11    1    3    3    0    0  0.12927697157E+02  0.22815881936E+02  0.27506422073E+01  0.26367704775E+02  0.51100000000E-03 0. -1.
        -11    1    3    3    0    0  0.36223861560E+01  0.15082528217E+02  0.43007949096E+01  0.16096620018E+02  0.51100000000E-03 0.  1.
         12    1    3    3    0    0  0.13856068108E+01 -0.14170288796E+01 -0.78172037173E+01  0.80645242288E+01  0.00000000000E+00 0. -1.
</event>
<event>
 7    1  0.5456331E-013  0.5052887E+02  0.7816164E-02  0.1300439E+00
        -11   -1    0    0    0    0  0.00000000000E+00  0.00000000000E+00  0.45593999997E+02  0.45594000000E+02  0.51100000000E-03 0.  1.
         11   -1    0    0    0    0 -0.00000000000E+00 -0.00000000000E+00 -0.45593999997E+02  0.45594000000E+02  0.51100000000E-03 0. -1.
    9900012    2    1    2    0    0  0.38108694438E+02  0.11651344283E+02  0.80708347942E+01  0.50528870771E+02  0.30000033197E+02 0.  0.
         12    1    1    2    0    0 -0.38108694438E+02 -0.11651344283E+02 -0.80708347942E+01  0.40659129229E+02  0.00000000000E+00 0. -1.
         11    1    3    3    0    0  0.55572662809E+01  0.16213742437E+01 -0.20168588320E+01  0.61302351313E+01  0.51100000000E-03 0. -1.
        -11    1    3    3    0    0  0.34510661877E+02  0.15157858845E+02  0.95442174568E+01  0.38882368177E+02  0.51100000000E-03 0.  1.
         12    1    3    3    0    0 -0.19592337197E+01 -0.51278888061E+01  0.54347616944E+00  0.55162674630E+01  0.00000000000E+00 0. -1.
</event>
<event>
 7    1  0.5456331E-013  0.5052885E+02  0.7816164E-02  0.1300439E+00
        -11   -1    0    0    0    0  0.00000000000E+00  0.00000000000E+00  0.45593999997E+02  0.45594000000E+02  0.51100000000E-03 0.  1.
         11   -1    0    0    0    0 -0.00000000000E+00 -0.00000000000E+00 -0.45593999997E+02  0.45594000000E+02  0.51100000000E-03 0. -1.
    9900012    2    1    2    0    0  0.21898559644E+02  0.34159275098E+02  0.26005963538E+01  0.50528854766E+02  0.29999984548E+02 0.  0.
         12    1    1    2    0    0 -0.21898559644E+02 -0.34159275098E+02 -0.26005963538E+01  0.40659145234E+02  0.00000000000E+00 0. -1.
         11    1    3    3    0    0  0.53795372147E+01  0.24006819133E+02  0.10174848726E+02  0.26623191627E+02  0.51100000000E-03 0.  1.
        -11    1    3    3    0    0  0.48549905893E+00  0.35693629074E+01  0.19839938452E+01  0.41124558040E+01  0.51100000000E-03 0. -1.
        -12    1    3    3    0    0  0.16033523370E+02  0.65830930576E+01 -0.95582462172E+01  0.19793207335E+02  0.00000000000E+00 0.  1.
</event>
<event>
 7    1  0.5456331E-013  0.5052886E+02  0.7816164E-02  0.1300439E+00
        -11   -1    0    0    0    0  0.00000000000E+00  0.00000000000E+00  0.45593999997E+02  0.45594000000E+02  0.51100000000E-03 0. -1.
         11   -1    0    0    0    0 -0.00000000000E+00 -0.00000000000E+00 -0.45593999997E+02  0.45594000000E+02  0.51100000000E-03 0.  1.
    9900012    2    1    2    0    0  0.11360055980E+02 -0.29251570127E+02 -0.25854602717E+02  0.50528859473E+02  0.29999998853E+02 0.  0.
         12    1    1    2    0    0 -0.11360055980E+02  0.29251570127E+02  0.25854602717E+02  0.40659140527E+02  0.00000000000E+00 0. -1.
         11    1    3    3    0    0  0.53692330371E+01 -0.88992493509E+01 -0.75488321527E+01  0.12845628422E+02  0.51100000000E-03 0. -1.
        -11    1    3    3    0    0  0.14226452819E+02 -0.12569493007E+02 -0.39433030015E+01  0.19389011143E+02  0.51100000000E-03 0.  1.
         12    1    3    3    0    0 -0.82356298765E+01 -0.77828277689E+01 -0.14362467563E+02  0.18294219908E+02  0.00000000000E+00 0. -1.
</event>
<event>
 7    1  0.5456331E-013  0.5052887E+02  0.7816164E-02  0.1300439E+00
        -11   -1    0    0    0    0  0.00000000000E+00  0.00000000000E+00  0.45593999997E+02  0.45594000000E+02  0.51100000000E-03 0.  1.
         11   -1    0    0    0    0 -0.00000000000E+00 -0.00000000000E+00 -0.45593999997E+02  0.45594000000E+02  0.51100000000E-03 0. -1.
    9900012    2    1    2    0    0 -0.32973039245E+02 -0.22105138956E+02  0.87924157964E+01  0.50528867436E+02  0.30000023060E+02 0.  0.
         12    1    1    2    0    0  0.32973039245E+02  0.22105138956E+02 -0.87924157964E+01  0.40659132564E+02  0.00000000000E+00 0. -1.
         11    1    3    3    0    0 -0.73306998666E+01 -0.49918762349E+01  0.44235784665E+01  0.99109048825E+01  0.51100000000E-03 0. -1.
        -11    1    3    3    0    0 -0.12540486231E+02  0.39972584048E+01  0.81574068771E+01  0.15484997800E+02  0.51100000000E-03 0.  1.
         12    1    3    3    0    0 -0.13101853147E+02 -0.21110521126E+02 -0.37885695471E+01  0.25132964754E+02  0.00000000000E+00 0. -1.
</event>
<event>
 7    1  0.5456331E-013  0.5052886E+02  0.7816164E-02  0.1300439E+00
        -11   -1    0    0    0    0  0.00000000000E+00  0.00000000000E+00  0.45593999997E+02  0.45594000000E+02  0.51100000000E-03 0. -1.
         11   -1    0    0    0    0 -0.00000000000E+00 -0.00000000000E+00 -0.45593999997E+02  0.45594000000E+02  0.51100000000E-03 0.  1.
    9900012    2    1    2    0    0 -0.23994039635E+02  0.32279511870E+02  0.59569131289E+01  0.50528860331E+02  0.30000001463E+02 0.  0.
         12    1    1    2    0    0  0.23994039635E+02 -0.32279511870E+02 -0.59569131289E+01  0.40659139669E+02  0.00000000000E+00 0. -1.
         11    1    3    3    0    0  0.23483878269E+01 -0.13980723392E+01  0.29172844216E+01  0.39975092631E+01  0.51100000000E-03 0. -1.
        -11    1    3    3    0    0  0.89093441546E+00 -0.10916899586E+01  0.18819961303E+01  0.23510552512E+01  0.51100000000E-03 0.  1.
        -12    1    3    3    0    0 -0.27233361877E+02  0.34769274168E+02  0.11576325770E+01  0.44180295817E+02  0.00000000000E+00 0.  1.
</event>
<event>
 7    1  0.5456331E-013  0.5052888E+02  0.7816164E-02  0.1300439E+00
        -11   -1    0    0    0    0  0.00000000000E+00  0.00000000000E+00  0.45593999997E+02  0.45594000000E+02  0.51100000000E-03 0.  1.
         11   -1    0    0    0    0 -0.00000000000E+00 -0.00000000000E+00 -0.45593999997E+02  0.45594000000E+02  0.51100000000E-03 0. -1.
    9900012    2    1    2    0    0  0.26468758239E+02 -0.18179633205E+02  0.24941319960E+02  0.50528884570E+02  0.30000075139E+02 0.  0.
         12    1    1    2    0    0 -0.26468758239E+02  0.18179633205E+02 -0.24941319960E+02  0.40659115430E+02  0.00000000000E+00 0. -1.
         11    1    3    3    0    0  0.46178099635E+00  0.15643164776E+01  0.11077942908E+02  0.11197372329E+02  0.51100000000E-03 0. -1.
        -11    1    3    3    0    0  0.30192304364E+01  0.25485922748E+01  0.44582786080E+01  0.59571237539E+01  0.51100000000E-03 0.  1.
        -12    1    3    3    0    0  0.22987746807E+02 -0.22292541957E+02  0.94050984438E+01  0.33374388487E+02  0.00000000000E+00 0.  1.
</event>
<event>
 7    1  0.5456331E-013  0.5052886E+02  0.7816164E-02  0.1300439E+00
        -11   -1    0    0    0    0  0.00000000000E+00  0.00000000000E+00  0.45593999997E+02  0.45594000000E+02  0.51100000000E-03 0.  1.
         11   -1    0    0    0    0 -0.00000000000E+00 -0.00000000000E+00 -0.45593999997E+02  0.45594000000E+02  0.51100000000E-03 0. -1.
    9900012    2    1    2    0    0  0.20644879765E+02 -0.26572788643E+02  0.22821951491E+02  0.50528860479E+02  0.30000001911E+02 0.  0.
         12    1    1    2    0    0 -0.20644879765E+02  0.26572788643E+02 -0.22821951491E+02  0.40659139521E+02  0.00000000000E+00 0. -1.
         11    1    3    3    0    0 -0.23133213504E+01 -0.91001997384E+01  0.32739138989E+01  0.99440235029E+01  0.51100000000E-03 0. -1.
        -11    1    3    3    0    0  0.41726956111E+01 -0.11473691120E+02  0.16659678488E+02  0.20654342501E+02  0.51100000000E-03 0.  1.
         12    1    3    3    0    0  0.18785505504E+02 -0.59988977839E+01  0.28883591044E+01  0.19930494474E+02  0.00000000000E+00 0. -1.
</event>
<event>
 7    1  0.5456331E-013  0.5052886E+02  0.7816164E-02  0.1300439E+00
        -11   -1    0    0    0    0  0.00000000000E+00  0.00000000000E+00  0.45593999997E+02  0.45594000000E+02  0.51100000000E-03 0.  1.
         11   -1    0    0    0    0 -0.00000000000E+00 -0.00000000000E+00 -0.45593999997E+02  0.45594000000E+02  0.51100000000E-03 0. -1.
    9900012    2    1    2    0    0 -0.41134847623E+01  0.40449770588E+02  0.24637866896E+00  0.50528863266E+02  0.30000010383E+02 0.  0.
         12    1    1    2    0    0  0.41134847623E+01 -0.40449770588E+02 -0.24637866896E+00  0.40659136734E+02  0.00000000000E+00 0. -1.
         11    1    3    3    0    0  0.79636166943E+01  0.34504294092E+01  0.10212394252E+01  0.87388548555E+01  0.51100000000E-03 0. -1.
        -11    1    3    3    0    0  0.35983955689E+00 -0.13844335768E+01  0.78766086087E-01  0.14326008490E+01  0.51100000000E-03 0.  1.
        -12    1    3    3    0    0 -0.12436941013E+02  0.38383774756E+02 -0.85362684229E+00  0.40357407561E+02  0.00000000000E+00 0.  1.
</event>
<event>
 7    1  0.5456331E-013  0.5052887E+02  0.7816164E-02  0.1300439E+00
        -11   -1    0    0    0    0  0.00000000000E+00  0.00000000000E+00  0.45593999997E+02  0.45594000000E+02  0.51100000000E-03 0.  1.
         11   -1    0    0    0    0 -0.00000000000E+00 -0.00000000000E+00 -0.45593999997E+02  0.45594000000E+02  0.51100000000E-03 0. -1.
    9900012    2    1    2    0    0  0.69400290300E+01 -0.10530981018E+02  0.38653578730E+02  0.50528871716E+02  0.30000036069E+02 0.  0.
         12    1    1    2    0    0 -0.69400290300E+01  0.10530981018E+02 -0.38653578730E+02  0.40659128284E+02  0.00000000000E+00 0. -1.
         11    1    3    3    0    0  0.37906966747E+01 -0.62883477064E+01  0.30122679311E+02  0.31004652994E+02  0.51100000000E-03 0.  1.
        -11    1    3    3    0    0  0.68724663473E+00  0.63109085857E+01  0.51429106429E+01  0.81700309214E+01  0.51100000000E-03 0. -1.
        -12    1    3    3    0    0  0.24620857206E+01 -0.10553541897E+02  0.33879887766E+01  0.11354187801E+02  0.00000000000E+00 0.  1.
</event>
<event>
 7    1  0.5456331E-013  0.5052892E+02  0.7816164E-02  0.1300439E+00
        -11   -1    0    0    0    0  0.00000000000E+00  0.00000000000E+00  0.45593999997E+02  0.45594000000E+02  0.51100000000E-03 0. -1.
         11   -1    0    0    0    0 -0.00000000000E+00 -0.00000000000E+00 -0.45593999997E+02  0.45594000000E+02  0.51100000000E-03 0.  1.
    9900012    2    1    2    0    0  0.26123247370E+02  0.26041454524E+02 -0.17104940214E+02  0.50528924917E+02  0.30000197778E+02 0.  0.
         12    1    1    2    0    0 -0.26123247370E+02 -0.26041454524E+02  0.17104940214E+02  0.40659075083E+02  0.00000000000E+00 0. -1.
         11    1    3    3    0    0 -0.45667913700E+00  0.42925504662E+01 -0.77723570975E+01  0.88906737906E+01  0.51100000000E-03 0. -1.
        -11    1    3    3    0    0  0.23733469283E+02  0.69912328872E+01 -0.97733092142E+01  0.26602114103E+02  0.51100000000E-03 0.  1.
         12    1    3    3    0    0  0.28464572237E+01  0.14757671171E+02  0.44072609798E+00  0.15036137024E+02  0.00000000000E+00 0. -1.
</event>
<event>
 7    1  0.5456331E-013  0.5052887E+02  0.7816164E-02  0.1300439E+00
        -11   -1    0    0    0    0  0.00000000000E+00  0.00000000000E+00  0.45593999997E+02  0.45594000000E+02  0.51100000000E-03 0.  1.
         11   -1    0    0    0    0 -0.00000000000E+00 -0.00000000000E+00 -0.45593999997E+02  0.45594000000E+02  0.51100000000E-03 0. -1.
    9900012    2    1    2    0    0 -0.99259657906E+01 -0.27080210517E+02  0.28658374697E+02  0.50528867707E+02  0.30000023882E+02 0.  0.
         12    1    1    2    0    0  0.99259657906E+01  0.27080210517E+02 -0.28658374697E+02  0.40659132293E+02  0.00000000000E+00 0. -1.
         11    1    3    3    0    0 -0.10329853027E+02 -0.15814660687E+02  0.19458977866E+02  0.27119387457E+02  0.51100000000E-03 0. -1.
        -11    1    3    3    0    0  0.53428759992E+01 -0.18261196590E+01  0.11225048161E+02  0.12565140009E+02  0.51100000000E-03 0.  1.
         12    1    3    3    0    0 -0.49389887630E+01 -0.94394301708E+01 -0.20256513297E+01  0.10844340241E+02  0.00000000000E+00 0. -1.
</event>
<event>
 7    1  0.5456331E-013  0.5052886E+02  0.7816164E-02  0.1300439E+00
        -11   -1    0    0    0    0  0.00000000000E+00  0.00000000000E+00  0.45593999997E+02  0.45594000000E+02  0.51100000000E-03 0. -1.
         11   -1    0    0    0    0 -0.00000000000E+00 -0.00000000000E+00 -0.45593999997E+02  0.45594000000E+02  0.51100000000E-03 0.  1.
    9900012    2    1    2    0    0 -0.27027711470E+02 -0.28705183616E+02  0.99338362578E+01  0.50528857651E+02  0.29999993316E+02 0.  0.
         12    1    1    2    0    0  0.27027711470E+02  0.28705183616E+02 -0.99338362578E+01  0.40659142349E+02  0.00000000000E+00 0. -1.
         11    1    3    3    0    0 -0.11863155249E+01  0.13748895158E+01  0.61703360948E+01  0.64320069565E+01  0.51100000000E-03 0. -1.
        -11    1    3    3    0    0 -0.56940822965E+01  0.14116461660E+01 -0.21479261393E+01  0.62473118266E+01  0.51100000000E-03 0.  1.
        -12    1    3    3    0    0 -0.20147313649E+02 -0.31491719298E+02  0.59114263023E+01  0.37849538868E+02  0.00000000000E+00 0.  1.
</event>
<event>
 7    1  0.5456331E-013  0.5052885E+02  0.7816164E-02  0.1300439E+00
        -11   -1    0    0    0    0  0.00000000000E+00  0.00000000000E+00  0.45593999997E+02  0.45594000000E+02  0.51100000000E-03 0.  1.
         11   -1    0    0    0    0 -0.00000000000E+00 -0.00000000000E+00 -0.45593999997E+02  0.45594000000E+02  0.51100000000E-03 0. -1.
    9900012    2    1    2    0    0 -0.29712278985E+02 -0.15264520822E+01  0.27713113878E+02  0.50528852699E+02  0.29999978263E+02 0.  0.
         12    1    1    2    0    0  0.29712278985E+02  0.15264520822E+01 -0.27713113878E+02  0.40659147301E+02  0.00000000000E+00 0. -1.
         11    1    3    3    0    0 -0.45490048092E-01  0.28040629513E+01 -0.38660508601E+01  0.47761059340E+01  0.51100000000E-03 0. -1.
        -11    1    3    3    0    0  0.15179847173E+01 -0.41863584541E+00  0.81567892999E+00  0.17733769907E+01  0.51100000000E-03 0.  1.
        -12    1    3    3    0    0 -0.31184773654E+02 -0.39118791881E+01  0.30763485808E+02  0.43979369774E+02  0.00000000000E+00 0.  1.
</event>
<event>
 7    1  0.5456331E-013  0.5052886E+02  0.7816164E-02  0.1300439E+00
        -11   -1    0    0    0    0  0.00000000000E+00  0.00000000000E+00  0.45593999997E+02  0.45594000000E+02  0.51100000000E-03 0. -1.
         11   -1    0    0    0    0 -0.00000000000E+00 -0.00000000000E+00 -0.45593999997E+02  0.45594000000E+02  0.51100000000E-03 0.  1.
    9900012    2    1    2    0    0  0.27059141449E+02 -0.19285127197E+02 -0.23431873186E+02  0.50528856526E+02  0.29999989898E+02 0.  0.
         12    1    1    2    0    0 -0.27059141449E+02  0.19285127197E+02  0.23431873186E+02  0.40659143474E+02  0.00000000000E+00 0. -1.
         11    1    3    3    0    0  0.94738141248E+01  0.23855905630E+00  0.35223153858E+01  0.10110230978E+02  0.51100000000E-03 0. -1.
        -11    1    3    3    0    0 -0.10042937511E+01 -0.52522631632E+01 -0.10499842217E+02  0.11783104901E+02  0.51100000000E-03 0.  1.
         12    1    3    3    0    0  0.18589621076E+02 -0.14271423090E+02 -0.16454346355E+02  0.28635520647E+02  0.00000000000E+00 0. -1.
</event>
<event>
 7    1  0.5456331E-013  0.5052886E+02  0.7816164E-02  0.1300439E+00
        -11   -1    0    0    0    0  0.00000000000E+00  0.00000000000E+00  0.45593999997E+02  0.45594000000E+02  0.51100000000E-03 0.  1.
         11   -1    0    0    0    0 -0.00000000000E+00 -0.00000000000E+00 -0.45593999997E+02  0.45594000000E+02  0.51100000000E-03 0. -1.
    9900012    2    1    2    0    0 -0.20166930681E+02  0.33311911921E+02  0.11695190907E+02  0.50528855158E+02  0.29999985740E+02 0.  0.
         12    1    1    2    0    0  0.20166930681E+02 -0.33311911921E+02 -0.11695190907E+02  0.40659144842E+02  0.00000000000E+00 0. -1.
         11    1    3    3    0    0 -0.45196974302E+01  0.14711664858E+02 -0.23632176827E+00  0.15392095244E+02  0.51100000000E-03 0. -1.
        -11    1    3    3    0    0  0.11492356472E+01  0.14389023929E+02  0.10322239207E+02  0.17745798791E+02  0.51100000000E-03 0.  1.
         12    1    3    3    0    0 -0.16796468898E+02  0.42112231334E+01  0.16092734677E+01  0.17390961124E+02  0.00000000000E+00 0. -1.
</event>
<event>
 7    1  0.5456331E-013  0.5052885E+02  0.7816164E-02  0.1300439E+00
        -11   -1    0    0    0    0  0.00000000000E+00  0.00000000000E+00  0.45593999997E+02  0.45594000000E+02  0.51100000000E-03 0.  1.
         11   -1    0    0    0    0 -0.00000000000E+00 -0.00000000000E+00 -0.45593999997E+02  0.45594000000E+02  0.51100000000E-03 0. -1.
    9900012    2    1    2    0    0 -0.73239271165E+01  0.34527361745E+02  0.20183857401E+02  0.50528847069E+02  0.29999961151E+02 0.  0.
         12    1    1    2    0    0  0.73239271165E+01 -0.34527361745E+02 -0.20183857401E+02  0.40659152931E+02  0.00000000000E+00 0. -1.
         11    1    3    3    0    0 -0.68841552315E+01  0.13775592035E+01  0.66321303378E+01  0.96578680716E+01  0.51100000000E-03 0. -1.
        -11    1    3    3    0    0 -0.71457366353E+01  0.32015577965E+01  0.35014943912E+01  0.85774114754E+01  0.51100000000E-03 0.  1.
        -12    1    3    3    0    0  0.67059647504E+01  0.29948244745E+02  0.10050232672E+02  0.32293567522E+02  0.00000000000E+00 0.  1.
</event>
<event>
 7    1  0.5456331E-013  0.5052886E+02  0.7816164E-02  0.1300439E+00
        -11   -1    0    0    0    0  0.00000000000E+00  0.00000000000E+00  0.45593999997E+02  0.45594000000E+02  0.51100000000E-03 0.  1.
         11   -1    0    0    0    0 -0.00000000000E+00 -0.00000000000E+00 -0.45593999997E+02  0.45594000000E+02  0.51100000000E-03 0. -1.
    9900012    2    1    2    0    0 -0.87176163354E+00 -0.37292806420E+02  0.16175663046E+02  0.50528862601E+02  0.30000008362E+02 0.  0.
         12    1    1    2    0    0  0.87176163354E+00  0.37292806420E+02 -0.16175663046E+02  0.40659137399E+02  0.00000000000E+00 0. -1.
         11    1    3    3    0    0 -0.61941701231E+01 -0.30625991747E+02  0.74496558092E+01  0.32121900410E+02  0.51100000000E-03 0. -1.
        -11    1    3    3    0    0 -0.60683330984E+00 -0.95769664801E+01  0.49197152635E+01  0.10783790250E+02  0.51100000000E-03 0.  1.
         12    1    3    3    0    0  0.59292417994E+01  0.29101518068E+01  0.38062919731E+01  0.76231719408E+01  0.00000000000E+00 0. -1.
</event>
<event>
 7    1  0.5456331E-013  0.5052887E+02  0.7816164E-02  0.1300439E+00
        -11   -1    0    0    0    0  0.00000000000E+00  0.00000000000E+00  0.45593999997E+02  0.45594000000E+02  0.51100000000E-03 0.  1.
         11   -1    0    0    0    0 -0.00000000000E+00 -0.00000000000E+00 -0.45593999997E+02  0.45594000000E+02  0.51100000000E-03 0. -1.
    9900012    2    1    2    0    0  0.19960520259E+02  0.87053606979E+00  0.35411649973E+02  0.50528866268E+02  0.30000019507E+02 0.  0.
         12    1    1    2    0    0 -0.19960520259E+02 -0.87053606979E+00 -0.35411649973E+02  0.40659133732E+02  0.00000000000E+00 0. -1.
         11    1    3    3    0    0 -0.11814164595E+00 -0.88059652406E+00  0.45370686087E+01  0.46232455600E+01  0.51100000000E-03 0. -1.
        -11    1    3    3    0    0  0.85854918234E+01 -0.11479999582E+02  0.61484074122E+01  0.15598204198E+02  0.51100000000E-03 0.  1.
         12    1    3    3    0    0  0.11493170081E+02  0.13231132176E+02  0.24726173952E+02  0.30307416509E+02  0.00000000000E+00 0. -1.
</event>
<event>
 7    1  0.5456331E-013  0.5052886E+02  0.7816164E-02  0.1300439E+00
        -11   -1    0    0    0    0  0.00000000000E+00  0.00000000000E+00  0.45593999997E+02  0.45594000000E+02  0.51100000000E-03 0.  1.
         11   -1    0    0    0    0 -0.00000000000E+00 -0.00000000000E+00 -0.45593999997E+02  0.45594000000E+02  0.51100000000E-03 0. -1.
    9900012    2    1    2    0    0 -0.13896156226E+02 -0.35175376673E+02  0.14924995724E+02  0.50528858601E+02  0.29999996203E+02 0.  0.
         12    1    1    2    0    0  0.13896156226E+02  0.35175376673E+02 -0.14924995724E+02  0.40659141399E+02  0.00000000000E+00 0. -1.
         11    1    3    3    0    0 -0.20740421111E+01 -0.58138068506E+01  0.13093040448E+01  0.63100141139E+01  0.51100000000E-03 0. -1.
        -11    1    3    3    0    0 -0.16029464600E+02 -0.28676247144E+02  0.32521415552E+01  0.33012835543E+02  0.51100000000E-03 0.  1.
         12    1    3    3    0    0  0.42073504851E+01 -0.68532267865E+00  0.10363550124E+02  0.11206008944E+02  0.00000000000E+00 0. -1.
</event>
<event>
 7    1  0.5456331E-013  0.5052886E+02  0.7816164E-02  0.1300439E+00
        -11   -1    0    0    0    0  0.00000000000E+00  0.00000000000E+00  0.45593999997E+02  0.45594000000E+02  0.51100000000E-03 0.  1.
         11   -1    0    0    0    0 -0.00000000000E+00 -0.00000000000E+00 -0.45593999997E+02  0.45594000000E+02  0.51100000000E-03 0. -1.
    9900012    2    1    2    0    0 -0.45753701457E+00 -0.33755659656E+01  0.40516192715E+02  0.50528860095E+02  0.30000000744E+02 0.  0.
         12    1    1    2    0    0  0.45753701457E+00  0.33755659656E+01 -0.40516192715E+02  0.40659139905E+02  0.00000000000E+00 0. -1.
         11    1    3    3    0    0  0.79174188525E+01 -0.51878256436E+01  0.49161328470E+01  0.10666181070E+02  0.51100000000E-03 0. -1.
        -11    1    3    3    0    0  0.16239846081E+01  0.22274490795E+01 -0.12793415662E+00  0.27595693176E+01  0.51100000000E-03 0.  1.
        -12    1    3    3    0    0 -0.99989404752E+01 -0.41518940140E+00  0.35727994025E+02  0.37103109707E+02  0.00000000000E+00 0.  1.
</event>
<event>
 7    1  0.5456331E-013  0.5052886E+02  0.7816164E-02  0.1300439E+00
        -11   -1    0    0    0    0  0.00000000000E+00  0.00000000000E+00  0.45593999997E+02  0.45594000000E+02  0.51100000000E-03 0. -1.
         11   -1    0    0    0    0 -0.00000000000E+00 -0.00000000000E+00 -0.45593999997E+02  0.45594000000E+02  0.51100000000E-03 0.  1.
    9900012    2    1    2    0    0 -0.75727244234E+01  0.32885255612E+02 -0.22679937790E+02  0.50528858715E+02  0.29999996551E+02 0.  0.
         12    1    1    2    0    0  0.75727244234E+01 -0.32885255612E+02  0.22679937790E+02  0.40659141285E+02  0.00000000000E+00 0. -1.
         11    1    3    3    0    0 -0.26651381846E+01 -0.28715877474E+01 -0.32072457925E+01  0.50631416698E+01  0.51100000000E-03 0.  1.
        -11    1    3    3    0    0 -0.31018235962E+01 -0.16936649119E+01 -0.10287007880E+01  0.36807656850E+01  0.51100000000E-03 0. -1.
        -12    1    3    3    0    0 -0.18057626427E+01  0.37450508271E+02 -0.18443991210E+02  0.41784951361E+02  0.00000000000E+00 0.  1.
</event>
<event>
 7    1  0.5456331E-013  0.5052886E+02  0.7816164E-02  0.1300439E+00
        -11   -1    0    0    0    0  0.00000000000E+00  0.00000000000E+00  0.45593999997E+02  0.45594000000E+02  0.51100000000E-03 0. -1.
         11   -1    0    0    0    0 -0.00000000000E+00 -0.00000000000E+00 -0.45593999997E+02  0.45594000000E+02  0.51100000000E-03 0.  1.
    9900012    2    1    2    0    0  0.34149589208E+02 -0.16817150666E+02  0.14288275152E+02  0.50528858268E+02  0.29999995190E+02 0.  0.
         12    1    1    2    0    0 -0.34149589208E+02  0.16817150666E+02 -0.14288275152E+02  0.40659141732E+02  0.00000000000E+00 0. -1.
         11    1    3    3    0    0  0.40479422136E+01 -0.91353371564E+01  0.29794315209E+01  0.10426755659E+02  0.51100000000E-03 0. -1.
        -11    1    3    3    0    0  0.21232667407E+02 -0.13382339040E+02  0.14626961598E+02  0.29049288618E+02  0.51100000000E-03 0.  1.
        -12    1    3    3    0    0  0.88689795881E+01  0.57005255311E+01 -0.33181179666E+01  0.11052813990E+02  0.00000000000E+00 0.  1.
</event>
<event>
 7    1  0.5456331E-013  0.5052886E+02  0.7816164E-02  0.1300439E+00
        -11   -1    0    0    0    0  0.00000000000E+00  0.00000000000E+00  0.45593999997E+02  0.45594000000E+02  0.51100000000E-03 0.  1.
         11   -1    0    0    0    0 -0.00000000000E+00 -0.00000000000E+00 -0.45593999997E+02  0.45594000000E+02  0.51100000000E-03 0. -1.
    9900012    2    1    2    0    0  0.12562768191E+02 -0.19977047203E+02  0.33109824684E+02  0.50528855270E+02  0.29999986079E+02 0.  0.
         12    1    1    2    0    0 -0.12562768191E+02  0.19977047203E+02 -0.33109824684E+02  0.40659144730E+02  0.00000000000E+00 0. -1.
         11    1    3    3    0    0  0.28631884245E+01 -0.95393763738E+01  0.14402396699E+02  0.17510756137E+02  0.51100000000E-03 0.  1.
        -11    1    3    3    0    0 -0.69473282172E+01 -0.73600675094E+00  0.91446653272E+01  0.11507909432E+02  0.51100000000E-03 0. -1.
        -12    1    3    3    0    0  0.16646907984E+02 -0.97016640784E+01  0.95627626578E+01  0.21510189701E+02  0.00000000000E+00 0.  1.
</event>
<event>
 7    1  0.5456331E-013  0.5052889E+02  0.7816164E-02  0.1300439E+00
        -11   -1    0    0    0    0  0.00000000000E+00  0.00000000000E+00  0.45593999997E+02  0.45594000000E+02  0.51100000000E-03 0. -1.
         11   -1    0    0    0    0 -0.00000000000E+00 -0.00000000000E+00 -0.45593999997E+02  0.45594000000E+02  0.51100000000E-03 0.  1.
    9900012    2    1    2    0    0 -0.32894524345E+02 -0.17514502386E+02  0.16259018386E+02  0.50528890263E+02  0.30000092444E+02 0.  0.
         12    1    1    2    0    0  0.32894524345E+02  0.17514502386E+02 -0.16259018386E+02  0.40659109737E+02  0.00000000000E+00 0. -1.
         11    1    3    3    0    0 -0.94811180485E+01 -0.10039461662E+02 -0.71547595115E+01  0.15552265875E+02  0.51100000000E-03 0. -1.
        -11    1    3    3    0    0 -0.67887344977E+01 -0.38807370308E+01  0.29271673460E+01  0.83495715409E+01  0.51100000000E-03 0.  1.
         12    1    3    3    0    0 -0.16624671799E+02 -0.35943036929E+01  0.20486610551E+02  0.26627052847E+02  0.00000000000E+00 0. -1.
</event>
<event>
 7    1  0.5456331E-013  0.5052886E+02  0.7816164E-02  0.1300439E+00
        -11   -1    0    0    0    0  0.00000000000E+00  0.00000000000E+00  0.45593999997E+02  0.45594000000E+02  0.51100000000E-03 0.  1.
         11   -1    0    0    0    0 -0.00000000000E+00 -0.00000000000E+00 -0.45593999997E+02  0.45594000000E+02  0.51100000000E-03 0. -1.
    9900012    2    1    2    0    0 -0.29664813619E+02 -0.25034330602E+02  0.12101518323E+02  0.50528860542E+02  0.30000002103E+02 0.  0.
         12    1    1    2    0    0  0.29664813619E+02  0.25034330602E+02 -0.12101518323E+02  0.40659139458E+02  0.00000000000E+00 0. -1.
         11    1    3    3    0    0 -0.65564908107E+01 -0.22915212219E+02  0.83887595232E+01  0.25267880983E+02  0.51100000000E-03 0. -1.
        -11    1    3    3    0    0  0.87610465649E+00  0.17063363911E+00  0.16523379211E+00  0.90773216044E+00  0.51100000000E-03 0.  1.
        -12    1    3    3    0    0 -0.23984427465E+02 -0.22897520226E+01  0.35475250074E+01  0.24353247398E+02  0.00000000000E+00 0.  1.
</event>
<event>
 7    1  0.5456331E-013  0.5052886E+02  0.7816164E-02  0.1300439E+00
        -11   -1    0    0    0    0  0.00000000000E+00  0.00000000000E+00  0.45593999997E+02  0.45594000000E+02  0.51100000000E-03 0. -1.
         11   -1    0    0    0    0 -0.00000000000E+00 -0.00000000000E+00 -0.45593999997E+02  0.45594000000E+02  0.51100000000E-03 0.  1.
    9900012    2    1    2    0    0 -0.38812745297E+02  0.10064617034E+02  0.67409316535E+01  0.50528857448E+02  0.29999992698E+02 0.  0.
         12    1    1    2    0    0  0.38812745297E+02 -0.10064617034E+02 -0.67409316535E+01  0.40659142552E+02  0.00000000000E+00 0. -1.
         11    1    3    3    0    0  0.93296448062E+00  0.16387408266E+00 -0.12674264642E+01  0.15822918632E+01  0.51100000000E-03 0. -1.
        -11    1    3    3    0    0 -0.19762311005E+02  0.15242293893E+02 -0.36175503420E+01  0.25218309423E+02  0.51100000000E-03 0.  1.
        -12    1    3    3    0    0 -0.19983398773E+02 -0.53415509417E+01  0.11625908460E+02  0.23728256162E+02  0.00000000000E+00 0.  1.
</event>
<event>
 7    1  0.5456331E-013  0.5052886E+02  0.7816164E-02  0.1300439E+00
        -11   -1    0    0    0    0  0.00000000000E+00  0.00000000000E+00  0.45593999997E+02  0.45594000000E+02  0.51100000000E-03 0. -1.
         11   -1    0    0    0    0 -0.00000000000E+00 -0.00000000000E+00 -0.45593999997E+02  0.45594000000E+02  0.51100000000E-03 0.  1.
    9900012    2    1    2    0    0 -0.41580573368E+00  0.33475870224E+02 -0.23072899017E+02  0.50528862641E+02  0.30000008485E+02 0.  0.
         12    1    1    2    0    0  0.41580573368E+00 -0.33475870224E+02  0.23072899017E+02  0.40659137359E+02  0.00000000000E+00 0. -1.
         11    1    3    3    0    0 -0.66272499463E+01  0.18466533897E+02 -0.30918804730E+01  0.19861848886E+02  0.51100000000E-03 0.  1.
        -11    1    3    3    0    0 -0.25334150977E+01  0.23767966459E+01  0.18777742781E+01  0.39488467751E+01  0.51100000000E-03 0. -1.
        -12    1    3    3    0    0  0.87448593103E+01  0.12632539681E+02 -0.21858792822E+02  0.26718166981E+02  0.00000000000E+00 0.  1.
</event>
<event>
 7    1  0.5456331E-013  0.5052886E+02  0.7816164E-02  0.1300439E+00
        -11   -1    0    0    0    0  0.00000000000E+00  0.00000000000E+00  0.45593999997E+02  0.45594000000E+02  0.51100000000E-03 0. -1.
         11   -1    0    0    0    0 -0.00000000000E+00 -0.00000000000E+00 -0.45593999997E+02  0.45594000000E+02  0.51100000000E-03 0.  1.
    9900012    2    1    2    0    0 -0.37243844865E+02 -0.87258564525E+01  0.13781191982E+02  0.50528858302E+02  0.29999995295E+02 0.  0.
         12    1    1    2    0    0  0.37243844865E+02  0.87258564525E+01 -0.13781191982E+02  0.40659141698E+02  0.00000000000E+00 0. -1.
         11    1    3    3    0    0 -0.38731611085E+01 -0.49747748083E+00  0.37106798019E+01  0.53868363321E+01  0.51100000000E-03 0. -1.
        -11    1    3    3    0    0 -0.26295691010E+02 -0.17855471755E+02  0.95287878259E+01  0.33182510981E+02  0.51100000000E-03 0.  1.
         12    1    3    3    0    0 -0.70749927462E+01  0.96270927835E+01  0.54172435433E+00  0.11959510989E+02  0.00000000000E+00 0. -1.
</event>
<event>
 7    1  0.5456331E-013  0.5052886E+02  0.7816164E-02  0.1300439E+00
        -11   -1    0    0    0    0  0.00000000000E+00  0.00000000000E+00  0.45593999997E+02  0.45594000000E+02  0.51100000000E-03 0.  1.
         11   -1    0    0    0    0 -0.00000000000E+00 -0.00000000000E+00 -0.45593999997E+02  0.45594000000E+02  0.51100000000E-03 0. -1.
    9900012    2    1    2    0    0  0.14003078807E+02 -0.33720109861E+02  0.17889485551E+02  0.50528859350E+02  0.29999998480E+02 0.  0.
         12    1    1    2    0    0 -0.14003078807E+02  0.33720109861E+02 -0.17889485551E+02  0.40659140650E+02  0.00000000000E+00 0. -1.
         11    1    3    3    0    0 -0.16156114825E+01 -0.19522129087E+02  0.51149086801E+01  0.20245641892E+02  0.51100000000E-03 0. -1.
        -11    1    3    3    0    0  0.49666229394E+01 -0.15486736056E+02  0.10366590251E+02  0.19286589403E+02  0.51100000000E-03 0.  1.
        -12    1    3    3    0    0  0.10652067350E+02  0.12887552826E+01  0.24079866197E+01  0.10996628055E+02  0.00000000000E+00 0.  1.
</event>
<event>
 7    1  0.5456331E-013  0.5052886E+02  0.7816164E-02  0.1300439E+00
        -11   -1    0    0    0    0  0.00000000000E+00  0.00000000000E+00  0.45593999997E+02  0.45594000000E+02  0.51100000000E-03 0. -1.
         11   -1    0    0    0    0 -0.00000000000E+00 -0.00000000000E+00 -0.45593999997E+02  0.45594000000E+02  0.51100000000E-03 0.  1.
    9900012    2    1    2    0    0 -0.23183735930E+02  0.38597521396E+01 -0.33178042472E+02  0.50528858340E+02  0.29999995409E+02 0.  0.
         12    1    1    2    0    0  0.23183735930E+02 -0.38597521396E+01  0.33178042472E+02  0.40659141660E+02  0.00000000000E+00 0. -1.
         11    1    3    3    0    0  0.12645599542E+01 -0.55545967978E+01 -0.63844614147E+01  0.85565182920E+01  0.51100000000E-03 0. -1.
        -11    1    3    3    0    0 -0.12196845352E+02  0.33548936911E+01 -0.88652369479E+00  0.12680862461E+02  0.51100000000E-03 0.  1.
        -12    1    3    3    0    0 -0.12251450532E+02  0.60594552463E+01 -0.25907057363E+02  0.29291477587E+02  0.00000000000E+00 0.  1.
</event>
<event>
 7    1  0.5456331E-013  0.5052887E+02  0.7816164E-02  0.1300439E+00
        -11   -1    0    0    0    0  0.00000000000E+00  0.00000000000E+00  0.45593999997E+02  0.45594000000E+02  0.51100000000E-03 0.  1.
         11   -1    0    0    0    0 -0.00000000000E+00 -0.00000000000E+00 -0.45593999997E+02  0.45594000000E+02  0.51100000000E-03 0. -1.
    9900012    2    1    2    0    0  0.15380190188E+02 -0.10107609230E+02  0.36255360459E+02  0.50528866012E+02  0.30000018731E+02 0.  0.
         12    1    1    2    0    0 -0.15380190188E+02  0.10107609230E+02 -0.36255360459E+02  0.40659133988E+02  0.00000000000E+00 0. -1.
         11    1    3    3    0    0  0.10363048238E+01 -0.31246147833E+01  0.23139722974E+02  0.23372717531E+02  0.51100000000E-03 0. -1.
        -11    1    3    3    0    0  0.52406010465E+01  0.21648492591E+00  0.14545483452E+02  0.15462271960E+02  0.51100000000E-03 0.  1.
         12    1    3    3    0    0  0.91032843181E+01 -0.71994793723E+01 -0.14298459662E+01  0.11693876521E+02  0.00000000000E+00 0. -1.
</event>
<event>
 7    1  0.5456331E-013  0.5052886E+02  0.7816164E-02  0.1300439E+00
        -11   -1    0    0    0    0  0.00000000000E+00  0.00000000000E+00  0.45593999997E+02  0.45594000000E+02  0.51100000000E-03 0. -1.
         11   -1    0    0    0    0 -0.00000000000E+00 -0.00000000000E+00 -0.45593999997E+02  0.45594000000E+02  0.51100000000E-03 0.  1.
    9900012    2    1    2    0    0 -0.81565937095E+01  0.12017186033E+02 -0.37976605740E+02  0.50528863700E+02  0.30000011704E+02 0.  0.
         12    1    1    2    0    0  0.81565937095E+01 -0.12017186033E+02  0.37976605740E+02  0.40659136300E+02  0.00000000000E+00 0. -1.
         11    1    3    3    0    0  0.45891920044E+01 -0.29703001262E+01  0.12057745075E+00  0.54678977016E+01  0.51100000000E-03 0. -1.
        -11    1    3    3    0    0 -0.28388350590E+01 -0.26176286555E+01 -0.59163389188E+01  0.70649862514E+01  0.51100000000E-03 0.  1.
        -12    1    3    3    0    0 -0.99069506549E+01  0.17605114814E+02 -0.32180844272E+02  0.37995979747E+02  0.00000000000E+00 0.  1.
</event>
<event>
 7    1  0.5456331E-013  0.5052885E+02  0.7816164E-02  0.1300439E+00
        -11   -1    0    0    0    0  0.00000000000E+00  0.00000000000E+00  0.45593999997E+02  0.45594000000E+02  0.51100000000E-03 0.  1.
         11   -1    0    0    0    0 -0.00000000000E+00 -0.00000000000E+00 -0.45593999997E+02  0.45594000000E+02  0.51100000000E-03 0. -1.
    9900012    2    1    2    0    0  0.10201817419E+02  0.26620258900E+02  0.28990531556E+02  0.50528853644E+02  0.29999981135E+02 0.  0.
         12    1    1    2    0    0 -0.10201817419E+02 -0.26620258900E+02 -0.28990531556E+02  0.40659146356E+02  0.00000000000E+00 0. -1.
         11    1    3    3    0    0  0.32748870833E+01  0.30870528751E+02  0.17859685255E+02  0.35814561123E+02  0.51100000000E-03 0.  1.
        -11    1    3    3    0    0  0.36682793590E+00 -0.28996905346E+01  0.32095989408E+01  0.43410014458E+01  0.51100000000E-03 0. -1.
        -12    1    3    3    0    0  0.65601023995E+01 -0.13505793161E+01  0.79212473603E+01  0.10373291075E+02  0.00000000000E+00 0.  1.
</event>
<event>
 7    1  0.5456331E-013  0.5052886E+02  0.7816164E-02  0.1300439E+00
        -11   -1    0    0    0    0  0.00000000000E+00  0.00000000000E+00  0.45593999997E+02  0.45594000000E+02  0.51100000000E-03 0.  1.
         11   -1    0    0    0    0 -0.00000000000E+00 -0.00000000000E+00 -0.45593999997E+02  0.45594000000E+02  0.51100000000E-03 0. -1.
    9900012    2    1    2    0    0  0.11999522005E+02  0.26050030020E+02  0.28819660494E+02  0.50528862978E+02  0.30000009508E+02 0.  0.
         12    1    1    2    0    0 -0.11999522005E+02 -0.26050030020E+02 -0.28819660494E+02  0.40659137022E+02  0.00000000000E+00 0. -1.
         11    1    3    3    0    0 -0.10723212246E+00  0.31208455141E+01  0.12248813991E+02  0.12640594127E+02  0.51100000000E-03 0. -1.
        -11    1    3    3    0    0  0.10892407289E+01  0.16643425773E+02  0.18665708938E+02  0.25031954723E+02  0.51100000000E-03 0.  1.
         12    1    3    3    0    0  0.11017513399E+02  0.62857587326E+01 -0.20948624347E+01  0.12856314128E+02  0.00000000000E+00 0. -1.
</event>
<event>
 7    1  0.5456331E-013  0.5052886E+02  0.7816164E-02  0.1300439E+00
        -11   -1    0    0    0    0  0.00000000000E+00  0.00000000000E+00  0.45593999997E+02  0.45594000000E+02  0.51100000000E-03 0. -1.
         11   -1    0    0    0    0 -0.00000000000E+00 -0.00000000000E+00 -0.45593999997E+02  0.45594000000E+02  0.51100000000E-03 0.  1.
    9900012    2    1    2    0    0 -0.62945806446E+01  0.67533418242E+01 -0.39597177337E+02  0.50528858048E+02  0.29999994521E+02 0.  0.
         12    1    1    2    0    0  0.62945806446E+01 -0.67533418242E+01  0.39597177337E+02  0.40659141952E+02  0.00000000000E+00 0. -1.
         11    1    3    3    0    0 -0.28668070373E+00  0.31636621403E+01 -0.22114819310E+02  0.22341803359E+02  0.51100000000E-03 0. -1.
        -11    1    3    3    0    0 -0.11069913616E+02 -0.45038290503E+01 -0.63885136270E+01  0.13551404732E+02  0.51100000000E-03 0.  1.
         12    1    3    3    0    0  0.50620136756E+01  0.80935087342E+01 -0.11093844400E+02  0.14635649957E+02  0.00000000000E+00 0. -1.
</event>
<event>
 7    1  0.5456331E-013  0.5052885E+02  0.7816164E-02  0.1300439E+00
        -11   -1    0    0    0    0  0.00000000000E+00  0.00000000000E+00  0.45593999997E+02  0.45594000000E+02  0.51100000000E-03 0.  1.
         11   -1    0    0    0    0 -0.00000000000E+00 -0.00000000000E+00 -0.45593999997E+02  0.45594000000E+02  0.51100000000E-03 0. -1.
    9900012    2    1    2    0    0  0.10104955043E+01 -0.39814051084E+02 -0.81845588458E+01  0.50528846438E+02  0.29999959232E+02 0.  0.
         12    1    1    2    0    0 -0.10104955043E+01  0.39814051084E+02  0.81845588458E+01  0.40659153562E+02  0.00000000000E+00 0. -1.
         11    1    3    3    0    0 -0.10438785774E+01  0.31064499908E+01  0.32321699253E+01  0.46028943847E+01  0.51100000000E-03 0. -1.
        -11    1    3    3    0    0  0.58971022483E+00 -0.14509339106E+02 -0.96233188233E+01  0.17420589682E+02  0.51100000000E-03 0.  1.
        -12    1    3    3    0    0  0.14646638569E+01 -0.28411161969E+02 -0.17934099478E+01  0.28505362371E+02  0.00000000000E+00 0.  1.
</event>
<event>
 7    1  0.5456331E-013  0.5052886E+02  0.7816164E-02  0.1300439E+00
        -11   -1    0    0    0    0  0.00000000000E+00  0.00000000000E+00  0.45593999997E+02  0.45594000000E+02  0.51100000000E-03 0.  1.
         11   -1    0    0    0    0 -0.00000000000E+00 -0.00000000000E+00 -0.45593999997E+02  0.45594000000E+02  0.51100000000E-03 0. -1.
    9900012    2    1    2    0    0 -0.35453730657E+02 -0.87257960026E+01  0.17890193870E+02  0.50528861173E+02  0.30000004022E+02 0.  0.
         12    1    1    2    0    0  0.35453730657E+02  0.87257960026E+01 -0.17890193870E+02  0.40659138827E+02  0.00000000000E+00 0. -1.
         11    1    3    3    0    0 -0.92974820930E+01 -0.96012243077E+01  0.12778240221E+02  0.18490811364E+02  0.51100000000E-03 0. -1.
        -11    1    3    3    0    0 -0.11829114753E+02  0.49631020279E+01  0.10099361135E+02  0.16326586697E+02  0.51100000000E-03 0.  1.
         12    1    3    3    0    0 -0.14327133811E+02 -0.40876737228E+01 -0.49874074855E+01  0.15711463112E+02  0.00000000000E+00 0. -1.
</event>
<event>
 7    1  0.5456331E-013  0.5052884E+02  0.7816164E-02  0.1300439E+00
        -11   -1    0    0    0    0  0.00000000000E+00  0.00000000000E+00  0.45593999997E+02  0.45594000000E+02  0.51100000000E-03 0.  1.
         11   -1    0    0    0    0 -0.00000000000E+00 -0.00000000000E+00 -0.45593999997E+02  0.45594000000E+02  0.51100000000E-03 0. -1.
    9900012    2    1    2    0    0  0.17615289066E+02  0.70715869453E+01  0.35956381125E+02  0.50528842429E+02  0.29999947047E+02 0.  0.
         12    1    1    2    0    0 -0.17615289066E+02 -0.70715869453E+01 -0.35956381125E+02  0.40659157571E+02  0.00000000000E+00 0. -1.
         11    1    3    3    0    0  0.17400520825E+02  0.11876825020E+02  0.13079326985E+02  0.24797296066E+02  0.51100000000E-03 0.  1.
        -11    1    3    3    0    0 -0.37862633295E+01 -0.37011397086E+01  0.46782260122E+01  0.70654103933E+01  0.51100000000E-03 0. -1.
        -12    1    3    3    0    0  0.40010315711E+01 -0.11040983664E+01  0.18198828128E+02  0.18666135970E+02  0.00000000000E+00 0.  1.
</event>
<event>
 7    1  0.5456331E-013  0.5052886E+02  0.7816164E-02  0.1300439E+00
        -11   -1    0    0    0    0  0.00000000000E+00  0.00000000000E+00  0.45593999997E+02  0.45594000000E+02  0.51100000000E-03 0. -1.
         11   -1    0    0    0    0 -0.00000000000E+00 -0.00000000000E+00 -0.45593999997E+02  0.45594000000E+02  0.51100000000E-03 0.  1.
    9900012    2    1    2    0    0 -0.17174998493E+02  0.30810446621E+02 -0.20221311798E+02  0.50528860252E+02  0.30000001222E+02 0.  0.
         12    1    1    2    0    0  0.17174998493E+02 -0.30810446621E+02  0.20221311798E+02  0.40659139748E+02  0.00000000000E+00 0. -1.
         11    1    3    3    0    0  0.27055423264E+01  0.40974949668E+00 -0.84089637148E+00  0.28626842122E+01  0.51100000000E-03 0.  1.
        -11    1    3    3    0    0  0.54934034415E+01  0.35924247395E+01 -0.19638097995E+01  0.68512441257E+01  0.51100000000E-03 0. -1.
        -12    1    3    3    0    0 -0.25373944261E+02  0.26808272384E+02 -0.17416605627E+02  0.40814931914E+02  0.00000000000E+00 0.  1.
</event>
<event>
 7    1  0.5456331E-013  0.5052885E+02  0.7816164E-02  0.1300439E+00
        -11   -1    0    0    0    0  0.00000000000E+00  0.00000000000E+00  0.45593999997E+02  0.45594000000E+02  0.51100000000E-03 0.  1.
         11   -1    0    0    0    0 -0.00000000000E+00 -0.00000000000E+00 -0.45593999997E+02  0.45594000000E+02  0.51100000000E-03 0. -1.
    9900012    2    1    2    0    0 -0.19376948599E+02 -0.26918894384E+00  0.35743915586E+02  0.50528854644E+02  0.29999984175E+02 0.  0.
         12    1    1    2    0    0  0.19376948599E+02  0.26918894384E+00 -0.35743915586E+02  0.40659145356E+02  0.00000000000E+00 0. -1.
         11    1    3    3    0    0 -0.39459427314E+01 -0.94326540620E+01  0.13669819870E+02  0.17070717684E+02  0.51100000000E-03 0. -1.
        -11    1    3    3    0    0 -0.62248588356E+01  0.31769279429E+01 -0.17677953195E+01  0.72088028986E+01  0.51100000000E-03 0.  1.
         12    1    3    3    0    0 -0.92061470317E+01  0.59865371752E+01  0.23841891036E+02  0.26249334061E+02  0.00000000000E+00 0. -1.
</event>
<event>
 7    1  0.5456331E-013  0.5052890E+02  0.7816164E-02  0.1300439E+00
        -11   -1    0    0    0    0  0.00000000000E+00  0.00000000000E+00  0.45593999997E+02  0.45594000000E+02  0.51100000000E-03 0. -1.
         11   -1    0    0    0    0 -0.00000000000E+00 -0.00000000000E+00 -0.45593999997E+02  0.45594000000E+02  0.51100000000E-03 0.  1.
    9900012    2    1    2    0    0  0.33702194295E+01  0.31582329483E+02 -0.25384251975E+02  0.50528903073E+02  0.30000131381E+02 0.  0.
         12    1    1    2    0    0 -0.33702194295E+01 -0.31582329483E+02  0.25384251975E+02  0.40659096927E+02  0.00000000000E+00 0. -1.
         11    1    3    3    0    0  0.59137799654E+01  0.11046628118E+02 -0.13821359580E+02  0.18655582734E+02  0.51100000000E-03 0.  1.
        -11    1    3    3    0    0  0.88157944126E+01  0.43065189043E+01 -0.27336300824E+01  0.10185139660E+02  0.51100000000E-03 0. -1.
        -12    1    3    3    0    0 -0.11359354949E+02  0.16229182461E+02 -0.88292623126E+01  0.21688180680E+02  0.00000000000E+00 0.  1.
</event>
<event>
 7    1  0.5456331E-013  0.5052887E+02  0.7816164E-02  0.1300439E+00
        -11   -1    0    0    0    0  0.00000000000E+00  0.00000000000E+00  0.45593999997E+02  0.45594000000E+02  0.51100000000E-03 0. -1.
         11   -1    0    0    0    0 -0.00000000000E+00 -0.00000000000E+00 -0.45593999997E+02  0.45594000000E+02  0.51100000000E-03 0.  1.
    9900012    2    1    2    0    0  0.91730024009E+01 -0.26511755187E+02 -0.29430394497E+02  0.50528865031E+02  0.30000015750E+02 0.  0.
         12    1    1    2    0    0 -0.91730024009E+01  0.26511755187E+02  0.29430394497E+02  0.40659134969E+02  0.00000000000E+00 0. -1.
         11    1    3    3    0    0 -0.28013678596E+01 -0.56024746059E+01 -0.39752745849E+00  0.62764171257E+01  0.51100000000E-03 0. -1.
        -11    1    3    3    0    0 -0.39237003051E+01  0.23981063619E+01 -0.15151599255E+01  0.48416988824E+01  0.51100000000E-03 0.  1.
        -12    1    3    3    0    0  0.15898070566E+02 -0.23307386943E+02 -0.27517707113E+02  0.39410749023E+02  0.00000000000E+00 0.  1.
</event>
<event>
 7    1  0.5456331E-013  0.5052887E+02  0.7816164E-02  0.1300439E+00
        -11   -1    0    0    0    0  0.00000000000E+00  0.00000000000E+00  0.45593999997E+02  0.45594000000E+02  0.51100000000E-03 0.  1.
         11   -1    0    0    0    0 -0.00000000000E+00 -0.00000000000E+00 -0.45593999997E+02  0.45594000000E+02  0.51100000000E-03 0. -1.
    9900012    2    1    2    0    0 -0.21135718268E+02 -0.24530571667E+02  0.24590599120E+02  0.50528866978E+02  0.30000021666E+02 0.  0.
         12    1    1    2    0    0  0.21135718268E+02  0.24530571667E+02 -0.24590599120E+02  0.40659133022E+02  0.00000000000E+00 0. -1.
         11    1    3    3    0    0 -0.74779968858E+01  0.40082008122E+01  0.80896833261E+00  0.85229420507E+01  0.51100000000E-03 0. -1.
        -11    1    3    3    0    0 -0.15607603657E+02 -0.18658694571E+02  0.14555370080E+02  0.28347891869E+02  0.51100000000E-03 0.  1.
        -12    1    3    3    0    0  0.19498822748E+01 -0.98800779089E+01  0.92262607074E+01  0.13658033058E+02  0.00000000000E+00 0.  1.
</event>
<event>
 7    1  0.5456331E-013  0.5052884E+02  0.7816164E-02  0.1300439E+00
        -11   -1    0    0    0    0  0.00000000000E+00  0.00000000000E+00  0.45593999997E+02  0.45594000000E+02  0.51100000000E-03 0.  1.
         11   -1    0    0    0    0 -0.00000000000E+00 -0.00000000000E+00 -0.45593999997E+02  0.45594000000E+02  0.51100000000E-03 0. -1.
    9900012    2    1    2    0    0  0.15950138747E+02  0.36736366868E+02  0.70142286420E+01  0.50528843833E+02  0.29999951316E+02 0.  0.
         12    1    1    2    0    0 -0.15950138747E+02 -0.36736366868E+02 -0.70142286420E+01  0.40659156167E+02  0.00000000000E+00 0. -1.
         11    1    3    3    0    0  0.19050095527E+02  0.14204371110E+02  0.29900690218E+01  0.23950173511E+02  0.51100000000E-03 0. -1.
        -11    1    3    3    0    0  0.15580028821E+01 -0.57241541226E+00 -0.16453103181E+01  0.23371090451E+01  0.51100000000E-03 0.  1.
        -12    1    3    3    0    0 -0.46579596616E+01  0.23104411171E+02  0.56694699382E+01  0.24241561277E+02  0.00000000000E+00 0.  1.
</event>
<event>
 7    1  0.5456331E-013  0.5052887E+02  0.7816164E-02  0.1300439E+00
        -11   -1    0    0    0    0  0.00000000000E+00  0.00000000000E+00  0.45593999997E+02  0.45594000000E+02  0.51100000000E-03 0. -1.
         11   -1    0    0    0    0 -0.00000000000E+00 -0.00000000000E+00 -0.45593999997E+02  0.45594000000E+02  0.51100000000E-03 0.  1.
    9900012    2    1    2    0    0  0.26686940091E+02 -0.47390603631E+01 -0.30306984891E+02  0.50528870671E+02  0.30000032893E+02 0.  0.
         12    1    1    2    0    0 -0.26686940091E+02  0.47390603631E+01  0.30306984891E+02  0.40659129329E+02  0.00000000000E+00 0. -1.
         11    1    3    3    0    0  0.14586551002E+02 -0.40001708699E+01 -0.33411208393E+01  0.15489736145E+02  0.51100000000E-03 0. -1.
        -11    1    3    3    0    0  0.11162455623E+02 -0.45199800247E+00 -0.37230655520E+01  0.11775650092E+02  0.51100000000E-03 0.  1.
        -12    1    3    3    0    0  0.93793346636E+00 -0.28689149080E+00 -0.23242798500E+02  0.23263484434E+02  0.00000000000E+00 0.  1.
</event>
<event>
 7    1  0.5456331E-013  0.5052886E+02  0.7816164E-02  0.1300439E+00
        -11   -1    0    0    0    0  0.00000000000E+00  0.00000000000E+00  0.45593999997E+02  0.45594000000E+02  0.51100000000E-03 0.  1.
         11   -1    0    0    0    0 -0.00000000000E+00 -0.00000000000E+00 -0.45593999997E+02  0.45594000000E+02  0.51100000000E-03 0. -1.
    9900012    2    1    2    0    0 -0.11562941764E+02  0.37277217855E+02  0.11396194557E+02  0.50528857810E+02  0.29999993799E+02 0.  0.
         12    1    1    2    0    0  0.11562941764E+02 -0.37277217855E+02 -0.11396194557E+02  0.40659142190E+02  0.00000000000E+00 0. -1.
         11    1    3    3    0    0 -0.42483084056E+01  0.93949733094E+01  0.88719688564E+01  0.13602407119E+02  0.51100000000E-03 0. -1.
        -11    1    3    3    0    0 -0.11238754046E+02  0.45991840816E+01  0.51081841257E+01  0.13174051466E+02  0.51100000000E-03 0.  1.
         12    1    3    3    0    0  0.39241206874E+01  0.23283060464E+02 -0.25839584252E+01  0.23752399224E+02  0.00000000000E+00 0. -1.
</event>
<event>
 7    1  0.5456331E-013  0.5052886E+02  0.7816164E-02  0.1300439E+00
        -11   -1    0    0    0    0  0.00000000000E+00  0.00000000000E+00  0.45593999997E+02  0.45594000000E+02  0.51100000000E-03 0.  1.
         11   -1    0    0    0    0 -0.00000000000E+00 -0.00000000000E+00 -0.45593999997E+02  0.45594000000E+02  0.51100000000E-03 0. -1.
    9900012    2    1    2    0    0  0.13595926298E+02 -0.15236595705E+01  0.38288307847E+02  0.50528864886E+02  0.30000015307E+02 0.  0.
         12    1    1    2    0    0 -0.13595926298E+02  0.15236595705E+01 -0.38288307847E+02  0.40659135114E+02  0.00000000000E+00 0. -1.
         11    1    3    3    0    0  0.14545029655E+02 -0.12158588611E+02  0.24225852072E+02  0.30761681904E+02  0.51100000000E-03 0. -1.
        -11    1    3    3    0    0  0.31576291898E+01  0.17252204882E+01  0.16849413039E+01  0.39731643927E+01  0.51100000000E-03 0.  1.
        -12    1    3    3    0    0 -0.41067325466E+01  0.89097085525E+01  0.12377514471E+02  0.15794018589E+02  0.00000000000E+00 0.  1.
</event>
<event>
 7    1  0.5456331E-013  0.5052885E+02  0.7816164E-02  0.1300439E+00
        -11   -1    0    0    0    0  0.00000000000E+00  0.00000000000E+00  0.45593999997E+02  0.45594000000E+02  0.51100000000E-03 0.  1.
         11   -1    0    0    0    0 -0.00000000000E+00 -0.00000000000E+00 -0.45593999997E+02  0.45594000000E+02  0.51100000000E-03 0. -1.
    9900012    2    1    2    0    0  0.69580980997E+01  0.39075199639E+02  0.88249506158E+01  0.50528854542E+02  0.29999983865E+02 0.  0.
         12    1    1    2    0    0 -0.69580980997E+01 -0.39075199639E+02 -0.88249506158E+01  0.40659145458E+02  0.00000000000E+00 0. -1.
         11    1    3    3    0    0 -0.18073039758E+01  0.27444796819E+01  0.71598017875E+01  0.78778980879E+01  0.51100000000E-03 0. -1.
        -11    1    3    3    0    0  0.21580219251E+01 -0.39289731364E+00 -0.43349634746E+01  0.48583264110E+01  0.51100000000E-03 0.  1.
        -12    1    3    3    0    0  0.66073801503E+01  0.36723617271E+02  0.60001123029E+01  0.37792630043E+02  0.00000000000E+00 0.  1.
</event>
<event>
 7    1  0.5456331E-013  0.5052887E+02  0.7816164E-02  0.1300439E+00
        -11   -1    0    0    0    0  0.00000000000E+00  0.00000000000E+00  0.45593999997E+02  0.45594000000E+02  0.51100000000E-03 0. -1.
         11   -1    0    0    0    0 -0.00000000000E+00 -0.00000000000E+00 -0.45593999997E+02  0.45594000000E+02  0.51100000000E-03 0.  1.
    9900012    2    1    2    0    0 -0.25900410928E+02  0.30675055526E+02 -0.64322883418E+01  0.50528872475E+02  0.30000038376E+02 0.  0.
         12    1    1    2    0    0  0.25900410928E+02 -0.30675055526E+02  0.64322883418E+01  0.40659127525E+02  0.00000000000E+00 0. -1.
         11    1    3    3    0    0 -0.11085359129E+02  0.71416274911E+01  0.56322572478E+01  0.14339119646E+02  0.51100000000E-03 0. -1.
        -11    1    3    3    0    0 -0.84192260470E+01 -0.70796277515E+00 -0.19543780069E+00  0.84511996022E+01  0.51100000000E-03 0.  1.
         12    1    3    3    0    0 -0.63958257516E+01  0.24241390810E+02 -0.11869107789E+02  0.27738553227E+02  0.00000000000E+00 0. -1.
</event>
<event>
 7    1  0.5456331E-013  0.5052886E+02  0.7816164E-02  0.1300439E+00
        -11   -1    0    0    0    0  0.00000000000E+00  0.00000000000E+00  0.45593999997E+02  0.45594000000E+02  0.51100000000E-03 0.  1.
         11   -1    0    0    0    0 -0.00000000000E+00 -0.00000000000E+00 -0.45593999997E+02  0.45594000000E+02  0.51100000000E-03 0. -1.
    9900012    2    1    2    0    0  0.64638662665E+01 -0.38377438207E+02  0.11770987344E+02  0.50528862361E+02  0.30000007634E+02 0.  0.
         12    1    1    2    0    0 -0.64638662665E+01  0.38377438207E+02 -0.11770987344E+02  0.40659137639E+02  0.00000000000E+00 0. -1.
         11    1    3    3    0    0 -0.23628492654E+01 -0.40397302635E+01  0.32915351393E+01  0.57215977740E+01  0.51100000000E-03 0. -1.
        -11    1    3    3    0    0 -0.80666486115E+01 -0.64540443001E+01  0.63707875900E+01  0.12137233722E+02  0.51100000000E-03 0.  1.
        -12    1    3    3    0    0  0.16893364143E+02 -0.27883663644E+02  0.21086646146E+01  0.32670030865E+02  0.00000000000E+00 0.  1.
</event>
<event>
 7    1  0.5456331E-013  0.5052886E+02  0.7816164E-02  0.1300439E+00
        -11   -1    0    0    0    0  0.00000000000E+00  0.00000000000E+00  0.45593999997E+02  0.45594000000E+02  0.51100000000E-03 0. -1.
         11   -1    0    0    0    0 -0.00000000000E+00 -0.00000000000E+00 -0.45593999997E+02  0.45594000000E+02  0.51100000000E-03 0.  1.
    9900012    2    1    2    0    0  0.28541967758E+02 -0.26155229275E+02 -0.12426809412E+02  0.50528861616E+02  0.30000005369E+02 0.  0.
         12    1    1    2    0    0 -0.28541967758E+02  0.26155229275E+02  0.12426809412E+02  0.40659138384E+02  0.00000000000E+00 0. -1.
         11    1    3    3    0    0 -0.67518657279E+00 -0.14478078227E+01  0.21500062092E+01  0.26785353013E+01  0.51100000000E-03 0. -1.
        -11    1    3    3    0    0  0.73877721350E+01 -0.21505916356E+02 -0.30057814526E+01  0.22937269625E+02  0.51100000000E-03 0.  1.
        -12    1    3    3    0    0  0.21829382196E+02 -0.32015050965E+01 -0.11571034169E+02  0.24913056691E+02  0.00000000000E+00 0.  1.
</event>
<event>
 7    1  0.5456331E-013  0.5052890E+02  0.7816164E-02  0.1300439E+00
        -11   -1    0    0    0    0  0.00000000000E+00  0.00000000000E+00  0.45593999997E+02  0.45594000000E+02  0.51100000000E-03 0.  1.
         11   -1    0    0    0    0 -0.00000000000E+00 -0.00000000000E+00 -0.45593999997E+02  0.45594000000E+02  0.51100000000E-03 0. -1.
    9900012    2    1    2    0    0 -0.14361572785E+02 -0.37904722238E+02  0.31842903391E+01  0.50528899595E+02  0.30000120808E+02 0.  0.
         12    1    1    2    0    0  0.14361572785E+02  0.37904722238E+02 -0.31842903391E+01  0.40659100405E+02  0.00000000000E+00 0. -1.
         11    1    3    3    0    0 -0.15729685996E+02 -0.39396958072E+02 -0.39341306237E+00  0.42422848808E+02  0.51100000000E-03 0.  1.
        -11    1    3    3    0    0 -0.17689445174E+01 -0.77014773229E+00 -0.95059938535E+00  0.21507979189E+01  0.51100000000E-03 0. -1.
        -12    1    3    3    0    0  0.31370577282E+01  0.22623835665E+01  0.45283027869E+01  0.59552528680E+01  0.00000000000E+00 0.  1.
</event>
<event>
 7    1  0.5456331E-013  0.5052884E+02  0.7816164E-02  0.1300439E+00
        -11   -1    0    0    0    0  0.00000000000E+00  0.00000000000E+00  0.45593999997E+02  0.45594000000E+02  0.51100000000E-03 0.  1.
         11   -1    0    0    0    0 -0.00000000000E+00 -0.00000000000E+00 -0.45593999997E+02  0.45594000000E+02  0.51100000000E-03 0. -1.
    9900012    2    1    2    0    0  0.21336923956E+01  0.16766174539E+02  0.36979857185E+02  0.50528842491E+02  0.29999947236E+02 0.  0.
         12    1    1    2    0    0 -0.21336923956E+01 -0.16766174539E+02 -0.36979857185E+02  0.40659157509E+02  0.00000000000E+00 0. -1.
         11    1    3    3    0    0 -0.28480251901E+01  0.50077429229E+01  0.43924774200E+01  0.72444872015E+01  0.51100000000E-03 0. -1.
        -11    1    3    3    0    0 -0.50796686112E+01  0.15486004025E+02  0.26024840909E+02  0.30706867285E+02  0.51100000000E-03 0.  1.
        -12    1    3    3    0    0  0.10061386197E+02 -0.37275724088E+01  0.65625388556E+01  0.12577488004E+02  0.00000000000E+00 0.  1.
</event>
<event>
 7    1  0.5456331E-013  0.5052890E+02  0.7816164E-02  0.1300439E+00
        -11   -1    0    0    0    0  0.00000000000E+00  0.00000000000E+00  0.45593999997E+02  0.45594000000E+02  0.51100000000E-03 0.  1.
         11   -1    0    0    0    0 -0.00000000000E+00 -0.00000000000E+00 -0.45593999997E+02  0.45594000000E+02  0.51100000000E-03 0. -1.
    9900012    2    1    2    0    0 -0.17669500002E+02  0.62783145888E+01  0.36076779954E+02  0.50528898728E+02  0.30000118172E+02 0.  0.
         12    1    1    2    0    0  0.17669500002E+02 -0.62783145888E+01 -0.36076779954E+02  0.40659101272E+02  0.00000000000E+00 0. -1.
         11    1    3    3    0    0  0.42754537139E+01 -0.23658155028E+01  0.26894730012E+01  0.55776207059E+01  0.51100000000E-03 0. -1.
        -11    1    3    3    0    0 -0.50614672867E+01  0.62597654132E+01  0.69554050421E+00  0.80800303822E+01  0.51100000000E-03 0.  1.
        -12    1    3    3    0    0 -0.16883486430E+02  0.23843646784E+01  0.32691766449E+02  0.36871247639E+02  0.00000000000E+00 0.  1.
</event>
<event>
 7    1  0.5456331E-013  0.5052886E+02  0.7816164E-02  0.1300439E+00
        -11   -1    0    0    0    0  0.00000000000E+00  0.00000000000E+00  0.45593999997E+02  0.45594000000E+02  0.51100000000E-03 0. -1.
         11   -1    0    0    0    0 -0.00000000000E+00 -0.00000000000E+00 -0.45593999997E+02  0.45594000000E+02  0.51100000000E-03 0.  1.
    9900012    2    1    2    0    0 -0.26180324926E+02  0.30772438080E+02  0.45621710534E+01  0.50528858797E+02  0.29999996800E+02 0.  0.
         12    1    1    2    0    0  0.26180324926E+02 -0.30772438080E+02 -0.45621710534E+01  0.40659141203E+02  0.00000000000E+00 0. -1.
         11    1    3    3    0    0 -0.19526328599E+02  0.12563042059E+02  0.11960442079E+01  0.23249474324E+02  0.51100000000E-03 0.  1.
        -11    1    3    3    0    0 -0.60616754640E+01 -0.67629894064E+00  0.55654363016E+01  0.82568378436E+01  0.51100000000E-03 0. -1.
        -12    1    3    3    0    0 -0.59232086288E+00  0.18885694962E+02 -0.21993094560E+01  0.19022546629E+02  0.00000000000E+00 0.  1.
</event>
<event>
 7    1  0.5456331E-013  0.5052889E+02  0.7816164E-02  0.1300439E+00
        -11   -1    0    0    0    0  0.00000000000E+00  0.00000000000E+00  0.45593999997E+02  0.45594000000E+02  0.51100000000E-03 0.  1.
         11   -1    0    0    0    0 -0.00000000000E+00 -0.00000000000E+00 -0.45593999997E+02  0.45594000000E+02  0.51100000000E-03 0. -1.
    9900012    2    1    2    0    0 -0.16390124347E+02  0.46097491282E+01  0.36922588261E+02  0.50528886790E+02  0.30000081888E+02 0.  0.
         12    1    1    2    0    0  0.16390124347E+02 -0.46097491282E+01 -0.36922588261E+02  0.40659113210E+02  0.00000000000E+00 0. -1.
         11    1    3    3    0    0 -0.10040247554E+01 -0.29129234796E+01  0.50075378160E+01  0.58795088356E+01  0.51100000000E-03 0. -1.
        -11    1    3    3    0    0 -0.12393979033E+01  0.59897937115E+01  0.29609030112E+02  0.30234225644E+02  0.51100000000E-03 0.  1.
         12    1    3    3    0    0 -0.14146701688E+02  0.15328788963E+01  0.23060203328E+01  0.14415152311E+02  0.00000000000E+00 0. -1.
</event>
<event>
 7    1  0.5456331E-013  0.5052885E+02  0.7816164E-02  0.1300439E+00
        -11   -1    0    0    0    0  0.00000000000E+00  0.00000000000E+00  0.45593999997E+02  0.45594000000E+02  0.51100000000E-03 0. -1.
         11   -1    0    0    0    0 -0.00000000000E+00 -0.00000000000E+00 -0.45593999997E+02  0.45594000000E+02  0.51100000000E-03 0.  1.
    9900012    2    1    2    0    0  0.39438977658E+02 -0.93308533851E+01  0.32662371671E+01  0.50528854795E+02  0.29999984635E+02 0.  0.
         12    1    1    2    0    0 -0.39438977658E+02  0.93308533851E+01 -0.32662371671E+01  0.40659145205E+02  0.00000000000E+00 0. -1.
         11    1    3    3    0    0  0.75932377417E+01 -0.50582634742E+01 -0.32399627039E+01  0.96819753852E+01  0.51100000000E-03 0. -1.
        -11    1    3    3    0    0  0.71796585932E+01  0.18029813640E+00 -0.88919651053E+01  0.11430093990E+02  0.51100000000E-03 0.  1.
        -12    1    3    3    0    0  0.24666081323E+02 -0.44528880474E+01  0.15398164976E+02  0.29416785419E+02  0.00000000000E+00 0.  1.
</event>
<event>
 7    1  0.5456331E-013  0.5052886E+02  0.7816164E-02  0.1300439E+00
        -11   -1    0    0    0    0  0.00000000000E+00  0.00000000000E+00  0.45593999997E+02  0.45594000000E+02  0.51100000000E-03 0.  1.
         11   -1    0    0    0    0 -0.00000000000E+00 -0.00000000000E+00 -0.45593999997E+02  0.45594000000E+02  0.51100000000E-03 0. -1.
    9900012    2    1    2    0    0 -0.20893313697E+02 -0.13597272256E+02  0.32120855497E+02  0.50528859233E+02  0.29999998125E+02 0.  0.
         12    1    1    2    0    0  0.20893313697E+02  0.13597272256E+02 -0.32120855497E+02  0.40659140767E+02  0.00000000000E+00 0. -1.
         11    1    3    3    0    0 -0.96842692311E+01 -0.69263966627E+01  0.17438418797E+02  0.21115361510E+02  0.51100000000E-03 0. -1.
        -11    1    3    3    0    0 -0.15487883209E+02 -0.97943806966E+01  0.15564637696E+02  0.24042927575E+02  0.51100000000E-03 0.  1.
         12    1    3    3    0    0  0.42788387426E+01  0.31235051035E+01 -0.88220099688E+00  0.53705701481E+01  0.00000000000E+00 0. -1.
</event>
<event>
 7    1  0.5456331E-013  0.5052887E+02  0.7816164E-02  0.1300439E+00
        -11   -1    0    0    0    0  0.00000000000E+00  0.00000000000E+00  0.45593999997E+02  0.45594000000E+02  0.51100000000E-03 0.  1.
         11   -1    0    0    0    0 -0.00000000000E+00 -0.00000000000E+00 -0.45593999997E+02  0.45594000000E+02  0.51100000000E-03 0. -1.
    9900012    2    1    2    0    0  0.21786379192E+02 -0.15914488687E+02  0.30417889090E+02  0.50528865169E+02  0.30000016169E+02 0.  0.
         12    1    1    2    0    0 -0.21786379192E+02  0.15914488687E+02 -0.30417889090E+02  0.40659134831E+02  0.00000000000E+00 0. -1.
         11    1    3    3    0    0  0.51148662440E-01 -0.12739145225E+01  0.16098234443E+02  0.16148641641E+02  0.51100000000E-03 0. -1.
        -11    1    3    3    0    0  0.97816440259E+01 -0.50304239512E+01  0.15489941672E+02  0.18998000375E+02  0.51100000000E-03 0.  1.
         12    1    3    3    0    0  0.11953586504E+02 -0.96101502134E+01 -0.11702870250E+01  0.15382223153E+02  0.00000000000E+00 0. -1.
</event>
<event>
 7    1  0.5456331E-013  0.5052885E+02  0.7816164E-02  0.1300439E+00
        -11   -1    0    0    0    0  0.00000000000E+00  0.00000000000E+00  0.45593999997E+02  0.45594000000E+02  0.51100000000E-03 0.  1.
         11   -1    0    0    0    0 -0.00000000000E+00 -0.00000000000E+00 -0.45593999997E+02  0.45594000000E+02  0.51100000000E-03 0. -1.
    9900012    2    1    2    0    0  0.29984098017E+02 -0.24444618130E+02 -0.12513217206E+02  0.50528854728E+02  0.29999984431E+02 0.  0.
         12    1    1    2    0    0 -0.29984098017E+02  0.24444618130E+02  0.12513217206E+02  0.40659145272E+02  0.00000000000E+00 0. -1.
         11    1    3    3    0    0  0.24840200509E+01 -0.38699837125E+01 -0.82818458270E+00  0.46725816753E+01  0.51100000000E-03 0. -1.
        -11    1    3    3    0    0 -0.73187600517E+00 -0.15641081325E+02 -0.48593759597E+01  0.16394895623E+02  0.51100000000E-03 0.  1.
         12    1    3    3    0    0  0.28231953972E+02 -0.49335530918E+01 -0.68256566634E+01  0.29461377430E+02  0.00000000000E+00 0. -1.
</event>
<event>
 7    1  0.5456331E-013  0.5052886E+02  0.7816164E-02  0.1300439E+00
        -11   -1    0    0    0    0  0.00000000000E+00  0.00000000000E+00  0.45593999997E+02  0.45594000000E+02  0.51100000000E-03 0. -1.
         11   -1    0    0    0    0 -0.00000000000E+00 -0.00000000000E+00 -0.45593999997E+02  0.45594000000E+02  0.51100000000E-03 0.  1.
    9900012    2    1    2    0    0  0.10960845982E+01 -0.28372180677E+02 -0.29102983583E+02  0.50528859684E+02  0.29999999496E+02 0.  0.
         12    1    1    2    0    0 -0.10960845982E+01  0.28372180677E+02  0.29102983583E+02  0.40659140316E+02  0.00000000000E+00 0. -1.
         11    1    3    3    0    0 -0.88056312553E+01 -0.40140368377E+01 -0.17119671411E+02  0.19665573550E+02  0.51100000000E-03 0. -1.
        -11    1    3    3    0    0 -0.14469425108E+01 -0.51334346222E+01 -0.53965617091E+01  0.75874022031E+01  0.51100000000E-03 0.  1.
         12    1    3    3    0    0  0.11348658364E+02 -0.19224709217E+02 -0.65867504621E+01  0.23275883932E+02  0.00000000000E+00 0. -1.
</event>
<event>
 7    1  0.5456331E-013  0.5052885E+02  0.7816164E-02  0.1300439E+00
        -11   -1    0    0    0    0  0.00000000000E+00  0.00000000000E+00  0.45593999997E+02  0.45594000000E+02  0.51100000000E-03 0.  1.
         11   -1    0    0    0    0 -0.00000000000E+00 -0.00000000000E+00 -0.45593999997E+02  0.45594000000E+02  0.51100000000E-03 0. -1.
    9900012    2    1    2    0    0  0.40109554221E+02  0.60852220976E+01  0.27129127889E+01  0.50528853876E+02  0.29999981840E+02 0.  0.
         12    1    1    2    0    0 -0.40109554221E+02 -0.60852220976E+01 -0.27129127889E+01  0.40659146124E+02  0.00000000000E+00 0. -1.
         11    1    3    3    0    0  0.18409233872E+02 -0.42238321845E+01 -0.37426728683E+01  0.19254824085E+02  0.51100000000E-03 0. -1.
        -11    1    3    3    0    0  0.16069252976E+02 -0.17987087304E+01 -0.58153050255E+00  0.16180062493E+02  0.51100000000E-03 0.  1.
         12    1    3    3    0    0  0.56310673725E+01  0.12107763012E+02  0.70371161598E+01  0.15093967297E+02  0.00000000000E+00 0. -1.
</event>
<event>
 7    1  0.5456331E-013  0.5052886E+02  0.7816164E-02  0.1300439E+00
        -11   -1    0    0    0    0  0.00000000000E+00  0.00000000000E+00  0.45593999997E+02  0.45594000000E+02  0.51100000000E-03 0.  1.
         11   -1    0    0    0    0 -0.00000000000E+00 -0.00000000000E+00 -0.45593999997E+02  0.45594000000E+02  0.51100000000E-03 0. -1.
    9900012    2    1    2    0    0  0.16942724315E+02  0.35806242683E+02  0.91664086436E+01  0.50528856259E+02  0.29999989085E+02 0.  0.
         12    1    1    2    0    0 -0.16942724315E+02 -0.35806242683E+02 -0.91664086436E+01  0.40659143741E+02  0.00000000000E+00 0. -1.
         11    1    3    3    0    0 -0.16436053950E+01  0.12092889338E+02 -0.55387020976E+01  0.13402112983E+02  0.51100000000E-03 0. -1.
        -11    1    3    3    0    0 -0.11624697874E+01  0.83617968078E-01  0.45544510069E+01  0.47012075264E+01  0.51100000000E-03 0.  1.
         12    1    3    3    0    0  0.19748799497E+02  0.23629735378E+02  0.10150659734E+02  0.32425535750E+02  0.00000000000E+00 0. -1.
</event>
<event>
 7    1  0.5456331E-013  0.5052886E+02  0.7816164E-02  0.1300439E+00
        -11   -1    0    0    0    0  0.00000000000E+00  0.00000000000E+00  0.45593999997E+02  0.45594000000E+02  0.51100000000E-03 0.  1.
         11   -1    0    0    0    0 -0.00000000000E+00 -0.00000000000E+00 -0.45593999997E+02  0.45594000000E+02  0.51100000000E-03 0. -1.
    9900012    2    1    2    0    0 -0.22112357303E+02  0.20878030869E+02  0.26987344758E+02  0.50528864550E+02  0.30000014285E+02 0.  0.
         12    1    1    2    0    0  0.22112357303E+02 -0.20878030869E+02 -0.26987344758E+02  0.40659135450E+02  0.00000000000E+00 0. -1.
         11    1    3    3    0    0  0.74171698939E+00  0.14204155924E+01  0.89869038311E+01  0.91286453145E+01  0.51100000000E-03 0. -1.
        -11    1    3    3    0    0 -0.59858437798E+01  0.16211555086E+02  0.16925024929E+02  0.24188867546E+02  0.51100000000E-03 0.  1.
        -12    1    3    3    0    0 -0.16868230513E+02  0.32460601903E+01  0.10754159985E+01  0.17211351689E+02  0.00000000000E+00 0.  1.
</event>
<event>
 7    1  0.5456331E-013  0.5052883E+02  0.7816164E-02  0.1300439E+00
        -11   -1    0    0    0    0  0.00000000000E+00  0.00000000000E+00  0.45593999997E+02  0.45594000000E+02  0.51100000000E-03 0.  1.
         11   -1    0    0    0    0 -0.00000000000E+00 -0.00000000000E+00 -0.45593999997E+02  0.45594000000E+02  0.51100000000E-03 0. -1.
    9900012    2    1    2    0    0 -0.21254060969E+02 -0.21212346958E+02  0.27412941147E+02  0.50528829897E+02  0.29999908955E+02 0.  0.
         12    1    1    2    0    0  0.21254060969E+02  0.21212346958E+02 -0.27412941147E+02  0.40659170103E+02  0.00000000000E+00 0. -1.
         11    1    3    3    0    0  0.19886514495E+01 -0.10706060525E+01 -0.12468099659E+01  0.25798192300E+01  0.51100000000E-03 0. -1.
        -11    1    3    3    0    0  0.24428838587E+01 -0.36700076794E+01  0.12845556924E+02  0.13581051906E+02  0.51100000000E-03 0.  1.
        -12    1    3    3    0    0 -0.25685596277E+02 -0.16471733226E+02  0.15814194189E+02  0.34367958761E+02  0.00000000000E+00 0.  1.
</event>
<event>
 7    1  0.5456331E-013  0.5052886E+02  0.7816164E-02  0.1300439E+00
        -11   -1    0    0    0    0  0.00000000000E+00  0.00000000000E+00  0.45593999997E+02  0.45594000000E+02  0.51100000000E-03 0. -1.
         11   -1    0    0    0    0 -0.00000000000E+00 -0.00000000000E+00 -0.45593999997E+02  0.45594000000E+02  0.51100000000E-03 0.  1.
    9900012    2    1    2    0    0  0.19948316286E+02 -0.35192336371E+02 -0.40902016540E+01  0.50528860665E+02  0.30000002476E+02 0.  0.
         12    1    1    2    0    0 -0.19948316286E+02  0.35192336371E+02  0.40902016540E+01  0.40659139335E+02  0.00000000000E+00 0. -1.
         11    1    3    3    0    0 -0.64790251309E+00  0.76766854132E+00  0.99871218261E+00  0.14165164809E+01  0.51100000000E-03 0. -1.
        -11    1    3    3    0    0 -0.10130188640E+01 -0.11216364236E+02  0.79316893916E+01  0.13774786052E+02  0.51100000000E-03 0.  1.
        -12    1    3    3    0    0  0.21609237663E+02 -0.24743640676E+02 -0.13020603228E+02  0.35337558132E+02  0.00000000000E+00 0.  1.
</event>
<event>
 7    1  0.5456331E-013  0.5052886E+02  0.7816164E-02  0.1300439E+00
        -11   -1    0    0    0    0  0.00000000000E+00  0.00000000000E+00  0.45593999997E+02  0.45594000000E+02  0.51100000000E-03 0.  1.
         11   -1    0    0    0    0 -0.00000000000E+00 -0.00000000000E+00 -0.45593999997E+02  0.45594000000E+02  0.51100000000E-03 0. -1.
    9900012    2    1    2    0    0 -0.52399949628E+01 -0.30716943658E+02  0.26118533999E+02  0.50528855972E+02  0.29999988212E+02 0.  0.
         12    1    1    2    0    0  0.52399949628E+01  0.30716943658E+02 -0.26118533999E+02  0.40659144028E+02  0.00000000000E+00 0. -1.
         11    1    3    3    0    0 -0.56662218190E+01 -0.38203871985E+01  0.11682474146E+02  0.13534460850E+02  0.51100000000E-03 0. -1.
        -11    1    3    3    0    0 -0.49794111402E+01 -0.70833518775E+01  0.13989465418E+02  0.16452159496E+02  0.51100000000E-03 0.  1.
        -12    1    3    3    0    0  0.54056379964E+01 -0.19813204582E+02  0.44659443384E+00  0.20542235626E+02  0.00000000000E+00 0.  1.
</event>
<event>
 7    1  0.5456331E-013  0.5052886E+02  0.7816164E-02  0.1300439E+00
        -11   -1    0    0    0    0  0.00000000000E+00  0.00000000000E+00  0.45593999997E+02  0.45594000000E+02  0.51100000000E-03 0. -1.
         11   -1    0    0    0    0 -0.00000000000E+00 -0.00000000000E+00 -0.45593999997E+02  0.45594000000E+02  0.51100000000E-03 0.  1.
    9900012    2    1    2    0    0  0.11480277361E+01 -0.14639160350E+02 -0.37914941236E+02  0.50528858932E+02  0.29999997211E+02 0.  0.
         12    1    1    2    0    0 -0.11480277361E+01  0.14639160350E+02  0.37914941236E+02  0.40659141068E+02  0.00000000000E+00 0. -1.
         11    1    3    3    0    0  0.35642168084E+01 -0.57282398570E+01 -0.21366688889E+01  0.70768444605E+01  0.51100000000E-03 0. -1.
        -11    1    3    3    0    0  0.65106495413E+00 -0.96361175921E+01 -0.24352748815E+01  0.99603821128E+01  0.51100000000E-03 0.  1.
        -12    1    3    3    0    0 -0.30672540264E+01  0.72519709875E+00 -0.33342997465E+02  0.33491632359E+02  0.00000000000E+00 0.  1.
</event>
<event>
 7    1  0.5456331E-013  0.5052886E+02  0.7816164E-02  0.1300439E+00
        -11   -1    0    0    0    0  0.00000000000E+00  0.00000000000E+00  0.45593999997E+02  0.45594000000E+02  0.51100000000E-03 0. -1.
         11   -1    0    0    0    0 -0.00000000000E+00 -0.00000000000E+00 -0.45593999997E+02  0.45594000000E+02  0.51100000000E-03 0.  1.
    9900012    2    1    2    0    0  0.39284307370E+02 -0.10482467197E+02  0.16426544057E+00  0.50528857028E+02  0.29999991423E+02 0.  0.
         12    1    1    2    0    0 -0.39284307370E+02  0.10482467197E+02 -0.16426544057E+00  0.40659142972E+02  0.00000000000E+00 0. -1.
         11    1    3    3    0    0 -0.42759274850E+00  0.18263608330E+01  0.11139436404E+01  0.21815820282E+01  0.51100000000E-03 0. -1.
        -11    1    3    3    0    0  0.21261228503E+02  0.67431637971E+00  0.97238338606E+01  0.23389046267E+02  0.51100000000E-03 0.  1.
        -12    1    3    3    0    0  0.18450671615E+02 -0.12983144410E+02 -0.10673512060E+02  0.24958228733E+02  0.00000000000E+00 0.  1.
</event>
<event>
 7    1  0.5456331E-013  0.5052885E+02  0.7816164E-02  0.1300439E+00
        -11   -1    0    0    0    0  0.00000000000E+00  0.00000000000E+00  0.45593999997E+02  0.45594000000E+02  0.51100000000E-03 0.  1.
         11   -1    0    0    0    0 -0.00000000000E+00 -0.00000000000E+00 -0.45593999997E+02  0.45594000000E+02  0.51100000000E-03 0. -1.
    9900012    2    1    2    0    0 -0.32424550590E+02 -0.20055416534E+02  0.14127832714E+02  0.50528845182E+02  0.29999955415E+02 0.  0.
         12    1    1    2    0    0  0.32424550590E+02  0.20055416534E+02 -0.14127832714E+02  0.40659154818E+02  0.00000000000E+00 0. -1.
         11    1    3    3    0    0  0.42143796976E+01 -0.53211919932E+01 -0.52301636168E-01  0.67881379027E+01  0.51100000000E-03 0. -1.
        -11    1    3    3    0    0 -0.17047423084E+02 -0.41027160074E+00  0.47283930523E+01  0.17695780789E+02  0.51100000000E-03 0.  1.
        -12    1    3    3    0    0 -0.19591507203E+02 -0.14323952940E+02  0.94517412979E+01  0.26044926490E+02  0.00000000000E+00 0.  1.
</event>
<event>
 7    1  0.5456331E-013  0.5052888E+02  0.7816164E-02  0.1300439E+00
        -11   -1    0    0    0    0  0.00000000000E+00  0.00000000000E+00  0.45593999997E+02  0.45594000000E+02  0.51100000000E-03 0.  1.
         11   -1    0    0    0    0 -0.00000000000E+00 -0.00000000000E+00 -0.45593999997E+02  0.45594000000E+02  0.51100000000E-03 0. -1.
    9900012    2    1    2    0    0  0.15878854558E+02  0.70268434666E+01  0.36764786871E+02  0.50528879192E+02  0.30000058793E+02 0.  0.
         12    1    1    2    0    0 -0.15878854558E+02 -0.70268434666E+01 -0.36764786871E+02  0.40659120808E+02  0.00000000000E+00 0. -1.
         11    1    3    3    0    0 -0.10061707125E+01  0.13965029017E+01 -0.21369579978E+01  0.27439368802E+01  0.51100000000E-03 0. -1.
        -11    1    3    3    0    0  0.78455116579E+01  0.74883947364E+01  0.38027377389E+01  0.11492994539E+02  0.51100000000E-03 0.  1.
        -12    1    3    3    0    0  0.90395136121E+01 -0.18580541715E+01  0.35099007130E+02  0.36291947773E+02  0.00000000000E+00 0.  1.
</event>
<event>
 7    1  0.5456331E-013  0.5052886E+02  0.7816164E-02  0.1300439E+00
        -11   -1    0    0    0    0  0.00000000000E+00  0.00000000000E+00  0.45593999997E+02  0.45594000000E+02  0.51100000000E-03 0. -1.
         11   -1    0    0    0    0 -0.00000000000E+00 -0.00000000000E+00 -0.45593999997E+02  0.45594000000E+02  0.51100000000E-03 0.  1.
    9900012    2    1    2    0    0 -0.17184852514E+02  0.29507022655E+02 -0.22072194381E+02  0.50528864413E+02  0.30000013871E+02 0.  0.
         12    1    1    2    0    0  0.17184852514E+02 -0.29507022655E+02  0.22072194381E+02  0.40659135587E+02  0.00000000000E+00 0. -1.
         11    1    3    3    0    0 -0.67743669226E+01  0.52465343320E+01 -0.76204028250E+01  0.11466852627E+02  0.51100000000E-03 0. -1.
        -11    1    3    3    0    0 -0.14261745035E+02  0.19406035628E+02 -0.19564564478E+02  0.31028434922E+02  0.51100000000E-03 0.  1.
         12    1    3    3    0    0  0.38512594434E+01  0.48544526945E+01  0.51127729227E+01  0.80335768636E+01  0.00000000000E+00 0. -1.
</event>
<event>
 7    1  0.5456331E-013  0.5052886E+02  0.7816164E-02  0.1300439E+00
        -11   -1    0    0    0    0  0.00000000000E+00  0.00000000000E+00  0.45593999997E+02  0.45594000000E+02  0.51100000000E-03 0.  1.
         11   -1    0    0    0    0 -0.00000000000E+00 -0.00000000000E+00 -0.45593999997E+02  0.45594000000E+02  0.51100000000E-03 0. -1.
    9900012    2    1    2    0    0  0.39530687774E+02 -0.52200866645E+01  0.79524443992E+01  0.50528856470E+02  0.29999989725E+02 0.  0.
         12    1    1    2    0    0 -0.39530687774E+02  0.52200866645E+01 -0.79524443992E+01  0.40659143530E+02  0.00000000000E+00 0. -1.
         11    1    3    3    0    0  0.20686115097E+02 -0.43736027642E+01 -0.24809296449E+01  0.21288465682E+02  0.51100000000E-03 0. -1.
        -11    1    3    3    0    0  0.17796981064E+02 -0.81001227009E+01  0.51952758821E+01  0.20232039307E+02  0.51100000000E-03 0.  1.
         12    1    3    3    0    0  0.10475916132E+01  0.72536388006E+01  0.52380981620E+01  0.90083514803E+01  0.00000000000E+00 0. -1.
</event>
<event>
 7    1  0.5456331E-013  0.5052886E+02  0.7816164E-02  0.1300439E+00
        -11   -1    0    0    0    0  0.00000000000E+00  0.00000000000E+00  0.45593999997E+02  0.45594000000E+02  0.51100000000E-03 0.  1.
         11   -1    0    0    0    0 -0.00000000000E+00 -0.00000000000E+00 -0.45593999997E+02  0.45594000000E+02  0.51100000000E-03 0. -1.
    9900012    2    1    2    0    0  0.27594027557E+02  0.29566693256E+02 -0.41888303215E+01  0.50528855808E+02  0.29999987715E+02 0.  0.
         12    1    1    2    0    0 -0.27594027557E+02 -0.29566693256E+02  0.41888303215E+01  0.40659144192E+02  0.00000000000E+00 0. -1.
         11    1    3    3    0    0  0.13927275887E+02  0.10316417043E+02  0.54851704875E+01  0.18179234576E+02  0.51100000000E-03 0. -1.
        -11    1    3    3    0    0  0.13151500857E+02  0.17683300371E+02  0.49938467929E+00  0.22043377058E+02  0.51100000000E-03 0.  1.
         12    1    3    3    0    0  0.51525081359E+00  0.15669758425E+01 -0.10173385488E+02  0.10306244175E+02  0.00000000000E+00 0. -1.
</event>
<event>
 7    1  0.5456331E-013  0.5052886E+02  0.7816164E-02  0.1300439E+00
        -11   -1    0    0    0    0  0.00000000000E+00  0.00000000000E+00  0.45593999997E+02  0.45594000000E+02  0.51100000000E-03 0.  1.
         11   -1    0    0    0    0 -0.00000000000E+00 -0.00000000000E+00 -0.45593999997E+02  0.45594000000E+02  0.51100000000E-03 0. -1.
    9900012    2    1    2    0    0 -0.13976404276E+02 -0.32113331168E+02 -0.20653325817E+02  0.50528858562E+02  0.29999996084E+02 0.  0.
         12    1    1    2    0    0  0.13976404276E+02  0.32113331168E+02  0.20653325817E+02  0.40659141438E+02  0.00000000000E+00 0. -1.
         11    1    3    3    0    0 -0.15283707237E+00 -0.16588506518E+02 -0.17661971576E+01  0.16682966173E+02  0.51100000000E-03 0. -1.
        -11    1    3    3    0    0  0.38412495293E+01 -0.76024414498E+01 -0.39277853957E+01  0.93797554510E+01  0.51100000000E-03 0.  1.
         12    1    3    3    0    0 -0.17664816733E+02 -0.79223832003E+01 -0.14959343263E+02  0.24466136938E+02  0.00000000000E+00 0. -1.
</event>
<event>
 7    1  0.5456331E-013  0.5052886E+02  0.7816164E-02  0.1300439E+00
        -11   -1    0    0    0    0  0.00000000000E+00  0.00000000000E+00  0.45593999997E+02  0.45594000000E+02  0.51100000000E-03 0.  1.
         11   -1    0    0    0    0 -0.00000000000E+00 -0.00000000000E+00 -0.45593999997E+02  0.45594000000E+02  0.51100000000E-03 0. -1.
    9900012    2    1    2    0    0 -0.28432421130E+02 -0.14064572489E+01  0.29030752424E+02  0.50528864746E+02  0.30000014882E+02 0.  0.
         12    1    1    2    0    0  0.28432421130E+02  0.14064572489E+01 -0.29030752424E+02  0.40659135254E+02  0.00000000000E+00 0. -1.
         11    1    3    3    0    0 -0.16726044676E+02 -0.21828800009E+01  0.18214906841E+02  0.24825558746E+02  0.51100000000E-03 0. -1.
        -11    1    3    3    0    0 -0.84585559221E+01 -0.29518990842E+01  0.16126036481E+02  0.18447491139E+02  0.51100000000E-03 0.  1.
         12    1    3    3    0    0 -0.32478205320E+01  0.37283218362E+01 -0.53101908973E+01  0.72558148603E+01  0.00000000000E+00 0. -1.
</event>
<event>
 7    1  0.5456331E-013  0.5052889E+02  0.7816164E-02  0.1300439E+00
        -11   -1    0    0    0    0  0.00000000000E+00  0.00000000000E+00  0.45593999997E+02  0.45594000000E+02  0.51100000000E-03 0.  1.
         11   -1    0    0    0    0 -0.00000000000E+00 -0.00000000000E+00 -0.45593999997E+02  0.45594000000E+02  0.51100000000E-03 0. -1.
    9900012    2    1    2    0    0 -0.10096083844E+02  0.37319791635E+02 -0.12588305368E+02  0.50528890459E+02  0.30000093038E+02 0.  0.
         12    1    1    2    0    0  0.10096083844E+02 -0.37319791635E+02  0.12588305368E+02  0.40659109541E+02  0.00000000000E+00 0. -1.
         11    1    3    3    0    0 -0.53805700385E+01  0.37319329715E+01 -0.73853368720E+00  0.65896350362E+01  0.51100000000E-03 0. -1.
        -11    1    3    3    0    0 -0.10458131162E+02  0.31250264307E+02 -0.29402468339E+01  0.33084687975E+02  0.51100000000E-03 0.  1.
         12    1    3    3    0    0  0.57426173569E+01  0.23375943565E+01 -0.89095248469E+01  0.10854567448E+02  0.00000000000E+00 0. -1.
</event>
<event>
 7    1  0.5456331E-013  0.5052887E+02  0.7816164E-02  0.1300439E+00
        -11   -1    0    0    0    0  0.00000000000E+00  0.00000000000E+00  0.45593999997E+02  0.45594000000E+02  0.51100000000E-03 0.  1.
         11   -1    0    0    0    0 -0.00000000000E+00 -0.00000000000E+00 -0.45593999997E+02  0.45594000000E+02  0.51100000000E-03 0. -1.
    9900012    2    1    2    0    0  0.18763515388E+02 -0.15916494446E+02  0.32369127602E+02  0.50528871543E+02  0.30000035542E+02 0.  0.
         12    1    1    2    0    0 -0.18763515388E+02  0.15916494446E+02 -0.32369127602E+02  0.40659128457E+02  0.00000000000E+00 0. -1.
         11    1    3    3    0    0  0.20069731279E+02 -0.19804307128E+01  0.14151423977E+02  0.24636944215E+02  0.51100000000E-03 0. -1.
        -11    1    3    3    0    0  0.49646255642E+01 -0.38750022684E+01  0.43852676947E+01  0.76742245594E+01  0.51100000000E-03 0.  1.
        -12    1    3    3    0    0 -0.62708414561E+01 -0.10061061465E+02  0.13832435931E+02  0.18217702768E+02  0.00000000000E+00 0.  1.
</event>
<event>
 7    1  0.5456331E-013  0.5052884E+02  0.7816164E-02  0.1300439E+00
        -11   -1    0    0    0    0  0.00000000000E+00  0.00000000000E+00  0.45593999997E+02  0.45594000000E+02  0.51100000000E-03 0. -1.
         11   -1    0    0    0    0 -0.00000000000E+00 -0.00000000000E+00 -0.45593999997E+02  0.45594000000E+02  0.51100000000E-03 0.  1.
    9900012    2    1    2    0    0  0.22080074834E+01  0.27889199511E+01 -0.40503262072E+02  0.50528836088E+02  0.29999927775E+02 0.  0.
         12    1    1    2    0    0 -0.22080074834E+01 -0.27889199511E+01  0.40503262072E+02  0.40659163912E+02  0.00000000000E+00 0. -1.
         11    1    3    3    0    0  0.33213350829E+01  0.78994701274E+01 -0.33756353452E+02  0.34827062662E+02  0.51100000000E-03 0.  1.
        -11    1    3    3    0    0  0.16806722746E+00 -0.57544608210E+00 -0.99727819319E+01  0.99907839787E+01  0.51100000000E-03 0. -1.
         12    1    3    3    0    0 -0.12813948270E+01 -0.45351040942E+01  0.32258733122E+01  0.57109894479E+01  0.00000000000E+00 0. -1.
</event>
<event>
 7    1  0.5456331E-013  0.5052887E+02  0.7816164E-02  0.1300439E+00
        -11   -1    0    0    0    0  0.00000000000E+00  0.00000000000E+00  0.45593999997E+02  0.45594000000E+02  0.51100000000E-03 0. -1.
         11   -1    0    0    0    0 -0.00000000000E+00 -0.00000000000E+00 -0.45593999997E+02  0.45594000000E+02  0.51100000000E-03 0.  1.
    9900012    2    1    2    0    0 -0.81402353887E+01 -0.36965784845E+02  0.14846964756E+02  0.50528867645E+02  0.30000023694E+02 0.  0.
         12    1    1    2    0    0  0.81402353887E+01  0.36965784845E+02 -0.14846964756E+02  0.40659132355E+02  0.00000000000E+00 0. -1.
         11    1    3    3    0    0  0.55067879398E+01 -0.32631102776E+01  0.12943610555E+01  0.65305415473E+01  0.51100000000E-03 0. -1.
        -11    1    3    3    0    0 -0.19825163995E+01  0.22811926832E+01  0.39457844039E+01  0.49702541338E+01  0.51100000000E-03 0.  1.
        -12    1    3    3    0    0 -0.11664506929E+02 -0.35983867251E+02  0.96068192966E+01  0.39028071964E+02  0.00000000000E+00 0.  1.
</event>
<event>
 7    1  0.5456331E-013  0.5052890E+02  0.7816164E-02  0.1300439E+00
        -11   -1    0    0    0    0  0.00000000000E+00  0.00000000000E+00  0.45593999997E+02  0.45594000000E+02  0.51100000000E-03 0.  1.
         11   -1    0    0    0    0 -0.00000000000E+00 -0.00000000000E+00 -0.45593999997E+02  0.45594000000E+02  0.51100000000E-03 0. -1.
    9900012    2    1    2    0    0 -0.50464651846E+01 -0.85837417817E+01  0.39420999100E+02  0.50528897651E+02  0.30000114899E+02 0.  0.
         12    1    1    2    0    0  0.50464651846E+01  0.85837417817E+01 -0.39420999100E+02  0.40659102349E+02  0.00000000000E+00 0. -1.
         11    1    3    3    0    0 -0.51710198997E+00 -0.29342152977E+01  0.13990478775E+01  0.32915572464E+01  0.51100000000E-03 0. -1.
        -11    1    3    3    0    0 -0.55096530716E+01 -0.15940043744E+02  0.17766987560E+02  0.24497083883E+02  0.51100000000E-03 0.  1.
         12    1    3    3    0    0  0.98028987697E+00  0.10290517260E+02  0.20254963662E+02  0.22740256522E+02  0.00000000000E+00 0. -1.
</event>
<event>
 7    1  0.5456331E-013  0.5052886E+02  0.7816164E-02  0.1300439E+00
        -11   -1    0    0    0    0  0.00000000000E+00  0.00000000000E+00  0.45593999997E+02  0.45594000000E+02  0.51100000000E-03 0.  1.
         11   -1    0    0    0    0 -0.00000000000E+00 -0.00000000000E+00 -0.45593999997E+02  0.45594000000E+02  0.51100000000E-03 0. -1.
    9900012    2    1    2    0    0 -0.64530597858E+01  0.17515419048E+01  0.40105553153E+02  0.50528864823E+02  0.30000015117E+02 0.  0.
         12    1    1    2    0    0  0.64530597858E+01 -0.17515419048E+01 -0.40105553153E+02  0.40659135177E+02  0.00000000000E+00 0. -1.
         11    1    3    3    0    0 -0.48247042473E+00  0.48174845466E+01  0.59791986809E+01  0.76936176272E+01  0.51100000000E-03 0. -1.
        -11    1    3    3    0    0  0.35092701883E+01  0.59843593686E+01  0.27080671364E+02  0.27955147935E+02  0.51100000000E-03 0.  1.
         12    1    3    3    0    0 -0.94798595494E+01 -0.90503020104E+01  0.70456831079E+01  0.14880099261E+02  0.00000000000E+00 0. -1.
</event>
<event>
 7    1  0.5456331E-013  0.5052886E+02  0.7816164E-02  0.1300439E+00
        -11   -1    0    0    0    0  0.00000000000E+00  0.00000000000E+00  0.45593999997E+02  0.45594000000E+02  0.51100000000E-03 0.  1.
         11   -1    0    0    0    0 -0.00000000000E+00 -0.00000000000E+00 -0.45593999997E+02  0.45594000000E+02  0.51100000000E-03 0. -1.
    9900012    2    1    2    0    0  0.13375652878E+02 -0.24765487082E+01  0.38316106165E+02  0.50528863572E+02  0.30000011314E+02 0.  0.
         12    1    1    2    0    0 -0.13375652878E+02  0.24765487082E+01 -0.38316106165E+02  0.40659136428E+02  0.00000000000E+00 0. -1.
         11    1    3    3    0    0  0.94420107320E+01 -0.36819743296E+01  0.26055522750E+01  0.10464100752E+02  0.51100000000E-03 0. -1.
        -11    1    3    3    0    0  0.87095219164E+01  0.71939961347E+00  0.77050566995E+01  0.11650802840E+02  0.51100000000E-03 0.  1.
        -12    1    3    3    0    0 -0.47758797703E+01  0.48602600793E+00  0.28005497191E+02  0.28413959980E+02  0.00000000000E+00 0.  1.
</event>
<event>
 7    1  0.5456331E-013  0.5052886E+02  0.7816164E-02  0.1300439E+00
        -11   -1    0    0    0    0  0.00000000000E+00  0.00000000000E+00  0.45593999997E+02  0.45594000000E+02  0.51100000000E-03 0.  1.
         11   -1    0    0    0    0 -0.00000000000E+00 -0.00000000000E+00 -0.45593999997E+02  0.45594000000E+02  0.51100000000E-03 0. -1.
    9900012    2    1    2    0    0  0.72736456070E+01  0.39305990988E+02  0.74363309122E+01  0.50528857542E+02  0.29999992985E+02 0.  0.
         12    1    1    2    0    0 -0.72736456070E+01 -0.39305990988E+02 -0.74363309122E+01  0.40659142458E+02  0.00000000000E+00 0. -1.
         11    1    3    3    0    0 -0.46837094826E+00  0.21034950705E+01 -0.14685758973E+01  0.26078301869E+01  0.51100000000E-03 0. -1.
        -11    1    3    3    0    0  0.22116428462E+01  0.38516623002E+02  0.15309504996E+01  0.38610431509E+02  0.51100000000E-03 0.  1.
         12    1    3    3    0    0  0.55303737091E+01 -0.13141270846E+01  0.73739563099E+01  0.93105958465E+01  0.00000000000E+00 0. -1.
</event>
<event>
 7    1  0.5456331E-013  0.5052887E+02  0.7816164E-02  0.1300439E+00
        -11   -1    0    0    0    0  0.00000000000E+00  0.00000000000E+00  0.45593999997E+02  0.45594000000E+02  0.51100000000E-03 0. -1.
         11   -1    0    0    0    0 -0.00000000000E+00 -0.00000000000E+00 -0.45593999997E+02  0.45594000000E+02  0.51100000000E-03 0.  1.
    9900012    2    1    2    0    0  0.35178727653E+02  0.10275234760E+02 -0.17607992947E+02  0.50528871329E+02  0.30000034891E+02 0.  0.
         12    1    1    2    0    0 -0.35178727653E+02 -0.10275234760E+02  0.17607992947E+02  0.40659128671E+02  0.00000000000E+00 0. -1.
         11    1    3    3    0    0 -0.38942704849E+01 -0.70453392349E+00 -0.43325452718E+00  0.39811330554E+01  0.51100000000E-03 0. -1.
        -11    1    3    3    0    0  0.30515041024E+02  0.39848113701E+01 -0.70785198477E+01  0.31577711979E+02  0.51100000000E-03 0.  1.
        -12    1    3    3    0    0  0.85579571144E+01  0.69949573132E+01 -0.10096218573E+02  0.14970026294E+02  0.00000000000E+00 0.  1.
</event>
<event>
 7    1  0.5456331E-013  0.5052888E+02  0.7816164E-02  0.1300439E+00
        -11   -1    0    0    0    0  0.00000000000E+00  0.00000000000E+00  0.45593999997E+02  0.45594000000E+02  0.51100000000E-03 0.  1.
         11   -1    0    0    0    0 -0.00000000000E+00 -0.00000000000E+00 -0.45593999997E+02  0.45594000000E+02  0.51100000000E-03 0. -1.
    9900012    2    1    2    0    0 -0.70977799299E+01  0.32483018264E+02  0.23401694684E+02  0.50528877167E+02  0.30000052637E+02 0.  0.
         12    1    1    2    0    0  0.70977799299E+01 -0.32483018264E+02 -0.23401694684E+02  0.40659122833E+02  0.00000000000E+00 0. -1.
         11    1    3    3    0    0 -0.40070936195E+01  0.13841009925E+01  0.74689533266E+01  0.85882360755E+01  0.51100000000E-03 0. -1.
        -11    1    3    3    0    0  0.43079546428E+01 -0.10345570443E+01  0.60855384028E+01  0.75274537126E+01  0.51100000000E-03 0.  1.
         12    1    3    3    0    0 -0.73986409532E+01  0.32133474316E+02  0.98472029548E+01  0.34413187379E+02  0.00000000000E+00 0. -1.
</event>
<event>
 7    1  0.5456331E-013  0.5052882E+02  0.7816164E-02  0.1300439E+00
        -11   -1    0    0    0    0  0.00000000000E+00  0.00000000000E+00  0.45593999997E+02  0.45594000000E+02  0.51100000000E-03 0.  1.
         11   -1    0    0    0    0 -0.00000000000E+00 -0.00000000000E+00 -0.45593999997E+02  0.45594000000E+02  0.51100000000E-03 0. -1.
    9900012    2    1    2    0    0  0.15090003517E+02  0.14536626811E+02  0.34844613767E+02  0.50528821039E+02  0.29999882031E+02 0.  0.
         12    1    1    2    0    0 -0.15090003517E+02 -0.14536626811E+02 -0.34844613767E+02  0.40659178961E+02  0.00000000000E+00 0. -1.
         11    1    3    3    0    0  0.59509630565E+01  0.46422563754E+00  0.27006322002E+01  0.65515556385E+01  0.51100000000E-03 0. -1.
        -11    1    3    3    0    0  0.16554434858E+02  0.39473852110E+01  0.22156242199E+02  0.27937971152E+02  0.51100000000E-03 0.  1.
         12    1    3    3    0    0 -0.74153943974E+01  0.10125015963E+02  0.99877393681E+01  0.16039294249E+02  0.00000000000E+00 0. -1.
</event>
<event>
 7    1  0.5456331E-013  0.5052886E+02  0.7816164E-02  0.1300439E+00
        -11   -1    0    0    0    0  0.00000000000E+00  0.00000000000E+00  0.45593999997E+02  0.45594000000E+02  0.51100000000E-03 0.  1.
         11   -1    0    0    0    0 -0.00000000000E+00 -0.00000000000E+00 -0.45593999997E+02  0.45594000000E+02  0.51100000000E-03 0. -1.
    9900012    2    1    2    0    0 -0.14364731793E+02  0.12403825381E+01  0.38016864426E+02  0.50528855283E+02  0.29999986119E+02 0.  0.
         12    1    1    2    0    0  0.14364731793E+02 -0.12403825381E+01 -0.38016864426E+02  0.40659144717E+02  0.00000000000E+00 0. -1.
         11    1    3    3    0    0 -0.19151300552E+01  0.51307985183E+01 -0.13834020596E+01  0.56485943458E+01  0.51100000000E-03 0. -1.
        -11    1    3    3    0    0 -0.10861096661E+02 -0.55864339746E+01  0.11159541057E+02  0.16544093269E+02  0.51100000000E-03 0.  1.
        -12    1    3    3    0    0 -0.15885050777E+01  0.16960179944E+01  0.28240725429E+02  0.28336167669E+02  0.00000000000E+00 0.  1.
</event>
<event>
 7    1  0.5456331E-013  0.5052886E+02  0.7816164E-02  0.1300439E+00
        -11   -1    0    0    0    0  0.00000000000E+00  0.00000000000E+00  0.45593999997E+02  0.45594000000E+02  0.51100000000E-03 0.  1.
         11   -1    0    0    0    0 -0.00000000000E+00 -0.00000000000E+00 -0.45593999997E+02  0.45594000000E+02  0.51100000000E-03 0. -1.
    9900012    2    1    2    0    0 -0.16324501546E+02 -0.33495611880E+02  0.16270218228E+02  0.50528863670E+02  0.30000011610E+02 0.  0.
         12    1    1    2    0    0  0.16324501546E+02  0.33495611880E+02 -0.16270218228E+02  0.40659136330E+02  0.00000000000E+00 0. -1.
         11    1    3    3    0    0 -0.16293196096E+02 -0.84856391791E+01  0.10823177212E+02  0.21321713733E+02  0.51100000000E-03 0. -1.
        -11    1    3    3    0    0  0.16629721135E+01 -0.79964150501E+01  0.85566486577E+01  0.11828963032E+02  0.51100000000E-03 0.  1.
         12    1    3    3    0    0 -0.16942775637E+01 -0.17013557651E+02 -0.31096076414E+01  0.17378186904E+02  0.00000000000E+00 0. -1.
</event>
<event>
 7    1  0.5456331E-013  0.5052886E+02  0.7816164E-02  0.1300439E+00
        -11   -1    0    0    0    0  0.00000000000E+00  0.00000000000E+00  0.45593999997E+02  0.45594000000E+02  0.51100000000E-03 0.  1.
         11   -1    0    0    0    0 -0.00000000000E+00 -0.00000000000E+00 -0.45593999997E+02  0.45594000000E+02  0.51100000000E-03 0. -1.
    9900012    2    1    2    0    0 -0.15577476015E+02 -0.30919325470E+02  0.21319087181E+02  0.50528856813E+02  0.29999990768E+02 0.  0.
         12    1    1    2    0    0  0.15577476015E+02  0.30919325470E+02 -0.21319087181E+02  0.40659143187E+02  0.00000000000E+00 0. -1.
         11    1    3    3    0    0 -0.42087268841E+01 -0.35717522662E+01  0.24473216310E+01  0.60382265329E+01  0.51100000000E-03 0. -1.
        -11    1    3    3    0    0 -0.12627890036E+02 -0.31559941521E+02  0.20621717686E+02  0.39758631216E+02  0.51100000000E-03 0.  1.
         12    1    3    3    0    0  0.12591409048E+01  0.42123683174E+01 -0.17499521367E+01  0.47319990638E+01  0.00000000000E+00 0. -1.
</event>
<event>
 7    1  0.5456331E-013  0.5052880E+02  0.7816164E-02  0.1300439E+00
        -11   -1    0    0    0    0  0.00000000000E+00  0.00000000000E+00  0.45593999997E+02  0.45594000000E+02  0.51100000000E-03 0.  1.
         11   -1    0    0    0    0 -0.00000000000E+00 -0.00000000000E+00 -0.45593999997E+02  0.45594000000E+02  0.51100000000E-03 0. -1.
    9900012    2    1    2    0    0  0.29857222880E+02 -0.18275566969E+02  0.20681406329E+02  0.50528798410E+02  0.29999813248E+02 0.  0.
         12    1    1    2    0    0 -0.29857222880E+02  0.18275566969E+02 -0.20681406329E+02  0.40659201590E+02  0.00000000000E+00 0. -1.
         11    1    3    3    0    0  0.13245791998E+01 -0.53987996035E+01  0.90376060448E+01  0.10610366181E+02  0.51100000000E-03 0. -1.
        -11    1    3    3    0    0  0.54963512785E+00 -0.85876526658E+01 -0.14511407010E+01  0.87267225622E+01  0.51100000000E-03 0.  1.
        -12    1    3    3    0    0  0.27983008552E+02 -0.42891147002E+01  0.13094940985E+02  0.31191709667E+02  0.00000000000E+00 0.  1.
</event>
<event>
 7    1  0.5456331E-013  0.5052885E+02  0.7816164E-02  0.1300439E+00
        -11   -1    0    0    0    0  0.00000000000E+00  0.00000000000E+00  0.45593999997E+02  0.45594000000E+02  0.51100000000E-03 0.  1.
         11   -1    0    0    0    0 -0.00000000000E+00 -0.00000000000E+00 -0.45593999997E+02  0.45594000000E+02  0.51100000000E-03 0. -1.
    9900012    2    1    2    0    0  0.22259546447E+01  0.10748975359E+02  0.39149339349E+02  0.50528854450E+02  0.29999983587E+02 0.  0.
         12    1    1    2    0    0 -0.22259546447E+01 -0.10748975359E+02 -0.39149339349E+02  0.40659145550E+02  0.00000000000E+00 0. -1.
         11    1    3    3    0    0  0.92213420535E+00  0.10976654646E+02  0.56496712296E+01  0.12379663322E+02  0.51100000000E-03 0. -1.
        -11    1    3    3    0    0  0.63498934948E+01  0.25403673996E+01  0.36549119717E+01  0.77545467761E+01  0.51100000000E-03 0.  1.
        -12    1    3    3    0    0 -0.50460730554E+01 -0.27680466869E+01  0.29844756148E+02  0.30394644352E+02  0.00000000000E+00 0.  1.
</event>
<event>
 7    1  0.5456331E-013  0.5052886E+02  0.7816164E-02  0.1300439E+00
        -11   -1    0    0    0    0  0.00000000000E+00  0.00000000000E+00  0.45593999997E+02  0.45594000000E+02  0.51100000000E-03 0.  1.
         11   -1    0    0    0    0 -0.00000000000E+00 -0.00000000000E+00 -0.45593999997E+02  0.45594000000E+02  0.51100000000E-03 0. -1.
    9900012    2    1    2    0    0  0.81141522439E+01  0.28622211379E+02  0.27714532594E+02  0.50528858743E+02  0.29999996636E+02 0.  0.
         12    1    1    2    0    0 -0.81141522439E+01 -0.28622211379E+02 -0.27714532594E+02  0.40659141257E+02  0.00000000000E+00 0. -1.
         11    1    3    3    0    0 -0.45693324811E+00  0.11857215889E+02  0.38645330869E+01  0.12479462042E+02  0.51100000000E-03 0. -1.
        -11    1    3    3    0    0  0.57256175033E+01  0.17266315472E+02  0.48436616852E+01  0.18824701978E+02  0.51100000000E-03 0.  1.
         12    1    3    3    0    0  0.28454679887E+01 -0.50131998237E+00  0.19006337822E+02  0.19224694723E+02  0.00000000000E+00 0. -1.
</event>
<event>
 7    1  0.5456331E-013  0.5052882E+02  0.7816164E-02  0.1300439E+00
        -11   -1    0    0    0    0  0.00000000000E+00  0.00000000000E+00  0.45593999997E+02  0.45594000000E+02  0.51100000000E-03 0.  1.
         11   -1    0    0    0    0 -0.00000000000E+00 -0.00000000000E+00 -0.45593999997E+02  0.45594000000E+02  0.51100000000E-03 0. -1.
    9900012    2    1    2    0    0 -0.16662249446E+02  0.91451843170E+01  0.35943061434E+02  0.50528823692E+02  0.29999890094E+02 0.  0.
         12    1    1    2    0    0  0.16662249446E+02 -0.91451843170E+01 -0.35943061434E+02  0.40659176308E+02  0.00000000000E+00 0. -1.
         11    1    3    3    0    0  0.10724163562E+01  0.91173043506E+01  0.94756090624E+01  0.13193274151E+02  0.51100000000E-03 0. -1.
        -11    1    3    3    0    0 -0.10219160878E+02  0.96764662203E+01  0.15033432857E+02  0.20592944211E+02  0.51100000000E-03 0.  1.
         12    1    3    3    0    0 -0.75155049244E+01 -0.96485862538E+01  0.11434019515E+02  0.16742605330E+02  0.00000000000E+00 0. -1.
</event>
<event>
 7    1  0.5456331E-013  0.5052886E+02  0.7816164E-02  0.1300439E+00
        -11   -1    0    0    0    0  0.00000000000E+00  0.00000000000E+00  0.45593999997E+02  0.45594000000E+02  0.51100000000E-03 0. -1.
         11   -1    0    0    0    0 -0.00000000000E+00 -0.00000000000E+00 -0.45593999997E+02  0.45594000000E+02  0.51100000000E-03 0.  1.
    9900012    2    1    2    0    0 -0.82891714275E+01 -0.10208426483E+02 -0.38473926958E+02  0.50528863391E+02  0.30000010764E+02 0.  0.
         12    1    1    2    0    0  0.82891714275E+01  0.10208426483E+02  0.38473926958E+02  0.40659136609E+02  0.00000000000E+00 0. -1.
         11    1    3    3    0    0 -0.42843644359E+01  0.14820220959E+01 -0.21075348647E+02  0.21557423059E+02  0.51100000000E-03 0. -1.
        -11    1    3    3    0    0 -0.11558632664E+02 -0.90408381836E+01 -0.13977663302E+02  0.20266075490E+02  0.51100000000E-03 0.  1.
         12    1    3    3    0    0  0.75538256722E+01 -0.26496103954E+01 -0.34209150083E+01  0.87053648417E+01  0.00000000000E+00 0. -1.
</event>
<event>
 7    1  0.5456331E-013  0.5052880E+02  0.7816164E-02  0.1300439E+00
        -11   -1    0    0    0    0  0.00000000000E+00  0.00000000000E+00  0.45593999997E+02  0.45594000000E+02  0.51100000000E-03 0. -1.
         11   -1    0    0    0    0 -0.00000000000E+00 -0.00000000000E+00 -0.45593999997E+02  0.45594000000E+02  0.51100000000E-03 0.  1.
    9900012    2    1    2    0    0 -0.21898263342E+02 -0.23543588872E+02 -0.24886457896E+02  0.50528802996E+02  0.29999827186E+02 0.  0.
         12    1    1    2    0    0  0.21898263342E+02  0.23543588872E+02  0.24886457896E+02  0.40659197004E+02  0.00000000000E+00 0. -1.
         11    1    3    3    0    0 -0.38798925384E+00 -0.17451738012E+01  0.94605709335E+00  0.20226694101E+01  0.51100000000E-03 0. -1.
        -11    1    3    3    0    0 -0.26930074468E+02 -0.21852888683E+02 -0.18261982018E+02  0.39195377816E+02  0.51100000000E-03 0.  1.
        -12    1    3    3    0    0  0.54198003801E+01  0.54473612071E-01 -0.75705329714E+01  0.93107557698E+01  0.00000000000E+00 0.  1.
</event>
<event>
 7    1  0.5456331E-013  0.5052887E+02  0.7816164E-02  0.1300439E+00
        -11   -1    0    0    0    0  0.00000000000E+00  0.00000000000E+00  0.45593999997E+02  0.45594000000E+02  0.51100000000E-03 0.  1.
         11   -1    0    0    0    0 -0.00000000000E+00 -0.00000000000E+00 -0.45593999997E+02  0.45594000000E+02  0.51100000000E-03 0. -1.
    9900012    2    1    2    0    0 -0.44282957569E+01  0.10325643641E+02  0.39076030099E+02  0.50528870051E+02  0.30000031008E+02 0.  0.
         12    1    1    2    0    0  0.44282957569E+01 -0.10325643641E+02 -0.39076030099E+02  0.40659129949E+02  0.00000000000E+00 0. -1.
         11    1    3    3    0    0 -0.37413235728E+00 -0.54055595784E+01  0.10640659420E+01  0.55219820687E+01  0.51100000000E-03 0. -1.
        -11    1    3    3    0    0  0.12607989047E+01  0.40721402472E+01  0.29072334825E+02  0.29383202557E+02  0.51100000000E-03 0.  1.
         12    1    3    3    0    0 -0.53149623044E+01  0.11659062972E+02  0.89396293315E+01  0.15623685425E+02  0.00000000000E+00 0. -1.
</event>
<event>
 7    1  0.5456331E-013  0.5052890E+02  0.7816164E-02  0.1300439E+00
        -11   -1    0    0    0    0  0.00000000000E+00  0.00000000000E+00  0.45593999997E+02  0.45594000000E+02  0.51100000000E-03 0.  1.
         11   -1    0    0    0    0 -0.00000000000E+00 -0.00000000000E+00 -0.45593999997E+02  0.45594000000E+02  0.51100000000E-03 0. -1.
    9900012    2    1    2    0    0  0.33857207254E+02  0.89295998823E+01  0.20666741913E+02  0.50528899440E+02  0.30000120337E+02 0.  0.
         12    1    1    2    0    0 -0.33857207254E+02 -0.89295998823E+01 -0.20666741913E+02  0.40659100560E+02  0.00000000000E+00 0. -1.
         11    1    3    3    0    0  0.12661202694E+02  0.61571498501E+01  0.95548077613E+01  0.17015019822E+02  0.51100000000E-03 0. -1.
        -11    1    3    3    0    0  0.14843127491E+02  0.10305776128E+02  0.14420566880E+02  0.23118827927E+02  0.51100000000E-03 0.  1.
         12    1    3    3    0    0  0.63528770689E+01 -0.75333260956E+01 -0.33086327286E+01  0.10395051690E+02  0.00000000000E+00 0. -1.
</event>
<event>
 7    1  0.5456331E-013  0.5052884E+02  0.7816164E-02  0.1300439E+00
        -11   -1    0    0    0    0  0.00000000000E+00  0.00000000000E+00  0.45593999997E+02  0.45594000000E+02  0.51100000000E-03 0.  1.
         11   -1    0    0    0    0 -0.00000000000E+00 -0.00000000000E+00 -0.45593999997E+02  0.45594000000E+02  0.51100000000E-03 0. -1.
    9900012    2    1    2    0    0  0.18585802630E+02  0.34454479004E+02  0.10982888864E+02  0.50528843213E+02  0.29999949431E+02 0.  0.
         12    1    1    2    0    0 -0.18585802630E+02 -0.34454479004E+02 -0.10982888864E+02  0.40659156787E+02  0.00000000000E+00 0. -1.
         11    1    3    3    0    0  0.12262714574E+02  0.13232031206E+02 -0.27920441246E+01  0.18255309617E+02  0.51100000000E-03 0. -1.
        -11    1    3    3    0    0  0.10784398148E+02  0.42800325040E+01  0.44519789480E+01  0.12427471121E+02  0.51100000000E-03 0.  1.
        -12    1    3    3    0    0 -0.44613100919E+01  0.16942415294E+02  0.93229540403E+01  0.19846062475E+02  0.00000000000E+00 0.  1.
</event>
<event>
 7    1  0.5456331E-013  0.5052888E+02  0.7816164E-02  0.1300439E+00
        -11   -1    0    0    0    0  0.00000000000E+00  0.00000000000E+00  0.45593999997E+02  0.45594000000E+02  0.51100000000E-03 0.  1.
         11   -1    0    0    0    0 -0.00000000000E+00 -0.00000000000E+00 -0.45593999997E+02  0.45594000000E+02  0.51100000000E-03 0. -1.
    9900012    2    1    2    0    0 -0.32319230634E+02  0.18096750076E+02  0.16767200655E+02  0.50528879868E+02  0.30000060847E+02 0.  0.
         12    1    1    2    0    0  0.32319230634E+02 -0.18096750076E+02 -0.16767200655E+02  0.40659120132E+02  0.00000000000E+00 0. -1.
         11    1    3    3    0    0  0.26550102193E+01  0.64186157447E+01  0.80851847215E+01  0.10659170680E+02  0.51100000000E-03 0. -1.
        -11    1    3    3    0    0 -0.14378193905E+02 -0.46524668037E+00  0.67260466496E+01  0.15880447671E+02  0.51100000000E-03 0.  1.
        -12    1    3    3    0    0 -0.20596046949E+02  0.12143381012E+02  0.19559692844E+01  0.23989261517E+02  0.00000000000E+00 0.  1.
</event>
<event>
 7    1  0.5456331E-013  0.5052889E+02  0.7816164E-02  0.1300439E+00
        -11   -1    0    0    0    0  0.00000000000E+00  0.00000000000E+00  0.45593999997E+02  0.45594000000E+02  0.51100000000E-03 0. -1.
         11   -1    0    0    0    0 -0.00000000000E+00 -0.00000000000E+00 -0.45593999997E+02  0.45594000000E+02  0.51100000000E-03 0.  1.
    9900012    2    1    2    0    0 -0.12880962142E+02  0.29657351143E+02 -0.24651287341E+02  0.50528885030E+02  0.30000076538E+02 0.  0.
         12    1    1    2    0    0  0.12880962142E+02 -0.29657351143E+02  0.24651287341E+02  0.40659114970E+02  0.00000000000E+00 0. -1.
         11    1    3    3    0    0  0.31911744967E+01  0.97890874191E+00 -0.52260336186E+01  0.62010712492E+01  0.51100000000E-03 0. -1.
        -11    1    3    3    0    0 -0.10771455766E+02  0.17461666440E+02  0.87661422752E+00  0.20535396440E+02  0.51100000000E-03 0.  1.
         12    1    3    3    0    0 -0.53006808724E+01  0.11216775962E+02 -0.20301867950E+02  0.23792417342E+02  0.00000000000E+00 0. -1.
</event>
<event>
 7    1  0.5456331E-013  0.5052886E+02  0.7816164E-02  0.1300439E+00
        -11   -1    0    0    0    0  0.00000000000E+00  0.00000000000E+00  0.45593999997E+02  0.45594000000E+02  0.51100000000E-03 0. -1.
         11   -1    0    0    0    0 -0.00000000000E+00 -0.00000000000E+00 -0.45593999997E+02  0.45594000000E+02  0.51100000000E-03 0.  1.
    9900012    2    1    2    0    0 -0.19697033676E+02 -0.13022055188E+02 -0.33100135009E+02  0.50528855953E+02  0.29999988156E+02 0.  0.
         12    1    1    2    0    0  0.19697033676E+02  0.13022055188E+02  0.33100135009E+02  0.40659144047E+02  0.00000000000E+00 0. -1.
         11    1    3    3    0    0  0.61935103733E+00 -0.76628226771E+01 -0.11343418751E+02  0.13703123597E+02  0.51100000000E-03 0. -1.
        -11    1    3    3    0    0 -0.26861245664E+01 -0.10425678462E+02 -0.11724919438E+02  0.15918032940E+02  0.51100000000E-03 0.  1.
         12    1    3    3    0    0 -0.17630260147E+02  0.50664459520E+01 -0.10031796820E+02  0.20907699416E+02  0.00000000000E+00 0. -1.
</event>
<event>
 7    1  0.5456331E-013  0.5052886E+02  0.7816164E-02  0.1300439E+00
        -11   -1    0    0    0    0  0.00000000000E+00  0.00000000000E+00  0.45593999997E+02  0.45594000000E+02  0.51100000000E-03 0.  1.
         11   -1    0    0    0    0 -0.00000000000E+00 -0.00000000000E+00 -0.45593999997E+02  0.45594000000E+02  0.51100000000E-03 0. -1.
    9900012    2    1    2    0    0 -0.14978646640E+02  0.36357691114E+02  0.10340400018E+02  0.50528862886E+02  0.30000009228E+02 0.  0.
         12    1    1    2    0    0  0.14978646640E+02 -0.36357691114E+02 -0.10340400018E+02  0.40659137114E+02  0.00000000000E+00 0. -1.
         11    1    3    3    0    0 -0.36962989811E+01  0.67278429139E+01 -0.61543616669E+01  0.98388344950E+01  0.51100000000E-03 0. -1.
        -11    1    3    3    0    0  0.50544201764E+01  0.11561114409E+02  0.35633184151E+01  0.13111207728E+02  0.51100000000E-03 0.  1.
        -12    1    3    3    0    0 -0.16336767836E+02  0.18068733791E+02  0.12931443270E+02  0.27578820663E+02  0.00000000000E+00 0.  1.
</event>
<event>
 7    1  0.5456331E-013  0.5052886E+02  0.7816164E-02  0.1300439E+00
        -11   -1    0    0    0    0  0.00000000000E+00  0.00000000000E+00  0.45593999997E+02  0.45594000000E+02  0.51100000000E-03 0. -1.
         11   -1    0    0    0    0 -0.00000000000E+00 -0.00000000000E+00 -0.45593999997E+02  0.45594000000E+02  0.51100000000E-03 0.  1.
    9900012    2    1    2    0    0 -0.17693188468E+02 -0.36507845112E+02 -0.27008079011E+01  0.50528855441E+02  0.29999986600E+02 0.  0.
         12    1    1    2    0    0  0.17693188468E+02  0.36507845112E+02  0.27008079011E+01  0.40659144559E+02  0.00000000000E+00 0. -1.
         11    1    3    3    0    0 -0.25319535491E+00 -0.11925030506E+02 -0.13959241917E+01  0.12009124242E+02  0.51100000000E-03 0. -1.
        -11    1    3    3    0    0 -0.15804158746E+02 -0.19950216146E+02 -0.10940913226E+02  0.27703540215E+02  0.51100000000E-03 0.  1.
         12    1    3    3    0    0 -0.16358343673E+01 -0.46325984605E+01  0.96360295166E+01  0.10816190985E+02  0.00000000000E+00 0. -1.
</event>
<event>
 7    1  0.5456331E-013  0.5052886E+02  0.7816164E-02  0.1300439E+00
        -11   -1    0    0    0    0  0.00000000000E+00  0.00000000000E+00  0.45593999997E+02  0.45594000000E+02  0.51100000000E-03 0.  1.
         11   -1    0    0    0    0 -0.00000000000E+00 -0.00000000000E+00 -0.45593999997E+02  0.45594000000E+02  0.51100000000E-03 0. -1.
    9900012    2    1    2    0    0 -0.27412613595E+02 -0.50441545148E+01  0.29601872750E+02  0.50528858971E+02  0.29999997330E+02 0.  0.
         12    1    1    2    0    0  0.27412613595E+02  0.50441545148E+01 -0.29601872750E+02  0.40659141029E+02  0.00000000000E+00 0. -1.
         11    1    3    3    0    0 -0.22523819202E+02 -0.23225041906E+01  0.17280755040E+02  0.28484047328E+02  0.51100000000E-03 0.  1.
        -11    1    3    3    0    0 -0.23564747912E+01  0.57575370525E+01  0.11604143843E+02  0.13166562229E+02  0.51100000000E-03 0. -1.
        -12    1    3    3    0    0 -0.25323196013E+01 -0.84791873767E+01  0.71697386716E+00  0.88782494141E+01  0.00000000000E+00 0.  1.
</event>
<event>
 7    1  0.5456331E-013  0.5052884E+02  0.7816164E-02  0.1300439E+00
        -11   -1    0    0    0    0  0.00000000000E+00  0.00000000000E+00  0.45593999997E+02  0.45594000000E+02  0.51100000000E-03 0. -1.
         11   -1    0    0    0    0 -0.00000000000E+00 -0.00000000000E+00 -0.45593999997E+02  0.45594000000E+02  0.51100000000E-03 0.  1.
    9900012    2    1    2    0    0 -0.24594530816E+02  0.15059068493E+02 -0.28661835417E+02  0.50528839908E+02  0.29999939384E+02 0.  0.
         12    1    1    2    0    0  0.24594530816E+02 -0.15059068493E+02  0.28661835417E+02  0.40659160092E+02  0.00000000000E+00 0. -1.
         11    1    3    3    0    0  0.15953207090E+01  0.10538126308E+01  0.33095760435E+01  0.38221542452E+01  0.51100000000E-03 0.  1.
        -11    1    3    3    0    0 -0.81810976641E+01  0.13645433060E+02 -0.12992787876E+02  0.20541196154E+02  0.51100000000E-03 0. -1.
        -12    1    3    3    0    0 -0.18008753861E+02  0.35982280224E+00 -0.18978623584E+02  0.26165489509E+02  0.00000000000E+00 0.  1.
</event>
<event>
 7    1  0.5456331E-013  0.5052886E+02  0.7816164E-02  0.1300439E+00
        -11   -1    0    0    0    0  0.00000000000E+00  0.00000000000E+00  0.45593999997E+02  0.45594000000E+02  0.51100000000E-03 0.  1.
         11   -1    0    0    0    0 -0.00000000000E+00 -0.00000000000E+00 -0.45593999997E+02  0.45594000000E+02  0.51100000000E-03 0. -1.
    9900012    2    1    2    0    0 -0.15185653072E+01 -0.40232130187E+02  0.56775896923E+01  0.50528863699E+02  0.30000011700E+02 0.  0.
         12    1    1    2    0    0  0.15185653072E+01  0.40232130187E+02 -0.56775896923E+01  0.40659136301E+02  0.00000000000E+00 0. -1.
         11    1    3    3    0    0 -0.13730275112E+01 -0.45242707211E+01  0.62023641464E+01  0.77989455294E+01  0.51100000000E-03 0. -1.
        -11    1    3    3    0    0 -0.95600156207E+01 -0.91451859540E+01  0.47540802161E+01  0.14058079661E+02  0.51100000000E-03 0.  1.
        -12    1    3    3    0    0  0.94144778247E+01 -0.26562673512E+02 -0.52788546703E+01  0.28671838509E+02  0.00000000000E+00 0.  1.
</event>
<event>
 7    1  0.5456331E-013  0.5052886E+02  0.7816164E-02  0.1300439E+00
        -11   -1    0    0    0    0  0.00000000000E+00  0.00000000000E+00  0.45593999997E+02  0.45594000000E+02  0.51100000000E-03 0. -1.
         11   -1    0    0    0    0 -0.00000000000E+00 -0.00000000000E+00 -0.45593999997E+02  0.45594000000E+02  0.51100000000E-03 0.  1.
    9900012    2    1    2    0    0 -0.48145766121E+01 -0.37291473825E+02 -0.15470346675E+02  0.50528858417E+02  0.29999995646E+02 0.  0.
         12    1    1    2    0    0  0.48145766121E+01  0.37291473825E+02  0.15470346675E+02  0.40659141583E+02  0.00000000000E+00 0. -1.
         11    1    3    3    0    0  0.43434459644E+01 -0.42621853906E+01 -0.57668257931E+01  0.83837955091E+01  0.51100000000E-03 0. -1.
        -11    1    3    3    0    0  0.63621829045E+01 -0.13384505948E+02  0.11365401857E+01  0.14863179157E+02  0.51100000000E-03 0.  1.
        -12    1    3    3    0    0 -0.15520205481E+02 -0.19644782486E+02 -0.10840061067E+02  0.27281883752E+02  0.00000000000E+00 0.  1.
</event>
<event>
 7    1  0.5456331E-013  0.5052887E+02  0.7816164E-02  0.1300439E+00
        -11   -1    0    0    0    0  0.00000000000E+00  0.00000000000E+00  0.45593999997E+02  0.45594000000E+02  0.51100000000E-03 0.  1.
         11   -1    0    0    0    0 -0.00000000000E+00 -0.00000000000E+00 -0.45593999997E+02  0.45594000000E+02  0.51100000000E-03 0. -1.
    9900012    2    1    2    0    0 -0.88345527443E+01 -0.37024265873E+02  0.14294038068E+02  0.50528866833E+02  0.30000021226E+02 0.  0.
         12    1    1    2    0    0  0.88345527443E+01  0.37024265873E+02 -0.14294038068E+02  0.40659133167E+02  0.00000000000E+00 0. -1.
         11    1    3    3    0    0 -0.10460687941E+02 -0.31025182078E+01 -0.65298756438E+00  0.10930599455E+02  0.51100000000E-03 0. -1.
        -11    1    3    3    0    0 -0.54559654083E+01 -0.76523620600E+01  0.48675611503E+01  0.10583919664E+02  0.51100000000E-03 0.  1.
         12    1    3    3    0    0  0.70821006051E+01 -0.26269385605E+02  0.10079464482E+02  0.29014347714E+02  0.00000000000E+00 0. -1.
</event>
<event>
 7    1  0.5456331E-013  0.5052885E+02  0.7816164E-02  0.1300439E+00
        -11   -1    0    0    0    0  0.00000000000E+00  0.00000000000E+00  0.45593999997E+02  0.45594000000E+02  0.51100000000E-03 0. -1.
         11   -1    0    0    0    0 -0.00000000000E+00 -0.00000000000E+00 -0.45593999997E+02  0.45594000000E+02  0.51100000000E-03 0.  1.
    9900012    2    1    2    0    0  0.20411193811E+02 -0.26658155289E+02 -0.22932338024E+02  0.50528853385E+02  0.29999980350E+02 0.  0.
         12    1    1    2    0    0 -0.20411193811E+02  0.26658155289E+02  0.22932338024E+02  0.40659146615E+02  0.00000000000E+00 0. -1.
         11    1    3    3    0    0  0.81980253153E+01  0.32628041404E+01 -0.21953142658E+01  0.90924647327E+01  0.51100000000E-03 0. -1.
        -11    1    3    3    0    0  0.75177755654E+01 -0.65449264845E+01 -0.12975321840E+02  0.16361906651E+02  0.51100000000E-03 0.  1.
         12    1    3    3    0    0  0.46953929306E+01 -0.23376032945E+02 -0.77617019177E+01  0.25074482002E+02  0.00000000000E+00 0. -1.
</event>
<event>
 7    1  0.5456331E-013  0.5052886E+02  0.7816164E-02  0.1300439E+00
        -11   -1    0    0    0    0  0.00000000000E+00  0.00000000000E+00  0.45593999997E+02  0.45594000000E+02  0.51100000000E-03 0. -1.
         11   -1    0    0    0    0 -0.00000000000E+00 -0.00000000000E+00 -0.45593999997E+02  0.45594000000E+02  0.51100000000E-03 0.  1.
    9900012    2    1    2    0    0  0.76238086008E+01 -0.38569565189E+02 -0.10364926086E+02  0.50528861922E+02  0.30000006299E+02 0.  0.
         12    1    1    2    0    0 -0.76238086008E+01  0.38569565189E+02  0.10364926086E+02  0.40659138078E+02  0.00000000000E+00 0. -1.
         11    1    3    3    0    0  0.13846560799E+00 -0.20229703146E+02  0.37345008830E+01  0.20571984814E+02  0.51100000000E-03 0. -1.
        -11    1    3    3    0    0  0.10310766072E+01 -0.10994096408E+02  0.19012524959E+01  0.11204822003E+02  0.51100000000E-03 0.  1.
         12    1    3    3    0    0  0.64542663856E+01 -0.73457656354E+01 -0.16000679464E+02  0.18752055105E+02  0.00000000000E+00 0. -1.
</event>
<event>
 7    1  0.5456331E-013  0.5052886E+02  0.7816164E-02  0.1300439E+00
        -11   -1    0    0    0    0  0.00000000000E+00  0.00000000000E+00  0.45593999997E+02  0.45594000000E+02  0.51100000000E-03 0.  1.
         11   -1    0    0    0    0 -0.00000000000E+00 -0.00000000000E+00 -0.45593999997E+02  0.45594000000E+02  0.51100000000E-03 0. -1.
    9900012    2    1    2    0    0  0.26954583670E+02  0.23315323492E+02  0.19570686519E+02  0.50528860054E+02  0.30000000619E+02 0.  0.
         12    1    1    2    0    0 -0.26954583670E+02 -0.23315323492E+02 -0.19570686519E+02  0.40659139946E+02  0.00000000000E+00 0. -1.
         11    1    3    3    0    0  0.39586991984E+01 -0.45240760988E+01  0.78106969525E+01  0.98562442663E+01  0.51100000000E-03 0. -1.
        -11    1    3    3    0    0  0.83443880317E+01  0.11561994900E+01  0.35677072733E+01  0.91484503788E+01  0.51100000000E-03 0.  1.
        -12    1    3    3    0    0  0.14651496440E+02  0.26683200101E+02  0.81922822931E+01  0.31524165409E+02  0.00000000000E+00 0.  1.
</event>
<event>
 7    1  0.5456331E-013  0.5052886E+02  0.7816164E-02  0.1300439E+00
        -11   -1    0    0    0    0  0.00000000000E+00  0.00000000000E+00  0.45593999997E+02  0.45594000000E+02  0.51100000000E-03 0. -1.
         11   -1    0    0    0    0 -0.00000000000E+00 -0.00000000000E+00 -0.45593999997E+02  0.45594000000E+02  0.51100000000E-03 0.  1.
    9900012    2    1    2    0    0 -0.19771951177E+02 -0.11530373030E+02 -0.33604853790E+02  0.50528858915E+02  0.29999997158E+02 0.  0.
         12    1    1    2    0    0  0.19771951177E+02  0.11530373030E+02  0.33604853790E+02  0.40659141085E+02  0.00000000000E+00 0. -1.
         11    1    3    3    0    0  0.18722969913E+01 -0.50517180764E+01 -0.74177370030E+00  0.54383435007E+01  0.51100000000E-03 0. -1.
        -11    1    3    3    0    0 -0.40559771530E+01 -0.11489437931E+02 -0.96746211120E+01  0.15558162763E+02  0.51100000000E-03 0.  1.
         12    1    3    3    0    0 -0.17588271015E+02  0.50107829780E+01 -0.23188458978E+02  0.29532352651E+02  0.00000000000E+00 0. -1.
</event>
<event>
 7    1  0.5456331E-013  0.5052887E+02  0.7816164E-02  0.1300439E+00
        -11   -1    0    0    0    0  0.00000000000E+00  0.00000000000E+00  0.45593999997E+02  0.45594000000E+02  0.51100000000E-03 0.  1.
         11   -1    0    0    0    0 -0.00000000000E+00 -0.00000000000E+00 -0.45593999997E+02  0.45594000000E+02  0.51100000000E-03 0. -1.
    9900012    2    1    2    0    0  0.12218162273E+02  0.84217511845E+01  0.37854402659E+02  0.50528865934E+02  0.30000018493E+02 0.  0.
         12    1    1    2    0    0 -0.12218162273E+02 -0.84217511845E+01 -0.37854402659E+02  0.40659134066E+02  0.00000000000E+00 0. -1.
         11    1    3    3    0    0  0.11667249050E+02  0.26832177429E+01  0.13737995630E+02  0.18222427995E+02  0.51100000000E-03 0. -1.
        -11    1    3    3    0    0  0.82850617524E+01  0.69080451371E+01  0.21506934015E+02  0.24060580767E+02  0.51100000000E-03 0.  1.
         12    1    3    3    0    0 -0.77341485296E+01 -0.11695116955E+01  0.26094730138E+01  0.82458571716E+01  0.00000000000E+00 0. -1.
</event>
<event>
 7    1  0.5456331E-013  0.5052887E+02  0.7816164E-02  0.1300439E+00
        -11   -1    0    0    0    0  0.00000000000E+00  0.00000000000E+00  0.45593999997E+02  0.45594000000E+02  0.51100000000E-03 0.  1.
         11   -1    0    0    0    0 -0.00000000000E+00 -0.00000000000E+00 -0.45593999997E+02  0.45594000000E+02  0.51100000000E-03 0. -1.
    9900012    2    1    2    0    0  0.21066305009E+02 -0.29984580978E+02  0.17615355547E+02  0.50528867518E+02  0.30000023307E+02 0.  0.
         12    1    1    2    0    0 -0.21066305009E+02  0.29984580978E+02 -0.17615355547E+02  0.40659132482E+02  0.00000000000E+00 0. -1.
         11    1    3    3    0    0  0.78455428872E+01 -0.55266634433E+01  0.26691582442E+00  0.96004060501E+01  0.51100000000E-03 0. -1.
        -11    1    3    3    0    0  0.63066663657E+01 -0.20428383589E+02 -0.48128977503E+00  0.21385147575E+02  0.51100000000E-03 0.  1.
         12    1    3    3    0    0  0.69140957559E+01 -0.40295339461E+01  0.17829729498E+02  0.19543313893E+02  0.00000000000E+00 0. -1.
</event>
<event>
 7    1  0.5456331E-013  0.5052882E+02  0.7816164E-02  0.1300439E+00
        -11   -1    0    0    0    0  0.00000000000E+00  0.00000000000E+00  0.45593999997E+02  0.45594000000E+02  0.51100000000E-03 0.  1.
         11   -1    0    0    0    0 -0.00000000000E+00 -0.00000000000E+00 -0.45593999997E+02  0.45594000000E+02  0.51100000000E-03 0. -1.
    9900012    2    1    2    0    0 -0.10650098480E+02  0.35333934650E+02  0.17066256809E+02  0.50528823214E+02  0.29999888640E+02 0.  0.
         12    1    1    2    0    0  0.10650098480E+02 -0.35333934650E+02 -0.17066256809E+02  0.40659176786E+02  0.00000000000E+00 0. -1.
         11    1    3    3    0    0  0.18741835766E+01  0.94649991802E+01  0.95898819382E+01  0.13603845391E+02  0.51100000000E-03 0. -1.
        -11    1    3    3    0    0 -0.66257336038E+01  0.18770024009E+02  0.15075333296E+02  0.24969577917E+02  0.51100000000E-03 0.  1.
         12    1    3    3    0    0 -0.58985484533E+01  0.70989114599E+01 -0.75989584252E+01  0.11955399906E+02  0.00000000000E+00 0. -1.
</event>
<event>
 7    1  0.5456331E-013  0.5052885E+02  0.7816164E-02  0.1300439E+00
        -11   -1    0    0    0    0  0.00000000000E+00  0.00000000000E+00  0.45593999997E+02  0.45594000000E+02  0.51100000000E-03 0.  1.
         11   -1    0    0    0    0 -0.00000000000E+00 -0.00000000000E+00 -0.45593999997E+02  0.45594000000E+02  0.51100000000E-03 0. -1.
    9900012    2    1    2    0    0 -0.19908835383E+02 -0.35443032656E+02 -0.77195839878E+00  0.50528853305E+02  0.29999980106E+02 0.  0.
         12    1    1    2    0    0  0.19908835383E+02  0.35443032656E+02  0.77195839878E+00  0.40659146695E+02  0.00000000000E+00 0. -1.
         11    1    3    3    0    0 -0.14649258168E+02 -0.12330356470E+02  0.25794466743E+01  0.19320766056E+02  0.51100000000E-03 0. -1.
        -11    1    3    3    0    0 -0.10420086762E+02 -0.14986292427E+02  0.44843731409E+01  0.18795658317E+02  0.51100000000E-03 0.  1.
         12    1    3    3    0    0  0.51605095472E+01 -0.81263837589E+01 -0.78357782140E+01  0.12412428932E+02  0.00000000000E+00 0. -1.
</event>
<event>
 7    1  0.5456331E-013  0.5052886E+02  0.7816164E-02  0.1300439E+00
        -11   -1    0    0    0    0  0.00000000000E+00  0.00000000000E+00  0.45593999997E+02  0.45594000000E+02  0.51100000000E-03 0.  1.
         11   -1    0    0    0    0 -0.00000000000E+00 -0.00000000000E+00 -0.45593999997E+02  0.45594000000E+02  0.51100000000E-03 0. -1.
    9900012    2    1    2    0    0 -0.13939984926E+02  0.24708336813E+02  0.29126282122E+02  0.50528863289E+02  0.30000010454E+02 0.  0.
         12    1    1    2    0    0  0.13939984926E+02 -0.24708336813E+02 -0.29126282122E+02  0.40659136711E+02  0.00000000000E+00 0. -1.
         11    1    3    3    0    0 -0.18895862129E+02  0.81207793111E+01  0.15753945061E+02  0.25907285606E+02  0.51100000000E-03 0. -1.
        -11    1    3    3    0    0 -0.28528877366E+01  0.48920786192E+01  0.72719568846E+00  0.57096598396E+01  0.51100000000E-03 0.  1.
        -12    1    3    3    0    0  0.78087649402E+01  0.11695478882E+02  0.12645141373E+02  0.18911917844E+02  0.00000000000E+00 0.  1.
</event>
<event>
 7    1  0.5456331E-013  0.5052886E+02  0.7816164E-02  0.1300439E+00
        -11   -1    0    0    0    0  0.00000000000E+00  0.00000000000E+00  0.45593999997E+02  0.45594000000E+02  0.51100000000E-03 0.  1.
         11   -1    0    0    0    0 -0.00000000000E+00 -0.00000000000E+00 -0.45593999997E+02  0.45594000000E+02  0.51100000000E-03 0. -1.
    9900012    2    1    2    0    0 -0.31289326092E+02  0.12179534585E+01  0.25935701306E+02  0.50528856623E+02  0.29999990191E+02 0.  0.
         12    1    1    2    0    0  0.31289326092E+02 -0.12179534585E+01 -0.25935701306E+02  0.40659143377E+02  0.00000000000E+00 0. -1.
         11    1    3    3    0    0  0.29024593245E+01 -0.19047738909E+01 -0.12565509625E+00  0.34739348253E+01  0.51100000000E-03 0. -1.
        -11    1    3    3    0    0 -0.17626635108E+02  0.26667189942E+01  0.24653565591E+02  0.30423805680E+02  0.51100000000E-03 0.  1.
         12    1    3    3    0    0 -0.16565150308E+02  0.45600835518E+00  0.14077908114E+01  0.16631116118E+02  0.00000000000E+00 0. -1.
</event>
<event>
 7    1  0.5456331E-013  0.5052886E+02  0.7816164E-02  0.1300439E+00
        -11   -1    0    0    0    0  0.00000000000E+00  0.00000000000E+00  0.45593999997E+02  0.45594000000E+02  0.51100000000E-03 0.  1.
         11   -1    0    0    0    0 -0.00000000000E+00 -0.00000000000E+00 -0.45593999997E+02  0.45594000000E+02  0.51100000000E-03 0. -1.
    9900012    2    1    2    0    0 -0.39954264370E+01  0.33016150195E+02  0.23390946956E+02  0.50528855818E+02  0.29999987744E+02 0.  0.
         12    1    1    2    0    0  0.39954264370E+01 -0.33016150195E+02 -0.23390946956E+02  0.40659144182E+02  0.00000000000E+00 0. -1.
         11    1    3    3    0    0  0.47130209049E+01  0.15154170769E+02  0.18202400168E+02  0.24149302886E+02  0.51100000000E-03 0. -1.
        -11    1    3    3    0    0  0.32176189547E+01  0.61218255505E+00  0.42791163872E+01  0.53887546368E+01  0.51100000000E-03 0.  1.
         12    1    3    3    0    0 -0.11926066297E+02  0.17249796871E+02  0.90943040124E+00  0.20990798295E+02  0.00000000000E+00 0. -1.
</event>
<event>
 7    1  0.5456331E-013  0.5052886E+02  0.7816164E-02  0.1300439E+00
        -11   -1    0    0    0    0  0.00000000000E+00  0.00000000000E+00  0.45593999997E+02  0.45594000000E+02  0.51100000000E-03 0.  1.
         11   -1    0    0    0    0 -0.00000000000E+00 -0.00000000000E+00 -0.45593999997E+02  0.45594000000E+02  0.51100000000E-03 0. -1.
    9900012    2    1    2    0    0 -0.22329587084E+02 -0.16836048671E+02  0.29514450301E+02  0.50528858706E+02  0.29999996522E+02 0.  0.
         12    1    1    2    0    0  0.22329587084E+02  0.16836048671E+02 -0.29514450301E+02  0.40659141294E+02  0.00000000000E+00 0. -1.
         11    1    3    3    0    0 -0.51980404307E+00  0.20743191899E+01 -0.20132077912E+01  0.29370056548E+01  0.51100000000E-03 0. -1.
        -11    1    3    3    0    0 -0.19802581005E+02 -0.44638997645E+01  0.13392582994E+02  0.24319331716E+02  0.51100000000E-03 0.  1.
         12    1    3    3    0    0 -0.20072020357E+01 -0.14446468096E+02  0.18135075098E+02  0.23272521335E+02  0.00000000000E+00 0. -1.
</event>
<event>
 7    1  0.5456331E-013  0.5052886E+02  0.7816164E-02  0.1300439E+00
        -11   -1    0    0    0    0  0.00000000000E+00  0.00000000000E+00  0.45593999997E+02  0.45594000000E+02  0.51100000000E-03 0. -1.
         11   -1    0    0    0    0 -0.00000000000E+00 -0.00000000000E+00 -0.45593999997E+02  0.45594000000E+02  0.51100000000E-03 0.  1.
    9900012    2    1    2    0    0 -0.39751847931E+02  0.40032422148E+00 -0.85320478507E+01  0.50528861864E+02  0.30000006122E+02 0.  0.
         12    1    1    2    0    0  0.39751847931E+02 -0.40032422148E+00  0.85320478507E+01  0.40659138136E+02  0.00000000000E+00 0. -1.
         11    1    3    3    0    0 -0.10929758144E+00 -0.20979595727E+01  0.22387723656E+01  0.30700948350E+01  0.51100000000E-03 0. -1.
        -11    1    3    3    0    0  0.20872408363E+00  0.72664442565E+00  0.46352641040E+01  0.46965148184E+01  0.51100000000E-03 0.  1.
        -12    1    3    3    0    0 -0.39851274434E+02  0.17716393685E+01 -0.15406084320E+02  0.42762252211E+02  0.00000000000E+00 0.  1.
</event>
<event>
 7    1  0.5456331E-013  0.5052886E+02  0.7816164E-02  0.1300439E+00
        -11   -1    0    0    0    0  0.00000000000E+00  0.00000000000E+00  0.45593999997E+02  0.45594000000E+02  0.51100000000E-03 0.  1.
         11   -1    0    0    0    0 -0.00000000000E+00 -0.00000000000E+00 -0.45593999997E+02  0.45594000000E+02  0.51100000000E-03 0. -1.
    9900012    2    1    2    0    0 -0.77689877035E+01  0.64364077040E+01  0.39387579323E+02  0.50528856884E+02  0.29999990983E+02 0.  0.
         12    1    1    2    0    0  0.77689877035E+01 -0.64364077040E+01 -0.39387579323E+02  0.40659143116E+02  0.00000000000E+00 0. -1.
         11    1    3    3    0    0 -0.24100218070E+01 -0.81043937000E+01  0.10488734785E+02  0.13472303441E+02  0.51100000000E-03 0. -1.
        -11    1    3    3    0    0 -0.63479271145E+00 -0.39774583900E+01  0.60594728757E+01  0.72760118763E+01  0.51100000000E-03 0.  1.
        -12    1    3    3    0    0 -0.47241731851E+01  0.18518259794E+02  0.22839371661E+02  0.29780541566E+02  0.00000000000E+00 0.  1.
</event>
<event>
 7    1  0.5456331E-013  0.5052893E+02  0.7816164E-02  0.1300439E+00
        -11   -1    0    0    0    0  0.00000000000E+00  0.00000000000E+00  0.45593999997E+02  0.45594000000E+02  0.51100000000E-03 0.  1.
         11   -1    0    0    0    0 -0.00000000000E+00 -0.00000000000E+00 -0.45593999997E+02  0.45594000000E+02  0.51100000000E-03 0. -1.
    9900012    2    1    2    0    0  0.18791465084E+02  0.29074457484E+02  0.21324086072E+02  0.50528931088E+02  0.30000216535E+02 0.  0.
         12    1    1    2    0    0 -0.18791465084E+02 -0.29074457484E+02 -0.21324086072E+02  0.40659068912E+02  0.00000000000E+00 0. -1.
         11    1    3    3    0    0  0.18580341543E+02  0.10543930073E+02  0.60052575900E+00  0.21372042128E+02  0.51100000000E-03 0. -1.
        -11    1    3    3    0    0  0.34093986656E+01  0.66135006029E+01  0.42304852699E+01  0.85591702498E+01  0.51100000000E-03 0.  1.
         12    1    3    3    0    0 -0.31982751249E+01  0.11917026808E+02  0.16493075043E+02  0.20597718711E+02  0.00000000000E+00 0. -1.
</event>
<event>
 7    1  0.5456331E-013  0.5052886E+02  0.7816164E-02  0.1300439E+00
        -11   -1    0    0    0    0  0.00000000000E+00  0.00000000000E+00  0.45593999997E+02  0.45594000000E+02  0.51100000000E-03 0. -1.
         11   -1    0    0    0    0 -0.00000000000E+00 -0.00000000000E+00 -0.45593999997E+02  0.45594000000E+02  0.51100000000E-03 0.  1.
    9900012    2    1    2    0    0  0.89500912775E+01  0.32211364067E+02 -0.23140641339E+02  0.50528863382E+02  0.30000010735E+02 0.  0.
         12    1    1    2    0    0 -0.89500912775E+01 -0.32211364067E+02  0.23140641339E+02  0.40659136618E+02  0.00000000000E+00 0. -1.
         11    1    3    3    0    0  0.55792735108E+01  0.20133948470E+02  0.17277294576E+01  0.20963998264E+02  0.51100000000E-03 0. -1.
        -11    1    3    3    0    0  0.42483304636E+01  0.32603110625E+01 -0.34090485601E+01  0.63481928372E+01  0.51100000000E-03 0.  1.
         12    1    3    3    0    0 -0.87751269684E+00  0.88171045352E+01 -0.21459322237E+02  0.23216672280E+02  0.00000000000E+00 0. -1.
</event>
<event>
 7    1  0.5456331E-013  0.5052887E+02  0.7816164E-02  0.1300439E+00
        -11   -1    0    0    0    0  0.00000000000E+00  0.00000000000E+00  0.45593999997E+02  0.45594000000E+02  0.51100000000E-03 0.  1.
         11   -1    0    0    0    0 -0.00000000000E+00 -0.00000000000E+00 -0.45593999997E+02  0.45594000000E+02  0.51100000000E-03 0. -1.
    9900012    2    1    2    0    0 -0.14052569086E+02  0.35804749105E+02  0.13179919555E+02  0.50528867743E+02  0.30000023992E+02 0.  0.
         12    1    1    2    0    0  0.14052569086E+02 -0.35804749105E+02 -0.13179919555E+02  0.40659132257E+02  0.00000000000E+00 0. -1.
         11    1    3    3    0    0 -0.13464142931E+02  0.34233514077E+01  0.73732380836E+01  0.15727908947E+02  0.51100000000E-03 0. -1.
        -11    1    3    3    0    0  0.35555757315E+01  0.70955515797E+01  0.45470720183E+01  0.91468483754E+01  0.51100000000E-03 0.  1.
        -12    1    3    3    0    0 -0.41440018864E+01  0.25285846118E+02  0.12596094531E+01  0.25654110421E+02  0.00000000000E+00 0.  1.
</event>
<event>
 7    1  0.5456331E-013  0.5052888E+02  0.7816164E-02  0.1300439E+00
        -11   -1    0    0    0    0  0.00000000000E+00  0.00000000000E+00  0.45593999997E+02  0.45594000000E+02  0.51100000000E-03 0. -1.
         11   -1    0    0    0    0 -0.00000000000E+00 -0.00000000000E+00 -0.45593999997E+02  0.45594000000E+02  0.51100000000E-03 0.  1.
    9900012    2    1    2    0    0  0.31102568391E+02  0.74986118343E+00  0.26176941797E+02  0.50528876373E+02  0.30000050223E+02 0.  0.
         12    1    1    2    0    0 -0.31102568391E+02 -0.74986118343E+00 -0.26176941797E+02  0.40659123627E+02  0.00000000000E+00 0. -1.
         11    1    3    3    0    0  0.16239854568E+02 -0.61363364594E+01  0.71712712439E+01  0.18783360537E+02  0.51100000000E-03 0. -1.
        -11    1    3    3    0    0 -0.85455425787E+00 -0.22914465237E+01  0.11994371893E+02  0.12241157932E+02  0.51100000000E-03 0.  1.
        -12    1    3    3    0    0  0.15717268080E+02  0.91776441666E+01  0.70112986603E+01  0.19504357904E+02  0.00000000000E+00 0.  1.
</event>
<event>
 7    1  0.5456331E-013  0.5052889E+02  0.7816164E-02  0.1300439E+00
        -11   -1    0    0    0    0  0.00000000000E+00  0.00000000000E+00  0.45593999997E+02  0.45594000000E+02  0.51100000000E-03 0. -1.
         11   -1    0    0    0    0 -0.00000000000E+00 -0.00000000000E+00 -0.45593999997E+02  0.45594000000E+02  0.51100000000E-03 0.  1.
    9900012    2    1    2    0    0  0.79655958985E+01  0.15120222692E+02 -0.36892976784E+02  0.50528885545E+02  0.30000078103E+02 0.  0.
         12    1    1    2    0    0 -0.79655958985E+01 -0.15120222692E+02  0.36892976784E+02  0.40659114455E+02  0.00000000000E+00 0. -1.
         11    1    3    3    0    0  0.13693093606E+01 -0.44308737566E+01 -0.23376713995E+02  0.23832297578E+02  0.51100000000E-03 0. -1.
        -11    1    3    3    0    0 -0.15410854460E+01  0.10837248291E+00  0.18774645559E+00  0.15562576713E+01  0.51100000000E-03 0.  1.
        -12    1    3    3    0    0  0.81373719839E+01  0.19442723966E+02 -0.13704009245E+02  0.25140330296E+02  0.00000000000E+00 0.  1.
</event>
<event>
 7    1  0.5456331E-013  0.5052885E+02  0.7816164E-02  0.1300439E+00
        -11   -1    0    0    0    0  0.00000000000E+00  0.00000000000E+00  0.45593999997E+02  0.45594000000E+02  0.51100000000E-03 0.  1.
         11   -1    0    0    0    0 -0.00000000000E+00 -0.00000000000E+00 -0.45593999997E+02  0.45594000000E+02  0.51100000000E-03 0. -1.
    9900012    2    1    2    0    0 -0.36414660728E+02 -0.33232094978E+01  0.17779066491E+02  0.50528850445E+02  0.29999971411E+02 0.  0.
         12    1    1    2    0    0  0.36414660728E+02  0.33232094978E+01 -0.17779066491E+02  0.40659149555E+02  0.00000000000E+00 0. -1.
         11    1    3    3    0    0 -0.78067781922E+01 -0.15739687187E+00  0.51425427832E+01  0.93496687672E+01  0.51100000000E-03 0. -1.
        -11    1    3    3    0    0 -0.28129329349E+02 -0.73718246006E+01  0.18111720886E+02  0.34258391692E+02  0.51100000000E-03 0.  1.
         12    1    3    3    0    0 -0.47855318620E+00  0.42060119747E+01 -0.54751971784E+01  0.69207899857E+01  0.00000000000E+00 0. -1.
</event>
<event>
 7    1  0.5456331E-013  0.5052887E+02  0.7816164E-02  0.1300439E+00
        -11   -1    0    0    0    0  0.00000000000E+00  0.00000000000E+00  0.45593999997E+02  0.45594000000E+02  0.51100000000E-03 0.  1.
         11   -1    0    0    0    0 -0.00000000000E+00 -0.00000000000E+00 -0.45593999997E+02  0.45594000000E+02  0.51100000000E-03 0. -1.
    9900012    2    1    2    0    0 -0.34796195339E+02 -0.14614144952E+02  0.15126675010E+02  0.50528871387E+02  0.30000035068E+02 0.  0.
         12    1    1    2    0    0  0.34796195339E+02  0.14614144952E+02 -0.15126675010E+02  0.40659128613E+02  0.00000000000E+00 0. -1.
         11    1    3    3    0    0 -0.55181440545E+01 -0.12403768263E+02 -0.20358795767E+00  0.13577364591E+02  0.51100000000E-03 0. -1.
        -11    1    3    3    0    0 -0.13628094476E+02 -0.58748443808E+01  0.14665943397E+02  0.20864530945E+02  0.51100000000E-03 0.  1.
        -12    1    3    3    0    0 -0.15649956808E+02  0.36644676918E+01  0.66431957057E+00  0.16086975851E+02  0.00000000000E+00 0.  1.
</event>
<event>
 7    1  0.5456331E-013  0.5052887E+02  0.7816164E-02  0.1300439E+00
        -11   -1    0    0    0    0  0.00000000000E+00  0.00000000000E+00  0.45593999997E+02  0.45594000000E+02  0.51100000000E-03 0.  1.
         11   -1    0    0    0    0 -0.00000000000E+00 -0.00000000000E+00 -0.45593999997E+02  0.45594000000E+02  0.51100000000E-03 0. -1.
    9900012    2    1    2    0    0 -0.19333223580E+02  0.98537655927E+01  0.34384512959E+02  0.50528868654E+02  0.30000026762E+02 0.  0.
         12    1    1    2    0    0  0.19333223580E+02 -0.98537655927E+01 -0.34384512959E+02  0.40659131346E+02  0.00000000000E+00 0. -1.
         11    1    3    3    0    0 -0.65741852932E+01  0.15848511423E+01  0.42432991320E+01  0.79835614357E+01  0.51100000000E-03 0. -1.
        -11    1    3    3    0    0 -0.17371356214E+02  0.55996936948E+00  0.89950995264E+01  0.19570114925E+02  0.51100000000E-03 0.  1.
        -12    1    3    3    0    0  0.46123179275E+01  0.77089450809E+01  0.21146114300E+02  0.22975192294E+02  0.00000000000E+00 0.  1.
</event>
<event>
 7    1  0.5456331E-013  0.5052885E+02  0.7816164E-02  0.1300439E+00
        -11   -1    0    0    0    0  0.00000000000E+00  0.00000000000E+00  0.45593999997E+02  0.45594000000E+02  0.51100000000E-03 0. -1.
         11   -1    0    0    0    0 -0.00000000000E+00 -0.00000000000E+00 -0.45593999997E+02  0.45594000000E+02  0.51100000000E-03 0.  1.
    9900012    2    1    2    0    0  0.28864883654E+02  0.36338621983E+01 -0.28403876703E+02  0.50528847592E+02  0.29999962739E+02 0.  0.
         12    1    1    2    0    0 -0.28864883654E+02 -0.36338621983E+01  0.28403876703E+02  0.40659152408E+02  0.00000000000E+00 0. -1.
         11    1    3    3    0    0  0.16335169729E+00  0.94027127189E+01 -0.72469299216E+01  0.11872475892E+02  0.51100000000E-03 0. -1.
        -11    1    3    3    0    0  0.75419867513E+01  0.43205101958E+01 -0.77864102714E+01  0.11669471183E+02  0.51100000000E-03 0.  1.
        -12    1    3    3    0    0  0.21159545205E+02 -0.10089360716E+02 -0.13370536510E+02  0.26986900517E+02  0.00000000000E+00 0.  1.
</event>
<event>
 7    1  0.5456331E-013  0.5052887E+02  0.7816164E-02  0.1300439E+00
        -11   -1    0    0    0    0  0.00000000000E+00  0.00000000000E+00  0.45593999997E+02  0.45594000000E+02  0.51100000000E-03 0. -1.
         11   -1    0    0    0    0 -0.00000000000E+00 -0.00000000000E+00 -0.45593999997E+02  0.45594000000E+02  0.51100000000E-03 0.  1.
    9900012    2    1    2    0    0 -0.30999008601E+02 -0.22935281257E+02 -0.12891813824E+02  0.50528874035E+02  0.30000043116E+02 0.  0.
         12    1    1    2    0    0  0.30999008601E+02  0.22935281257E+02  0.12891813824E+02  0.40659125965E+02  0.00000000000E+00 0. -1.
         11    1    3    3    0    0 -0.57118468723E+01  0.47796891181E+00  0.48482532078E+01  0.75072770297E+01  0.51100000000E-03 0. -1.
        -11    1    3    3    0    0 -0.25578737425E+02 -0.13335131529E+02 -0.10894176652E+02  0.30834730846E+02  0.51100000000E-03 0.  1.
        -12    1    3    3    0    0  0.29157569585E+00 -0.10078118640E+02 -0.68458903794E+01  0.12186866159E+02  0.00000000000E+00 0.  1.
</event>
<event>
 7    1  0.5456331E-013  0.5052884E+02  0.7816164E-02  0.1300439E+00
        -11   -1    0    0    0    0  0.00000000000E+00  0.00000000000E+00  0.45593999997E+02  0.45594000000E+02  0.51100000000E-03 0.  1.
         11   -1    0    0    0    0 -0.00000000000E+00 -0.00000000000E+00 -0.45593999997E+02  0.45594000000E+02  0.51100000000E-03 0. -1.
    9900012    2    1    2    0    0 -0.41803306979E+01  0.28079308403E+02  0.29107458917E+02  0.50528844945E+02  0.29999954695E+02 0.  0.
         12    1    1    2    0    0  0.41803306979E+01 -0.28079308403E+02 -0.29107458917E+02  0.40659155055E+02  0.00000000000E+00 0. -1.
         11    1    3    3    0    0 -0.63991248420E+00  0.25939962005E+01 -0.34537230348E+01  0.43665211940E+01  0.51100000000E-03 0. -1.
        -11    1    3    3    0    0  0.14938188822E+01  0.15435030506E-01  0.14402061763E+02  0.14479334114E+02  0.51100000000E-03 0.  1.
         12    1    3    3    0    0 -0.50342370959E+01  0.25469877172E+02  0.18159120190E+02  0.31682989637E+02  0.00000000000E+00 0. -1.
</event>
<event>
 7    1  0.5456331E-013  0.5052886E+02  0.7816164E-02  0.1300439E+00
        -11   -1    0    0    0    0  0.00000000000E+00  0.00000000000E+00  0.45593999997E+02  0.45594000000E+02  0.51100000000E-03 0.  1.
         11   -1    0    0    0    0 -0.00000000000E+00 -0.00000000000E+00 -0.45593999997E+02  0.45594000000E+02  0.51100000000E-03 0. -1.
    9900012    2    1    2    0    0 -0.88916718767E+00 -0.19685967280E+02  0.35564557883E+02  0.50528859534E+02  0.29999999040E+02 0.  0.
         12    1    1    2    0    0  0.88916718767E+00  0.19685967280E+02 -0.35564557883E+02  0.40659140466E+02  0.00000000000E+00 0. -1.
         11    1    3    3    0    0  0.11702478986E+02 -0.62022853807E+01  0.17451500556E+02  0.21908245714E+02  0.51100000000E-03 0. -1.
        -11    1    3    3    0    0 -0.13704849948E+00  0.35504230318E+00  0.68507655007E+01  0.68613282632E+01  0.51100000000E-03 0.  1.
        -12    1    3    3    0    0 -0.12454597674E+02 -0.13838724202E+02  0.11262291826E+02  0.21759285557E+02  0.00000000000E+00 0.  1.
</event>
<event>
 7    1  0.5456331E-013  0.5052886E+02  0.7816164E-02  0.1300439E+00
        -11   -1    0    0    0    0  0.00000000000E+00  0.00000000000E+00  0.45593999997E+02  0.45594000000E+02  0.51100000000E-03 0. -1.
         11   -1    0    0    0    0 -0.00000000000E+00 -0.00000000000E+00 -0.45593999997E+02  0.45594000000E+02  0.51100000000E-03 0.  1.
    9900012    2    1    2    0    0  0.26207552088E+02 -0.30648310202E+02  0.51972125513E+01  0.50528859293E+02  0.29999998308E+02 0.  0.
         12    1    1    2    0    0 -0.26207552088E+02  0.30648310202E+02 -0.51972125513E+01  0.40659140707E+02  0.00000000000E+00 0. -1.
         11    1    3    3    0    0  0.12573453211E+01  0.33592269534E+01 -0.89724265238E+00  0.36973460237E+01  0.51100000000E-03 0. -1.
        -11    1    3    3    0    0  0.25063047453E+02 -0.29873273151E+02 -0.55775130907E+00  0.38998460010E+02  0.51100000000E-03 0.  1.
         12    1    3    3    0    0 -0.11284068578E+00 -0.41342640048E+01  0.66522065127E+01  0.78330532597E+01  0.00000000000E+00 0. -1.
</event>
<event>
 7    1  0.5456331E-013  0.5052886E+02  0.7816164E-02  0.1300439E+00
        -11   -1    0    0    0    0  0.00000000000E+00  0.00000000000E+00  0.45593999997E+02  0.45594000000E+02  0.51100000000E-03 0.  1.
         11   -1    0    0    0    0 -0.00000000000E+00 -0.00000000000E+00 -0.45593999997E+02  0.45594000000E+02  0.51100000000E-03 0. -1.
    9900012    2    1    2    0    0  0.25966645346E+01  0.19973673317E+02  0.35319622882E+02  0.50528855235E+02  0.29999985973E+02 0.  0.
         12    1    1    2    0    0 -0.25966645346E+01 -0.19973673317E+02 -0.35319622882E+02  0.40659144765E+02  0.00000000000E+00 0. -1.
         11    1    3    3    0    0  0.20942368697E+01  0.21770959882E+01  0.80782732743E+01  0.86246202446E+01  0.51100000000E-03 0. -1.
        -11    1    3    3    0    0 -0.50624375037E+00  0.31987414542E+01  0.27077695739E+02  0.27270677227E+02  0.51100000000E-03 0.  1.
         12    1    3    3    0    0  0.10086714153E+01  0.14597835874E+02  0.16365386892E+00  0.14633557764E+02  0.00000000000E+00 0. -1.
</event>
<event>
 7    1  0.5456331E-013  0.5052886E+02  0.7816164E-02  0.1300439E+00
        -11   -1    0    0    0    0  0.00000000000E+00  0.00000000000E+00  0.45593999997E+02  0.45594000000E+02  0.51100000000E-03 0.  1.
         11   -1    0    0    0    0 -0.00000000000E+00 -0.00000000000E+00 -0.45593999997E+02  0.45594000000E+02  0.51100000000E-03 0. -1.
    9900012    2    1    2    0    0 -0.35266730147E+02 -0.15849576593E+02 -0.12578320320E+02  0.50528862337E+02  0.30000007560E+02 0.  0.
         12    1    1    2    0    0  0.35266730147E+02  0.15849576593E+02  0.12578320320E+02  0.40659137663E+02  0.00000000000E+00 0. -1.
         11    1    3    3    0    0 -0.30504567875E+01  0.24878700045E+01 -0.13940804480E+01  0.41759123947E+01  0.51100000000E-03 0. -1.
        -11    1    3    3    0    0 -0.10812580415E+02  0.53968931596E+01  0.10528145869E+01  0.12130406829E+02  0.51100000000E-03 0.  1.
         12    1    3    3    0    0 -0.21403692944E+02 -0.23734339757E+02 -0.12237054459E+02  0.34222543114E+02  0.00000000000E+00 0. -1.
</event>
<event>
 7    1  0.5456331E-013  0.5052886E+02  0.7816164E-02  0.1300439E+00
        -11   -1    0    0    0    0  0.00000000000E+00  0.00000000000E+00  0.45593999997E+02  0.45594000000E+02  0.51100000000E-03 0.  1.
         11   -1    0    0    0    0 -0.00000000000E+00 -0.00000000000E+00 -0.45593999997E+02  0.45594000000E+02  0.51100000000E-03 0. -1.
    9900012    2    1    2    0    0  0.28869031050E+02  0.20920084899E+02  0.19547234759E+02  0.50528864585E+02  0.30000014393E+02 0.  0.
         12    1    1    2    0    0 -0.28869031050E+02 -0.20920084899E+02 -0.19547234759E+02  0.40659135415E+02  0.00000000000E+00 0. -1.
         11    1    3    3    0    0  0.74201310793E+01  0.21859146929E+01  0.96920448031E+01  0.12400495998E+02  0.51100000000E-03 0. -1.
        -11    1    3    3    0    0  0.11096884829E+02 -0.24122952136E+01  0.91329150153E+01  0.14572925515E+02  0.51100000000E-03 0.  1.
         12    1    3    3    0    0  0.10352015141E+02  0.21146465420E+02  0.72227494038E+00  0.23555443072E+02  0.00000000000E+00 0. -1.
</event>
<event>
 7    1  0.5456331E-013  0.5052887E+02  0.7816164E-02  0.1300439E+00
        -11   -1    0    0    0    0  0.00000000000E+00  0.00000000000E+00  0.45593999997E+02  0.45594000000E+02  0.51100000000E-03 0. -1.
         11   -1    0    0    0    0 -0.00000000000E+00 -0.00000000000E+00 -0.45593999997E+02  0.45594000000E+02  0.51100000000E-03 0.  1.
    9900012    2    1    2    0    0 -0.30021499465E+02  0.26674158179E+02  0.63532741867E+01  0.50528865263E+02  0.30000016453E+02 0.  0.
         12    1    1    2    0    0  0.30021499465E+02 -0.26674158179E+02 -0.63532741867E+01  0.40659134737E+02  0.00000000000E+00 0. -1.
         11    1    3    3    0    0 -0.15404651924E+02  0.19554093714E+02  0.99267387074E+01  0.26799366103E+02  0.51100000000E-03 0. -1.
        -11    1    3    3    0    0 -0.14199522968E+02  0.10279384908E+02 -0.71565306437E+01  0.18934311124E+02  0.51100000000E-03 0.  1.
        -12    1    3    3    0    0 -0.41732457190E+00 -0.31593204432E+01  0.35830661230E+01  0.47951880362E+01  0.00000000000E+00 0.  1.
</event>
<event>
 7    1  0.5456331E-013  0.5052885E+02  0.7816164E-02  0.1300439E+00
        -11   -1    0    0    0    0  0.00000000000E+00  0.00000000000E+00  0.45593999997E+02  0.45594000000E+02  0.51100000000E-03 0.  1.
         11   -1    0    0    0    0 -0.00000000000E+00 -0.00000000000E+00 -0.45593999997E+02  0.45594000000E+02  0.51100000000E-03 0. -1.
    9900012    2    1    2    0    0  0.48455482688E+01 -0.13863866846E+02  0.37914114796E+02  0.50528852903E+02  0.29999978882E+02 0.  0.
         12    1    1    2    0    0 -0.48455482688E+01  0.13863866846E+02 -0.37914114796E+02  0.40659147097E+02  0.00000000000E+00 0. -1.
         11    1    3    3    0    0 -0.52461799616E+01 -0.64690349744E+01  0.19516850843E+02  0.21219761657E+02  0.51100000000E-03 0. -1.
        -11    1    3    3    0    0 -0.20956665447E-01 -0.65818925860E+00  0.17073412560E+02  0.17086107485E+02  0.51100000000E-03 0.  1.
         12    1    3    3    0    0  0.10112684896E+02 -0.67366426126E+01  0.13238513925E+01  0.12222983760E+02  0.00000000000E+00 0. -1.
</event>
<event>
 7    1  0.5456331E-013  0.5052885E+02  0.7816164E-02  0.1300439E+00
        -11   -1    0    0    0    0  0.00000000000E+00  0.00000000000E+00  0.45593999997E+02  0.45594000000E+02  0.51100000000E-03 0.  1.
         11   -1    0    0    0    0 -0.00000000000E+00 -0.00000000000E+00 -0.45593999997E+02  0.45594000000E+02  0.51100000000E-03 0. -1.
    9900012    2    1    2    0    0  0.27826011655E+02  0.10699891390E+02  0.27647632097E+02  0.50528853908E+02  0.29999981938E+02 0.  0.
         12    1    1    2    0    0 -0.27826011655E+02 -0.10699891390E+02 -0.27647632097E+02  0.40659146092E+02  0.00000000000E+00 0. -1.
         11    1    3    3    0    0  0.75209472015E+01 -0.73206655842E+01  0.15428794126E+02  0.18660237936E+02  0.51100000000E-03 0. -1.
        -11    1    3    3    0    0  0.54494508009E+01  0.28286793710E+01  0.81997713344E+01  0.10243739123E+02  0.51100000000E-03 0.  1.
         12    1    3    3    0    0  0.14855613653E+02  0.15191877603E+02  0.40190666366E+01  0.21624876849E+02  0.00000000000E+00 0. -1.
</event>
<event>
 7    1  0.5456331E-013  0.5052886E+02  0.7816164E-02  0.1300439E+00
        -11   -1    0    0    0    0  0.00000000000E+00  0.00000000000E+00  0.45593999997E+02  0.45594000000E+02  0.51100000000E-03 0.  1.
         11   -1    0    0    0    0 -0.00000000000E+00 -0.00000000000E+00 -0.45593999997E+02  0.45594000000E+02  0.51100000000E-03 0. -1.
    9900012    2    1    2    0    0 -0.36985115446E+02  0.16333746594E+02  0.42983680947E+01  0.50528855756E+02  0.29999987557E+02 0.  0.
         12    1    1    2    0    0  0.36985115446E+02 -0.16333746594E+02 -0.42983680947E+01  0.40659144244E+02  0.00000000000E+00 0. -1.
         11    1    3    3    0    0  0.21233737753E+01 -0.27454500332E+01 -0.63431714583E+00  0.35282531906E+01  0.51100000000E-03 0. -1.
        -11    1    3    3    0    0 -0.15382212144E+02  0.54451116246E+00  0.68172864038E+01  0.16834023197E+02  0.51100000000E-03 0.  1.
         12    1    3    3    0    0 -0.23726277077E+02  0.18534685465E+02 -0.18846011633E+01  0.30166579368E+02  0.00000000000E+00 0. -1.
</event>
<event>
 7    1  0.5456331E-013  0.5052886E+02  0.7816164E-02  0.1300439E+00
        -11   -1    0    0    0    0  0.00000000000E+00  0.00000000000E+00  0.45593999997E+02  0.45594000000E+02  0.51100000000E-03 0.  1.
         11   -1    0    0    0    0 -0.00000000000E+00 -0.00000000000E+00 -0.45593999997E+02  0.45594000000E+02  0.51100000000E-03 0. -1.
    9900012    2    1    2    0    0 -0.31513174044E+02 -0.20040269529E+02 -0.16077102452E+02  0.50528858785E+02  0.29999996763E+02 0.  0.
         12    1    1    2    0    0  0.31513174044E+02  0.20040269529E+02  0.16077102452E+02  0.40659141215E+02  0.00000000000E+00 0. -1.
         11    1    3    3    0    0 -0.15424034918E+01  0.36849889470E+01  0.20981061433E+01  0.45122280218E+01  0.51100000000E-03 0.  1.
        -11    1    3    3    0    0  0.15295970756E+01 -0.51620225617E+01 -0.50509037988E+00  0.54075189037E+01  0.51100000000E-03 0. -1.
        -12    1    3    3    0    0 -0.31500367628E+02 -0.18563235914E+02 -0.17670118215E+02  0.40609111859E+02  0.00000000000E+00 0.  1.
</event>
<event>
 7    1  0.5456331E-013  0.5052888E+02  0.7816164E-02  0.1300439E+00
        -11   -1    0    0    0    0  0.00000000000E+00  0.00000000000E+00  0.45593999997E+02  0.45594000000E+02  0.51100000000E-03 0. -1.
         11   -1    0    0    0    0 -0.00000000000E+00 -0.00000000000E+00 -0.45593999997E+02  0.45594000000E+02  0.51100000000E-03 0.  1.
    9900012    2    1    2    0    0  0.30602945822E+02  0.16532702863E+02 -0.21054544999E+02  0.50528875291E+02  0.30000046936E+02 0.  0.
         12    1    1    2    0    0 -0.30602945822E+02 -0.16532702863E+02  0.21054544999E+02  0.40659124709E+02  0.00000000000E+00 0. -1.
         11    1    3    3    0    0  0.84088162718E+01  0.30524921878E+01 -0.15670062827E+02  0.18043745978E+02  0.51100000000E-03 0. -1.
        -11    1    3    3    0    0  0.10128779807E+02 -0.27535180031E+01  0.24769800534E+01  0.10784686932E+02  0.51100000000E-03 0.  1.
        -12    1    3    3    0    0  0.12065349743E+02  0.16233728678E+02 -0.78614622257E+01  0.21700442381E+02  0.00000000000E+00 0.  1.
</event>
<event>
 7    1  0.5456331E-013  0.5052886E+02  0.7816164E-02  0.1300439E+00
        -11   -1    0    0    0    0  0.00000000000E+00  0.00000000000E+00  0.45593999997E+02  0.45594000000E+02  0.51100000000E-03 0. -1.
         11   -1    0    0    0    0 -0.00000000000E+00 -0.00000000000E+00 -0.45593999997E+02  0.45594000000E+02  0.51100000000E-03 0.  1.
    9900012    2    1    2    0    0  0.10003872600E+02 -0.38185911610E+02 -0.97429188885E+01  0.50528858581E+02  0.29999996141E+02 0.  0.
         12    1    1    2    0    0 -0.10003872600E+02  0.38185911610E+02  0.97429188885E+01  0.40659141419E+02  0.00000000000E+00 0. -1.
         11    1    3    3    0    0  0.31296986392E+01  0.21600544023E+01 -0.74189148993E+00  0.38744356798E+01  0.51100000000E-03 0. -1.
        -11    1    3    3    0    0  0.76802192425E+01 -0.90951594882E+01 -0.97453050277E+01  0.15384364273E+02  0.51100000000E-03 0.  1.
        -12    1    3    3    0    0 -0.80604528135E+00 -0.31250806524E+02  0.74427762921E+00  0.31270058628E+02  0.00000000000E+00 0.  1.
</event>
<event>
 7    1  0.5456331E-013  0.5052885E+02  0.7816164E-02  0.1300439E+00
        -11   -1    0    0    0    0  0.00000000000E+00  0.00000000000E+00  0.45593999997E+02  0.45594000000E+02  0.51100000000E-03 0. -1.
         11   -1    0    0    0    0 -0.00000000000E+00 -0.00000000000E+00 -0.45593999997E+02  0.45594000000E+02  0.51100000000E-03 0.  1.
    9900012    2    1    2    0    0  0.21733561941E+02  0.23424268696E+02 -0.25142041177E+02  0.50528852037E+02  0.29999976250E+02 0.  0.
         12    1    1    2    0    0 -0.21733561941E+02 -0.23424268696E+02  0.25142041177E+02  0.40659147963E+02  0.00000000000E+00 0. -1.
         11    1    3    3    0    0  0.41587913190E+01  0.67966567013E+01 -0.55512448513E+01  0.97111486040E+01  0.51100000000E-03 0. -1.
        -11    1    3    3    0    0  0.12356282893E+02  0.21508294009E+02 -0.22122886651E+02  0.33237126111E+02  0.51100000000E-03 0.  1.
         12    1    3    3    0    0  0.52184877293E+01 -0.48806820142E+01  0.25320903258E+01  0.75805773212E+01  0.00000000000E+00 0. -1.
</event>
<event>
 7    1  0.5456331E-013  0.5052883E+02  0.7816164E-02  0.1300439E+00
        -11   -1    0    0    0    0  0.00000000000E+00  0.00000000000E+00  0.45593999997E+02  0.45594000000E+02  0.51100000000E-03 0. -1.
         11   -1    0    0    0    0 -0.00000000000E+00 -0.00000000000E+00 -0.45593999997E+02  0.45594000000E+02  0.51100000000E-03 0.  1.
    9900012    2    1    2    0    0  0.10558017301E+02 -0.74560802631E+01 -0.38550013501E+02  0.50528826335E+02  0.29999898126E+02 0.  0.
         12    1    1    2    0    0 -0.10558017301E+02  0.74560802631E+01  0.38550013501E+02  0.40659173665E+02  0.00000000000E+00 0. -1.
         11    1    3    3    0    0  0.91702847795E+00  0.31228123989E+01 -0.51272396300E+01  0.60730128431E+01  0.51100000000E-03 0. -1.
        -11    1    3    3    0    0  0.13614608766E+02 -0.76622000494E+00 -0.30597613937E+02  0.33498636447E+02  0.51100000000E-03 0.  1.
         12    1    3    3    0    0 -0.39736199425E+01 -0.98126726571E+01 -0.28251599343E+01  0.10957177044E+02  0.00000000000E+00 0. -1.
</event>
<event>
 7    1  0.5456331E-013  0.5052887E+02  0.7816164E-02  0.1300439E+00
        -11   -1    0    0    0    0  0.00000000000E+00  0.00000000000E+00  0.45593999997E+02  0.45594000000E+02  0.51100000000E-03 0. -1.
         11   -1    0    0    0    0 -0.00000000000E+00 -0.00000000000E+00 -0.45593999997E+02  0.45594000000E+02  0.51100000000E-03 0.  1.
    9900012    2    1    2    0    0 -0.90205993683E+01  0.35508435924E+02 -0.17633627732E+02  0.50528867425E+02  0.30000023025E+02 0.  0.
         12    1    1    2    0    0  0.90205993683E+01 -0.35508435924E+02  0.17633627732E+02  0.40659132575E+02  0.00000000000E+00 0. -1.
         11    1    3    3    0    0  0.10002565565E+01  0.75877869527E+01 -0.64604793898E+01  0.10015628699E+02  0.51100000000E-03 0. -1.
        -11    1    3    3    0    0  0.75759701248E+01  0.14507766795E+02 -0.17349907814E+01  0.16458457218E+02  0.51100000000E-03 0.  1.
         12    1    3    3    0    0 -0.17596826050E+02  0.13412882177E+02 -0.94381575607E+01  0.24054781509E+02  0.00000000000E+00 0. -1.
</event>
<event>
 7    1  0.5456331E-013  0.5052884E+02  0.7816164E-02  0.1300439E+00
        -11   -1    0    0    0    0  0.00000000000E+00  0.00000000000E+00  0.45593999997E+02  0.45594000000E+02  0.51100000000E-03 0.  1.
         11   -1    0    0    0    0 -0.00000000000E+00 -0.00000000000E+00 -0.45593999997E+02  0.45594000000E+02  0.51100000000E-03 0. -1.
    9900012    2    1    2    0    0  0.10585827054E+02 -0.37708704865E+02  0.10916078122E+02  0.50528844591E+02  0.29999953619E+02 0.  0.
         12    1    1    2    0    0 -0.10585827054E+02  0.37708704865E+02 -0.10916078122E+02  0.40659155409E+02  0.00000000000E+00 0. -1.
         11    1    3    3    0    0  0.83337388210E+01 -0.31276481405E+02  0.12353893959E+01  0.32391290172E+02  0.51100000000E-03 0. -1.
        -11    1    3    3    0    0  0.26853663622E+01 -0.10381258986E+02  0.92133038069E+01  0.14137421898E+02  0.51100000000E-03 0.  1.
        -12    1    3    3    0    0 -0.43327812955E+00  0.39490355256E+01  0.46738491887E+00  0.40001325206E+01  0.00000000000E+00 0.  1.
</event>
<event>
 7    1  0.5456331E-013  0.5052886E+02  0.7816164E-02  0.1300439E+00
        -11   -1    0    0    0    0  0.00000000000E+00  0.00000000000E+00  0.45593999997E+02  0.45594000000E+02  0.51100000000E-03 0.  1.
         11   -1    0    0    0    0 -0.00000000000E+00 -0.00000000000E+00 -0.45593999997E+02  0.45594000000E+02  0.51100000000E-03 0. -1.
    9900012    2    1    2    0    0 -0.32400649371E+02 -0.53177710174E+01  0.23980933282E+02  0.50528856756E+02  0.29999990596E+02 0.  0.
         12    1    1    2    0    0  0.32400649371E+02  0.53177710174E+01 -0.23980933282E+02  0.40659143244E+02  0.00000000000E+00 0. -1.
         11    1    3    3    0    0 -0.12402377810E+02  0.78603593263E+01  0.13195292390E+02  0.19741326339E+02  0.51100000000E-03 0.  1.
        -11    1    3    3    0    0 -0.49041435456E+01  0.30071769319E+00 -0.34863748331E+01  0.60246049484E+01  0.51100000000E-03 0. -1.
        -12    1    3    3    0    0 -0.15094128015E+02 -0.13478848037E+02  0.14272015724E+02  0.24762925469E+02  0.00000000000E+00 0.  1.
</event>
<event>
 7    1  0.5456331E-013  0.5052886E+02  0.7816164E-02  0.1300439E+00
        -11   -1    0    0    0    0  0.00000000000E+00  0.00000000000E+00  0.45593999997E+02  0.45594000000E+02  0.51100000000E-03 0.  1.
         11   -1    0    0    0    0 -0.00000000000E+00 -0.00000000000E+00 -0.45593999997E+02  0.45594000000E+02  0.51100000000E-03 0. -1.
    9900012    2    1    2    0    0 -0.37510866215E+02  0.66792368110E+01  0.14194652420E+02  0.50528862701E+02  0.30000008666E+02 0.  0.
         12    1    1    2    0    0  0.37510866215E+02 -0.66792368110E+01 -0.14194652420E+02  0.40659137299E+02  0.00000000000E+00 0. -1.
         11    1    3    3    0    0 -0.76212739133E+01 -0.57972920542E+01  0.80929283072E+01  0.12537459873E+02  0.51100000000E-03 0. -1.
        -11    1    3    3    0    0 -0.18208562015E+02 -0.89005655083E+00  0.84353252979E+01  0.20087275685E+02  0.51100000000E-03 0.  1.
         12    1    3    3    0    0 -0.11681030287E+02  0.13366585416E+02 -0.23336011849E+01  0.17904127142E+02  0.00000000000E+00 0. -1.
</event>
<event>
 7    1  0.5456331E-013  0.5052885E+02  0.7816164E-02  0.1300439E+00
        -11   -1    0    0    0    0  0.00000000000E+00  0.00000000000E+00  0.45593999997E+02  0.45594000000E+02  0.51100000000E-03 0.  1.
         11   -1    0    0    0    0 -0.00000000000E+00 -0.00000000000E+00 -0.45593999997E+02  0.45594000000E+02  0.51100000000E-03 0. -1.
    9900012    2    1    2    0    0  0.36450882298E+02  0.17840670758E+02  0.24919331984E+01  0.50528854849E+02  0.29999984798E+02 0.  0.
         12    1    1    2    0    0 -0.36450882298E+02 -0.17840670758E+02 -0.24919331984E+01  0.40659145151E+02  0.00000000000E+00 0. -1.
         11    1    3    3    0    0  0.15452975300E+02  0.55482415348E+01  0.12042029533E+02  0.20361431808E+02  0.51100000000E-03 0. -1.
        -11    1    3    3    0    0  0.11843062665E+02  0.87635440895E+01  0.21599088142E+01  0.14890367512E+02  0.51100000000E-03 0.  1.
         12    1    3    3    0    0  0.91548443335E+01  0.35288851338E+01 -0.11710005149E+02  0.15277055529E+02  0.00000000000E+00 0. -1.
</event>
<event>
 7    1  0.5456331E-013  0.5052886E+02  0.7816164E-02  0.1300439E+00
        -11   -1    0    0    0    0  0.00000000000E+00  0.00000000000E+00  0.45593999997E+02  0.45594000000E+02  0.51100000000E-03 0. -1.
         11   -1    0    0    0    0 -0.00000000000E+00 -0.00000000000E+00 -0.45593999997E+02  0.45594000000E+02  0.51100000000E-03 0.  1.
    9900012    2    1    2    0    0  0.22105207096E+02 -0.31612940637E+02  0.12850982818E+02  0.50528856430E+02  0.29999989604E+02 0.  0.
         12    1    1    2    0    0 -0.22105207096E+02  0.31612940637E+02 -0.12850982818E+02  0.40659143570E+02  0.00000000000E+00 0. -1.
         11    1    3    3    0    0  0.11097772316E+02 -0.10109640855E+02  0.16448081990E+02  0.22268919821E+02  0.51100000000E-03 0. -1.
        -11    1    3    3    0    0 -0.58211035216E+00 -0.64376164896E+01  0.42071650309E+01  0.77124572211E+01  0.51100000000E-03 0.  1.
         12    1    3    3    0    0  0.11589545132E+02 -0.15065683293E+02 -0.78042642023E+01  0.20547479388E+02  0.00000000000E+00 0. -1.
</event>
<event>
 7    1  0.5456331E-013  0.5052887E+02  0.7816164E-02  0.1300439E+00
        -11   -1    0    0    0    0  0.00000000000E+00  0.00000000000E+00  0.45593999997E+02  0.45594000000E+02  0.51100000000E-03 0.  1.
         11   -1    0    0    0    0 -0.00000000000E+00 -0.00000000000E+00 -0.45593999997E+02  0.45594000000E+02  0.51100000000E-03 0. -1.
    9900012    2    1    2    0    0  0.14614035458E+02 -0.32557371566E+02  0.19483642383E+02  0.50528870691E+02  0.30000032953E+02 0.  0.
         12    1    1    2    0    0 -0.14614035458E+02  0.32557371566E+02 -0.19483642383E+02  0.40659129309E+02  0.00000000000E+00 0. -1.
         11    1    3    3    0    0 -0.40348798163E+01 -0.64599505407E+01  0.29177796710E+01  0.81562647450E+01  0.51100000000E-03 0. -1.
        -11    1    3    3    0    0  0.37583628114E+01 -0.23588398937E+02  0.10695988913E+02  0.26171397260E+02  0.51100000000E-03 0.  1.
         12    1    3    3    0    0  0.14890552463E+02 -0.25090220885E+01  0.58698737986E+01  0.16201208686E+02  0.00000000000E+00 0. -1.
</event>
<event>
 7    1  0.5456331E-013  0.5052886E+02  0.7816164E-02  0.1300439E+00
        -11   -1    0    0    0    0  0.00000000000E+00  0.00000000000E+00  0.45593999997E+02  0.45594000000E+02  0.51100000000E-03 0. -1.
         11   -1    0    0    0    0 -0.00000000000E+00 -0.00000000000E+00 -0.45593999997E+02  0.45594000000E+02  0.51100000000E-03 0.  1.
    9900012    2    1    2    0    0 -0.69802675215E+01  0.14227311443E+01 -0.40030206764E+02  0.50528858935E+02  0.29999997218E+02 0.  0.
         12    1    1    2    0    0  0.69802675215E+01 -0.14227311443E+01  0.40030206764E+02  0.40659141065E+02  0.00000000000E+00 0. -1.
         11    1    3    3    0    0  0.33102541393E+01 -0.97233025787E+01 -0.40105832463E+01  0.11026566725E+02  0.51100000000E-03 0. -1.
        -11    1    3    3    0    0 -0.46610352278E+01  0.33046957462E+01 -0.19990844353E+02  0.20791347277E+02  0.51100000000E-03 0.  1.
        -12    1    3    3    0    0 -0.56294864331E+01  0.78413379769E+01 -0.16028779165E+02  0.18710944933E+02  0.00000000000E+00 0.  1.
</event>
<event>
 7    1  0.5456331E-013  0.5052886E+02  0.7816164E-02  0.1300439E+00
        -11   -1    0    0    0    0  0.00000000000E+00  0.00000000000E+00  0.45593999997E+02  0.45594000000E+02  0.51100000000E-03 0.  1.
         11   -1    0    0    0    0 -0.00000000000E+00 -0.00000000000E+00 -0.45593999997E+02  0.45594000000E+02  0.51100000000E-03 0. -1.
    9900012    2    1    2    0    0  0.14609234707E+02  0.53753968198E+01  0.37561165159E+02  0.50528858865E+02  0.29999997008E+02 0.  0.
         12    1    1    2    0    0 -0.14609234707E+02 -0.53753968198E+01 -0.37561165159E+02  0.40659141135E+02  0.00000000000E+00 0. -1.
         11    1    3    3    0    0  0.12159138941E+02  0.74366269973E+01  0.27550302344E+02  0.31018820745E+02  0.51100000000E-03 0. -1.
        -11    1    3    3    0    0  0.74014871935E+01 -0.18408861292E+00  0.11791669208E+02  0.13923338833E+02  0.51100000000E-03 0.  1.
         12    1    3    3    0    0 -0.49513914275E+01 -0.18771415646E+01 -0.17808063929E+01  0.55866992877E+01  0.00000000000E+00 0. -1.
</event>
<event>
 7    1  0.5456331E-013  0.5052886E+02  0.7816164E-02  0.1300439E+00
        -11   -1    0    0    0    0  0.00000000000E+00  0.00000000000E+00  0.45593999997E+02  0.45594000000E+02  0.51100000000E-03 0. -1.
         11   -1    0    0    0    0 -0.00000000000E+00 -0.00000000000E+00 -0.45593999997E+02  0.45594000000E+02  0.51100000000E-03 0.  1.
    9900012    2    1    2    0    0  0.17003840321E+02 -0.33861683958E+02 -0.14745217280E+02  0.50528860083E+02  0.30000000709E+02 0.  0.
         12    1    1    2    0    0 -0.17003840321E+02  0.33861683958E+02  0.14745217280E+02  0.40659139917E+02  0.00000000000E+00 0. -1.
         11    1    3    3    0    0  0.13578135617E+01 -0.64583339302E+00  0.23933339924E+01  0.28264476468E+01  0.51100000000E-03 0. -1.
        -11    1    3    3    0    0 -0.57725114342E+01 -0.52503777203E+01  0.13513937152E+01  0.79192562592E+01  0.51100000000E-03 0.  1.
        -12    1    3    3    0    0  0.21418538194E+02 -0.27965472844E+02 -0.18489944988E+02  0.39783156177E+02  0.00000000000E+00 0.  1.
</event>
<event>
 7    1  0.5456331E-013  0.5052885E+02  0.7816164E-02  0.1300439E+00
        -11   -1    0    0    0    0  0.00000000000E+00  0.00000000000E+00  0.45593999997E+02  0.45594000000E+02  0.51100000000E-03 0.  1.
         11   -1    0    0    0    0 -0.00000000000E+00 -0.00000000000E+00 -0.45593999997E+02  0.45594000000E+02  0.51100000000E-03 0. -1.
    9900012    2    1    2    0    0 -0.48632102116E+01 -0.28018673110E+02  0.29059764620E+02  0.50528846342E+02  0.29999958941E+02 0.  0.
         12    1    1    2    0    0  0.48632102116E+01  0.28018673110E+02 -0.29059764620E+02  0.40659153658E+02  0.00000000000E+00 0. -1.
         11    1    3    3    0    0  0.20348663776E+01  0.17401279397E+01  0.25049976436E+01  0.36665705880E+01  0.51100000000E-03 0. -1.
        -11    1    3    3    0    0  0.76612594063E+01 -0.13992031100E+02  0.17177494793E+02  0.23442230219E+02  0.51100000000E-03 0.  1.
        -12    1    3    3    0    0 -0.14559335996E+02 -0.15766769949E+02  0.93772721836E+01  0.23420045535E+02  0.00000000000E+00 0.  1.
</event>
<event>
 7    1  0.5456331E-013  0.5052886E+02  0.7816164E-02  0.1300439E+00
        -11   -1    0    0    0    0  0.00000000000E+00  0.00000000000E+00  0.45593999997E+02  0.45594000000E+02  0.51100000000E-03 0. -1.
         11   -1    0    0    0    0 -0.00000000000E+00 -0.00000000000E+00 -0.45593999997E+02  0.45594000000E+02  0.51100000000E-03 0.  1.
    9900012    2    1    2    0    0 -0.36560524345E+02 -0.17277207730E+02 -0.42416534201E+01  0.50528862391E+02  0.30000007725E+02 0.  0.
         12    1    1    2    0    0  0.36560524345E+02  0.17277207730E+02  0.42416534201E+01  0.40659137609E+02  0.00000000000E+00 0. -1.
         11    1    3    3    0    0 -0.18766886198E+02 -0.78371808826E+01 -0.59283846403E+00  0.20346225190E+02  0.51100000000E-03 0. -1.
        -11    1    3    3    0    0 -0.14507082647E+02 -0.48603915224E+01  0.79828908214E+01  0.17257039109E+02  0.51100000000E-03 0.  1.
         12    1    3    3    0    0 -0.32865554999E+01 -0.45796353252E+01 -0.11631705777E+02  0.12925598093E+02  0.00000000000E+00 0. -1.
</event>
<event>
 7    1  0.5456331E-013  0.5052886E+02  0.7816164E-02  0.1300439E+00
        -11   -1    0    0    0    0  0.00000000000E+00  0.00000000000E+00  0.45593999997E+02  0.45594000000E+02  0.51100000000E-03 0.  1.
         11   -1    0    0    0    0 -0.00000000000E+00 -0.00000000000E+00 -0.45593999997E+02  0.45594000000E+02  0.51100000000E-03 0. -1.
    9900012    2    1    2    0    0  0.42252839716E+00  0.40655972313E+02 -0.28119616525E+00  0.50528859745E+02  0.29999999682E+02 0.  0.
         12    1    1    2    0    0 -0.42252839716E+00 -0.40655972313E+02  0.28119616525E+00  0.40659140255E+02  0.00000000000E+00 0. -1.
         11    1    3    3    0    0  0.21367401607E+01  0.11190540953E+02 -0.12663109272E+01  0.11462870887E+02  0.51100000000E-03 0. -1.
        -11    1    3    3    0    0  0.22474233663E+01  0.29763302843E+02 -0.65403835027E+01  0.30556205991E+02  0.51100000000E-03 0.  1.
         12    1    3    3    0    0 -0.39616351299E+01 -0.29787148348E+00  0.75254982646E+01  0.85097828677E+01  0.00000000000E+00 0. -1.
</event>
<event>
 7    1  0.5456331E-013  0.5052887E+02  0.7816164E-02  0.1300439E+00
        -11   -1    0    0    0    0  0.00000000000E+00  0.00000000000E+00  0.45593999997E+02  0.45594000000E+02  0.51100000000E-03 0. -1.
         11   -1    0    0    0    0 -0.00000000000E+00 -0.00000000000E+00 -0.45593999997E+02  0.45594000000E+02  0.51100000000E-03 0.  1.
    9900012    2    1    2    0    0 -0.16926255859E+01 -0.40570820547E+02 -0.20757526879E+01  0.50528865597E+02  0.30000017468E+02 0.  0.
         12    1    1    2    0    0  0.16926255859E+01  0.40570820547E+02  0.20757526879E+01  0.40659134403E+02  0.00000000000E+00 0. -1.
         11    1    3    3    0    0  0.24832612612E+01 -0.22048415620E+02  0.30764550244E+01  0.22400084679E+02  0.51100000000E-03 0. -1.
        -11    1    3    3    0    0 -0.56299594233E+01 -0.22568532507E+02 -0.34963650959E+01  0.23521472568E+02  0.51100000000E-03 0.  1.
         12    1    3    3    0    0  0.14540725761E+01  0.40461275807E+01 -0.16558426164E+01  0.46073083494E+01  0.00000000000E+00 0. -1.
</event>
<event>
 7    1  0.5456331E-013  0.5052886E+02  0.7816164E-02  0.1300439E+00
        -11   -1    0    0    0    0  0.00000000000E+00  0.00000000000E+00  0.45593999997E+02  0.45594000000E+02  0.51100000000E-03 0.  1.
         11   -1    0    0    0    0 -0.00000000000E+00 -0.00000000000E+00 -0.45593999997E+02  0.45594000000E+02  0.51100000000E-03 0. -1.
    9900012    2    1    2    0    0  0.30446604247E+02  0.14837752533E+02  0.22494687280E+02  0.50528861221E+02  0.30000004167E+02 0.  0.
         12    1    1    2    0    0 -0.30446604247E+02 -0.14837752533E+02 -0.22494687280E+02  0.40659138779E+02  0.00000000000E+00 0. -1.
         11    1    3    3    0    0  0.98245573619E-01  0.80928619298E+01  0.14570306106E+02  0.16667269923E+02  0.51100000000E-03 0. -1.
        -11    1    3    3    0    0  0.75316506026E+01  0.60143451248E+01  0.49654614743E+01  0.10842228368E+02  0.51100000000E-03 0.  1.
         12    1    3    3    0    0  0.22816708071E+02  0.73054547867E+00  0.29589196997E+01  0.23019362930E+02  0.00000000000E+00 0. -1.
</event>
<event>
 7    1  0.5456331E-013  0.5052886E+02  0.7816164E-02  0.1300439E+00
        -11   -1    0    0    0    0  0.00000000000E+00  0.00000000000E+00  0.45593999997E+02  0.45594000000E+02  0.51100000000E-03 0. -1.
         11   -1    0    0    0    0 -0.00000000000E+00 -0.00000000000E+00 -0.45593999997E+02  0.45594000000E+02  0.51100000000E-03 0.  1.
    9900012    2    1    2    0    0 -0.37529646819E+02 -0.37306365299E+01 -0.15191237772E+02  0.50528859032E+02  0.29999997512E+02 0.  0.
         12    1    1    2    0    0  0.37529646819E+02  0.37306365299E+01  0.15191237772E+02  0.40659140968E+02  0.00000000000E+00 0. -1.
         11    1    3    3    0    0 -0.12534934404E+02 -0.61734971686E+01 -0.51498311892E+01  0.14891521391E+02  0.51100000000E-03 0. -1.
        -11    1    3    3    0    0 -0.24057148611E+02  0.63654415993E+01 -0.15145906258E+02  0.29131833493E+02  0.51100000000E-03 0.  1.
         12    1    3    3    0    0 -0.93756380298E+00 -0.39225809606E+01  0.51044996745E+01  0.65055041468E+01  0.00000000000E+00 0. -1.
</event>
<event>
 7    1  0.5456331E-013  0.5052886E+02  0.7816164E-02  0.1300439E+00
        -11   -1    0    0    0    0  0.00000000000E+00  0.00000000000E+00  0.45593999997E+02  0.45594000000E+02  0.51100000000E-03 0.  1.
         11   -1    0    0    0    0 -0.00000000000E+00 -0.00000000000E+00 -0.45593999997E+02  0.45594000000E+02  0.51100000000E-03 0. -1.
    9900012    2    1    2    0    0  0.35177357841E+02 -0.16476061767E+02  0.12010757567E+02  0.50528863101E+02  0.30000009882E+02 0.  0.
         12    1    1    2    0    0 -0.35177357841E+02  0.16476061767E+02 -0.12010757567E+02  0.40659136899E+02  0.00000000000E+00 0. -1.
         11    1    3    3    0    0  0.43199669296E+01 -0.35224434228E+01 -0.88675571506E+01  0.10473933932E+02  0.51100000000E-03 0. -1.
        -11    1    3    3    0    0  0.43187218671E+01 -0.20361127866E+01  0.38111666661E+00  0.47898187878E+01  0.51100000000E-03 0.  1.
        -12    1    3    3    0    0  0.26538669044E+02 -0.10917505557E+02  0.20497198051E+02  0.35265110381E+02  0.00000000000E+00 0.  1.
</event>
<event>
 7    1  0.5456331E-013  0.5052886E+02  0.7816164E-02  0.1300439E+00
        -11   -1    0    0    0    0  0.00000000000E+00  0.00000000000E+00  0.45593999997E+02  0.45594000000E+02  0.51100000000E-03 0.  1.
         11   -1    0    0    0    0 -0.00000000000E+00 -0.00000000000E+00 -0.45593999997E+02  0.45594000000E+02  0.51100000000E-03 0. -1.
    9900012    2    1    2    0    0 -0.19212341176E+02 -0.10655715841E+02  0.34212672302E+02  0.50528864746E+02  0.30000014882E+02 0.  0.
         12    1    1    2    0    0  0.19212341176E+02  0.10655715841E+02 -0.34212672302E+02  0.40659135254E+02  0.00000000000E+00 0. -1.
         11    1    3    3    0    0  0.66725169160E+01 -0.37867861815E+01  0.28596613183E+01  0.81877893656E+01  0.51100000000E-03 0. -1.
        -11    1    3    3    0    0 -0.72583095364E+01 -0.59721789777E+01  0.72738879192E+01  0.11885260821E+02  0.51100000000E-03 0.  1.
        -12    1    3    3    0    0 -0.18626548556E+02 -0.89675068140E+00  0.24079123065E+02  0.30455814559E+02  0.00000000000E+00 0.  1.
</event>
<event>
 7    1  0.5456331E-013  0.5052888E+02  0.7816164E-02  0.1300439E+00
        -11   -1    0    0    0    0  0.00000000000E+00  0.00000000000E+00  0.45593999997E+02  0.45594000000E+02  0.51100000000E-03 0. -1.
         11   -1    0    0    0    0 -0.00000000000E+00 -0.00000000000E+00 -0.45593999997E+02  0.45594000000E+02  0.51100000000E-03 0.  1.
    9900012    2    1    2    0    0 -0.32248331360E+02 -0.23966833379E+02  0.62289633477E+01  0.50528880948E+02  0.30000064129E+02 0.  0.
         12    1    1    2    0    0  0.32248331360E+02  0.23966833379E+02 -0.62289633477E+01  0.40659119052E+02  0.00000000000E+00 0. -1.
         11    1    3    3    0    0 -0.16980393220E+02 -0.56572516263E+01 -0.42055398898E+01  0.18385451202E+02  0.51100000000E-03 0. -1.
        -11    1    3    3    0    0 -0.17509532643E+02 -0.11009316770E+02  0.20219280597E+01  0.20781650138E+02  0.51100000000E-03 0.  1.
         12    1    3    3    0    0  0.22415945033E+01 -0.73002649827E+01  0.84125751778E+01  0.11361779608E+02  0.00000000000E+00 0. -1.
</event>
<event>
 7    1  0.5456331E-013  0.5052886E+02  0.7816164E-02  0.1300439E+00
        -11   -1    0    0    0    0  0.00000000000E+00  0.00000000000E+00  0.45593999997E+02  0.45594000000E+02  0.51100000000E-03 0.  1.
         11   -1    0    0    0    0 -0.00000000000E+00 -0.00000000000E+00 -0.45593999997E+02  0.45594000000E+02  0.51100000000E-03 0. -1.
    9900012    2    1    2    0    0  0.74389918667E+01  0.25395318716E+01  0.39892076197E+02  0.50528861231E+02  0.30000004198E+02 0.  0.
         12    1    1    2    0    0 -0.74389918667E+01 -0.25395318716E+01 -0.39892076197E+02  0.40659138769E+02  0.00000000000E+00 0. -1.
         11    1    3    3    0    0  0.10977563390E+02  0.37496309986E+01  0.13352138480E+02  0.17687459763E+02  0.51100000000E-03 0. -1.
        -11    1    3    3    0    0  0.71040166446E+01 -0.40979311644E+01  0.13113868482E+02  0.15467179417E+02  0.51100000000E-03 0.  1.
        -12    1    3    3    0    0 -0.10642588167E+02  0.28878320373E+01  0.13426069235E+02  0.17374222051E+02  0.00000000000E+00 0.  1.
</event>
<event>
 7    1  0.5456331E-013  0.5052887E+02  0.7816164E-02  0.1300439E+00
        -11   -1    0    0    0    0  0.00000000000E+00  0.00000000000E+00  0.45593999997E+02  0.45594000000E+02  0.51100000000E-03 0.  1.
         11   -1    0    0    0    0 -0.00000000000E+00 -0.00000000000E+00 -0.45593999997E+02  0.45594000000E+02  0.51100000000E-03 0. -1.
    9900012    2    1    2    0    0  0.22462569681E+02 -0.25311043437E+02  0.22537715037E+02  0.50528873649E+02  0.30000041944E+02 0.  0.
         12    1    1    2    0    0 -0.22462569681E+02  0.25311043437E+02 -0.22537715037E+02  0.40659126351E+02  0.00000000000E+00 0. -1.
         11    1    3    3    0    0 -0.12884789543E+01 -0.48738836171E+01 -0.23367696864E+01  0.55565647982E+01  0.51100000000E-03 0. -1.
        -11    1    3    3    0    0  0.86594969734E+01 -0.13388076300E+02  0.11519771607E+01  0.15986072891E+02  0.51100000000E-03 0.  1.
        -12    1    3    3    0    0  0.15091551662E+02 -0.70490835198E+01  0.23722507563E+02  0.28986235959E+02  0.00000000000E+00 0.  1.
</event>
<event>
 7    1  0.5456331E-013  0.5052890E+02  0.7816164E-02  0.1300439E+00
        -11   -1    0    0    0    0  0.00000000000E+00  0.00000000000E+00  0.45593999997E+02  0.45594000000E+02  0.51100000000E-03 0.  1.
         11   -1    0    0    0    0 -0.00000000000E+00 -0.00000000000E+00 -0.45593999997E+02  0.45594000000E+02  0.51100000000E-03 0. -1.
    9900012    2    1    2    0    0  0.31390566781E+02  0.24430333343E+02  0.84233898951E+01  0.50528900559E+02  0.30000123738E+02 0.  0.
         12    1    1    2    0    0 -0.31390566781E+02 -0.24430333343E+02 -0.84233898951E+01  0.40659099441E+02  0.00000000000E+00 0. -1.
         11    1    3    3    0    0  0.75493730728E+01 -0.46609578208E+01  0.21833548551E+00  0.88749778729E+01  0.51100000000E-03 0. -1.
        -11    1    3    3    0    0  0.10564779885E+02  0.30510292932E+01 -0.91560771248E+00  0.11034568025E+02  0.51100000000E-03 0.  1.
        -12    1    3    3    0    0  0.13276413823E+02  0.26040261870E+02  0.91206621221E+01  0.30619354660E+02  0.00000000000E+00 0.  1.
</event>
<event>
 7    1  0.5456331E-013  0.5052886E+02  0.7816164E-02  0.1300439E+00
        -11   -1    0    0    0    0  0.00000000000E+00  0.00000000000E+00  0.45593999997E+02  0.45594000000E+02  0.51100000000E-03 0. -1.
         11   -1    0    0    0    0 -0.00000000000E+00 -0.00000000000E+00 -0.45593999997E+02  0.45594000000E+02  0.51100000000E-03 0.  1.
    9900012    2    1    2    0    0 -0.32011005113E+02 -0.16428389745E+02 -0.18935914097E+02  0.50528864733E+02  0.30000014844E+02 0.  0.
         12    1    1    2    0    0  0.32011005113E+02  0.16428389745E+02  0.18935914097E+02  0.40659135267E+02  0.00000000000E+00 0. -1.
         11    1    3    3    0    0 -0.18371679281E+01 -0.41726135947E+01 -0.26917156940E+01  0.52944521761E+01  0.51100000000E-03 0.  1.
        -11    1    3    3    0    0 -0.16588783320E+02 -0.16674783889E+02  0.10760485742E+00  0.23521218694E+02  0.51100000000E-03 0. -1.
        -12    1    3    3    0    0 -0.13585053865E+02  0.44190077384E+01 -0.16351803260E+02  0.21713193864E+02  0.00000000000E+00 0.  1.
</event>
<event>
 7    1  0.5456331E-013  0.5052886E+02  0.7816164E-02  0.1300439E+00
        -11   -1    0    0    0    0  0.00000000000E+00  0.00000000000E+00  0.45593999997E+02  0.45594000000E+02  0.51100000000E-03 0.  1.
         11   -1    0    0    0    0 -0.00000000000E+00 -0.00000000000E+00 -0.45593999997E+02  0.45594000000E+02  0.51100000000E-03 0. -1.
    9900012    2    1    2    0    0 -0.34124891862E+02  0.34457406857E+01  0.21835392990E+02  0.50528858832E+02  0.29999996906E+02 0.  0.
         12    1    1    2    0    0  0.34124891862E+02 -0.34457406857E+01 -0.21835392990E+02  0.40659141168E+02  0.00000000000E+00 0. -1.
         11    1    3    3    0    0 -0.11209613526E+02  0.10967230210E+02  0.10102108946E+02  0.18654441276E+02  0.51100000000E-03 0. -1.
        -11    1    3    3    0    0 -0.17486524598E+02  0.25886944701E+01  0.98782957607E+01  0.20249953308E+02  0.51100000000E-03 0.  1.
        -12    1    3    3    0    0 -0.54287537383E+01 -0.10110183994E+02  0.18549882832E+01  0.11624464249E+02  0.00000000000E+00 0.  1.
</event>
<event>
 7    1  0.5456331E-013  0.5052886E+02  0.7816164E-02  0.1300439E+00
        -11   -1    0    0    0    0  0.00000000000E+00  0.00000000000E+00  0.45593999997E+02  0.45594000000E+02  0.51100000000E-03 0. -1.
         11   -1    0    0    0    0 -0.00000000000E+00 -0.00000000000E+00 -0.45593999997E+02  0.45594000000E+02  0.51100000000E-03 0.  1.
    9900012    2    1    2    0    0 -0.57872631038E+01  0.33298321677E+02 -0.22602982480E+02  0.50528862556E+02  0.30000008225E+02 0.  0.
         12    1    1    2    0    0  0.57872631038E+01 -0.33298321677E+02  0.22602982480E+02  0.40659137444E+02  0.00000000000E+00 0. -1.
         11    1    3    3    0    0  0.50740343572E+01  0.13079119905E+02 -0.17921062292E+02  0.22759035043E+02  0.51100000000E-03 0. -1.
        -11    1    3    3    0    0 -0.23740744248E+01  0.10878039388E+02 -0.91187469648E+01  0.14391647465E+02  0.51100000000E-03 0.  1.
         12    1    3    3    0    0 -0.84872230361E+01  0.93411623835E+01  0.44368267768E+01  0.13378180048E+02  0.00000000000E+00 0. -1.
</event>
<event>
 7    1  0.5456331E-013  0.5052886E+02  0.7816164E-02  0.1300439E+00
        -11   -1    0    0    0    0  0.00000000000E+00  0.00000000000E+00  0.45593999997E+02  0.45594000000E+02  0.51100000000E-03 0.  1.
         11   -1    0    0    0    0 -0.00000000000E+00 -0.00000000000E+00 -0.45593999997E+02  0.45594000000E+02  0.51100000000E-03 0. -1.
    9900012    2    1    2    0    0  0.30485919650E+02  0.13427566244E+02  0.23312543700E+02  0.50528861717E+02  0.30000005675E+02 0.  0.
         12    1    1    2    0    0 -0.30485919650E+02 -0.13427566244E+02 -0.23312543700E+02  0.40659138283E+02  0.00000000000E+00 0. -1.
         11    1    3    3    0    0  0.35492035859E-01 -0.11573134307E+01  0.91884361557E+01  0.92611010852E+01  0.51100000000E-03 0. -1.
        -11    1    3    3    0    0 -0.14663682178E+01  0.20966638522E+01  0.52873951994E+01  0.58739069890E+01  0.51100000000E-03 0.  1.
         12    1    3    3    0    0  0.31916795832E+02  0.12488215822E+02  0.88367123447E+01  0.35393853643E+02  0.00000000000E+00 0. -1.
</event>
<event>
 7    1  0.5456331E-013  0.5052886E+02  0.7816164E-02  0.1300439E+00
        -11   -1    0    0    0    0  0.00000000000E+00  0.00000000000E+00  0.45593999997E+02  0.45594000000E+02  0.51100000000E-03 0.  1.
         11   -1    0    0    0    0 -0.00000000000E+00 -0.00000000000E+00 -0.45593999997E+02  0.45594000000E+02  0.51100000000E-03 0. -1.
    9900012    2    1    2    0    0  0.39952853865E+02 -0.69722731986E+01  0.28849305414E+01  0.50528856505E+02  0.29999989833E+02 0.  0.
         12    1    1    2    0    0 -0.39952853865E+02  0.69722731986E+01 -0.28849305414E+01  0.40659143495E+02  0.00000000000E+00 0. -1.
         11    1    3    3    0    0 -0.84266753721E+00 -0.41620212985E+01 -0.40907789440E+01  0.58963533219E+01  0.51100000000E-03 0. -1.
        -11    1    3    3    0    0 -0.14628758251E+01  0.60901399337E+00  0.84261750312E+00  0.17946888982E+01  0.51100000000E-03 0.  1.
        -12    1    3    3    0    0  0.42258397227E+02 -0.34192658935E+01  0.61330919823E+01  0.42837814285E+02  0.00000000000E+00 0.  1.
</event>
<event>
 7    1  0.5456331E-013  0.5052881E+02  0.7816164E-02  0.1300439E+00
        -11   -1    0    0    0    0  0.00000000000E+00  0.00000000000E+00  0.45593999997E+02  0.45594000000E+02  0.51100000000E-03 0. -1.
         11   -1    0    0    0    0 -0.00000000000E+00 -0.00000000000E+00 -0.45593999997E+02  0.45594000000E+02  0.51100000000E-03 0.  1.
    9900012    2    1    2    0    0  0.20622453767E+01 -0.36811110841E+02 -0.17142306365E+02  0.50528814016E+02  0.29999860682E+02 0.  0.
         12    1    1    2    0    0 -0.20622453767E+01  0.36811110841E+02  0.17142306365E+02  0.40659185984E+02  0.00000000000E+00 0. -1.
         11    1    3    3    0    0  0.47368444256E+00  0.48601396228E+00  0.58082548119E+00  0.89327768548E+00  0.51100000000E-03 0. -1.
        -11    1    3    3    0    0 -0.25044377214E+01 -0.37261045668E+02 -0.67847843735E+01  0.37956435974E+02  0.51100000000E-03 0.  1.
        -12    1    3    3    0    0  0.40929986556E+01 -0.36079135675E-01 -0.10938347473E+02  0.11679100357E+02  0.00000000000E+00 0.  1.
</event>
<event>
 7    1  0.5456331E-013  0.5052886E+02  0.7816164E-02  0.1300439E+00
        -11   -1    0    0    0    0  0.00000000000E+00  0.00000000000E+00  0.45593999997E+02  0.45594000000E+02  0.51100000000E-03 0.  1.
         11   -1    0    0    0    0 -0.00000000000E+00 -0.00000000000E+00 -0.45593999997E+02  0.45594000000E+02  0.51100000000E-03 0. -1.
    9900012    2    1    2    0    0 -0.43857644652E+01 -0.33343768403E+02  0.22850037853E+02  0.50528855258E+02  0.29999986043E+02 0.  0.
         12    1    1    2    0    0  0.43857644652E+01  0.33343768403E+02 -0.22850037853E+02  0.40659144742E+02  0.00000000000E+00 0. -1.
         11    1    3    3    0    0 -0.75851178724E+01 -0.34563431156E+01  0.50064522847E+01  0.97234194402E+01  0.51100000000E-03 0. -1.
        -11    1    3    3    0    0 -0.34085744569E+01 -0.21996359146E+02  0.25968260470E+01  0.22409857235E+02  0.51100000000E-03 0.  1.
         12    1    3    3    0    0  0.66079278640E+01 -0.78910661409E+01  0.15246759521E+02  0.18395578583E+02  0.00000000000E+00 0. -1.
</event>
<event>
 7    1  0.5456331E-013  0.5052889E+02  0.7816164E-02  0.1300439E+00
        -11   -1    0    0    0    0  0.00000000000E+00  0.00000000000E+00  0.45593999997E+02  0.45594000000E+02  0.51100000000E-03 0.  1.
         11   -1    0    0    0    0 -0.00000000000E+00 -0.00000000000E+00 -0.45593999997E+02  0.45594000000E+02  0.51100000000E-03 0. -1.
    9900012    2    1    2    0    0  0.31104399542E+01 -0.17350857377E+02  0.36639272079E+02  0.50528888513E+02  0.30000087124E+02 0.  0.
         12    1    1    2    0    0 -0.31104399542E+01  0.17350857377E+02 -0.36639272079E+02  0.40659111487E+02  0.00000000000E+00 0. -1.
         11    1    3    3    0    0  0.34077102284E+01 -0.83865695333E+01  0.94528828911E+01  0.13088316651E+02  0.51100000000E-03 0. -1.
        -11    1    3    3    0    0  0.89551838297E+01 -0.12618550176E+02  0.19355633806E+02  0.24780308438E+02  0.51100000000E-03 0.  1.
        -12    1    3    3    0    0 -0.92524541039E+01  0.36542623322E+01  0.78307553816E+01  0.12660263425E+02  0.00000000000E+00 0.  1.
</event>
<event>
 7    1  0.5456331E-013  0.5052881E+02  0.7816164E-02  0.1300439E+00
        -11   -1    0    0    0    0  0.00000000000E+00  0.00000000000E+00  0.45593999997E+02  0.45594000000E+02  0.51100000000E-03 0.  1.
         11   -1    0    0    0    0 -0.00000000000E+00 -0.00000000000E+00 -0.45593999997E+02  0.45594000000E+02  0.51100000000E-03 0. -1.
    9900012    2    1    2    0    0 -0.23205182972E+02 -0.26457986289E+02 -0.20363303657E+02  0.50528810496E+02  0.29999849984E+02 0.  0.
         12    1    1    2    0    0  0.23205182972E+02  0.26457986289E+02  0.20363303657E+02  0.40659189504E+02  0.00000000000E+00 0. -1.
         11    1    3    3    0    0 -0.11758444877E+02 -0.28214020654E+01 -0.24041337717E+01  0.12328876469E+02  0.51100000000E-03 0.  1.
        -11    1    3    3    0    0 -0.16937623887E+02 -0.12318077262E+02 -0.13164850619E+02  0.24737247673E+02  0.51100000000E-03 0. -1.
        -12    1    3    3    0    0  0.54908857919E+01 -0.11318506962E+02 -0.47943192673E+01  0.13462686354E+02  0.00000000000E+00 0.  1.
</event>
<event>
 7    1  0.5456331E-013  0.5052886E+02  0.7816164E-02  0.1300439E+00
        -11   -1    0    0    0    0  0.00000000000E+00  0.00000000000E+00  0.45593999997E+02  0.45594000000E+02  0.51100000000E-03 0.  1.
         11   -1    0    0    0    0 -0.00000000000E+00 -0.00000000000E+00 -0.45593999997E+02  0.45594000000E+02  0.51100000000E-03 0. -1.
    9900012    2    1    2    0    0  0.13245165312E+02  0.25802841071E+02  0.28494647998E+02  0.50528856182E+02  0.29999988851E+02 0.  0.
         12    1    1    2    0    0 -0.13245165312E+02 -0.25802841071E+02 -0.28494647998E+02  0.40659143818E+02  0.00000000000E+00 0. -1.
         11    1    3    3    0    0  0.10350015646E+02  0.14820508975E+02  0.18346970497E+02  0.25756196086E+02  0.51100000000E-03 0. -1.
        -11    1    3    3    0    0  0.69260543684E+01  0.86212753793E+01  0.14602566826E+02  0.18317521024E+02  0.51100000000E-03 0.  1.
         12    1    3    3    0    0 -0.40309047026E+01  0.23610567168E+01 -0.44548893251E+01  0.64551390721E+01  0.00000000000E+00 0. -1.
</event>
<event>
 7    1  0.5456331E-013  0.5052888E+02  0.7816164E-02  0.1300439E+00
        -11   -1    0    0    0    0  0.00000000000E+00  0.00000000000E+00  0.45593999997E+02  0.45594000000E+02  0.51100000000E-03 0.  1.
         11   -1    0    0    0    0 -0.00000000000E+00 -0.00000000000E+00 -0.45593999997E+02  0.45594000000E+02  0.51100000000E-03 0. -1.
    9900012    2    1    2    0    0  0.72050628898E+01 -0.22991154580E+02  0.32751456754E+02  0.50528879994E+02  0.30000061228E+02 0.  0.
         12    1    1    2    0    0 -0.72050628898E+01  0.22991154580E+02 -0.32751456754E+02  0.40659120006E+02  0.00000000000E+00 0. -1.
         11    1    3    3    0    0  0.14185504437E+01 -0.13456588837E+02  0.15924987664E+01  0.13624541133E+02  0.51100000000E-03 0.  1.
        -11    1    3    3    0    0 -0.13910071712E+01 -0.33932009712E+01 -0.64820253163E+00  0.37240945966E+01  0.51100000000E-03 0. -1.
        -12    1    3    3    0    0  0.71775196173E+01 -0.61413647718E+01  0.31807160519E+02  0.33180244264E+02  0.00000000000E+00 0.  1.
</event>
<event>
 7    1  0.5456331E-013  0.5052886E+02  0.7816164E-02  0.1300439E+00
        -11   -1    0    0    0    0  0.00000000000E+00  0.00000000000E+00  0.45593999997E+02  0.45594000000E+02  0.51100000000E-03 0.  1.
         11   -1    0    0    0    0 -0.00000000000E+00 -0.00000000000E+00 -0.45593999997E+02  0.45594000000E+02  0.51100000000E-03 0. -1.
    9900012    2    1    2    0    0  0.99742338752E+01  0.21741722082E+02  0.32878228536E+02  0.50528859181E+02  0.29999997966E+02 0.  0.
         12    1    1    2    0    0 -0.99742338752E+01 -0.21741722082E+02 -0.32878228536E+02  0.40659140819E+02  0.00000000000E+00 0. -1.
         11    1    3    3    0    0  0.11968979103E+02  0.18822217200E+02  0.11978078987E+02  0.25318110071E+02  0.51100000000E-03 0. -1.
        -11    1    3    3    0    0  0.38056688157E+01  0.25832498188E+01  0.13178296947E+01  0.47846598757E+01  0.51100000000E-03 0.  1.
         12    1    3    3    0    0 -0.58004140438E+01  0.33625506394E+00  0.19582319854E+02  0.20426089234E+02  0.00000000000E+00 0. -1.
</event>
<event>
 7    1  0.5456331E-013  0.5052886E+02  0.7816164E-02  0.1300439E+00
        -11   -1    0    0    0    0  0.00000000000E+00  0.00000000000E+00  0.45593999997E+02  0.45594000000E+02  0.51100000000E-03 0.  1.
         11   -1    0    0    0    0 -0.00000000000E+00 -0.00000000000E+00 -0.45593999997E+02  0.45594000000E+02  0.51100000000E-03 0. -1.
    9900012    2    1    2    0    0 -0.25952127825E+02 -0.20383449516E+01  0.31232960537E+02  0.50528860650E+02  0.30000002432E+02 0.  0.
         12    1    1    2    0    0  0.25952127825E+02  0.20383449516E+01 -0.31232960537E+02  0.40659139350E+02  0.00000000000E+00 0. -1.
         11    1    3    3    0    0  0.18099277197E+01 -0.58501967445E+01  0.10262319311E+02  0.11950558070E+02  0.51100000000E-03 0. -1.
        -11    1    3    3    0    0 -0.42958883916E+01 -0.47478220992E+00  0.12562760376E+02  0.13285444056E+02  0.51100000000E-03 0.  1.
        -12    1    3    3    0    0 -0.23466167153E+02  0.42866340028E+01  0.84078808502E+01  0.25292858524E+02  0.00000000000E+00 0.  1.
</event>
<event>
 7    1  0.5456331E-013  0.5052886E+02  0.7816164E-02  0.1300439E+00
        -11   -1    0    0    0    0  0.00000000000E+00  0.00000000000E+00  0.45593999997E+02  0.45594000000E+02  0.51100000000E-03 0. -1.
         11   -1    0    0    0    0 -0.00000000000E+00 -0.00000000000E+00 -0.45593999997E+02  0.45594000000E+02  0.51100000000E-03 0.  1.
    9900012    2    1    2    0    0  0.22228122988E+01 -0.10984640216E+01 -0.40583471258E+02  0.50528860104E+02  0.30000000773E+02 0.  0.
         12    1    1    2    0    0 -0.22228122988E+01  0.10984640216E+01  0.40583471258E+02  0.40659139896E+02  0.00000000000E+00 0. -1.
         11    1    3    3    0    0  0.51172441774E+01 -0.85236828000E+01 -0.90868914316E+01  0.13468888321E+02  0.51100000000E-03 0. -1.
        -11    1    3    3    0    0  0.51814671162E+01  0.81817844837E+01 -0.92960812840E+01  0.13424094990E+02  0.51100000000E-03 0.  1.
        -12    1    3    3    0    0 -0.80758989949E+01 -0.75656570528E+00 -0.22200498542E+02  0.23635876793E+02  0.00000000000E+00 0.  1.
</event>
<event>
 7    1  0.5456331E-013  0.5052884E+02  0.7816164E-02  0.1300439E+00
        -11   -1    0    0    0    0  0.00000000000E+00  0.00000000000E+00  0.45593999997E+02  0.45594000000E+02  0.51100000000E-03 0.  1.
         11   -1    0    0    0    0 -0.00000000000E+00 -0.00000000000E+00 -0.45593999997E+02  0.45594000000E+02  0.51100000000E-03 0. -1.
    9900012    2    1    2    0    0  0.15758050605E+02  0.37426562408E+02 -0.20257677602E+01  0.50528837840E+02  0.29999933097E+02 0.  0.
         12    1    1    2    0    0 -0.15758050605E+02 -0.37426562408E+02  0.20257677602E+01  0.40659162160E+02  0.00000000000E+00 0. -1.
         11    1    3    3    0    0  0.11243794433E+02  0.19342595158E+02  0.80686534848E+01  0.23783651318E+02  0.51100000000E-03 0. -1.
        -11    1    3    3    0    0  0.71377376399E+01  0.12047153506E+02  0.79010767316E+00  0.14025172962E+02  0.51100000000E-03 0.  1.
         12    1    3    3    0    0 -0.26234814677E+01  0.60368137445E+01 -0.10884528918E+02  0.12720013560E+02  0.00000000000E+00 0. -1.
</event>
<event>
 7    1  0.5456331E-013  0.5052886E+02  0.7816164E-02  0.1300439E+00
        -11   -1    0    0    0    0  0.00000000000E+00  0.00000000000E+00  0.45593999997E+02  0.45594000000E+02  0.51100000000E-03 0. -1.
         11   -1    0    0    0    0 -0.00000000000E+00 -0.00000000000E+00 -0.45593999997E+02  0.45594000000E+02  0.51100000000E-03 0.  1.
    9900012    2    1    2    0    0 -0.76970861125E+01  0.35635992704E+02 -0.17999906665E+02  0.50528858955E+02  0.29999997278E+02 0.  0.
         12    1    1    2    0    0  0.76970861125E+01 -0.35635992704E+02  0.17999906665E+02  0.40659141045E+02  0.00000000000E+00 0. -1.
         11    1    3    3    0    0 -0.60211697406E+01  0.94941513849E+01  0.62071563235E+01  0.12842203294E+02  0.51100000000E-03 0. -1.
        -11    1    3    3    0    0 -0.36681975010E+01  0.20594620325E+02 -0.11963261762E+02  0.24098001816E+02  0.51100000000E-03 0.  1.
        -12    1    3    3    0    0  0.19922811291E+01  0.55472209933E+01 -0.12243801226E+02  0.13588653845E+02  0.00000000000E+00 0.  1.
</event>
<event>
 7    1  0.5456331E-013  0.5052885E+02  0.7816164E-02  0.1300439E+00
        -11   -1    0    0    0    0  0.00000000000E+00  0.00000000000E+00  0.45593999997E+02  0.45594000000E+02  0.51100000000E-03 0. -1.
         11   -1    0    0    0    0 -0.00000000000E+00 -0.00000000000E+00 -0.45593999997E+02  0.45594000000E+02  0.51100000000E-03 0.  1.
    9900012    2    1    2    0    0  0.16465799501E+02 -0.34167672944E+02  0.14649717924E+02  0.50528847735E+02  0.29999963175E+02 0.  0.
         12    1    1    2    0    0 -0.16465799501E+02  0.34167672944E+02 -0.14649717924E+02  0.40659152265E+02  0.00000000000E+00 0. -1.
         11    1    3    3    0    0 -0.66772662076E+01 -0.29975347551E+01  0.32490472107E+01  0.80079589568E+01  0.51100000000E-03 0. -1.
        -11    1    3    3    0    0  0.77240806643E+00 -0.10088656055E+02  0.41653567285E+01  0.10942019564E+02  0.51100000000E-03 0.  1.
        -12    1    3    3    0    0  0.22370657642E+02 -0.21081482135E+02  0.72353139850E+01  0.31578869214E+02  0.00000000000E+00 0.  1.
</event>
<event>
 7    1  0.5456331E-013  0.5052886E+02  0.7816164E-02  0.1300439E+00
        -11   -1    0    0    0    0  0.00000000000E+00  0.00000000000E+00  0.45593999997E+02  0.45594000000E+02  0.51100000000E-03 0. -1.
         11   -1    0    0    0    0 -0.00000000000E+00 -0.00000000000E+00 -0.45593999997E+02  0.45594000000E+02  0.51100000000E-03 0.  1.
    9900012    2    1    2    0    0  0.29393644466E+02  0.16626602503E+02 -0.22643663924E+02  0.50528858817E+02  0.29999996861E+02 0.  0.
         12    1    1    2    0    0 -0.29393644466E+02 -0.16626602503E+02  0.22643663924E+02  0.40659141183E+02  0.00000000000E+00 0. -1.
         11    1    3    3    0    0  0.16190421714E+02  0.17515137473E+02 -0.18096442377E+02  0.29939789961E+02  0.51100000000E-03 0. -1.
        -11    1    3    3    0    0  0.87320823266E+01  0.46476414018E+01 -0.79599297669E+01  0.12696862389E+02  0.51100000000E-03 0.  1.
        -12    1    3    3    0    0  0.44711404262E+01 -0.55361763715E+01  0.34127082199E+01  0.78922064672E+01  0.00000000000E+00 0.  1.
</event>
<event>
 7    1  0.5456331E-013  0.5052886E+02  0.7816164E-02  0.1300439E+00
        -11   -1    0    0    0    0  0.00000000000E+00  0.00000000000E+00  0.45593999997E+02  0.45594000000E+02  0.51100000000E-03 0. -1.
         11   -1    0    0    0    0 -0.00000000000E+00 -0.00000000000E+00 -0.45593999997E+02  0.45594000000E+02  0.51100000000E-03 0.  1.
    9900012    2    1    2    0    0  0.23697611252E+02 -0.22911732445E+02 -0.23804237481E+02  0.50528856075E+02  0.29999988524E+02 0.  0.
         12    1    1    2    0    0 -0.23697611252E+02  0.22911732445E+02  0.23804237481E+02  0.40659143925E+02  0.00000000000E+00 0. -1.
         11    1    3    3    0    0  0.56783683920E+01 -0.32796885468E+00  0.28230351234E+01  0.63498786393E+01  0.51100000000E-03 0. -1.
        -11    1    3    3    0    0 -0.20460696377E+01  0.23960055216E+01 -0.31695617869E+01  0.44691571469E+01  0.51100000000E-03 0.  1.
         12    1    3    3    0    0  0.20065312498E+02 -0.24979769112E+02 -0.23457710818E+02  0.39709820288E+02  0.00000000000E+00 0. -1.
</event>
<event>
 7    1  0.5456331E-013  0.5052886E+02  0.7816164E-02  0.1300439E+00
        -11   -1    0    0    0    0  0.00000000000E+00  0.00000000000E+00  0.45593999997E+02  0.45594000000E+02  0.51100000000E-03 0. -1.
         11   -1    0    0    0    0 -0.00000000000E+00 -0.00000000000E+00 -0.45593999997E+02  0.45594000000E+02  0.51100000000E-03 0.  1.
    9900012    2    1    2    0    0 -0.20593307145E+02 -0.26806280528E+02 -0.22594356865E+02  0.50528856661E+02  0.29999990307E+02 0.  0.
         12    1    1    2    0    0  0.20593307145E+02  0.26806280528E+02  0.22594356865E+02  0.40659143339E+02  0.00000000000E+00 0. -1.
         11    1    3    3    0    0  0.86687084348E+00 -0.47323166656E+00  0.79322948403E+00  0.12667385464E+01  0.51100000000E-03 0. -1.
        -11    1    3    3    0    0 -0.35405433998E+01  0.52360725422E+01 -0.70078832829E+01  0.94372841221E+01  0.51100000000E-03 0.  1.
        -12    1    3    3    0    0 -0.17919634589E+02 -0.31569121404E+02 -0.16379703066E+02  0.39824833993E+02  0.00000000000E+00 0.  1.
</event>
<event>
 7    1  0.5456331E-013  0.5052886E+02  0.7816164E-02  0.1300439E+00
        -11   -1    0    0    0    0  0.00000000000E+00  0.00000000000E+00  0.45593999997E+02  0.45594000000E+02  0.51100000000E-03 0.  1.
         11   -1    0    0    0    0 -0.00000000000E+00 -0.00000000000E+00 -0.45593999997E+02  0.45594000000E+02  0.51100000000E-03 0. -1.
    9900012    2    1    2    0    0 -0.26638853825E+02  0.24988231356E+02  0.17864075510E+02  0.50528862857E+02  0.30000009140E+02 0.  0.
         12    1    1    2    0    0  0.26638853825E+02 -0.24988231356E+02 -0.17864075510E+02  0.40659137143E+02  0.00000000000E+00 0. -1.
         11    1    3    3    0    0 -0.73669358133E+01  0.16406409349E+02  0.82730119629E+01  0.19796078859E+02  0.51100000000E-03 0. -1.
        -11    1    3    3    0    0 -0.17733961781E+02  0.98178701856E+01  0.14842196584E+02  0.25123191977E+02  0.51100000000E-03 0.  1.
        -12    1    3    3    0    0 -0.15379562305E+01 -0.12360481791E+01 -0.52511330363E+01  0.56095920202E+01  0.00000000000E+00 0.  1.
</event>
<event>
 7    1  0.5456331E-013  0.5052886E+02  0.7816164E-02  0.1300439E+00
        -11   -1    0    0    0    0  0.00000000000E+00  0.00000000000E+00  0.45593999997E+02  0.45594000000E+02  0.51100000000E-03 0.  1.
         11   -1    0    0    0    0 -0.00000000000E+00 -0.00000000000E+00 -0.45593999997E+02  0.45594000000E+02  0.51100000000E-03 0. -1.
    9900012    2    1    2    0    0  0.31678025888E+02 -0.20780235484E+02  0.14759755685E+02  0.50528857131E+02  0.29999991737E+02 0.  0.
         12    1    1    2    0    0 -0.31678025888E+02  0.20780235484E+02 -0.14759755685E+02  0.40659142869E+02  0.00000000000E+00 0. -1.
         11    1    3    3    0    0  0.94552867649E+01  0.17451871907E+01 -0.50771687585E+01  0.10873167386E+02  0.51100000000E-03 0. -1.
        -11    1    3    3    0    0  0.35656312475E+01 -0.13752309257E+01 -0.16871257372E+01  0.41774848661E+01  0.51100000000E-03 0.  1.
        -12    1    3    3    0    0  0.18657107876E+02 -0.21150191749E+02  0.21524050181E+02  0.35478204880E+02  0.00000000000E+00 0.  1.
</event>
<event>
 7    1  0.5456331E-013  0.5052885E+02  0.7816164E-02  0.1300439E+00
        -11   -1    0    0    0    0  0.00000000000E+00  0.00000000000E+00  0.45593999997E+02  0.45594000000E+02  0.51100000000E-03 0.  1.
         11   -1    0    0    0    0 -0.00000000000E+00 -0.00000000000E+00 -0.45593999997E+02  0.45594000000E+02  0.51100000000E-03 0. -1.
    9900012    2    1    2    0    0  0.15706475716E+02  0.64920069008E+01  0.36936800234E+02  0.50528846731E+02  0.29999960123E+02 0.  0.
         12    1    1    2    0    0 -0.15706475716E+02 -0.64920069008E+01 -0.36936800234E+02  0.40659153269E+02  0.00000000000E+00 0. -1.
         11    1    3    3    0    0  0.53915943671E+01  0.10189373886E+02  0.54910058070E+00  0.11540976636E+02  0.51100000000E-03 0. -1.
        -11    1    3    3    0    0  0.46822264188E+01 -0.18587731153E+01  0.51913998843E+01  0.72338727353E+01  0.51100000000E-03 0.  1.
        -12    1    3    3    0    0  0.56326549304E+01 -0.18385938702E+01  0.31196299769E+02  0.31753997359E+02  0.00000000000E+00 0.  1.
</event>
<event>
 7    1  0.5456331E-013  0.5052886E+02  0.7816164E-02  0.1300439E+00
        -11   -1    0    0    0    0  0.00000000000E+00  0.00000000000E+00  0.45593999997E+02  0.45594000000E+02  0.51100000000E-03 0.  1.
         11   -1    0    0    0    0 -0.00000000000E+00 -0.00000000000E+00 -0.45593999997E+02  0.45594000000E+02  0.51100000000E-03 0. -1.
    9900012    2    1    2    0    0 -0.31006019858E+02 -0.16634241073E+02  0.20373862839E+02  0.50528861661E+02  0.30000005504E+02 0.  0.
         12    1    1    2    0    0  0.31006019858E+02  0.16634241073E+02 -0.20373862839E+02  0.40659138339E+02  0.00000000000E+00 0. -1.
         11    1    3    3    0    0 -0.12934217405E+02 -0.10260437885E+02 -0.32410761856E+01  0.16824837015E+02  0.51100000000E-03 0. -1.
        -11    1    3    3    0    0  0.17724844035E+01  0.18023433500E+01  0.32491576355E+01  0.41166938329E+01  0.51100000000E-03 0.  1.
        -12    1    3    3    0    0 -0.19844286857E+02 -0.81761465385E+01  0.20365781389E+02  0.29587330813E+02  0.00000000000E+00 0.  1.
</event>
<event>
 7    1  0.5456331E-013  0.5052887E+02  0.7816164E-02  0.1300439E+00
        -11   -1    0    0    0    0  0.00000000000E+00  0.00000000000E+00  0.45593999997E+02  0.45594000000E+02  0.51100000000E-03 0.  1.
         11   -1    0    0    0    0 -0.00000000000E+00 -0.00000000000E+00 -0.45593999997E+02  0.45594000000E+02  0.51100000000E-03 0. -1.
    9900012    2    1    2    0    0  0.15478357238E+02 -0.19357302885E+02  0.32231667990E+02  0.50528866473E+02  0.30000020133E+02 0.  0.
         12    1    1    2    0    0 -0.15478357238E+02  0.19357302885E+02 -0.32231667990E+02  0.40659133527E+02  0.00000000000E+00 0. -1.
         11    1    3    3    0    0  0.13488384126E+01  0.21468775145E+01  0.14090028642E+01  0.29006443177E+01  0.51100000000E-03 0. -1.
        -11    1    3    3    0    0  0.18692751595E+02 -0.57531920796E+01  0.13438429213E+02  0.23729929652E+02  0.51100000000E-03 0.  1.
        -12    1    3    3    0    0 -0.45632327699E+01 -0.15750988320E+02  0.17384235912E+02  0.23898292504E+02  0.00000000000E+00 0.  1.
</event>
<event>
 7    1  0.5456331E-013  0.5052886E+02  0.7816164E-02  0.1300439E+00
        -11   -1    0    0    0    0  0.00000000000E+00  0.00000000000E+00  0.45593999997E+02  0.45594000000E+02  0.51100000000E-03 0. -1.
         11   -1    0    0    0    0 -0.00000000000E+00 -0.00000000000E+00 -0.45593999997E+02  0.45594000000E+02  0.51100000000E-03 0.  1.
    9900012    2    1    2    0    0 -0.18940772589E+02  0.26856974837E+01  0.35877569686E+02  0.50528857808E+02  0.29999993793E+02 0.  0.
         12    1    1    2    0    0  0.18940772589E+02 -0.26856974837E+01 -0.35877569686E+02  0.40659142192E+02  0.00000000000E+00 0. -1.
         11    1    3    3    0    0 -0.11681065224E+02  0.26068027924E-02  0.13623992611E+02  0.17946043198E+02  0.51100000000E-03 0. -1.
        -11    1    3    3    0    0 -0.13490606213E+02 -0.25944649731E+00  0.21849719693E+02  0.25680226234E+02  0.51100000000E-03 0.  1.
         12    1    3    3    0    0  0.62308988478E+01  0.29425371782E+01  0.40385738162E+00  0.69025883755E+01  0.00000000000E+00 0. -1.
</event>
<event>
 7    1  0.5456331E-013  0.5052886E+02  0.7816164E-02  0.1300439E+00
        -11   -1    0    0    0    0  0.00000000000E+00  0.00000000000E+00  0.45593999997E+02  0.45594000000E+02  0.51100000000E-03 0.  1.
         11   -1    0    0    0    0 -0.00000000000E+00 -0.00000000000E+00 -0.45593999997E+02  0.45594000000E+02  0.51100000000E-03 0. -1.
    9900012    2    1    2    0    0 -0.34346886260E+02 -0.80799977925E+01  0.20203227393E+02  0.50528863792E+02  0.30000011983E+02 0.  0.
         12    1    1    2    0    0  0.34346886260E+02  0.80799977925E+01 -0.20203227393E+02  0.40659136208E+02  0.00000000000E+00 0. -1.
         11    1    3    3    0    0 -0.12734771340E+02 -0.19217559358E+01  0.92334591571E-01  0.12879288525E+02  0.51100000000E-03 0. -1.
        -11    1    3    3    0    0 -0.17196947380E+02 -0.99947322719E+00  0.87250250769E+00  0.17248049362E+02  0.51100000000E-03 0.  1.
         12    1    3    3    0    0 -0.44151675397E+01 -0.51587686295E+01  0.19238390294E+02  0.20401525905E+02  0.00000000000E+00 0. -1.
</event>
<event>
 7    1  0.5456331E-013  0.5052885E+02  0.7816164E-02  0.1300439E+00
        -11   -1    0    0    0    0  0.00000000000E+00  0.00000000000E+00  0.45593999997E+02  0.45594000000E+02  0.51100000000E-03 0. -1.
         11   -1    0    0    0    0 -0.00000000000E+00 -0.00000000000E+00 -0.45593999997E+02  0.45594000000E+02  0.51100000000E-03 0.  1.
    9900012    2    1    2    0    0  0.87376197399E+01 -0.39192845991E+02 -0.63828989187E+01  0.50528848826E+02  0.29999966492E+02 0.  0.
         12    1    1    2    0    0 -0.87376197399E+01  0.39192845991E+02  0.63828989187E+01  0.40659151174E+02  0.00000000000E+00 0. -1.
         11    1    3    3    0    0 -0.42032889076E+01 -0.50465362171E+01 -0.92825861696E+01  0.11371084895E+02  0.51100000000E-03 0. -1.
        -11    1    3    3    0    0 -0.13220416042E+01 -0.54288782165E+01 -0.33147143123E+01  0.64967564158E+01  0.51100000000E-03 0.  1.
        -12    1    3    3    0    0  0.14262950252E+02 -0.28717431557E+02  0.62144015632E+01  0.32661007515E+02  0.00000000000E+00 0.  1.
</event>
<event>
 7    1  0.5456331E-013  0.5052884E+02  0.7816164E-02  0.1300439E+00
        -11   -1    0    0    0    0  0.00000000000E+00  0.00000000000E+00  0.45593999997E+02  0.45594000000E+02  0.51100000000E-03 0.  1.
         11   -1    0    0    0    0 -0.00000000000E+00 -0.00000000000E+00 -0.45593999997E+02  0.45594000000E+02  0.51100000000E-03 0. -1.
    9900012    2    1    2    0    0  0.24980161287E+02  0.20056709454E+02  0.25037708588E+02  0.50528844778E+02  0.29999954187E+02 0.  0.
         12    1    1    2    0    0 -0.24980161287E+02 -0.20056709454E+02 -0.25037708588E+02  0.40659155222E+02  0.00000000000E+00 0. -1.
         11    1    3    3    0    0  0.16260935565E+02  0.14636411024E+02  0.20816432161E+02  0.30198781454E+02  0.51100000000E-03 0. -1.
        -11    1    3    3    0    0  0.63389385810E+01  0.11284789308E+02  0.51556708966E+01  0.13932320507E+02  0.51100000000E-03 0.  1.
         12    1    3    3    0    0  0.23802871409E+01 -0.58644908778E+01 -0.93439447000E+00  0.63977428171E+01  0.00000000000E+00 0. -1.
</event>
<event>
 7    1  0.5456331E-013  0.5052886E+02  0.7816164E-02  0.1300439E+00
        -11   -1    0    0    0    0  0.00000000000E+00  0.00000000000E+00  0.45593999997E+02  0.45594000000E+02  0.51100000000E-03 0.  1.
         11   -1    0    0    0    0 -0.00000000000E+00 -0.00000000000E+00 -0.45593999997E+02  0.45594000000E+02  0.51100000000E-03 0. -1.
    9900012    2    1    2    0    0 -0.22773516004E+02 -0.30114805065E+02  0.15087445308E+02  0.50528861776E+02  0.30000005853E+02 0.  0.
         12    1    1    2    0    0  0.22773516004E+02  0.30114805065E+02 -0.15087445308E+02  0.40659138224E+02  0.00000000000E+00 0. -1.
         11    1    3    3    0    0  0.86489122935E+00  0.21311831274E+01  0.62246949537E+00  0.23827393678E+01  0.51100000000E-03 0.  1.
        -11    1    3    3    0    0 -0.78641274975E+01 -0.12789076590E+02 -0.56292916067E+01  0.16034148109E+02  0.51100000000E-03 0. -1.
        -12    1    3    3    0    0 -0.15774279735E+02 -0.19456911602E+02  0.20094267419E+02  0.32111974299E+02  0.00000000000E+00 0.  1.
</event>
<event>
 7    1  0.5456331E-013  0.5052887E+02  0.7816164E-02  0.1300439E+00
        -11   -1    0    0    0    0  0.00000000000E+00  0.00000000000E+00  0.45593999997E+02  0.45594000000E+02  0.51100000000E-03 0.  1.
         11   -1    0    0    0    0 -0.00000000000E+00 -0.00000000000E+00 -0.45593999997E+02  0.45594000000E+02  0.51100000000E-03 0. -1.
    9900012    2    1    2    0    0  0.19368663260E+02  0.18291053752E+02  0.30715748969E+02  0.50528868202E+02  0.30000025388E+02 0.  0.
         12    1    1    2    0    0 -0.19368663260E+02 -0.18291053752E+02 -0.30715748969E+02  0.40659131798E+02  0.00000000000E+00 0. -1.
         11    1    3    3    0    0  0.10304778828E+02  0.10716407189E+02  0.27238158252E+02  0.31031389188E+02  0.51100000000E-03 0. -1.
        -11    1    3    3    0    0  0.24686417898E+01  0.40770722060E+01  0.90185736088E+01  0.10200557840E+02  0.51100000000E-03 0.  1.
         12    1    3    3    0    0  0.65952426423E+01  0.34975743568E+01 -0.55409828923E+01  0.92969211734E+01  0.00000000000E+00 0. -1.
</event>
<event>
 7    1  0.5456331E-013  0.5052878E+02  0.7816164E-02  0.1300439E+00
        -11   -1    0    0    0    0  0.00000000000E+00  0.00000000000E+00  0.45593999997E+02  0.45594000000E+02  0.51100000000E-03 0. -1.
         11   -1    0    0    0    0 -0.00000000000E+00 -0.00000000000E+00 -0.45593999997E+02  0.45594000000E+02  0.51100000000E-03 0.  1.
    9900012    2    1    2    0    0  0.19616614138E+02 -0.21909326006E+02 -0.28077428301E+02  0.50528780919E+02  0.29999760081E+02 0.  0.
         12    1    1    2    0    0 -0.19616614138E+02  0.21909326006E+02  0.28077428301E+02  0.40659219081E+02  0.00000000000E+00 0. -1.
         11    1    3    3    0    0 -0.19260662525E+00  0.49624626891E+01 -0.25360190078E+01  0.55762465800E+01  0.51100000000E-03 0. -1.
        -11    1    3    3    0    0  0.55647580870E+01  0.90203350325E+00 -0.53880334484E+01  0.77981473255E+01  0.51100000000E-03 0.  1.
         12    1    3    3    0    0  0.14244462676E+02 -0.27773822198E+02 -0.20153375845E+02  0.37154387014E+02  0.00000000000E+00 0. -1.
</event>
<event>
 7    1  0.5456331E-013  0.5052886E+02  0.7816164E-02  0.1300439E+00
        -11   -1    0    0    0    0  0.00000000000E+00  0.00000000000E+00  0.45593999997E+02  0.45594000000E+02  0.51100000000E-03 0.  1.
         11   -1    0    0    0    0 -0.00000000000E+00 -0.00000000000E+00 -0.45593999997E+02  0.45594000000E+02  0.51100000000E-03 0. -1.
    9900012    2    1    2    0    0 -0.19563479712E+02  0.34876217857E+02  0.73542940930E+01  0.50528856476E+02  0.29999989746E+02 0.  0.
         12    1    1    2    0    0  0.19563479712E+02 -0.34876217857E+02 -0.73542940930E+01  0.40659143524E+02  0.00000000000E+00 0. -1.
         11    1    3    3    0    0 -0.76201085101E+00 -0.13661814143E+01  0.82066860874E+01  0.83544484553E+01  0.51100000000E-03 0.  1.
        -11    1    3    3    0    0  0.95660531729E+00  0.40933766094E+01 -0.14139156911E+01  0.44350855281E+01  0.51100000000E-03 0. -1.
        -12    1    3    3    0    0 -0.19758074178E+02  0.32149022662E+02  0.56152369668E+00  0.37739322493E+02  0.00000000000E+00 0.  1.
</event>
<event>
 7    1  0.5456331E-013  0.5052885E+02  0.7816164E-02  0.1300439E+00
        -11   -1    0    0    0    0  0.00000000000E+00  0.00000000000E+00  0.45593999997E+02  0.45594000000E+02  0.51100000000E-03 0.  1.
         11   -1    0    0    0    0 -0.00000000000E+00 -0.00000000000E+00 -0.45593999997E+02  0.45594000000E+02  0.51100000000E-03 0. -1.
    9900012    2    1    2    0    0  0.79116920843E+01  0.21000183147E+02  0.33905223351E+02  0.50528846856E+02  0.29999960505E+02 0.  0.
         12    1    1    2    0    0 -0.79116920843E+01 -0.21000183147E+02 -0.33905223351E+02  0.40659153144E+02  0.00000000000E+00 0. -1.
         11    1    3    3    0    0  0.31757413825E+01  0.13311116126E+02  0.17678532261E+02  0.22356244072E+02  0.51100000000E-03 0.  1.
        -11    1    3    3    0    0  0.11333425518E+02  0.98073388860E+01  0.14868265053E+02  0.21111507193E+02  0.51100000000E-03 0. -1.
         12    1    3    3    0    0 -0.65974748166E+01 -0.21182718650E+01  0.13584260373E+01  0.70610955913E+01  0.00000000000E+00 0. -1.
</event>
<event>
 7    1  0.5456331E-013  0.5052886E+02  0.7816164E-02  0.1300439E+00
        -11   -1    0    0    0    0  0.00000000000E+00  0.00000000000E+00  0.45593999997E+02  0.45594000000E+02  0.51100000000E-03 0.  1.
         11   -1    0    0    0    0 -0.00000000000E+00 -0.00000000000E+00 -0.45593999997E+02  0.45594000000E+02  0.51100000000E-03 0. -1.
    9900012    2    1    2    0    0 -0.22777078273E+02  0.33315455398E+02  0.49447762877E+01  0.50528859876E+02  0.30000000079E+02 0.  0.
         12    1    1    2    0    0  0.22777078273E+02 -0.33315455398E+02 -0.49447762877E+01  0.40659140124E+02  0.00000000000E+00 0. -1.
         11    1    3    3    0    0 -0.56064606623E+01  0.32907441218E+00 -0.40065612393E+01  0.68987842663E+01  0.51100000000E-03 0. -1.
        -11    1    3    3    0    0 -0.11042991334E+02  0.29934593109E+02 -0.55996165589E+00  0.31911456869E+02  0.51100000000E-03 0.  1.
         12    1    3    3    0    0 -0.61276262768E+01  0.30517878774E+01  0.95112991829E+01  0.11718618740E+02  0.00000000000E+00 0. -1.
</event>
<event>
 7    1  0.5456331E-013  0.5052885E+02  0.7816164E-02  0.1300439E+00
        -11   -1    0    0    0    0  0.00000000000E+00  0.00000000000E+00  0.45593999997E+02  0.45594000000E+02  0.51100000000E-03 0. -1.
         11   -1    0    0    0    0 -0.00000000000E+00 -0.00000000000E+00 -0.45593999997E+02  0.45594000000E+02  0.51100000000E-03 0.  1.
    9900012    2    1    2    0    0  0.39942453648E+02  0.17346325709E+01 -0.73998590199E+01  0.50528850143E+02  0.29999970494E+02 0.  0.
         12    1    1    2    0    0 -0.39942453648E+02 -0.17346325709E+01  0.73998590199E+01  0.40659149857E+02  0.00000000000E+00 0. -1.
         11    1    3    3    0    0  0.74449412226E+01 -0.52468886747E+01  0.24725465694E+01  0.94377156861E+01  0.51100000000E-03 0. -1.
        -11    1    3    3    0    0  0.17584101392E+01 -0.61964178430E+01 -0.14537758554E+01  0.66031102370E+01  0.51100000000E-03 0.  1.
        -12    1    3    3    0    0  0.30739102286E+02  0.13177939089E+02 -0.84186297340E+01  0.34488024220E+02  0.00000000000E+00 0.  1.
</event>
<event>
 7    1  0.5456331E-013  0.5052887E+02  0.7816164E-02  0.1300439E+00
        -11   -1    0    0    0    0  0.00000000000E+00  0.00000000000E+00  0.45593999997E+02  0.45594000000E+02  0.51100000000E-03 0.  1.
         11   -1    0    0    0    0 -0.00000000000E+00 -0.00000000000E+00 -0.45593999997E+02  0.45594000000E+02  0.51100000000E-03 0. -1.
    9900012    2    1    2    0    0 -0.36878133939E+02 -0.11038031526E+02  0.13089320837E+02  0.50528865445E+02  0.30000017007E+02 0.  0.
         12    1    1    2    0    0  0.36878133939E+02  0.11038031526E+02 -0.13089320837E+02  0.40659134555E+02  0.00000000000E+00 0. -1.
         11    1    3    3    0    0 -0.96620489719E+01  0.12436616221E+01 -0.51705093771E+01  0.11028873562E+02  0.51100000000E-03 0. -1.
        -11    1    3    3    0    0 -0.10952202844E+02 -0.14903091502E+02  0.85250476924E+01  0.20364904171E+02  0.51100000000E-03 0.  1.
         12    1    3    3    0    0 -0.16263882122E+02  0.26213983536E+01  0.97347825220E+01  0.19135087712E+02  0.00000000000E+00 0. -1.
</event>
<event>
 7    1  0.5456331E-013  0.5052886E+02  0.7816164E-02  0.1300439E+00
        -11   -1    0    0    0    0  0.00000000000E+00  0.00000000000E+00  0.45593999997E+02  0.45594000000E+02  0.51100000000E-03 0. -1.
         11   -1    0    0    0    0 -0.00000000000E+00 -0.00000000000E+00 -0.45593999997E+02  0.45594000000E+02  0.51100000000E-03 0.  1.
    9900012    2    1    2    0    0  0.25193320441E+02  0.15326840652E+02 -0.27991969409E+02  0.50528858462E+02  0.29999995780E+02 0.  0.
         12    1    1    2    0    0 -0.25193320441E+02 -0.15326840652E+02  0.27991969409E+02  0.40659141538E+02  0.00000000000E+00 0. -1.
         11    1    3    3    0    0  0.13594301638E+02 -0.17625214691E+01 -0.81986587332E+01  0.15972774469E+02  0.51100000000E-03 0. -1.
        -11    1    3    3    0    0  0.74928919158E+01 -0.26192637134E+01 -0.77683115311E+01  0.11106333147E+02  0.51100000000E-03 0.  1.
        -12    1    3    3    0    0  0.41061268877E+01  0.19708625835E+02 -0.12024999145E+02  0.23449750846E+02  0.00000000000E+00 0.  1.
</event>
<event>
 7    1  0.5456331E-013  0.5052881E+02  0.7816164E-02  0.1300439E+00
        -11   -1    0    0    0    0  0.00000000000E+00  0.00000000000E+00  0.45593999997E+02  0.45594000000E+02  0.51100000000E-03 0.  1.
         11   -1    0    0    0    0 -0.00000000000E+00 -0.00000000000E+00 -0.45593999997E+02  0.45594000000E+02  0.51100000000E-03 0. -1.
    9900012    2    1    2    0    0  0.12387558057E+02  0.53686842107E+01  0.38352251114E+02  0.50528812474E+02  0.29999855996E+02 0.  0.
         12    1    1    2    0    0 -0.12387558057E+02 -0.53686842107E+01 -0.38352251114E+02  0.40659187526E+02  0.00000000000E+00 0. -1.
         11    1    3    3    0    0  0.24057929346E+01 -0.29891763935E+01  0.24134629998E+02  0.24437744997E+02  0.51100000000E-03 0. -1.
        -11    1    3    3    0    0 -0.31470369709E+00 -0.30289193054E+01 -0.20906768190E+01  0.36938219229E+01  0.51100000000E-03 0.  1.
        -12    1    3    3    0    0  0.10296468820E+02  0.11386779910E+02  0.16308297935E+02  0.22397245554E+02  0.00000000000E+00 0.  1.
</event>
<event>
 7    1  0.5456331E-013  0.5052886E+02  0.7816164E-02  0.1300439E+00
        -11   -1    0    0    0    0  0.00000000000E+00  0.00000000000E+00  0.45593999997E+02  0.45594000000E+02  0.51100000000E-03 0. -1.
         11   -1    0    0    0    0 -0.00000000000E+00 -0.00000000000E+00 -0.45593999997E+02  0.45594000000E+02  0.51100000000E-03 0.  1.
    9900012    2    1    2    0    0  0.82023740624E+01  0.39698335962E+02  0.31510589782E+01  0.50528855996E+02  0.29999988286E+02 0.  0.
         12    1    1    2    0    0 -0.82023740624E+01 -0.39698335962E+02 -0.31510589782E+01  0.40659144004E+02  0.00000000000E+00 0. -1.
         11    1    3    3    0    0  0.40949880980E+01  0.10113271489E+02  0.42449991021E+01  0.11707570430E+02  0.51100000000E-03 0. -1.
        -11    1    3    3    0    0  0.12646995017E+02  0.15078685841E+02  0.59700714233E+01  0.20565869851E+02  0.51100000000E-03 0.  1.
         12    1    3    3    0    0 -0.85396090529E+01  0.14506378633E+02 -0.70640115472E+01  0.18255415716E+02  0.00000000000E+00 0. -1.
</event>
<event>
 7    1  0.5456331E-013  0.5052886E+02  0.7816164E-02  0.1300439E+00
        -11   -1    0    0    0    0  0.00000000000E+00  0.00000000000E+00  0.45593999997E+02  0.45594000000E+02  0.51100000000E-03 0.  1.
         11   -1    0    0    0    0 -0.00000000000E+00 -0.00000000000E+00 -0.45593999997E+02  0.45594000000E+02  0.51100000000E-03 0. -1.
    9900012    2    1    2    0    0  0.18948562638E+02  0.67958486030E+01  0.35326109718E+02  0.50528860658E+02  0.30000002455E+02 0.  0.
         12    1    1    2    0    0 -0.18948562638E+02 -0.67958486030E+01 -0.35326109718E+02  0.40659139342E+02  0.00000000000E+00 0. -1.
         11    1    3    3    0    0  0.30556418062E+01  0.10002427988E+02  0.83926485081E+01  0.13409774858E+02  0.51100000000E-03 0. -1.
        -11    1    3    3    0    0  0.67848319547E+01  0.82215675853E+01  0.14058497724E+02  0.17642830746E+02  0.51100000000E-03 0.  1.
         12    1    3    3    0    0  0.91080888768E+01 -0.11428146970E+02  0.12874963486E+02  0.19476255054E+02  0.00000000000E+00 0. -1.
</event>
<event>
 7    1  0.5456331E-013  0.5052886E+02  0.7816164E-02  0.1300439E+00
        -11   -1    0    0    0    0  0.00000000000E+00  0.00000000000E+00  0.45593999997E+02  0.45594000000E+02  0.51100000000E-03 0. -1.
         11   -1    0    0    0    0 -0.00000000000E+00 -0.00000000000E+00 -0.45593999997E+02  0.45594000000E+02  0.51100000000E-03 0.  1.
    9900012    2    1    2    0    0 -0.37066675472E+02  0.11793802668E+01 -0.16668423952E+02  0.50528859264E+02  0.29999998219E+02 0.  0.
         12    1    1    2    0    0  0.37066675472E+02 -0.11793802668E+01  0.16668423952E+02  0.40659140736E+02  0.00000000000E+00 0. -1.
         11    1    3    3    0    0 -0.11466961222E+01 -0.77877931774E+01  0.77483661506E-01  0.78721431992E+01  0.51100000000E-03 0. -1.
        -11    1    3    3    0    0 -0.87832106647E+01  0.81691921016E+01 -0.38237628127E+01  0.12589743901E+02  0.51100000000E-03 0.  1.
        -12    1    3    3    0    0 -0.27136768685E+02  0.79798134257E+00 -0.12922144801E+02  0.30066972164E+02  0.00000000000E+00 0.  1.
</event>
<event>
 7    1  0.5456331E-013  0.5052886E+02  0.7816164E-02  0.1300439E+00
        -11   -1    0    0    0    0  0.00000000000E+00  0.00000000000E+00  0.45593999997E+02  0.45594000000E+02  0.51100000000E-03 0. -1.
         11   -1    0    0    0    0 -0.00000000000E+00 -0.00000000000E+00 -0.45593999997E+02  0.45594000000E+02  0.51100000000E-03 0.  1.
    9900012    2    1    2    0    0 -0.26216934507E+02 -0.28554034261E+02 -0.12268053094E+02  0.50528860139E+02  0.30000000879E+02 0.  0.
         12    1    1    2    0    0  0.26216934507E+02  0.28554034261E+02  0.12268053094E+02  0.40659139861E+02  0.00000000000E+00 0. -1.
         11    1    3    3    0    0 -0.11910619904E+02 -0.36507812657E+01  0.44559503013E+01  0.13230516381E+02  0.51100000000E-03 0. -1.
        -11    1    3    3    0    0 -0.61574630543E+01 -0.86865941299E+01  0.24197118033E+01  0.10919078455E+02  0.51100000000E-03 0.  1.
         12    1    3    3    0    0 -0.81488515478E+01 -0.16216658866E+02 -0.19143715198E+02  0.26379265303E+02  0.00000000000E+00 0. -1.
</event>
<event>
 7    1  0.5456331E-013  0.5052885E+02  0.7816164E-02  0.1300439E+00
        -11   -1    0    0    0    0  0.00000000000E+00  0.00000000000E+00  0.45593999997E+02  0.45594000000E+02  0.51100000000E-03 0. -1.
         11   -1    0    0    0    0 -0.00000000000E+00 -0.00000000000E+00 -0.45593999997E+02  0.45594000000E+02  0.51100000000E-03 0.  1.
    9900012    2    1    2    0    0  0.57856373153E+01 -0.16511263081E+02 -0.36702470877E+02  0.50528846343E+02  0.29999958943E+02 0.  0.
         12    1    1    2    0    0 -0.57856373153E+01  0.16511263081E+02  0.36702470877E+02  0.40659153657E+02  0.00000000000E+00 0. -1.
         11    1    3    3    0    0  0.31939782818E+01  0.14329874906E+01 -0.56759000797E+01  0.66686424697E+01  0.51100000000E-03 0. -1.
        -11    1    3    3    0    0 -0.48066313377E+01 -0.13600408867E+01 -0.23794997543E+02  0.24313685947E+02  0.51100000000E-03 0.  1.
        -12    1    3    3    0    0  0.73982903712E+01 -0.16584209684E+02 -0.72315732546E+01  0.19546517925E+02  0.00000000000E+00 0.  1.
</event>
<event>
 7    1  0.5456331E-013  0.5052886E+02  0.7816164E-02  0.1300439E+00
        -11   -1    0    0    0    0  0.00000000000E+00  0.00000000000E+00  0.45593999997E+02  0.45594000000E+02  0.51100000000E-03 0.  1.
         11   -1    0    0    0    0 -0.00000000000E+00 -0.00000000000E+00 -0.45593999997E+02  0.45594000000E+02  0.51100000000E-03 0. -1.
    9900012    2    1    2    0    0 -0.38359161747E+02  0.12142350082E+02  0.58569148082E+01  0.50528863186E+02  0.30000010139E+02 0.  0.
         12    1    1    2    0    0  0.38359161747E+02 -0.12142350082E+02 -0.58569148082E+01  0.40659136814E+02  0.00000000000E+00 0. -1.
         11    1    3    3    0    0 -0.26472672093E+02  0.12037424105E+02  0.10677828684E+02  0.30979315236E+02  0.51100000000E-03 0. -1.
        -11    1    3    3    0    0 -0.78754297895E+01  0.32298863766E+01  0.39713513505E+01  0.93928798664E+01  0.51100000000E-03 0.  1.
         12    1    3    3    0    0 -0.40110598647E+01 -0.31249603996E+01 -0.87922652267E+01  0.10156668083E+02  0.00000000000E+00 0. -1.
</event>
<event>
 7    1  0.5456331E-013  0.5052885E+02  0.7816164E-02  0.1300439E+00
        -11   -1    0    0    0    0  0.00000000000E+00  0.00000000000E+00  0.45593999997E+02  0.45594000000E+02  0.51100000000E-03 0.  1.
         11   -1    0    0    0    0 -0.00000000000E+00 -0.00000000000E+00 -0.45593999997E+02  0.45594000000E+02  0.51100000000E-03 0. -1.
    9900012    2    1    2    0    0  0.22011650989E+02  0.83744969920E+01  0.33143951209E+02  0.50528849974E+02  0.29999969980E+02 0.  0.
         12    1    1    2    0    0 -0.22011650989E+02 -0.83744969920E+01 -0.33143951209E+02  0.40659150026E+02  0.00000000000E+00 0. -1.
         11    1    3    3    0    0  0.14919723661E+02  0.48289906379E+01  0.30236830401E+01  0.15970596861E+02  0.51100000000E-03 0. -1.
        -11    1    3    3    0    0  0.36449722272E+01  0.87699757200E+01  0.23970999369E+02  0.25783853623E+02  0.51100000000E-03 0.  1.
         12    1    3    3    0    0  0.34469551007E+01 -0.52244693658E+01  0.61492687996E+01  0.87743994889E+01  0.00000000000E+00 0. -1.
</event>
<event>
 7    1  0.5456331E-013  0.5052886E+02  0.7816164E-02  0.1300439E+00
        -11   -1    0    0    0    0  0.00000000000E+00  0.00000000000E+00  0.45593999997E+02  0.45594000000E+02  0.51100000000E-03 0.  1.
         11   -1    0    0    0    0 -0.00000000000E+00 -0.00000000000E+00 -0.45593999997E+02  0.45594000000E+02  0.51100000000E-03 0. -1.
    9900012    2    1    2    0    0 -0.17592350917E+02 -0.25715583591E+02  0.26122480717E+02  0.50528855285E+02  0.29999986123E+02 0.  0.
         12    1    1    2    0    0  0.17592350917E+02  0.25715583591E+02 -0.26122480717E+02  0.40659144715E+02  0.00000000000E+00 0. -1.
         11    1    3    3    0    0 -0.75331147745E+00  0.70913716059E-01  0.18366201851E+01  0.19863738073E+01  0.51100000000E-03 0. -1.
        -11    1    3    3    0    0 -0.17735899257E+02 -0.27144445129E+01  0.15911136861E+02  0.23981130248E+02  0.51100000000E-03 0.  1.
         12    1    3    3    0    0  0.89685981807E+00 -0.23072052794E+02  0.83747236701E+01  0.24561351229E+02  0.00000000000E+00 0. -1.
</event>
<event>
 7    1  0.5456331E-013  0.5052886E+02  0.7816164E-02  0.1300439E+00
        -11   -1    0    0    0    0  0.00000000000E+00  0.00000000000E+00  0.45593999997E+02  0.45594000000E+02  0.51100000000E-03 0.  1.
         11   -1    0    0    0    0 -0.00000000000E+00 -0.00000000000E+00 -0.45593999997E+02  0.45594000000E+02  0.51100000000E-03 0. -1.
    9900012    2    1    2    0    0  0.39784580812E+02 -0.76584291302E+01 -0.34206641220E+01  0.50528863879E+02  0.30000012245E+02 0.  0.
         12    1    1    2    0    0 -0.39784580812E+02  0.76584291302E+01  0.34206641220E+01  0.40659136121E+02  0.00000000000E+00 0. -1.
         11    1    3    3    0    0  0.10021305903E+02  0.36053699613E+01  0.15037140808E+01  0.10755762217E+02  0.51100000000E-03 0. -1.
        -11    1    3    3    0    0  0.10352247118E+02  0.32990198158E+01  0.68052014455E+01  0.12820425855E+02  0.51100000000E-03 0.  1.
         12    1    3    3    0    0  0.19411027791E+02 -0.14562818907E+02 -0.11729579648E+02  0.26952675807E+02  0.00000000000E+00 0. -1.
</event>
<event>
 7    1  0.5456331E-013  0.5052887E+02  0.7816164E-02  0.1300439E+00
        -11   -1    0    0    0    0  0.00000000000E+00  0.00000000000E+00  0.45593999997E+02  0.45594000000E+02  0.51100000000E-03 0.  1.
         11   -1    0    0    0    0 -0.00000000000E+00 -0.00000000000E+00 -0.45593999997E+02  0.45594000000E+02  0.51100000000E-03 0. -1.
    9900012    2    1    2    0    0 -0.22773542327E+02 -0.11135002183E+02  0.31789032641E+02  0.50528866955E+02  0.30000021596E+02 0.  0.
         12    1    1    2    0    0  0.22773542327E+02  0.11135002183E+02 -0.31789032641E+02  0.40659133045E+02  0.00000000000E+00 0. -1.
         11    1    3    3    0    0 -0.10575175115E+02 -0.51851185735E+01  0.99435431290E+01  0.15414079069E+02  0.51100000000E-03 0. -1.
        -11    1    3    3    0    0 -0.19188752525E+02 -0.23334132241E+01  0.17745879136E+02  0.26240603410E+02  0.51100000000E-03 0.  1.
         12    1    3    3    0    0  0.69903853132E+01 -0.36164703853E+01  0.40996103763E+01  0.88741844759E+01  0.00000000000E+00 0. -1.
</event>
<event>
 7    1  0.5456331E-013  0.5052875E+02  0.7816164E-02  0.1300439E+00
        -11   -1    0    0    0    0  0.00000000000E+00  0.00000000000E+00  0.45593999997E+02  0.45594000000E+02  0.51100000000E-03 0.  1.
         11   -1    0    0    0    0 -0.00000000000E+00 -0.00000000000E+00 -0.45593999997E+02  0.45594000000E+02  0.51100000000E-03 0. -1.
    9900012    2    1    2    0    0  0.17422212752E+02 -0.10037419228E+02  0.35339660788E+02  0.50528746360E+02  0.29999655035E+02 0.  0.
         12    1    1    2    0    0 -0.17422212752E+02  0.10037419228E+02 -0.35339660788E+02  0.40659253640E+02  0.00000000000E+00 0. -1.
         11    1    3    3    0    0  0.83594168255E+01 -0.53581150638E+01  0.21443686886E+02  0.23630932149E+02  0.51100000000E-03 0.  1.
        -11    1    3    3    0    0  0.14931603924E+02 -0.22961734818E+01  0.13950871534E+02  0.20563366097E+02  0.51100000000E-03 0. -1.
        -12    1    3    3    0    0 -0.58688079983E+01 -0.23831306823E+01 -0.54897631839E-01  0.63344481149E+01  0.00000000000E+00 0.  1.
</event>
<event>
 7    1  0.5456331E-013  0.5052885E+02  0.7816164E-02  0.1300439E+00
        -11   -1    0    0    0    0  0.00000000000E+00  0.00000000000E+00  0.45593999997E+02  0.45594000000E+02  0.51100000000E-03 0. -1.
         11   -1    0    0    0    0 -0.00000000000E+00 -0.00000000000E+00 -0.45593999997E+02  0.45594000000E+02  0.51100000000E-03 0.  1.
    9900012    2    1    2    0    0 -0.10115669193E+02  0.16637917042E+02 -0.35693408154E+02  0.50528850570E+02  0.29999971794E+02 0.  0.
         12    1    1    2    0    0  0.10115669193E+02 -0.16637917042E+02  0.35693408154E+02  0.40659149430E+02  0.00000000000E+00 0. -1.
         11    1    3    3    0    0 -0.13889853764E+01 -0.26855364669E+01 -0.63909402561E+01  0.70700427233E+01  0.51100000000E-03 0. -1.
        -11    1    3    3    0    0 -0.69723640300E+01  0.81123932168E+01 -0.30236544611E+02  0.32072938970E+02  0.51100000000E-03 0.  1.
        -12    1    3    3    0    0 -0.17543197862E+01  0.11211060292E+02  0.93407671369E+00  0.11385868877E+02  0.00000000000E+00 0.  1.
</event>
<event>
 7    1  0.5456331E-013  0.5052894E+02  0.7816164E-02  0.1300439E+00
        -11   -1    0    0    0    0  0.00000000000E+00  0.00000000000E+00  0.45593999997E+02  0.45594000000E+02  0.51100000000E-03 0.  1.
         11   -1    0    0    0    0 -0.00000000000E+00 -0.00000000000E+00 -0.45593999997E+02  0.45594000000E+02  0.51100000000E-03 0. -1.
    9900012    2    1    2    0    0 -0.83066724769E+01  0.62134632813E+01  0.39313503657E+02  0.50528935779E+02  0.30000230792E+02 0.  0.
         12    1    1    2    0    0  0.83066724769E+01 -0.62134632813E+01 -0.39313503657E+02  0.40659064221E+02  0.00000000000E+00 0. -1.
         11    1    3    3    0    0  0.16402323662E+01  0.38864442775E+01 -0.16245128461E+01  0.45203820177E+01  0.51100000000E-03 0. -1.
        -11    1    3    3    0    0 -0.62778705658E+01 -0.61250108077E+01  0.82299844995E+01  0.12027471112E+02  0.51100000000E-03 0.  1.
        -12    1    3    3    0    0 -0.36690342773E+01  0.84520298114E+01  0.32708032003E+02  0.33981082649E+02  0.00000000000E+00 0.  1.
</event>
<event>
 7    1  0.5456331E-013  0.5052884E+02  0.7816164E-02  0.1300439E+00
        -11   -1    0    0    0    0  0.00000000000E+00  0.00000000000E+00  0.45593999997E+02  0.45594000000E+02  0.51100000000E-03 0. -1.
         11   -1    0    0    0    0 -0.00000000000E+00 -0.00000000000E+00 -0.45593999997E+02  0.45594000000E+02  0.51100000000E-03 0.  1.
    9900012    2    1    2    0    0  0.21803824332E+02  0.27354623169E+02 -0.20724026310E+02  0.50528838294E+02  0.29999934477E+02 0.  0.
         12    1    1    2    0    0 -0.21803824332E+02 -0.27354623169E+02  0.20724026310E+02  0.40659161706E+02  0.00000000000E+00 0. -1.
         11    1    3    3    0    0  0.94805693466E+01  0.14712376874E+02 -0.16598173323E+02  0.24121247612E+02  0.51100000000E-03 0. -1.
        -11    1    3    3    0    0  0.10873341998E+01  0.55890463388E+01 -0.10304588342E+02  0.11773031716E+02  0.51100000000E-03 0.  1.
         12    1    3    3    0    0  0.11235920785E+02  0.70531999554E+01  0.61787353556E+01  0.14634558965E+02  0.00000000000E+00 0. -1.
</event>
<event>
 7    1  0.5456331E-013  0.5052884E+02  0.7816164E-02  0.1300439E+00
        -11   -1    0    0    0    0  0.00000000000E+00  0.00000000000E+00  0.45593999997E+02  0.45594000000E+02  0.51100000000E-03 0.  1.
         11   -1    0    0    0    0 -0.00000000000E+00 -0.00000000000E+00 -0.45593999997E+02  0.45594000000E+02  0.51100000000E-03 0. -1.
    9900012    2    1    2    0    0  0.11253301400E+02 -0.18571677834E+02  0.34374743507E+02  0.50528843575E+02  0.29999950531E+02 0.  0.
         12    1    1    2    0    0 -0.11253301400E+02  0.18571677834E+02 -0.34374743507E+02  0.40659156425E+02  0.00000000000E+00 0. -1.
         11    1    3    3    0    0  0.94267817302E+01 -0.17816738984E+02  0.95147123935E+01  0.22289687167E+02  0.51100000000E-03 0. -1.
        -11    1    3    3    0    0  0.69295411028E+01  0.11431342394E+01  0.86673189613E+01  0.11155613565E+02  0.51100000000E-03 0.  1.
         12    1    3    3    0    0 -0.51030214334E+01 -0.18980730899E+01  0.16192712153E+02  0.17083542843E+02  0.00000000000E+00 0. -1.
</event>
<event>
 7    1  0.5456331E-013  0.5052885E+02  0.7816164E-02  0.1300439E+00
        -11   -1    0    0    0    0  0.00000000000E+00  0.00000000000E+00  0.45593999997E+02  0.45594000000E+02  0.51100000000E-03 0. -1.
         11   -1    0    0    0    0 -0.00000000000E+00 -0.00000000000E+00 -0.45593999997E+02  0.45594000000E+02  0.51100000000E-03 0.  1.
    9900012    2    1    2    0    0  0.84914896773E+01  0.23090255211E+02 -0.32371299615E+02  0.50528851934E+02  0.29999975939E+02 0.  0.
         12    1    1    2    0    0 -0.84914896773E+01 -0.23090255211E+02  0.32371299615E+02  0.40659148066E+02  0.00000000000E+00 0. -1.
         11    1    3    3    0    0  0.34775836655E+01 -0.49725080230E+01 -0.94047452921E+01  0.11192348210E+02  0.51100000000E-03 0. -1.
        -11    1    3    3    0    0  0.66941094355E+01  0.44094617870E+01 -0.78229141019E+01  0.11200555330E+02  0.51100000000E-03 0.  1.
        -12    1    3    3    0    0 -0.16802034237E+01  0.23653301447E+02 -0.15143640221E+02  0.28135948394E+02  0.00000000000E+00 0.  1.
</event>
<event>
 7    1  0.5456331E-013  0.5052886E+02  0.7816164E-02  0.1300439E+00
        -11   -1    0    0    0    0  0.00000000000E+00  0.00000000000E+00  0.45593999997E+02  0.45594000000E+02  0.51100000000E-03 0.  1.
         11   -1    0    0    0    0 -0.00000000000E+00 -0.00000000000E+00 -0.45593999997E+02  0.45594000000E+02  0.51100000000E-03 0. -1.
    9900012    2    1    2    0    0 -0.17196264914E+02 -0.31995460266E+02  0.18268683493E+02  0.50528858332E+02  0.29999995386E+02 0.  0.
         12    1    1    2    0    0  0.17196264914E+02  0.31995460266E+02 -0.18268683493E+02  0.40659141668E+02  0.00000000000E+00 0. -1.
         11    1    3    3    0    0 -0.15455608271E+00 -0.12497854626E+02  0.13337081223E+02  0.18278347673E+02  0.51100000000E-03 0. -1.
        -11    1    3    3    0    0 -0.94060318764E+01 -0.16934232021E+02  0.10898579495E+02  0.22226576098E+02  0.51100000000E-03 0.  1.
         12    1    3    3    0    0 -0.76356769547E+01 -0.25633736192E+01 -0.59669772253E+01  0.10023934561E+02  0.00000000000E+00 0. -1.
</event>
<event>
 7    1  0.5456331E-013  0.5052881E+02  0.7816164E-02  0.1300439E+00
        -11   -1    0    0    0    0  0.00000000000E+00  0.00000000000E+00  0.45593999997E+02  0.45594000000E+02  0.51100000000E-03 0. -1.
         11   -1    0    0    0    0 -0.00000000000E+00 -0.00000000000E+00 -0.45593999997E+02  0.45594000000E+02  0.51100000000E-03 0.  1.
    9900012    2    1    2    0    0 -0.29212525356E+02  0.28033767710E+02 -0.37291196506E+01  0.50528805430E+02  0.29999834585E+02 0.  0.
         12    1    1    2    0    0  0.29212525356E+02 -0.28033767710E+02  0.37291196506E+01  0.40659194570E+02  0.00000000000E+00 0. -1.
         11    1    3    3    0    0 -0.53217423557E+01  0.19399884745E+01  0.12058911296E+01  0.57912581241E+01  0.51100000000E-03 0. -1.
        -11    1    3    3    0    0 -0.17954775336E+02  0.13835129731E+02 -0.15534286662E+02  0.27479061745E+02  0.51100000000E-03 0.  1.
         12    1    3    3    0    0 -0.59360076649E+01  0.12258649504E+02  0.10599275881E+02  0.17258485561E+02  0.00000000000E+00 0. -1.
</event>
<event>
 7    1  0.5456331E-013  0.5052887E+02  0.7816164E-02  0.1300439E+00
        -11   -1    0    0    0    0  0.00000000000E+00  0.00000000000E+00  0.45593999997E+02  0.45594000000E+02  0.51100000000E-03 0.  1.
         11   -1    0    0    0    0 -0.00000000000E+00 -0.00000000000E+00 -0.45593999997E+02  0.45594000000E+02  0.51100000000E-03 0. -1.
    9900012    2    1    2    0    0 -0.35049504432E+02  0.13806829771E+02  0.15299311250E+02  0.50528865307E+02  0.30000016586E+02 0.  0.
         12    1    1    2    0    0  0.35049504432E+02 -0.13806829771E+02 -0.15299311250E+02  0.40659134693E+02  0.00000000000E+00 0. -1.
         11    1    3    3    0    0  0.27857672155E+00  0.29675959496E+01 -0.89621026423E+00  0.31124626598E+01  0.51100000000E-03 0. -1.
        -11    1    3    3    0    0 -0.10690535866E+02  0.17428635094E+01 -0.65626125928E+01  0.12664636379E+02  0.51100000000E-03 0.  1.
        -12    1    3    3    0    0 -0.24637545288E+02  0.90963703117E+01  0.22758134107E+02  0.34751766268E+02  0.00000000000E+00 0.  1.
</event>
<event>
 7    1  0.5456331E-013  0.5052888E+02  0.7816164E-02  0.1300439E+00
        -11   -1    0    0    0    0  0.00000000000E+00  0.00000000000E+00  0.45593999997E+02  0.45594000000E+02  0.51100000000E-03 0. -1.
         11   -1    0    0    0    0 -0.00000000000E+00 -0.00000000000E+00 -0.45593999997E+02  0.45594000000E+02  0.51100000000E-03 0.  1.
    9900012    2    1    2    0    0  0.58163777121E+01  0.23884988281E+02 -0.32385814111E+02  0.50528882074E+02  0.30000067552E+02 0.  0.
         12    1    1    2    0    0 -0.58163777121E+01 -0.23884988281E+02  0.32385814111E+02  0.40659117926E+02  0.00000000000E+00 0. -1.
         11    1    3    3    0    0 -0.91265332063E+01  0.12421589141E+02 -0.17522047342E+02  0.23336915574E+02  0.51100000000E-03 0. -1.
        -11    1    3    3    0    0  0.49147981459E+01  0.10851711259E+02 -0.44363585643E+01  0.12712047657E+02  0.51100000000E-03 0.  1.
        -12    1    3    3    0    0  0.10028112773E+02  0.61168788035E+00 -0.10427408205E+02  0.14479918843E+02  0.00000000000E+00 0.  1.
</event>
<event>
 7    1  0.5456331E-013  0.5052888E+02  0.7816164E-02  0.1300439E+00
        -11   -1    0    0    0    0  0.00000000000E+00  0.00000000000E+00  0.45593999997E+02  0.45594000000E+02  0.51100000000E-03 0. -1.
         11   -1    0    0    0    0 -0.00000000000E+00 -0.00000000000E+00 -0.45593999997E+02  0.45594000000E+02  0.51100000000E-03 0.  1.
    9900012    2    1    2    0    0  0.22557252815E+02 -0.33487178346E+02  0.47899477625E+01  0.50528875960E+02  0.30000048968E+02 0.  0.
         12    1    1    2    0    0 -0.22557252815E+02  0.33487178346E+02 -0.47899477625E+01  0.40659124040E+02  0.00000000000E+00 0. -1.
         11    1    3    3    0    0  0.20598512164E+02 -0.93444284256E+01  0.45236385392E+01  0.23066866971E+02  0.51100000000E-03 0. -1.
        -11    1    3    3    0    0  0.25780207614E+01 -0.45263630849E+01  0.50565985795E+01  0.72597068314E+01  0.51100000000E-03 0.  1.
         12    1    3    3    0    0 -0.61928011043E+00 -0.19616386835E+02 -0.47902893562E+01  0.20202302157E+02  0.00000000000E+00 0. -1.
</event>
<event>
 7    1  0.5456331E-013  0.5052886E+02  0.7816164E-02  0.1300439E+00
        -11   -1    0    0    0    0  0.00000000000E+00  0.00000000000E+00  0.45593999997E+02  0.45594000000E+02  0.51100000000E-03 0. -1.
         11   -1    0    0    0    0 -0.00000000000E+00 -0.00000000000E+00 -0.45593999997E+02  0.45594000000E+02  0.51100000000E-03 0.  1.
    9900012    2    1    2    0    0 -0.75020887094E+01 -0.39807856021E+02  0.34955586771E+01  0.50528859988E+02  0.30000000421E+02 0.  0.
         12    1    1    2    0    0  0.75020887094E+01  0.39807856021E+02 -0.34955586771E+01  0.40659140012E+02  0.00000000000E+00 0. -1.
         11    1    3    3    0    0 -0.13526778652E+02 -0.10817231122E+02  0.18332635266E+01  0.17416862096E+02  0.51100000000E-03 0.  1.
        -11    1    3    3    0    0 -0.21334845962E+01 -0.22513200044E+02  0.18866876359E+01  0.22692631475E+02  0.51100000000E-03 0. -1.
         12    1    3    3    0    0  0.81581745389E+01 -0.64774248556E+01 -0.22439248546E+00  0.10419366418E+02  0.00000000000E+00 0. -1.
</event>
<event>
 7    1  0.5456331E-013  0.5052886E+02  0.7816164E-02  0.1300439E+00
        -11   -1    0    0    0    0  0.00000000000E+00  0.00000000000E+00  0.45593999997E+02  0.45594000000E+02  0.51100000000E-03 0.  1.
         11   -1    0    0    0    0 -0.00000000000E+00 -0.00000000000E+00 -0.45593999997E+02  0.45594000000E+02  0.51100000000E-03 0. -1.
    9900012    2    1    2    0    0 -0.10163536962E+02  0.21720939302E+02  0.32833957541E+02  0.50528862582E+02  0.30000008304E+02 0.  0.
         12    1    1    2    0    0  0.10163536962E+02 -0.21720939302E+02 -0.32833957541E+02  0.40659137418E+02  0.00000000000E+00 0. -1.
         11    1    3    3    0    0 -0.28532003717E+01  0.13431004865E+02  0.83838846748E+01  0.16087950974E+02  0.51100000000E-03 0. -1.
        -11    1    3    3    0    0 -0.88129505331E+01  0.14382849200E+02  0.12680492450E+02  0.21102827707E+02  0.51100000000E-03 0.  1.
         12    1    3    3    0    0  0.15026139424E+01 -0.60929147623E+01  0.11769580417E+02  0.13338083901E+02  0.00000000000E+00 0. -1.
</event>
<event>
 7    1  0.5456331E-013  0.5052885E+02  0.7816164E-02  0.1300439E+00
        -11   -1    0    0    0    0  0.00000000000E+00  0.00000000000E+00  0.45593999997E+02  0.45594000000E+02  0.51100000000E-03 0. -1.
         11   -1    0    0    0    0 -0.00000000000E+00 -0.00000000000E+00 -0.45593999997E+02  0.45594000000E+02  0.51100000000E-03 0.  1.
    9900012    2    1    2    0    0  0.11871748462E+02  0.27228506191E+01 -0.38791933753E+02  0.50528850337E+02  0.29999971084E+02 0.  0.
         12    1    1    2    0    0 -0.11871748462E+02 -0.27228506191E+01  0.38791933753E+02  0.40659149663E+02  0.00000000000E+00 0. -1.
         11    1    3    3    0    0 -0.25729208690E+01 -0.88453313817E+00 -0.10262947514E+02  0.10617457916E+02  0.51100000000E-03 0. -1.
        -11    1    3    3    0    0  0.40932177212E+01 -0.84411979892E+01 -0.19501800616E+02  0.21640898371E+02  0.51100000000E-03 0.  1.
         12    1    3    3    0    0  0.10351451610E+02  0.12048581746E+02 -0.90271856235E+01  0.18270494049E+02  0.00000000000E+00 0. -1.
</event>
<event>
 7    1  0.5456331E-013  0.5052885E+02  0.7816164E-02  0.1300439E+00
        -11   -1    0    0    0    0  0.00000000000E+00  0.00000000000E+00  0.45593999997E+02  0.45594000000E+02  0.51100000000E-03 0.  1.
         11   -1    0    0    0    0 -0.00000000000E+00 -0.00000000000E+00 -0.45593999997E+02  0.45594000000E+02  0.51100000000E-03 0. -1.
    9900012    2    1    2    0    0 -0.10729913696E+02 -0.17922996822E+02  0.34882679403E+02  0.50528853608E+02  0.29999981026E+02 0.  0.
         12    1    1    2    0    0  0.10729913696E+02  0.17922996822E+02 -0.34882679403E+02  0.40659146392E+02  0.00000000000E+00 0. -1.
         11    1    3    3    0    0 -0.52013517607E+01 -0.38151350247E+01 -0.30874532460E+01  0.71513413569E+01  0.51100000000E-03 0. -1.
        -11    1    3    3    0    0 -0.24447169957E+01 -0.19314935514E+01 -0.26994221247E+00  0.31273275472E+01  0.51100000000E-03 0.  1.
        -12    1    3    3    0    0 -0.30838449396E+01 -0.12176368246E+02  0.38240074861E+02  0.40250184704E+02  0.00000000000E+00 0.  1.
</event>
<event>
 7    1  0.5456331E-013  0.5052890E+02  0.7816164E-02  0.1300439E+00
        -11   -1    0    0    0    0  0.00000000000E+00  0.00000000000E+00  0.45593999997E+02  0.45594000000E+02  0.51100000000E-03 0.  1.
         11   -1    0    0    0    0 -0.00000000000E+00 -0.00000000000E+00 -0.45593999997E+02  0.45594000000E+02  0.51100000000E-03 0. -1.
    9900012    2    1    2    0    0 -0.24436369156E+02  0.28107600812E+02  0.16309179843E+02  0.50528896369E+02  0.30000111002E+02 0.  0.
         12    1    1    2    0    0  0.24436369156E+02 -0.28107600812E+02 -0.16309179843E+02  0.40659103631E+02  0.00000000000E+00 0. -1.
         11    1    3    3    0    0 -0.19997464368E+02  0.12264796073E+02  0.24525442208E+01  0.23586834830E+02  0.51100000000E-03 0. -1.
        -11    1    3    3    0    0 -0.94698859570E+01  0.11595191708E+02  0.13794909239E+02  0.20357473614E+02  0.51100000000E-03 0.  1.
        -12    1    3    3    0    0  0.50309811694E+01  0.42476130315E+01  0.61726383002E-01  0.65845879247E+01  0.00000000000E+00 0.  1.
</event>
<event>
 7    1  0.5456331E-013  0.5052886E+02  0.7816164E-02  0.1300439E+00
        -11   -1    0    0    0    0  0.00000000000E+00  0.00000000000E+00  0.45593999997E+02  0.45594000000E+02  0.51100000000E-03 0.  1.
         11   -1    0    0    0    0 -0.00000000000E+00 -0.00000000000E+00 -0.45593999997E+02  0.45594000000E+02  0.51100000000E-03 0. -1.
    9900012    2    1    2    0    0  0.32434673278E+02  0.20388294003E+01  0.24433598838E+02  0.50528860706E+02  0.30000002601E+02 0.  0.
         12    1    1    2    0    0 -0.32434673278E+02 -0.20388294003E+01 -0.24433598838E+02  0.40659139294E+02  0.00000000000E+00 0. -1.
         11    1    3    3    0    0 -0.29538488526E+01 -0.60222496049E+00 -0.19149803937E+01  0.35714210220E+01  0.51100000000E-03 0. -1.
        -11    1    3    3    0    0 -0.49572557216E+00 -0.70179895716E+00  0.49916280387E+01  0.50650386333E+01  0.51100000000E-03 0.  1.
         12    1    3    3    0    0  0.35884247703E+02  0.33428533180E+01  0.21356951193E+02  0.41892401050E+02  0.00000000000E+00 0. -1.
</event>
<event>
 7    1  0.5456331E-013  0.5052887E+02  0.7816164E-02  0.1300439E+00
        -11   -1    0    0    0    0  0.00000000000E+00  0.00000000000E+00  0.45593999997E+02  0.45594000000E+02  0.51100000000E-03 0. -1.
         11   -1    0    0    0    0 -0.00000000000E+00 -0.00000000000E+00 -0.45593999997E+02  0.45594000000E+02  0.51100000000E-03 0.  1.
    9900012    2    1    2    0    0  0.15710130110E+02 -0.25035417831E+02 -0.27921041735E+02  0.50528869345E+02  0.30000028860E+02 0.  0.
         12    1    1    2    0    0 -0.15710130110E+02  0.25035417831E+02  0.27921041735E+02  0.40659130655E+02  0.00000000000E+00 0. -1.
         11    1    3    3    0    0 -0.51846391688E+01 -0.65298515294E+01 -0.18152584831E+01  0.85331475980E+01  0.51100000000E-03 0. -1.
        -11    1    3    3    0    0 -0.18275331419E+00 -0.97990897122E+01 -0.10493825117E+02  0.14358827383E+02  0.51100000000E-03 0.  1.
         12    1    3    3    0    0  0.21077522593E+02 -0.87064765895E+01 -0.15611958135E+02  0.27636894364E+02  0.00000000000E+00 0. -1.
</event>
<event>
 7    1  0.5456331E-013  0.5052886E+02  0.7816164E-02  0.1300439E+00
        -11   -1    0    0    0    0  0.00000000000E+00  0.00000000000E+00  0.45593999997E+02  0.45594000000E+02  0.51100000000E-03 0.  1.
         11   -1    0    0    0    0 -0.00000000000E+00 -0.00000000000E+00 -0.45593999997E+02  0.45594000000E+02  0.51100000000E-03 0. -1.
    9900012    2    1    2    0    0 -0.30289014906E+02 -0.26058740164E+02  0.75288282105E+01  0.50528860596E+02  0.30000002267E+02 0.  0.
         12    1    1    2    0    0  0.30289014906E+02  0.26058740164E+02 -0.75288282105E+01  0.40659139404E+02  0.00000000000E+00 0. -1.
         11    1    3    3    0    0 -0.82312263018E+01  0.34237653797E+01 -0.20769540036E+01  0.91536328307E+01  0.51100000000E-03 0. -1.
        -11    1    3    3    0    0 -0.65572144314E+00  0.16616925586E+01 -0.11013572062E+01  0.20986140015E+01  0.51100000000E-03 0.  1.
        -12    1    3    3    0    0 -0.21402067161E+02 -0.31144198102E+02  0.10707139420E+02  0.39276613764E+02  0.00000000000E+00 0.  1.
</event>
<event>
 7    1  0.5456331E-013  0.5052887E+02  0.7816164E-02  0.1300439E+00
        -11   -1    0    0    0    0  0.00000000000E+00  0.00000000000E+00  0.45593999997E+02  0.45594000000E+02  0.51100000000E-03 0.  1.
         11   -1    0    0    0    0 -0.00000000000E+00 -0.00000000000E+00 -0.45593999997E+02  0.45594000000E+02  0.51100000000E-03 0. -1.
    9900012    2    1    2    0    0 -0.23573527282E+02 -0.28971876655E+02  0.16065003566E+02  0.50528866155E+02  0.30000019165E+02 0.  0.
         12    1    1    2    0    0  0.23573527282E+02  0.28971876655E+02 -0.16065003566E+02  0.40659133845E+02  0.00000000000E+00 0. -1.
         11    1    3    3    0    0  0.26573463433E+01 -0.32722351592E+00  0.75779643307E+00  0.27825924087E+01  0.51100000000E-03 0. -1.
        -11    1    3    3    0    0 -0.22546296279E+02 -0.86745300280E+01  0.39478855064E+01  0.24477923673E+02  0.51100000000E-03 0.  1.
         12    1    3    3    0    0 -0.36845773462E+01 -0.19970123112E+02  0.11359321626E+02  0.23268350073E+02  0.00000000000E+00 0. -1.
</event>
<event>
 7    1  0.5456331E-013  0.5052886E+02  0.7816164E-02  0.1300439E+00
        -11   -1    0    0    0    0  0.00000000000E+00  0.00000000000E+00  0.45593999997E+02  0.45594000000E+02  0.51100000000E-03 0.  1.
         11   -1    0    0    0    0 -0.00000000000E+00 -0.00000000000E+00 -0.45593999997E+02  0.45594000000E+02  0.51100000000E-03 0. -1.
    9900012    2    1    2    0    0 -0.12506812414E+02 -0.56507891705E+01  0.38272889223E+02  0.50528858045E+02  0.29999994515E+02 0.  0.
         12    1    1    2    0    0  0.12506812414E+02  0.56507891705E+01 -0.38272889223E+02  0.40659141955E+02  0.00000000000E+00 0. -1.
         11    1    3    3    0    0 -0.10515465098E+02 -0.57159052154E+01  0.24190568300E+02  0.26989445596E+02  0.51100000000E-03 0. -1.
        -11    1    3    3    0    0 -0.17214537653E+00  0.93521541296E+01  0.78143588117E+01  0.12188380729E+02  0.51100000000E-03 0.  1.
         12    1    3    3    0    0 -0.18192019392E+01 -0.92870380847E+01  0.62679621118E+01  0.11351031720E+02  0.00000000000E+00 0. -1.
</event>
<event>
 7    1  0.5456331E-013  0.5052886E+02  0.7816164E-02  0.1300439E+00
        -11   -1    0    0    0    0  0.00000000000E+00  0.00000000000E+00  0.45593999997E+02  0.45594000000E+02  0.51100000000E-03 0. -1.
         11   -1    0    0    0    0 -0.00000000000E+00 -0.00000000000E+00 -0.45593999997E+02  0.45594000000E+02  0.51100000000E-03 0.  1.
    9900012    2    1    2    0    0 -0.25296165351E+02  0.13200994298E+02 -0.28965548985E+02  0.50528864988E+02  0.30000015618E+02 0.  0.
         12    1    1    2    0    0  0.25296165351E+02 -0.13200994298E+02  0.28965548985E+02  0.40659135012E+02  0.00000000000E+00 0. -1.
         11    1    3    3    0    0 -0.91289643257E+01  0.11887981632E+02 -0.12543270269E+01  0.15041124741E+02  0.51100000000E-03 0.  1.
        -11    1    3    3    0    0 -0.53863401922E+01  0.44805540927E+01 -0.17832763357E+01  0.72296680694E+01  0.51100000000E-03 0. -1.
        -12    1    3    3    0    0 -0.10780860834E+02 -0.31675414263E+01 -0.25927945622E+02  0.28258072177E+02  0.00000000000E+00 0.  1.
</event>
<event>
 7    1  0.5456331E-013  0.5052886E+02  0.7816164E-02  0.1300439E+00
        -11   -1    0    0    0    0  0.00000000000E+00  0.00000000000E+00  0.45593999997E+02  0.45594000000E+02  0.51100000000E-03 0. -1.
         11   -1    0    0    0    0 -0.00000000000E+00 -0.00000000000E+00 -0.45593999997E+02  0.45594000000E+02  0.51100000000E-03 0.  1.
    9900012    2    1    2    0    0 -0.36091107998E+02 -0.64641428456E+01 -0.17573060249E+02  0.50528859997E+02  0.30000000448E+02 0.  0.
         12    1    1    2    0    0  0.36091107998E+02  0.64641428456E+01  0.17573060249E+02  0.40659140003E+02  0.00000000000E+00 0. -1.
         11    1    3    3    0    0 -0.76071534650E+01 -0.10940742481E+02 -0.40719919157E+00  0.13331708117E+02  0.51100000000E-03 0. -1.
        -11    1    3    3    0    0 -0.12745364075E+02 -0.40196656957E+01 -0.15499118896E+01  0.13453781804E+02  0.51100000000E-03 0.  1.
         12    1    3    3    0    0 -0.15738590458E+02  0.84962653309E+01 -0.15615949168E+02  0.23743370077E+02  0.00000000000E+00 0. -1.
</event>
<event>
 7    1  0.5456331E-013  0.5052886E+02  0.7816164E-02  0.1300439E+00
        -11   -1    0    0    0    0  0.00000000000E+00  0.00000000000E+00  0.45593999997E+02  0.45594000000E+02  0.51100000000E-03 0.  1.
         11   -1    0    0    0    0 -0.00000000000E+00 -0.00000000000E+00 -0.45593999997E+02  0.45594000000E+02  0.51100000000E-03 0. -1.
    9900012    2    1    2    0    0 -0.25225374633E+02 -0.10691506655E+02  0.30042270107E+02  0.50528857939E+02  0.29999994191E+02 0.  0.
         12    1    1    2    0    0  0.25225374633E+02  0.10691506655E+02 -0.30042270107E+02  0.40659142061E+02  0.00000000000E+00 0. -1.
         11    1    3    3    0    0 -0.17212178649E+02 -0.78454473275E+00  0.16175750807E+02  0.23633229122E+02  0.51100000000E-03 0. -1.
        -11    1    3    3    0    0 -0.11568451680E+02  0.69029217383E+00  0.49706328626E+01  0.12610026521E+02  0.51100000000E-03 0.  1.
         12    1    3    3    0    0  0.35552556957E+01 -0.10597254096E+02  0.88958864376E+01  0.14285602296E+02  0.00000000000E+00 0. -1.
</event>
<event>
 7    1  0.5456331E-013  0.5052886E+02  0.7816164E-02  0.1300439E+00
        -11   -1    0    0    0    0  0.00000000000E+00  0.00000000000E+00  0.45593999997E+02  0.45594000000E+02  0.51100000000E-03 0.  1.
         11   -1    0    0    0    0 -0.00000000000E+00 -0.00000000000E+00 -0.45593999997E+02  0.45594000000E+02  0.51100000000E-03 0. -1.
    9900012    2    1    2    0    0 -0.23435010965E+02 -0.31829296466E+01  0.33073174174E+02  0.50528860437E+02  0.30000001784E+02 0.  0.
         12    1    1    2    0    0  0.23435010965E+02  0.31829296466E+01 -0.33073174174E+02  0.40659139563E+02  0.00000000000E+00 0. -1.
         11    1    3    3    0    0 -0.46422429181E+01  0.67743758631E+01  0.81295215997E+01  0.11555592124E+02  0.51100000000E-03 0. -1.
        -11    1    3    3    0    0  0.11648928721E+01 -0.37382829302E+01  0.15585804956E+02  0.16070129155E+02  0.51100000000E-03 0.  1.
        -12    1    3    3    0    0 -0.19957660919E+02 -0.62190225795E+01  0.93578476182E+01  0.22903139157E+02  0.00000000000E+00 0.  1.
</event>
<event>
 7    1  0.5456331E-013  0.5052886E+02  0.7816164E-02  0.1300439E+00
        -11   -1    0    0    0    0  0.00000000000E+00  0.00000000000E+00  0.45593999997E+02  0.45594000000E+02  0.51100000000E-03 0. -1.
         11   -1    0    0    0    0 -0.00000000000E+00 -0.00000000000E+00 -0.45593999997E+02  0.45594000000E+02  0.51100000000E-03 0.  1.
    9900012    2    1    2    0    0 -0.15552410079E+02 -0.30741358222E+02  0.21592981469E+02  0.50528863102E+02  0.30000009885E+02 0.  0.
         12    1    1    2    0    0  0.15552410079E+02  0.30741358222E+02 -0.21592981469E+02  0.40659136898E+02  0.00000000000E+00 0. -1.
         11    1    3    3    0    0  0.49113210631E+01 -0.20213308524E+01 -0.36000112644E+01  0.64161463796E+01  0.51100000000E-03 0. -1.
        -11    1    3    3    0    0 -0.89588920830E+01 -0.94666013938E+01  0.50873060653E+01  0.13991389229E+02  0.51100000000E-03 0.  1.
        -12    1    3    3    0    0 -0.11504839059E+02 -0.19253425975E+02  0.20105686668E+02  0.30121327493E+02  0.00000000000E+00 0.  1.
</event>
<event>
 7    1  0.5456331E-013  0.5052886E+02  0.7816164E-02  0.1300439E+00
        -11   -1    0    0    0    0  0.00000000000E+00  0.00000000000E+00  0.45593999997E+02  0.45594000000E+02  0.51100000000E-03 0. -1.
         11   -1    0    0    0    0 -0.00000000000E+00 -0.00000000000E+00 -0.45593999997E+02  0.45594000000E+02  0.51100000000E-03 0.  1.
    9900012    2    1    2    0    0  0.89054324459E+01 -0.10985975367E+02 -0.38120429272E+02  0.50528861917E+02  0.30000006282E+02 0.  0.
         12    1    1    2    0    0 -0.89054324459E+01  0.10985975367E+02  0.38120429272E+02  0.40659138083E+02  0.00000000000E+00 0. -1.
         11    1    3    3    0    0  0.72227846664E+01 -0.96859699069E+00 -0.54844745714E+01  0.91206501990E+01  0.51100000000E-03 0. -1.
        -11    1    3    3    0    0  0.12388797366E+02 -0.32106973412E+01 -0.16588297232E+02  0.20951431524E+02  0.51100000000E-03 0.  1.
        -12    1    3    3    0    0 -0.10706149586E+02 -0.68066810346E+01 -0.16047657469E+02  0.20456780194E+02  0.00000000000E+00 0.  1.
</event>
<event>
 7    1  0.5456331E-013  0.5052887E+02  0.7816164E-02  0.1300439E+00
        -11   -1    0    0    0    0  0.00000000000E+00  0.00000000000E+00  0.45593999997E+02  0.45594000000E+02  0.51100000000E-03 0. -1.
         11   -1    0    0    0    0 -0.00000000000E+00 -0.00000000000E+00 -0.45593999997E+02  0.45594000000E+02  0.51100000000E-03 0.  1.
    9900012    2    1    2    0    0  0.26792784142E+01 -0.21121396480E+02 -0.34639186670E+02  0.50528866030E+02  0.30000018783E+02 0.  0.
         12    1    1    2    0    0 -0.26792784142E+01  0.21121396480E+02  0.34639186670E+02  0.40659133970E+02  0.00000000000E+00 0. -1.
         11    1    3    3    0    0 -0.15247647804E+00  0.60920644941E+01 -0.73870077180E+01  0.95762405026E+01  0.51100000000E-03 0. -1.
        -11    1    3    3    0    0  0.17178451993E+01 -0.29361050214E+01 -0.11496793978E+02  0.11989494438E+02  0.51100000000E-03 0.  1.
         12    1    3    3    0    0  0.11139096929E+01 -0.24277355952E+02 -0.15755384974E+02  0.28963131089E+02  0.00000000000E+00 0. -1.
</event>
<event>
 7    1  0.5456331E-013  0.5052885E+02  0.7816164E-02  0.1300439E+00
        -11   -1    0    0    0    0  0.00000000000E+00  0.00000000000E+00  0.45593999997E+02  0.45594000000E+02  0.51100000000E-03 0. -1.
         11   -1    0    0    0    0 -0.00000000000E+00 -0.00000000000E+00 -0.45593999997E+02  0.45594000000E+02  0.51100000000E-03 0.  1.
    9900012    2    1    2    0    0 -0.38869246272E+02  0.60335456516E+00 -0.11915699682E+02  0.50528852918E+02  0.29999978931E+02 0.  0.
         12    1    1    2    0    0  0.38869246272E+02 -0.60335456516E+00  0.11915699682E+02  0.40659147082E+02  0.00000000000E+00 0. -1.
         11    1    3    3    0    0 -0.11170558374E+02  0.11117644518E+02  0.18496830561E+01  0.15868355986E+02  0.51100000000E-03 0. -1.
        -11    1    3    3    0    0 -0.71388281891E+01  0.66651416521E+00 -0.76218089859E+01  0.10464180882E+02  0.51100000000E-03 0.  1.
        -12    1    3    3    0    0 -0.20559859709E+02 -0.11180804118E+02 -0.61435737525E+01  0.24196316051E+02  0.00000000000E+00 0.  1.
</event>
<event>
 7    1  0.5456331E-013  0.5052887E+02  0.7816164E-02  0.1300439E+00
        -11   -1    0    0    0    0  0.00000000000E+00  0.00000000000E+00  0.45593999997E+02  0.45594000000E+02  0.51100000000E-03 0.  1.
         11   -1    0    0    0    0 -0.00000000000E+00 -0.00000000000E+00 -0.45593999997E+02  0.45594000000E+02  0.51100000000E-03 0. -1.
    9900012    2    1    2    0    0 -0.16862799046E+01 -0.23001054451E+02  0.33485408725E+02  0.50528872572E+02  0.30000038669E+02 0.  0.
         12    1    1    2    0    0  0.16862799046E+01  0.23001054451E+02 -0.33485408725E+02  0.40659127428E+02  0.00000000000E+00 0. -1.
         11    1    3    3    0    0 -0.31316179360E+01  0.17665257498E+01  0.36301089631E+01  0.51093380654E+01  0.51100000000E-03 0. -1.
        -11    1    3    3    0    0 -0.30061824955E+01  0.32811451080E+01  0.94619917087E+01  0.10456210297E+02  0.51100000000E-03 0.  1.
        -12    1    3    3    0    0  0.44515205269E+01 -0.28048725309E+02  0.20393308053E+02  0.34963324209E+02  0.00000000000E+00 0.  1.
</event>
<event>
 7    1  0.5456331E-013  0.5052885E+02  0.7816164E-02  0.1300439E+00
        -11   -1    0    0    0    0  0.00000000000E+00  0.00000000000E+00  0.45593999997E+02  0.45594000000E+02  0.51100000000E-03 0.  1.
         11   -1    0    0    0    0 -0.00000000000E+00 -0.00000000000E+00 -0.45593999997E+02  0.45594000000E+02  0.51100000000E-03 0. -1.
    9900012    2    1    2    0    0 -0.72880692139E+01 -0.87531002345E+00  0.39991050047E+02  0.50528853374E+02  0.29999980316E+02 0.  0.
         12    1    1    2    0    0  0.72880692139E+01  0.87531002345E+00 -0.39991050047E+02  0.40659146626E+02  0.00000000000E+00 0. -1.
         11    1    3    3    0    0  0.36891901932E+01  0.94158583889E+01  0.20179917331E+02  0.22572053013E+02  0.51100000000E-03 0. -1.
        -11    1    3    3    0    0 -0.38850381047E+01  0.97510734261E+00 -0.98080210021E-01  0.40067412436E+01  0.51100000000E-03 0.  1.
        -12    1    3    3    0    0 -0.70922213024E+01 -0.11266275755E+02  0.19909212926E+02  0.23950059117E+02  0.00000000000E+00 0.  1.
</event>
<event>
 7    1  0.5456331E-013  0.5052886E+02  0.7816164E-02  0.1300439E+00
        -11   -1    0    0    0    0  0.00000000000E+00  0.00000000000E+00  0.45593999997E+02  0.45594000000E+02  0.51100000000E-03 0.  1.
         11   -1    0    0    0    0 -0.00000000000E+00 -0.00000000000E+00 -0.45593999997E+02  0.45594000000E+02  0.51100000000E-03 0. -1.
    9900012    2    1    2    0    0 -0.30841766832E+02  0.25563717362E+02  0.69604291138E+01  0.50528858344E+02  0.29999995424E+02 0.  0.
         12    1    1    2    0    0  0.30841766832E+02 -0.25563717362E+02 -0.69604291138E+01  0.40659141656E+02  0.00000000000E+00 0. -1.
         11    1    3    3    0    0 -0.16794849178E+02  0.23259036093E+02 -0.12679836629E+01  0.28716850484E+02  0.51100000000E-03 0. -1.
        -11    1    3    3    0    0 -0.10722614621E+02  0.73277192848E+01  0.19876110656E+01  0.13138513319E+02  0.51100000000E-03 0.  1.
        -12    1    3    3    0    0 -0.33243030336E+01 -0.50230380154E+01  0.62408017112E+01  0.86734945415E+01  0.00000000000E+00 0.  1.
</event>
<event>
 7    1  0.5456331E-013  0.5052885E+02  0.7816164E-02  0.1300439E+00
        -11   -1    0    0    0    0  0.00000000000E+00  0.00000000000E+00  0.45593999997E+02  0.45594000000E+02  0.51100000000E-03 0.  1.
         11   -1    0    0    0    0 -0.00000000000E+00 -0.00000000000E+00 -0.45593999997E+02  0.45594000000E+02  0.51100000000E-03 0. -1.
    9900012    2    1    2    0    0 -0.16226749926E+02 -0.36736227682E+02 -0.63488879917E+01  0.50528853228E+02  0.29999979873E+02 0.  0.
         12    1    1    2    0    0  0.16226749926E+02  0.36736227682E+02  0.63488879917E+01  0.40659146772E+02  0.00000000000E+00 0. -1.
         11    1    3    3    0    0 -0.11811582876E+02 -0.22056717782E+02 -0.11022711502E+02  0.27340674067E+02  0.51100000000E-03 0. -1.
        -11    1    3    3    0    0 -0.83522770775E+01 -0.71107942014E+01 -0.33570929103E+01  0.11471442787E+02  0.51100000000E-03 0.  1.
        -12    1    3    3    0    0  0.39371100275E+01 -0.75687156989E+01  0.80309164205E+01  0.11716736374E+02  0.00000000000E+00 0.  1.
</event>
<event>
 7    1  0.5456331E-013  0.5052886E+02  0.7816164E-02  0.1300439E+00
        -11   -1    0    0    0    0  0.00000000000E+00  0.00000000000E+00  0.45593999997E+02  0.45594000000E+02  0.51100000000E-03 0.  1.
         11   -1    0    0    0    0 -0.00000000000E+00 -0.00000000000E+00 -0.45593999997E+02  0.45594000000E+02  0.51100000000E-03 0. -1.
    9900012    2    1    2    0    0 -0.80713309069E+01  0.13186403191E+01  0.39828134431E+02  0.50528862194E+02  0.30000007125E+02 0.  0.
         12    1    1    2    0    0  0.80713309069E+01 -0.13186403191E+01 -0.39828134431E+02  0.40659137806E+02  0.00000000000E+00 0. -1.
         11    1    3    3    0    0  0.24523775015E+00  0.30383564466E+01 -0.24532663791E+01  0.39128337095E+01  0.51100000000E-03 0. -1.
        -11    1    3    3    0    0  0.24210107262E+01  0.11177396939E+01  0.29758585410E+02  0.29877818542E+02  0.51100000000E-03 0.  1.
         12    1    3    3    0    0 -0.10737579383E+02 -0.28374558214E+01  0.12522815400E+02  0.16738209943E+02  0.00000000000E+00 0. -1.
</event>
<event>
 7    1  0.5456331E-013  0.5052886E+02  0.7816164E-02  0.1300439E+00
        -11   -1    0    0    0    0  0.00000000000E+00  0.00000000000E+00  0.45593999997E+02  0.45594000000E+02  0.51100000000E-03 0.  1.
         11   -1    0    0    0    0 -0.00000000000E+00 -0.00000000000E+00 -0.45593999997E+02  0.45594000000E+02  0.51100000000E-03 0. -1.
    9900012    2    1    2    0    0  0.19913241364E+01 -0.21083005133E+02  0.34708890051E+02  0.50528861719E+02  0.30000005680E+02 0.  0.
         12    1    1    2    0    0 -0.19913241364E+01  0.21083005133E+02 -0.34708890051E+02  0.40659138281E+02  0.00000000000E+00 0. -1.
         11    1    3    3    0    0 -0.16560148194E+01 -0.98023963484E+01  0.36791110655E+01  0.10600246117E+02  0.51100000000E-03 0. -1.
        -11    1    3    3    0    0  0.10362597004E+02  0.71430866007E+00  0.19034268842E+02  0.21684027397E+02  0.51100000000E-03 0.  1.
         12    1    3    3    0    0 -0.67152580486E+01 -0.11994917444E+02  0.11995510143E+02  0.18244588204E+02  0.00000000000E+00 0. -1.
</event>
<event>
 7    1  0.5456331E-013  0.5052884E+02  0.7816164E-02  0.1300439E+00
        -11   -1    0    0    0    0  0.00000000000E+00  0.00000000000E+00  0.45593999997E+02  0.45594000000E+02  0.51100000000E-03 0. -1.
         11   -1    0    0    0    0 -0.00000000000E+00 -0.00000000000E+00 -0.45593999997E+02  0.45594000000E+02  0.51100000000E-03 0.  1.
    9900012    2    1    2    0    0  0.24034271999E+02 -0.22642603391E+02 -0.23724106555E+02  0.50528844196E+02  0.29999952419E+02 0.  0.
         12    1    1    2    0    0 -0.24034271999E+02  0.22642603391E+02  0.23724106555E+02  0.40659155804E+02  0.00000000000E+00 0. -1.
         11    1    3    3    0    0 -0.20911919587E+01  0.23128932871E+00  0.87612193001E+00  0.22790718415E+01  0.51100000000E-03 0. -1.
        -11    1    3    3    0    0  0.12741114457E+02 -0.84327402096E+01 -0.24122493949E+02  0.28554190929E+02  0.51100000000E-03 0.  1.
        -12    1    3    3    0    0  0.13384349501E+02 -0.14441152510E+02 -0.47773453541E+00  0.19695581425E+02  0.00000000000E+00 0.  1.
</event>
<event>
 7    1  0.5456331E-013  0.5052886E+02  0.7816164E-02  0.1300439E+00
        -11   -1    0    0    0    0  0.00000000000E+00  0.00000000000E+00  0.45593999997E+02  0.45594000000E+02  0.51100000000E-03 0.  1.
         11   -1    0    0    0    0 -0.00000000000E+00 -0.00000000000E+00 -0.45593999997E+02  0.45594000000E+02  0.51100000000E-03 0. -1.
    9900012    2    1    2    0    0 -0.72683765102E+01 -0.33693926666E+02  0.21565154307E+02  0.50528857467E+02  0.29999992756E+02 0.  0.
         12    1    1    2    0    0  0.72683765102E+01  0.33693926666E+02 -0.21565154307E+02  0.40659142533E+02  0.00000000000E+00 0. -1.
         11    1    3    3    0    0 -0.65648457244E+01 -0.24511688008E+02  0.18170152813E+02  0.31210166643E+02  0.51100000000E-03 0.  1.
        -11    1    3    3    0    0 -0.54496502416E+01  0.27334765622E+01  0.20023517964E+01  0.64171640815E+01  0.51100000000E-03 0. -1.
         12    1    3    3    0    0  0.47461194558E+01 -0.11915715220E+02  0.13926496974E+01  0.12901526742E+02  0.00000000000E+00 0. -1.
</event>
<event>
 7    1  0.5456331E-013  0.5052886E+02  0.7816164E-02  0.1300439E+00
        -11   -1    0    0    0    0  0.00000000000E+00  0.00000000000E+00  0.45593999997E+02  0.45594000000E+02  0.51100000000E-03 0. -1.
         11   -1    0    0    0    0 -0.00000000000E+00 -0.00000000000E+00 -0.45593999997E+02  0.45594000000E+02  0.51100000000E-03 0.  1.
    9900012    2    1    2    0    0  0.48373412803E+01  0.29937732389E+02 -0.27083163980E+02  0.50528862498E+02  0.30000008050E+02 0.  0.
         12    1    1    2    0    0 -0.48373412803E+01 -0.29937732389E+02  0.27083163980E+02  0.40659137502E+02  0.00000000000E+00 0. -1.
         11    1    3    3    0    0  0.56324356815E+01  0.12524762485E+02 -0.12475412919E+02  0.18553434581E+02  0.51100000000E-03 0. -1.
        -11    1    3    3    0    0  0.96960328764E+00  0.14105577447E+02 -0.20553226670E+02  0.24946794834E+02  0.51100000000E-03 0.  1.
         12    1    3    3    0    0 -0.17646976888E+01  0.33073924562E+01  0.59454756094E+01  0.70286330829E+01  0.00000000000E+00 0. -1.
</event>
<event>
 7    1  0.5456331E-013  0.5052889E+02  0.7816164E-02  0.1300439E+00
        -11   -1    0    0    0    0  0.00000000000E+00  0.00000000000E+00  0.45593999997E+02  0.45594000000E+02  0.51100000000E-03 0.  1.
         11   -1    0    0    0    0 -0.00000000000E+00 -0.00000000000E+00 -0.45593999997E+02  0.45594000000E+02  0.51100000000E-03 0. -1.
    9900012    2    1    2    0    0 -0.37195548261E+00 -0.18375773791E+00  0.40656996553E+02  0.50528886797E+02  0.30000081907E+02 0.  0.
         12    1    1    2    0    0  0.37195548261E+00  0.18375773791E+00 -0.40656996553E+02  0.40659113203E+02  0.00000000000E+00 0. -1.
         11    1    3    3    0    0 -0.79063055074E+01 -0.19547678140E+01  0.30845410735E+01  0.87089137025E+01  0.51100000000E-03 0. -1.
        -11    1    3    3    0    0 -0.37699076143E+01  0.48840695297E+01  0.17722272278E+02  0.18765534193E+02  0.51100000000E-03 0.  1.
         12    1    3    3    0    0  0.11304257639E+02 -0.31130594535E+01  0.19850183201E+02  0.23054438901E+02  0.00000000000E+00 0. -1.
</event>
<event>
 7    1  0.5456331E-013  0.5052885E+02  0.7816164E-02  0.1300439E+00
        -11   -1    0    0    0    0  0.00000000000E+00  0.00000000000E+00  0.45593999997E+02  0.45594000000E+02  0.51100000000E-03 0. -1.
         11   -1    0    0    0    0 -0.00000000000E+00 -0.00000000000E+00 -0.45593999997E+02  0.45594000000E+02  0.51100000000E-03 0.  1.
    9900012    2    1    2    0    0  0.18602696450E+02  0.89218927561E+01 -0.35035780180E+02  0.50528851234E+02  0.29999973810E+02 0.  0.
         12    1    1    2    0    0 -0.18602696450E+02 -0.89218927561E+01  0.35035780180E+02  0.40659148766E+02  0.00000000000E+00 0. -1.
         11    1    3    3    0    0  0.67802077252E+01 -0.36779862074E+01  0.67592114582E+00  0.77431046096E+01  0.51100000000E-03 0. -1.
        -11    1    3    3    0    0  0.87924580709E+01  0.25037944724E+01 -0.52286481579E+01  0.10531622264E+02  0.51100000000E-03 0.  1.
         12    1    3    3    0    0  0.30300306542E+01  0.10096084491E+02 -0.30483053168E+02  0.32254124360E+02  0.00000000000E+00 0. -1.
</event>
<event>
 7    1  0.5456331E-013  0.5052887E+02  0.7816164E-02  0.1300439E+00
        -11   -1    0    0    0    0  0.00000000000E+00  0.00000000000E+00  0.45593999997E+02  0.45594000000E+02  0.51100000000E-03 0.  1.
         11   -1    0    0    0    0 -0.00000000000E+00 -0.00000000000E+00 -0.45593999997E+02  0.45594000000E+02  0.51100000000E-03 0. -1.
    9900012    2    1    2    0    0  0.36947091479E+02 -0.13217131241E+02  0.10648237682E+02  0.50528867044E+02  0.30000021866E+02 0.  0.
         12    1    1    2    0    0 -0.36947091479E+02  0.13217131241E+02 -0.10648237682E+02  0.40659132956E+02  0.00000000000E+00 0. -1.
         11    1    3    3    0    0  0.21657493788E+02 -0.95239850702E+01  0.63528730937E+01  0.24497190157E+02  0.51100000000E-03 0. -1.
        -11    1    3    3    0    0  0.59027769841E+01 -0.80874660477E+01  0.10041996113E+02  0.14180675914E+02  0.51100000000E-03 0.  1.
         12    1    3    3    0    0  0.93868207070E+01  0.43943198771E+01 -0.57466315241E+01  0.11851000972E+02  0.00000000000E+00 0. -1.
</event>
<event>
 7    1  0.5456331E-013  0.5052881E+02  0.7816164E-02  0.1300439E+00
        -11   -1    0    0    0    0  0.00000000000E+00  0.00000000000E+00  0.45593999997E+02  0.45594000000E+02  0.51100000000E-03 0.  1.
         11   -1    0    0    0    0 -0.00000000000E+00 -0.00000000000E+00 -0.45593999997E+02  0.45594000000E+02  0.51100000000E-03 0. -1.
    9900012    2    1    2    0    0 -0.23944986358E+02 -0.27612000837E+02  0.17815300448E+02  0.50528808026E+02  0.29999842476E+02 0.  0.
         12    1    1    2    0    0  0.23944986358E+02  0.27612000837E+02 -0.17815300448E+02  0.40659191974E+02  0.00000000000E+00 0. -1.
         11    1    3    3    0    0 -0.13680295720E+02 -0.68000197400E+01  0.85078163030E+01  0.17486386075E+02  0.51100000000E-03 0. -1.
        -11    1    3    3    0    0 -0.15805117317E+02 -0.15511004720E+02  0.11653150281E+02  0.25023766954E+02  0.51100000000E-03 0.  1.
         12    1    3    3    0    0  0.55404266794E+01 -0.53009763775E+01 -0.23456661362E+01  0.80186549974E+01  0.00000000000E+00 0. -1.
</event>
<event>
 7    1  0.5456331E-013  0.5052886E+02  0.7816164E-02  0.1300439E+00
        -11   -1    0    0    0    0  0.00000000000E+00  0.00000000000E+00  0.45593999997E+02  0.45594000000E+02  0.51100000000E-03 0.  1.
         11   -1    0    0    0    0 -0.00000000000E+00 -0.00000000000E+00 -0.45593999997E+02  0.45594000000E+02  0.51100000000E-03 0. -1.
    9900012    2    1    2    0    0  0.18324311322E+02 -0.87304327469E+01  0.35230167307E+02  0.50528861668E+02  0.30000005527E+02 0.  0.
         12    1    1    2    0    0 -0.18324311322E+02  0.87304327469E+01 -0.35230167307E+02  0.40659138332E+02  0.00000000000E+00 0. -1.
         11    1    3    3    0    0  0.12816946139E+02 -0.11471306295E+02  0.10180268887E+02  0.19987567418E+02  0.51100000000E-03 0. -1.
        -11    1    3    3    0    0  0.28154799601E+01 -0.68494330475E+01  0.12362674344E+02  0.14411015845E+02  0.51100000000E-03 0.  1.
         12    1    3    3    0    0  0.26918852230E+01  0.95903065958E+01  0.12687224076E+02  0.16130278405E+02  0.00000000000E+00 0. -1.
</event>
<event>
 7    1  0.5456331E-013  0.5052887E+02  0.7816164E-02  0.1300439E+00
        -11   -1    0    0    0    0  0.00000000000E+00  0.00000000000E+00  0.45593999997E+02  0.45594000000E+02  0.51100000000E-03 0.  1.
         11   -1    0    0    0    0 -0.00000000000E+00 -0.00000000000E+00 -0.45593999997E+02  0.45594000000E+02  0.51100000000E-03 0. -1.
    9900012    2    1    2    0    0  0.13714421961E+02 -0.19038059340E+02  0.33205905485E+02  0.50528865329E+02  0.30000016654E+02 0.  0.
         12    1    1    2    0    0 -0.13714421961E+02  0.19038059340E+02 -0.33205905485E+02  0.40659134671E+02  0.00000000000E+00 0. -1.
         11    1    3    3    0    0  0.10340548349E+01 -0.12952121057E+02  0.26927788761E+01  0.13269429815E+02  0.51100000000E-03 0. -1.
        -11    1    3    3    0    0  0.31098557499E+01 -0.56003374392E+01  0.13289812773E+01  0.65422605967E+01  0.51100000000E-03 0.  1.
         12    1    3    3    0    0  0.95705113762E+01 -0.48560084340E+00  0.29184145331E+02  0.30717174917E+02  0.00000000000E+00 0. -1.
</event>
<event>
 7    1  0.5456331E-013  0.5052887E+02  0.7816164E-02  0.1300439E+00
        -11   -1    0    0    0    0  0.00000000000E+00  0.00000000000E+00  0.45593999997E+02  0.45594000000E+02  0.51100000000E-03 0. -1.
         11   -1    0    0    0    0 -0.00000000000E+00 -0.00000000000E+00 -0.45593999997E+02  0.45594000000E+02  0.51100000000E-03 0.  1.
    9900012    2    1    2    0    0 -0.15231576121E+02  0.29049946615E+02 -0.24026335912E+02  0.50528866625E+02  0.30000020592E+02 0.  0.
         12    1    1    2    0    0  0.15231576121E+02 -0.29049946615E+02  0.24026335912E+02  0.40659133375E+02  0.00000000000E+00 0. -1.
         11    1    3    3    0    0  0.55268351395E+01  0.69936581545E+01 -0.37374221142E+01  0.96656859747E+01  0.51100000000E-03 0. -1.
        -11    1    3    3    0    0 -0.12380140898E+02  0.65625682926E+01 -0.18429635028E+02  0.23151385245E+02  0.51100000000E-03 0.  1.
         12    1    3    3    0    0 -0.83782703624E+01  0.15493720168E+02 -0.18592787702E+01  0.17711795405E+02  0.00000000000E+00 0. -1.
</event>
<event>
 7    1  0.5456331E-013  0.5052886E+02  0.7816164E-02  0.1300439E+00
        -11   -1    0    0    0    0  0.00000000000E+00  0.00000000000E+00  0.45593999997E+02  0.45594000000E+02  0.51100000000E-03 0. -1.
         11   -1    0    0    0    0 -0.00000000000E+00 -0.00000000000E+00 -0.45593999997E+02  0.45594000000E+02  0.51100000000E-03 0.  1.
    9900012    2    1    2    0    0  0.25930404957E+02 -0.30966241685E+02  0.46766788364E+01  0.50528863877E+02  0.30000012241E+02 0.  0.
         12    1    1    2    0    0 -0.25930404957E+02  0.30966241685E+02 -0.46766788364E+01  0.40659136123E+02  0.00000000000E+00 0. -1.
         11    1    3    3    0    0  0.20208808560E+00 -0.56085119331E+01 -0.57589263134E+01  0.80412361141E+01  0.51100000000E-03 0. -1.
        -11    1    3    3    0    0  0.41654633055E+01 -0.14801785875E+02  0.10248182199E+02  0.18478884931E+02  0.51100000000E-03 0.  1.
        -12    1    3    3    0    0  0.21562853566E+02 -0.10555943877E+02  0.18742295128E+00  0.24008742832E+02  0.00000000000E+00 0.  1.
</event>
<event>
 7    1  0.5456331E-013  0.5052886E+02  0.7816164E-02  0.1300439E+00
        -11   -1    0    0    0    0  0.00000000000E+00  0.00000000000E+00  0.45593999997E+02  0.45594000000E+02  0.51100000000E-03 0.  1.
         11   -1    0    0    0    0 -0.00000000000E+00 -0.00000000000E+00 -0.45593999997E+02  0.45594000000E+02  0.51100000000E-03 0. -1.
    9900012    2    1    2    0    0 -0.39368953267E+02 -0.90680803653E+01 -0.45849009712E+01  0.50528857366E+02  0.29999992449E+02 0.  0.
         12    1    1    2    0    0  0.39368953267E+02  0.90680803653E+01  0.45849009712E+01  0.40659142634E+02  0.00000000000E+00 0. -1.
         11    1    3    3    0    0 -0.13922660938E+01 -0.30372945667E+01 -0.37189205737E+01  0.49993933287E+01  0.51100000000E-03 0. -1.
        -11    1    3    3    0    0  0.12879390297E+01 -0.40910491062E+00 -0.54365425172E+01  0.56019772022E+01  0.51100000000E-03 0.  1.
        -12    1    3    3    0    0 -0.39264626203E+02 -0.56216808880E+01  0.45705621196E+01  0.39927486835E+02  0.00000000000E+00 0.  1.
</event>
<event>
 7    1  0.5456331E-013  0.5052886E+02  0.7816164E-02  0.1300439E+00
        -11   -1    0    0    0    0  0.00000000000E+00  0.00000000000E+00  0.45593999997E+02  0.45594000000E+02  0.51100000000E-03 0.  1.
         11   -1    0    0    0    0 -0.00000000000E+00 -0.00000000000E+00 -0.45593999997E+02  0.45594000000E+02  0.51100000000E-03 0. -1.
    9900012    2    1    2    0    0  0.37958786210E+02 -0.14507137605E+02 -0.13562007720E+01  0.50528858684E+02  0.29999996456E+02 0.  0.
         12    1    1    2    0    0 -0.37958786210E+02  0.14507137605E+02  0.13562007720E+01  0.40659141316E+02  0.00000000000E+00 0. -1.
         11    1    3    3    0    0  0.22780417336E+01 -0.28717467018E+01 -0.10627602877E+02  0.11241990324E+02  0.51100000000E-03 0. -1.
        -11    1    3    3    0    0  0.26996682017E+01  0.41692504808E+00 -0.62993101614E+00  0.28033637369E+01  0.51100000000E-03 0.  1.
         12    1    3    3    0    0  0.32981076275E+02 -0.12052315951E+02  0.99013331214E+01  0.36483504623E+02  0.00000000000E+00 0. -1.
</event>
<event>
 7    1  0.5456331E-013  0.5052887E+02  0.7816164E-02  0.1300439E+00
        -11   -1    0    0    0    0  0.00000000000E+00  0.00000000000E+00  0.45593999997E+02  0.45594000000E+02  0.51100000000E-03 0.  1.
         11   -1    0    0    0    0 -0.00000000000E+00 -0.00000000000E+00 -0.45593999997E+02  0.45594000000E+02  0.51100000000E-03 0. -1.
    9900012    2    1    2    0    0  0.36850005486E+02 -0.67840682866E+01  0.15786645381E+02  0.50528872375E+02  0.30000038071E+02 0.  0.
         12    1    1    2    0    0 -0.36850005486E+02  0.67840682866E+01 -0.15786645381E+02  0.40659127625E+02  0.00000000000E+00 0. -1.
         11    1    3    3    0    0  0.16323376604E+02  0.28418601419E+01 -0.43336766911E+01  0.17126282339E+02  0.51100000000E-03 0. -1.
        -11    1    3    3    0    0  0.76974658671E+00 -0.47836760083E+01  0.77704321875E-01  0.48458336933E+01  0.51100000000E-03 0.  1.
        -12    1    3    3    0    0  0.19756882296E+02 -0.48422524202E+01  0.20042617750E+02  0.28556756343E+02  0.00000000000E+00 0.  1.
</event>
<event>
 7    1  0.5456331E-013  0.5052886E+02  0.7816164E-02  0.1300439E+00
        -11   -1    0    0    0    0  0.00000000000E+00  0.00000000000E+00  0.45593999997E+02  0.45594000000E+02  0.51100000000E-03 0. -1.
         11   -1    0    0    0    0 -0.00000000000E+00 -0.00000000000E+00 -0.45593999997E+02  0.45594000000E+02  0.51100000000E-03 0.  1.
    9900012    2    1    2    0    0 -0.35859875834E+02 -0.93639588301E+01 -0.16719784983E+02  0.50528860440E+02  0.30000001795E+02 0.  0.
         12    1    1    2    0    0  0.35859875834E+02  0.93639588301E+01  0.16719784983E+02  0.40659139560E+02  0.00000000000E+00 0. -1.
         11    1    3    3    0    0 -0.75923079603E+01 -0.12016643911E+02 -0.18386649583E+01  0.14332604793E+02  0.51100000000E-03 0. -1.
        -11    1    3    3    0    0 -0.12512568201E+02 -0.58728510422E+01 -0.16383601475E+01  0.13919014569E+02  0.51100000000E-03 0.  1.
        -12    1    3    3    0    0 -0.15754999673E+02  0.85255361233E+01 -0.13242759878E+02  0.22277241079E+02  0.00000000000E+00 0.  1.
</event>
<event>
 7    1  0.5456331E-013  0.5052887E+02  0.7816164E-02  0.1300439E+00
        -11   -1    0    0    0    0  0.00000000000E+00  0.00000000000E+00  0.45593999997E+02  0.45594000000E+02  0.51100000000E-03 0.  1.
         11   -1    0    0    0    0 -0.00000000000E+00 -0.00000000000E+00 -0.45593999997E+02  0.45594000000E+02  0.51100000000E-03 0. -1.
    9900012    2    1    2    0    0  0.12028992562E+02  0.24450677439E+02  0.30176692429E+02  0.50528867505E+02  0.30000023268E+02 0.  0.
         12    1    1    2    0    0 -0.12028992562E+02 -0.24450677439E+02 -0.30176692429E+02  0.40659132495E+02  0.00000000000E+00 0. -1.
         11    1    3    3    0    0 -0.16872451109E+01  0.10731322297E+01 -0.52018539384E+00  0.20661563232E+01  0.51100000000E-03 0. -1.
        -11    1    3    3    0    0 -0.74579939605E+01  0.85774749147E+01  0.12300815957E+02  0.16748278219E+02  0.51100000000E-03 0.  1.
         12    1    3    3    0    0  0.21174231634E+02  0.14800070295E+02  0.18396061866E+02  0.31714432963E+02  0.00000000000E+00 0. -1.
</event>
<event>
 7    1  0.5456331E-013  0.5052886E+02  0.7816164E-02  0.1300439E+00
        -11   -1    0    0    0    0  0.00000000000E+00  0.00000000000E+00  0.45593999997E+02  0.45594000000E+02  0.51100000000E-03 0. -1.
         11   -1    0    0    0    0 -0.00000000000E+00 -0.00000000000E+00 -0.45593999997E+02  0.45594000000E+02  0.51100000000E-03 0.  1.
    9900012    2    1    2    0    0 -0.26946690682E+02  0.30129585809E+02 -0.43874370148E+01  0.50528859782E+02  0.29999999793E+02 0.  0.
         12    1    1    2    0    0  0.26946690682E+02 -0.30129585809E+02  0.43874370148E+01  0.40659140218E+02  0.00000000000E+00 0. -1.
         11    1    3    3    0    0 -0.34123863982E+01  0.45615717830E+01  0.67347655875E+01  0.88209628636E+01  0.51100000000E-03 0.  1.
        -11    1    3    3    0    0 -0.30224935095E+01 -0.12280563593E+01  0.36283007240E+01  0.48793601877E+01  0.51100000000E-03 0. -1.
        -12    1    3    3    0    0 -0.20511810775E+02  0.26796070385E+02 -0.14750503326E+02  0.36828536730E+02  0.00000000000E+00 0.  1.
</event>
<event>
 7    1  0.5456331E-013  0.5052886E+02  0.7816164E-02  0.1300439E+00
        -11   -1    0    0    0    0  0.00000000000E+00  0.00000000000E+00  0.45593999997E+02  0.45594000000E+02  0.51100000000E-03 0.  1.
         11   -1    0    0    0    0 -0.00000000000E+00 -0.00000000000E+00 -0.45593999997E+02  0.45594000000E+02  0.51100000000E-03 0. -1.
    9900012    2    1    2    0    0 -0.35726952202E+02 -0.19351028313E+02 -0.15126232627E+01  0.50528862779E+02  0.30000008904E+02 0.  0.
         12    1    1    2    0    0  0.35726952202E+02  0.19351028313E+02  0.15126232627E+01  0.40659137221E+02  0.00000000000E+00 0. -1.
         11    1    3    3    0    0 -0.27897376177E+01 -0.25424204107E+01 -0.45377476459E+01  0.59023462690E+01  0.51100000000E-03 0. -1.
        -11    1    3    3    0    0 -0.22966347357E+02 -0.15589623622E+02 -0.87920724225E+01  0.29116833849E+02  0.51100000000E-03 0.  1.
        -12    1    3    3    0    0 -0.99708672265E+01 -0.12189842799E+01  0.11817196806E+02  0.15509682662E+02  0.00000000000E+00 0.  1.
</event>
<event>
 7    1  0.5456331E-013  0.5052887E+02  0.7816164E-02  0.1300439E+00
        -11   -1    0    0    0    0  0.00000000000E+00  0.00000000000E+00  0.45593999997E+02  0.45594000000E+02  0.51100000000E-03 0.  1.
         11   -1    0    0    0    0 -0.00000000000E+00 -0.00000000000E+00 -0.45593999997E+02  0.45594000000E+02  0.51100000000E-03 0. -1.
    9900012    2    1    2    0    0 -0.11903245766E+02  0.48582652569E+01  0.38572984112E+02  0.50528866901E+02  0.30000021432E+02 0.  0.
         12    1    1    2    0    0  0.11903245766E+02 -0.48582652569E+01 -0.38572984112E+02  0.40659133099E+02  0.00000000000E+00 0. -1.
         11    1    3    3    0    0 -0.76811631657E-01  0.39623521256E+01  0.48343264962E+01  0.62511476808E+01  0.51100000000E-03 0. -1.
        -11    1    3    3    0    0 -0.92569343473E+01  0.92667124676E+01  0.32983330515E+02  0.35488912150E+02  0.51100000000E-03 0.  1.
        -12    1    3    3    0    0 -0.25694997874E+01 -0.83707993363E+01  0.75532710089E+00  0.87888070701E+01  0.00000000000E+00 0.  1.
</event>
<event>
 7    1  0.5456331E-013  0.5052891E+02  0.7816164E-02  0.1300439E+00
        -11   -1    0    0    0    0  0.00000000000E+00  0.00000000000E+00  0.45593999997E+02  0.45594000000E+02  0.51100000000E-03 0.  1.
         11   -1    0    0    0    0 -0.00000000000E+00 -0.00000000000E+00 -0.45593999997E+02  0.45594000000E+02  0.51100000000E-03 0. -1.
    9900012    2    1    2    0    0  0.51831113626E+01  0.86658533272E+01  0.39385274879E+02  0.50528910800E+02  0.30000154868E+02 0.  0.
         12    1    1    2    0    0 -0.51831113626E+01 -0.86658533272E+01 -0.39385274879E+02  0.40659089200E+02  0.00000000000E+00 0. -1.
         11    1    3    3    0    0 -0.35969018951E+01  0.16445576587E+02  0.20605727891E+02  0.26608094909E+02  0.51100000000E-03 0. -1.
        -11    1    3    3    0    0  0.19572527350E+01  0.19630266501E+01  0.50072387892E+01  0.57233515051E+01  0.51100000000E-03 0.  1.
        -12    1    3    3    0    0  0.68227605227E+01 -0.97427499101E+01  0.13772308199E+02  0.18197464386E+02  0.00000000000E+00 0.  1.
</event>
<event>
 7    1  0.5456331E-013  0.5052886E+02  0.7816164E-02  0.1300439E+00
        -11   -1    0    0    0    0  0.00000000000E+00  0.00000000000E+00  0.45593999997E+02  0.45594000000E+02  0.51100000000E-03 0. -1.
         11   -1    0    0    0    0 -0.00000000000E+00 -0.00000000000E+00 -0.45593999997E+02  0.45594000000E+02  0.51100000000E-03 0.  1.
    9900012    2    1    2    0    0  0.26427575632E+02 -0.22455228589E+02 -0.21225254897E+02  0.50528862156E+02  0.30000007010E+02 0.  0.
         12    1    1    2    0    0 -0.26427575632E+02  0.22455228589E+02  0.21225254897E+02  0.40659137844E+02  0.00000000000E+00 0. -1.
         11    1    3    3    0    0  0.53456381091E+01 -0.80130235230E+01 -0.16291242321E+02  0.18925880941E+02  0.51100000000E-03 0. -1.
        -11    1    3    3    0    0  0.10244364757E+02 -0.11189539145E+01 -0.93011068560E+01  0.13881990353E+02  0.51100000000E-03 0.  1.
        -12    1    3    3    0    0  0.10837572766E+02 -0.13323251151E+02  0.43670942802E+01  0.17720990862E+02  0.00000000000E+00 0.  1.
</event>
<event>
 7    1  0.5456331E-013  0.5052884E+02  0.7816164E-02  0.1300439E+00
        -11   -1    0    0    0    0  0.00000000000E+00  0.00000000000E+00  0.45593999997E+02  0.45594000000E+02  0.51100000000E-03 0.  1.
         11   -1    0    0    0    0 -0.00000000000E+00 -0.00000000000E+00 -0.45593999997E+02  0.45594000000E+02  0.51100000000E-03 0. -1.
    9900012    2    1    2    0    0  0.25318447531E+02 -0.22306938434E+02  0.22683563738E+02  0.50528839267E+02  0.29999937436E+02 0.  0.
         12    1    1    2    0    0 -0.25318447531E+02  0.22306938434E+02 -0.22683563738E+02  0.40659160733E+02  0.00000000000E+00 0. -1.
         11    1    3    3    0    0 -0.13573251686E+00  0.87475671510E+00 -0.10589127246E+01  0.13801880474E+01  0.51100000000E-03 0. -1.
        -11    1    3    3    0    0 -0.45349436104E+00 -0.73878943272E+01 -0.36661364143E+01  0.82599755566E+01  0.51100000000E-03 0.  1.
        -12    1    3    3    0    0  0.25907674409E+02 -0.15793800822E+02  0.27408612877E+02  0.40888675663E+02  0.00000000000E+00 0.  1.
</event>
<event>
 7    1  0.5456331E-013  0.5052886E+02  0.7816164E-02  0.1300439E+00
        -11   -1    0    0    0    0  0.00000000000E+00  0.00000000000E+00  0.45593999997E+02  0.45594000000E+02  0.51100000000E-03 0. -1.
         11   -1    0    0    0    0 -0.00000000000E+00 -0.00000000000E+00 -0.45593999997E+02  0.45594000000E+02  0.51100000000E-03 0.  1.
    9900012    2    1    2    0    0  0.29486218495E+02  0.12132018482E+02 -0.25229805589E+02  0.50528855350E+02  0.29999986323E+02 0.  0.
         12    1    1    2    0    0 -0.29486218495E+02 -0.12132018482E+02  0.25229805589E+02  0.40659144650E+02  0.00000000000E+00 0. -1.
         11    1    3    3    0    0  0.78164927135E+01  0.11112300043E+02 -0.97155709960E+01  0.16702487558E+02  0.51100000000E-03 0. -1.
        -11    1    3    3    0    0  0.51163167523E+01  0.37952051986E+01 -0.15803816673E+02  0.17039392633E+02  0.51100000000E-03 0.  1.
         12    1    3    3    0    0  0.16553409029E+02 -0.27754867594E+01  0.28958207972E+00  0.16786975160E+02  0.00000000000E+00 0. -1.
</event>
<event>
 7    1  0.5456331E-013  0.5052886E+02  0.7816164E-02  0.1300439E+00
        -11   -1    0    0    0    0  0.00000000000E+00  0.00000000000E+00  0.45593999997E+02  0.45594000000E+02  0.51100000000E-03 0.  1.
         11   -1    0    0    0    0 -0.00000000000E+00 -0.00000000000E+00 -0.45593999997E+02  0.45594000000E+02  0.51100000000E-03 0. -1.
    9900012    2    1    2    0    0  0.29164602941E+02  0.28237633689E+02  0.22864270306E+01  0.50528858720E+02  0.29999996566E+02 0.  0.
         12    1    1    2    0    0 -0.29164602941E+02 -0.28237633689E+02 -0.22864270306E+01  0.40659141280E+02  0.00000000000E+00 0. -1.
         11    1    3    3    0    0  0.18203190680E+02  0.11670053508E+01  0.11997494945E+01  0.18279974058E+02  0.51100000000E-03 0. -1.
        -11    1    3    3    0    0  0.74606780461E+01  0.37891807596E+01 -0.17083590481E+01  0.85403804737E+01  0.51100000000E-03 0.  1.
         12    1    3    3    0    0  0.35007342142E+01  0.23281447578E+02  0.27950365842E+01  0.23708504189E+02  0.00000000000E+00 0. -1.
</event>
<event>
 7    1  0.5456331E-013  0.5052887E+02  0.7816164E-02  0.1300439E+00
        -11   -1    0    0    0    0  0.00000000000E+00  0.00000000000E+00  0.45593999997E+02  0.45594000000E+02  0.51100000000E-03 0.  1.
         11   -1    0    0    0    0 -0.00000000000E+00 -0.00000000000E+00 -0.45593999997E+02  0.45594000000E+02  0.51100000000E-03 0. -1.
    9900012    2    1    2    0    0 -0.29316837328E+02  0.81265932589E+01  0.26974927362E+02  0.50528866032E+02  0.30000018789E+02 0.  0.
         12    1    1    2    0    0  0.29316837328E+02 -0.81265932589E+01 -0.26974927362E+02  0.40659133968E+02  0.00000000000E+00 0. -1.
         11    1    3    3    0    0 -0.79347532988E+00  0.85401272602E+01  0.82014344744E+01  0.11867051210E+02  0.51100000000E-03 0. -1.
        -11    1    3    3    0    0 -0.10136352509E+02  0.63625443888E+01  0.14141575827E+02  0.18525975829E+02  0.51100000000E-03 0.  1.
         12    1    3    3    0    0 -0.18387009488E+02 -0.67760783902E+01  0.46319170606E+01  0.20135838993E+02  0.00000000000E+00 0. -1.
</event>
<event>
 7    1  0.5456331E-013  0.5052886E+02  0.7816164E-02  0.1300439E+00
        -11   -1    0    0    0    0  0.00000000000E+00  0.00000000000E+00  0.45593999997E+02  0.45594000000E+02  0.51100000000E-03 0.  1.
         11   -1    0    0    0    0 -0.00000000000E+00 -0.00000000000E+00 -0.45593999997E+02  0.45594000000E+02  0.51100000000E-03 0. -1.
    9900012    2    1    2    0    0 -0.40250547959E+02 -0.40578412579E+01 -0.40734287325E+01  0.50528861933E+02  0.30000006333E+02 0.  0.
         12    1    1    2    0    0  0.40250547959E+02  0.40578412579E+01  0.40734287325E+01  0.40659138067E+02  0.00000000000E+00 0. -1.
         11    1    3    3    0    0 -0.50275534763E+00 -0.85981778083E+00 -0.47574979603E+01  0.48606415893E+01  0.51100000000E-03 0. -1.
        -11    1    3    3    0    0 -0.17000080744E+02  0.24277562315E+01 -0.10046138064E+02  0.19895266671E+02  0.51100000000E-03 0.  1.
         12    1    3    3    0    0 -0.22747711867E+02 -0.56257797086E+01  0.10730207292E+02  0.25772953673E+02  0.00000000000E+00 0. -1.
</event>
<event>
 7    1  0.5456331E-013  0.5052890E+02  0.7816164E-02  0.1300439E+00
        -11   -1    0    0    0    0  0.00000000000E+00  0.00000000000E+00  0.45593999997E+02  0.45594000000E+02  0.51100000000E-03 0.  1.
         11   -1    0    0    0    0 -0.00000000000E+00 -0.00000000000E+00 -0.45593999997E+02  0.45594000000E+02  0.51100000000E-03 0. -1.
    9900012    2    1    2    0    0 -0.12785486852E+02  0.38504036258E+02 -0.26707172417E+01  0.50528902460E+02  0.30000129518E+02 0.  0.
         12    1    1    2    0    0  0.12785486852E+02 -0.38504036258E+02  0.26707172417E+01  0.40659097540E+02  0.00000000000E+00 0. -1.
         11    1    3    3    0    0 -0.39316933770E+00  0.77101700393E+01  0.44600864284E+01  0.89159225756E+01  0.51100000000E-03 0. -1.
        -11    1    3    3    0    0 -0.64051393464E+00  0.72476404055E+01  0.83547825998E+01  0.11078851118E+02  0.51100000000E-03 0.  1.
         12    1    3    3    0    0 -0.11751803580E+02  0.23546225813E+02 -0.15485586270E+02  0.30534128766E+02  0.00000000000E+00 0. -1.
</event>
<event>
 7    1  0.5456331E-013  0.5052887E+02  0.7816164E-02  0.1300439E+00
        -11   -1    0    0    0    0  0.00000000000E+00  0.00000000000E+00  0.45593999997E+02  0.45594000000E+02  0.51100000000E-03 0.  1.
         11   -1    0    0    0    0 -0.00000000000E+00 -0.00000000000E+00 -0.45593999997E+02  0.45594000000E+02  0.51100000000E-03 0. -1.
    9900012    2    1    2    0    0  0.35926033727E+02  0.56803497549E+01  0.18171927054E+02  0.50528865657E+02  0.30000017650E+02 0.  0.
         12    1    1    2    0    0 -0.35926033727E+02 -0.56803497549E+01 -0.18171927054E+02  0.40659134343E+02  0.00000000000E+00 0. -1.
         11    1    3    3    0    0  0.13222285283E+02 -0.51203113862E+01  0.33040062810E+01  0.14558944830E+02  0.51100000000E-03 0. -1.
        -11    1    3    3    0    0  0.14264186816E+02 -0.40444647570E+01  0.10998641707E+02  0.18460629468E+02  0.51100000000E-03 0.  1.
         12    1    3    3    0    0  0.84395616281E+01  0.14845125898E+02  0.38692790660E+01  0.17509291359E+02  0.00000000000E+00 0. -1.
</event>
<event>
 7    1  0.5456331E-013  0.5052890E+02  0.7816164E-02  0.1300439E+00
        -11   -1    0    0    0    0  0.00000000000E+00  0.00000000000E+00  0.45593999997E+02  0.45594000000E+02  0.51100000000E-03 0. -1.
         11   -1    0    0    0    0 -0.00000000000E+00 -0.00000000000E+00 -0.45593999997E+02  0.45594000000E+02  0.51100000000E-03 0.  1.
    9900012    2    1    2    0    0  0.17349420356E+02  0.32551121896E+02 -0.17105103659E+02  0.50528898994E+02  0.30000118983E+02 0.  0.
         12    1    1    2    0    0 -0.17349420356E+02 -0.32551121896E+02  0.17105103659E+02  0.40659101006E+02  0.00000000000E+00 0. -1.
         11    1    3    3    0    0  0.15969315313E+02  0.22962103436E+02 -0.22288330668E+02  0.35763765322E+02  0.51100000000E-03 0. -1.
        -11    1    3    3    0    0  0.16649656283E+01  0.20258106323E+01 -0.27506011367E+01  0.38002402734E+01  0.51100000000E-03 0.  1.
         12    1    3    3    0    0 -0.28486058526E+00  0.75632078277E+01  0.79338281459E+01  0.10964893399E+02  0.00000000000E+00 0. -1.
</event>
<event>
 7    1  0.5456331E-013  0.5052885E+02  0.7816164E-02  0.1300439E+00
        -11   -1    0    0    0    0  0.00000000000E+00  0.00000000000E+00  0.45593999997E+02  0.45594000000E+02  0.51100000000E-03 0.  1.
         11   -1    0    0    0    0 -0.00000000000E+00 -0.00000000000E+00 -0.45593999997E+02  0.45594000000E+02  0.51100000000E-03 0. -1.
    9900012    2    1    2    0    0 -0.23877782059E+02  0.21186179647E+01  0.32840971536E+02  0.50528850604E+02  0.29999971897E+02 0.  0.
         12    1    1    2    0    0  0.23877782059E+02 -0.21186179647E+01 -0.32840971536E+02  0.40659149396E+02  0.00000000000E+00 0. -1.
         11    1    3    3    0    0  0.16027620252E+01 -0.52800917216E+01  0.76418767447E+01  0.94258418796E+01  0.51100000000E-03 0. -1.
        -11    1    3    3    0    0 -0.15366064660E+02  0.87253566218E+01  0.25349766548E+02  0.30900784061E+02  0.51100000000E-03 0.  1.
         12    1    3    3    0    0 -0.10114479424E+02 -0.13266469355E+01 -0.15067175585E+00  0.10202224663E+02  0.00000000000E+00 0. -1.
</event>
<event>
 7    1  0.5456331E-013  0.5052887E+02  0.7816164E-02  0.1300439E+00
        -11   -1    0    0    0    0  0.00000000000E+00  0.00000000000E+00  0.45593999997E+02  0.45594000000E+02  0.51100000000E-03 0.  1.
         11   -1    0    0    0    0 -0.00000000000E+00 -0.00000000000E+00 -0.45593999997E+02  0.45594000000E+02  0.51100000000E-03 0. -1.
    9900012    2    1    2    0    0 -0.88821811092E+01  0.77637148604E+01  0.38910112018E+02  0.50528865393E+02  0.30000016849E+02 0.  0.
         12    1    1    2    0    0  0.88821811092E+01 -0.77637148604E+01 -0.38910112018E+02  0.40659134607E+02  0.00000000000E+00 0. -1.
         11    1    3    3    0    0 -0.51003918187E+01 -0.27711923052E+01  0.21155443281E+01  0.61781090604E+01  0.51100000000E-03 0. -1.
        -11    1    3    3    0    0 -0.21927645932E+01  0.87269260682E+00 -0.27430745644E+01  0.36186001816E+01  0.51100000000E-03 0.  1.
        -12    1    3    3    0    0 -0.15890246973E+01  0.96622145588E+01  0.39537642255E+02  0.40732156151E+02  0.00000000000E+00 0.  1.
</event>
<event>
 7    1  0.5456331E-013  0.5052884E+02  0.7816164E-02  0.1300439E+00
        -11   -1    0    0    0    0  0.00000000000E+00  0.00000000000E+00  0.45593999997E+02  0.45594000000E+02  0.51100000000E-03 0.  1.
         11   -1    0    0    0    0 -0.00000000000E+00 -0.00000000000E+00 -0.45593999997E+02  0.45594000000E+02  0.51100000000E-03 0. -1.
    9900012    2    1    2    0    0  0.25666098130E+02  0.22384044683E+02  0.22212007492E+02  0.50528839576E+02  0.29999938374E+02 0.  0.
         12    1    1    2    0    0 -0.25666098130E+02 -0.22384044683E+02 -0.22212007492E+02  0.40659160424E+02  0.00000000000E+00 0. -1.
         11    1    3    3    0    0 -0.15165861176E+01  0.22829350624E+01 -0.18060120105E+01  0.32823018743E+01  0.51100000000E-03 0. -1.
        -11    1    3    3    0    0  0.12929230583E+02  0.11630324245E+02 -0.78922601587E+00  0.17408398073E+02  0.51100000000E-03 0.  1.
        -12    1    3    3    0    0  0.14253453664E+02  0.84707853762E+01  0.24807245518E+02  0.29838139628E+02  0.00000000000E+00 0.  1.
</event>
<event>
 7    1  0.5456331E-013  0.5052886E+02  0.7816164E-02  0.1300439E+00
        -11   -1    0    0    0    0  0.00000000000E+00  0.00000000000E+00  0.45593999997E+02  0.45594000000E+02  0.51100000000E-03 0.  1.
         11   -1    0    0    0    0 -0.00000000000E+00 -0.00000000000E+00 -0.45593999997E+02  0.45594000000E+02  0.51100000000E-03 0. -1.
    9900012    2    1    2    0    0 -0.36688024144E+02 -0.14223019043E+02  0.10240143557E+02  0.50528856793E+02  0.29999990708E+02 0.  0.
         12    1    1    2    0    0  0.36688024144E+02  0.14223019043E+02 -0.10240143557E+02  0.40659143207E+02  0.00000000000E+00 0. -1.
         11    1    3    3    0    0  0.12255266365E+01 -0.52662338634E+01  0.18947778518E+01  0.57293383571E+01  0.51100000000E-03 0. -1.
        -11    1    3    3    0    0  0.16580413903E+00 -0.45965131205E+01  0.42338052421E+01  0.62514423111E+01  0.51100000000E-03 0.  1.
         12    1    3    3    0    0 -0.38079354919E+02 -0.43602720587E+01  0.41115604633E+01  0.38548076125E+02  0.00000000000E+00 0. -1.
</event>
<event>
 7    1  0.5456331E-013  0.5052886E+02  0.7816164E-02  0.1300439E+00
        -11   -1    0    0    0    0  0.00000000000E+00  0.00000000000E+00  0.45593999997E+02  0.45594000000E+02  0.51100000000E-03 0. -1.
         11   -1    0    0    0    0 -0.00000000000E+00 -0.00000000000E+00 -0.45593999997E+02  0.45594000000E+02  0.51100000000E-03 0.  1.
    9900012    2    1    2    0    0 -0.18910729968E+00  0.40346374039E+02  0.50299289181E+01  0.50528857798E+02  0.29999993764E+02 0.  0.
         12    1    1    2    0    0  0.18910729968E+00 -0.40346374039E+02 -0.50299289181E+01  0.40659142202E+02  0.00000000000E+00 0. -1.
         11    1    3    3    0    0 -0.40846970358E+01  0.15414178169E+02  0.81880594079E+01  0.17925567094E+02  0.51100000000E-03 0. -1.
        -11    1    3    3    0    0 -0.51064586118E+00  0.13578755551E+02 -0.11533220453E+02  0.17822977748E+02  0.51100000000E-03 0.  1.
         12    1    3    3    0    0  0.44062355973E+01  0.11353440319E+02  0.83750899635E+01  0.14780312957E+02  0.00000000000E+00 0. -1.
</event>
<event>
 7    1  0.5456331E-013  0.5052886E+02  0.7816164E-02  0.1300439E+00
        -11   -1    0    0    0    0  0.00000000000E+00  0.00000000000E+00  0.45593999997E+02  0.45594000000E+02  0.51100000000E-03 0. -1.
         11   -1    0    0    0    0 -0.00000000000E+00 -0.00000000000E+00 -0.45593999997E+02  0.45594000000E+02  0.51100000000E-03 0.  1.
    9900012    2    1    2    0    0  0.77090996134E+01 -0.11258784864E+02 -0.38301109819E+02  0.50528862443E+02  0.30000007882E+02 0.  0.
         12    1    1    2    0    0 -0.77090996134E+01  0.11258784864E+02  0.38301109819E+02  0.40659137557E+02  0.00000000000E+00 0. -1.
         11    1    3    3    0    0 -0.78702012210E-02 -0.14604541246E+02 -0.15024821384E+02  0.20953232324E+02  0.51100000000E-03 0. -1.
        -11    1    3    3    0    0  0.15405574479E+01 -0.62684074880E+01 -0.57009847260E+01  0.86120541564E+01  0.51100000000E-03 0.  1.
        -12    1    3    3    0    0  0.61764123668E+01  0.96141638701E+01 -0.17575303710E+02  0.20963575963E+02  0.00000000000E+00 0.  1.
</event>
<event>
 7    1  0.5456331E-013  0.5052885E+02  0.7816164E-02  0.1300439E+00
        -11   -1    0    0    0    0  0.00000000000E+00  0.00000000000E+00  0.45593999997E+02  0.45594000000E+02  0.51100000000E-03 0.  1.
         11   -1    0    0    0    0 -0.00000000000E+00 -0.00000000000E+00 -0.45593999997E+02  0.45594000000E+02  0.51100000000E-03 0. -1.
    9900012    2    1    2    0    0 -0.17999225423E+02  0.26432077086E+02  0.25110545124E+02  0.50528852304E+02  0.29999977065E+02 0.  0.
         12    1    1    2    0    0  0.17999225423E+02 -0.26432077086E+02 -0.25110545124E+02  0.40659147696E+02  0.00000000000E+00 0. -1.
         11    1    3    3    0    0 -0.60259675536E+01  0.70608908073E+01 -0.52939786475E+01  0.10686190815E+02  0.51100000000E-03 0. -1.
        -11    1    3    3    0    0  0.14236077630E+01  0.72300887884E+00 -0.17046938486E+00  0.16057586911E+01  0.51100000000E-03 0.  1.
        -12    1    3    3    0    0 -0.13396865632E+02  0.18648177399E+02  0.30574993157E+02  0.38236902799E+02  0.00000000000E+00 0.  1.
</event>
<event>
 7    1  0.5456331E-013  0.5052886E+02  0.7816164E-02  0.1300439E+00
        -11   -1    0    0    0    0  0.00000000000E+00  0.00000000000E+00  0.45593999997E+02  0.45594000000E+02  0.51100000000E-03 0. -1.
         11   -1    0    0    0    0 -0.00000000000E+00 -0.00000000000E+00 -0.45593999997E+02  0.45594000000E+02  0.51100000000E-03 0.  1.
    9900012    2    1    2    0    0  0.17381370218E+02 -0.39483524794E+01 -0.36544006466E+02  0.50528856790E+02  0.29999990699E+02 0.  0.
         12    1    1    2    0    0 -0.17381370218E+02  0.39483524794E+01  0.36544006466E+02  0.40659143210E+02  0.00000000000E+00 0. -1.
         11    1    3    3    0    0 -0.18171504746E+01  0.12087454191E+01  0.32307096870E+01  0.38987929771E+01  0.51100000000E-03 0.  1.
        -11    1    3    3    0    0  0.27395067460E+01 -0.11099835871E+01  0.44099430021E+00  0.29885509882E+01  0.51100000000E-03 0. -1.
        -12    1    3    3    0    0  0.16459013947E+02 -0.40471143114E+01 -0.40215710453E+02  0.43641512825E+02  0.00000000000E+00 0.  1.
</event>
<event>
 7    1  0.5456331E-013  0.5052886E+02  0.7816164E-02  0.1300439E+00
        -11   -1    0    0    0    0  0.00000000000E+00  0.00000000000E+00  0.45593999997E+02  0.45594000000E+02  0.51100000000E-03 0.  1.
         11   -1    0    0    0    0 -0.00000000000E+00 -0.00000000000E+00 -0.45593999997E+02  0.45594000000E+02  0.51100000000E-03 0. -1.
    9900012    2    1    2    0    0 -0.43594028740E+01  0.23186158428E+02  0.33114394655E+02  0.50528862411E+02  0.30000007785E+02 0.  0.
         12    1    1    2    0    0  0.43594028740E+01 -0.23186158428E+02 -0.33114394655E+02  0.40659137589E+02  0.00000000000E+00 0. -1.
         11    1    3    3    0    0  0.71946224226E+01  0.62695732834E+01  0.11413590637E+02  0.14877506258E+02  0.51100000000E-03 0. -1.
        -11    1    3    3    0    0  0.11112591108E+01  0.15280959872E+02  0.13898720437E+02  0.20686156276E+02  0.51100000000E-03 0.  1.
         12    1    3    3    0    0 -0.12665284407E+02  0.16356252726E+01  0.78020835814E+01  0.14965199877E+02  0.00000000000E+00 0. -1.
</event>
<event>
 7    1  0.5456331E-013  0.5052885E+02  0.7816164E-02  0.1300439E+00
        -11   -1    0    0    0    0  0.00000000000E+00  0.00000000000E+00  0.45593999997E+02  0.45594000000E+02  0.51100000000E-03 0.  1.
         11   -1    0    0    0    0 -0.00000000000E+00 -0.00000000000E+00 -0.45593999997E+02  0.45594000000E+02  0.51100000000E-03 0. -1.
    9900012    2    1    2    0    0 -0.20277524788E+02 -0.32767167754E+02  0.12973094027E+02  0.50528850196E+02  0.29999970655E+02 0.  0.
         12    1    1    2    0    0  0.20277524788E+02  0.32767167754E+02 -0.12973094027E+02  0.40659149804E+02  0.00000000000E+00 0. -1.
         11    1    3    3    0    0  0.20089191129E+01 -0.60444760929E+01  0.76922781693E+01  0.99871212537E+01  0.51100000000E-03 0. -1.
        -11    1    3    3    0    0  0.25495190309E+01 -0.93957114417E+01 -0.34125890864E+00  0.97414525964E+01  0.51100000000E-03 0.  1.
        -12    1    3    3    0    0 -0.24835962932E+02 -0.17326980220E+02  0.56220747662E+01  0.30800276346E+02  0.00000000000E+00 0.  1.
</event>
<event>
 7    1  0.5456331E-013  0.5052886E+02  0.7816164E-02  0.1300439E+00
        -11   -1    0    0    0    0  0.00000000000E+00  0.00000000000E+00  0.45593999997E+02  0.45594000000E+02  0.51100000000E-03 0.  1.
         11   -1    0    0    0    0 -0.00000000000E+00 -0.00000000000E+00 -0.45593999997E+02  0.45594000000E+02  0.51100000000E-03 0. -1.
    9900012    2    1    2    0    0  0.14785073997E+02 -0.18116204383E+01  0.37832333298E+02  0.50528858046E+02  0.29999994516E+02 0.  0.
         12    1    1    2    0    0 -0.14785073997E+02  0.18116204383E+01 -0.37832333298E+02  0.40659141954E+02  0.00000000000E+00 0. -1.
         11    1    3    3    0    0  0.52941778902E+01 -0.72764084167E+01  0.16037301382E+01  0.91403714146E+01  0.51100000000E-03 0. -1.
        -11    1    3    3    0    0  0.16942462690E+01 -0.50613006423E+01  0.42226742174E+01  0.68057484834E+01  0.51100000000E-03 0.  1.
         12    1    3    3    0    0  0.77966498383E+01  0.10526088621E+02  0.32005928942E+02  0.34582738148E+02  0.00000000000E+00 0. -1.
</event>
<event>
 7    1  0.5456331E-013  0.5052886E+02  0.7816164E-02  0.1300439E+00
        -11   -1    0    0    0    0  0.00000000000E+00  0.00000000000E+00  0.45593999997E+02  0.45594000000E+02  0.51100000000E-03 0.  1.
         11   -1    0    0    0    0 -0.00000000000E+00 -0.00000000000E+00 -0.45593999997E+02  0.45594000000E+02  0.51100000000E-03 0. -1.
    9900012    2    1    2    0    0  0.13469128136E+02 -0.87223905154E+01  0.37358640302E+02  0.50528861860E+02  0.30000006111E+02 0.  0.
         12    1    1    2    0    0 -0.13469128136E+02  0.87223905154E+01 -0.37358640302E+02  0.40659138140E+02  0.00000000000E+00 0. -1.
         11    1    3    3    0    0  0.63289553053E+01 -0.55652757682E+01 -0.13828171186E+01  0.85405007510E+01  0.51100000000E-03 0. -1.
        -11    1    3    3    0    0  0.45727342438E+01 -0.64476842563E+01  0.90967177459E+01  0.12051257393E+02  0.51100000000E-03 0.  1.
        -12    1    3    3    0    0  0.25674385872E+01  0.32905695091E+01  0.29644739674E+02  0.29937103717E+02  0.00000000000E+00 0.  1.
</event>
<event>
 7    1  0.5456331E-013  0.5052886E+02  0.7816164E-02  0.1300439E+00
        -11   -1    0    0    0    0  0.00000000000E+00  0.00000000000E+00  0.45593999997E+02  0.45594000000E+02  0.51100000000E-03 0.  1.
         11   -1    0    0    0    0 -0.00000000000E+00 -0.00000000000E+00 -0.45593999997E+02  0.45594000000E+02  0.51100000000E-03 0. -1.
    9900012    2    1    2    0    0  0.13393439389E+02  0.50256358234E+01  0.38059481793E+02  0.50528863408E+02  0.30000010814E+02 0.  0.
         12    1    1    2    0    0 -0.13393439389E+02 -0.50256358234E+01 -0.38059481793E+02  0.40659136592E+02  0.00000000000E+00 0. -1.
         11    1    3    3    0    0  0.93269537425E+01  0.51908922210E+00  0.56743690632E+01  0.10929775124E+02  0.51100000000E-03 0. -1.
        -11    1    3    3    0    0 -0.25046337199E+00  0.92177185629E+01  0.32587117880E+01  0.97799933632E+01  0.51100000000E-03 0.  1.
         12    1    3    3    0    0  0.43169490184E+01 -0.47111719616E+01  0.29126400941E+02  0.29819094921E+02  0.00000000000E+00 0. -1.
</event>
<event>
 7    1  0.5456331E-013  0.5052885E+02  0.7816164E-02  0.1300439E+00
        -11   -1    0    0    0    0  0.00000000000E+00  0.00000000000E+00  0.45593999997E+02  0.45594000000E+02  0.51100000000E-03 0.  1.
         11   -1    0    0    0    0 -0.00000000000E+00 -0.00000000000E+00 -0.45593999997E+02  0.45594000000E+02  0.51100000000E-03 0. -1.
    9900012    2    1    2    0    0 -0.93954347969E+00  0.32237834652E+02  0.24758949495E+02  0.50528852135E+02  0.29999976551E+02 0.  0.
         12    1    1    2    0    0  0.93954347969E+00 -0.32237834652E+02 -0.24758949495E+02  0.40659147865E+02  0.00000000000E+00 0. -1.
         11    1    3    3    0    0  0.51118410075E+01  0.50138840238E+01  0.72756875427E+01  0.10208113487E+02  0.51100000000E-03 0. -1.
        -11    1    3    3    0    0 -0.10538171505E+02  0.14407796738E+02  0.19675353624E+02  0.26566091282E+02  0.51100000000E-03 0.  1.
         12    1    3    3    0    0  0.44867870178E+01  0.12816153890E+02 -0.21920916714E+01  0.13754647366E+02  0.00000000000E+00 0. -1.
</event>
<event>
 7    1  0.5456331E-013  0.5052886E+02  0.7816164E-02  0.1300439E+00
        -11   -1    0    0    0    0  0.00000000000E+00  0.00000000000E+00  0.45593999997E+02  0.45594000000E+02  0.51100000000E-03 0. -1.
         11   -1    0    0    0    0 -0.00000000000E+00 -0.00000000000E+00 -0.45593999997E+02  0.45594000000E+02  0.51100000000E-03 0.  1.
    9900012    2    1    2    0    0 -0.17392554494E+01 -0.39529017609E+01 -0.40429135093E+02  0.50528863189E+02  0.30000010150E+02 0.  0.
         12    1    1    2    0    0  0.17392554494E+01  0.39529017609E+01  0.40429135093E+02  0.40659136811E+02  0.00000000000E+00 0. -1.
         11    1    3    3    0    0 -0.44717304885E+01 -0.65102741533E+01 -0.92755088270E+01  0.12182573922E+02  0.51100000000E-03 0. -1.
        -11    1    3    3    0    0 -0.41746722637E+01 -0.71557528137E+01 -0.21392693019E+02  0.22940793397E+02  0.51100000000E-03 0.  1.
         12    1    3    3    0    0  0.69071473028E+01  0.97131252061E+01 -0.97609332472E+01  0.15405495870E+02  0.00000000000E+00 0. -1.
</event>
<event>
 7    1  0.5456331E-013  0.5052886E+02  0.7816164E-02  0.1300439E+00
        -11   -1    0    0    0    0  0.00000000000E+00  0.00000000000E+00  0.45593999997E+02  0.45594000000E+02  0.51100000000E-03 0.  1.
         11   -1    0    0    0    0 -0.00000000000E+00 -0.00000000000E+00 -0.45593999997E+02  0.45594000000E+02  0.51100000000E-03 0. -1.
    9900012    2    1    2    0    0  0.13907316452E+02 -0.20844123433E+02  0.32019911560E+02  0.50528859959E+02  0.30000000330E+02 0.  0.
         12    1    1    2    0    0 -0.13907316452E+02  0.20844123433E+02 -0.32019911560E+02  0.40659140041E+02  0.00000000000E+00 0. -1.
         11    1    3    3    0    0 -0.16948917353E+01 -0.34824293815E+01  0.16821055048E+02  0.17261166403E+02  0.51100000000E-03 0. -1.
        -11    1    3    3    0    0 -0.32195200954E+01 -0.52939781260E+00  0.51386466993E+01  0.60869747699E+01  0.51100000000E-03 0.  1.
         12    1    3    3    0    0  0.18821728283E+02 -0.16832296239E+02  0.10060209812E+02  0.27180718786E+02  0.00000000000E+00 0. -1.
</event>
<event>
 7    1  0.5456331E-013  0.5052886E+02  0.7816164E-02  0.1300439E+00
        -11   -1    0    0    0    0  0.00000000000E+00  0.00000000000E+00  0.45593999997E+02  0.45594000000E+02  0.51100000000E-03 0.  1.
         11   -1    0    0    0    0 -0.00000000000E+00 -0.00000000000E+00 -0.45593999997E+02  0.45594000000E+02  0.51100000000E-03 0. -1.
    9900012    2    1    2    0    0 -0.24520949758E+02  0.19963147133E+01  0.32371338313E+02  0.50528858425E+02  0.29999995667E+02 0.  0.
         12    1    1    2    0    0  0.24520949758E+02 -0.19963147133E+01 -0.32371338313E+02  0.40659141575E+02  0.00000000000E+00 0. -1.
         11    1    3    3    0    0 -0.44447745473E+01  0.55504861215E+01  0.54320541778E+01  0.89482473039E+01  0.51100000000E-03 0.  1.
        -11    1    3    3    0    0 -0.23787069185E+02 -0.70660070028E+00  0.13521077111E+02  0.27370485408E+02  0.51100000000E-03 0. -1.
         12    1    3    3    0    0  0.37108939744E+01 -0.28475707078E+01  0.13418207024E+02  0.14210125713E+02  0.00000000000E+00 0. -1.
</event>
<event>
 7    1  0.5456331E-013  0.5052886E+02  0.7816164E-02  0.1300439E+00
        -11   -1    0    0    0    0  0.00000000000E+00  0.00000000000E+00  0.45593999997E+02  0.45594000000E+02  0.51100000000E-03 0. -1.
         11   -1    0    0    0    0 -0.00000000000E+00 -0.00000000000E+00 -0.45593999997E+02  0.45594000000E+02  0.51100000000E-03 0.  1.
    9900012    2    1    2    0    0  0.22333206565E+02 -0.97774764938E+01 -0.32539116481E+02  0.50528864945E+02  0.30000015487E+02 0.  0.
         12    1    1    2    0    0 -0.22333206565E+02  0.97774764938E+01  0.32539116481E+02  0.40659135055E+02  0.00000000000E+00 0. -1.
         11    1    3    3    0    0 -0.10718069131E+01  0.19229718690E+01  0.13622098392E+01  0.25888620618E+01  0.51100000000E-03 0. -1.
        -11    1    3    3    0    0  0.72432490691E+01 -0.57640802618E+01  0.70862295777E+00  0.92839337083E+01  0.51100000000E-03 0.  1.
        -12    1    3    3    0    0  0.16161764409E+02 -0.59363681011E+01 -0.34609949278E+02  0.38656069175E+02  0.00000000000E+00 0.  1.
</event>
<event>
 7    1  0.5456331E-013  0.5052886E+02  0.7816164E-02  0.1300439E+00
        -11   -1    0    0    0    0  0.00000000000E+00  0.00000000000E+00  0.45593999997E+02  0.45594000000E+02  0.51100000000E-03 0.  1.
         11   -1    0    0    0    0 -0.00000000000E+00 -0.00000000000E+00 -0.45593999997E+02  0.45594000000E+02  0.51100000000E-03 0. -1.
    9900012    2    1    2    0    0  0.18742260736E+02 -0.27953100642E+02  0.22814857919E+02  0.50528856934E+02  0.29999991136E+02 0.  0.
         12    1    1    2    0    0 -0.18742260736E+02  0.27953100642E+02 -0.22814857919E+02  0.40659143066E+02  0.00000000000E+00 0. -1.
         11    1    3    3    0    0  0.42372469834E+01 -0.13169853171E+02  0.45281278092E+01  0.14556896519E+02  0.51100000000E-03 0. -1.
        -11    1    3    3    0    0  0.16495287358E+01 -0.17144936243E+02  0.14062646432E+02  0.22235732701E+02  0.51100000000E-03 0.  1.
         12    1    3    3    0    0  0.12855485017E+02  0.23616887721E+01  0.42240836779E+01  0.13736227713E+02  0.00000000000E+00 0. -1.
</event>
<event>
 7    1  0.5456331E-013  0.5052886E+02  0.7816164E-02  0.1300439E+00
        -11   -1    0    0    0    0  0.00000000000E+00  0.00000000000E+00  0.45593999997E+02  0.45594000000E+02  0.51100000000E-03 0. -1.
         11   -1    0    0    0    0 -0.00000000000E+00 -0.00000000000E+00 -0.45593999997E+02  0.45594000000E+02  0.51100000000E-03 0.  1.
    9900012    2    1    2    0    0  0.29002158029E+02 -0.27072510574E+02 -0.88949313694E+01  0.50528858307E+02  0.29999995310E+02 0.  0.
         12    1    1    2    0    0 -0.29002158029E+02  0.27072510574E+02  0.88949313694E+01  0.40659141693E+02  0.00000000000E+00 0. -1.
         11    1    3    3    0    0  0.13525304549E+02 -0.45360548203E+01  0.78968940202E+01  0.16305538688E+02  0.51100000000E-03 0. -1.
        -11    1    3    3    0    0  0.11077507295E+02 -0.20310824257E+02 -0.86388923191E+01  0.24695570668E+02  0.51100000000E-03 0.  1.
        -12    1    3    3    0    0  0.43993461849E+01 -0.22256314972E+01 -0.81529330705E+01  0.95277489508E+01  0.00000000000E+00 0.  1.
</event>
<event>
 7    1  0.5456331E-013  0.5052885E+02  0.7816164E-02  0.1300439E+00
        -11   -1    0    0    0    0  0.00000000000E+00  0.00000000000E+00  0.45593999997E+02  0.45594000000E+02  0.51100000000E-03 0. -1.
         11   -1    0    0    0    0 -0.00000000000E+00 -0.00000000000E+00 -0.45593999997E+02  0.45594000000E+02  0.51100000000E-03 0.  1.
    9900012    2    1    2    0    0  0.40040920297E+02  0.70580313359E+01  0.27395578155E+00  0.50528853964E+02  0.29999982109E+02 0.  0.
         12    1    1    2    0    0 -0.40040920297E+02 -0.70580313359E+01 -0.27395578155E+00  0.40659146036E+02  0.00000000000E+00 0. -1.
         11    1    3    3    0    0  0.15048589512E+02 -0.39704104253E+01 -0.41506087915E+01  0.16107506289E+02  0.51100000000E-03 0. -1.
        -11    1    3    3    0    0  0.13808456802E+02  0.13624962282E+02 -0.44588084122E+01  0.19904623814E+02  0.51100000000E-03 0.  1.
         12    1    3    3    0    0  0.11183873983E+02 -0.25965205206E+01  0.88833729852E+01  0.14516723862E+02  0.00000000000E+00 0. -1.
</event>
<event>
 7    1  0.5456331E-013  0.5052886E+02  0.7816164E-02  0.1300439E+00
        -11   -1    0    0    0    0  0.00000000000E+00  0.00000000000E+00  0.45593999997E+02  0.45594000000E+02  0.51100000000E-03 0.  1.
         11   -1    0    0    0    0 -0.00000000000E+00 -0.00000000000E+00 -0.45593999997E+02  0.45594000000E+02  0.51100000000E-03 0. -1.
    9900012    2    1    2    0    0 -0.38984140741E+02  0.41197620452E+01  0.10790255739E+02  0.50528864648E+02  0.30000014584E+02 0.  0.
         12    1    1    2    0    0  0.38984140741E+02 -0.41197620452E+01 -0.10790255739E+02  0.40659135352E+02  0.00000000000E+00 0. -1.
         11    1    3    3    0    0 -0.81434632444E+01 -0.47039270716E+01  0.25200195221E+01  0.97361913581E+01  0.51100000000E-03 0. -1.
        -11    1    3    3    0    0  0.32000478838E+01  0.37573838227E+01  0.34943451356E+01  0.60472049608E+01  0.51100000000E-03 0.  1.
         12    1    3    3    0    0 -0.34040725381E+02  0.50663052942E+01  0.47758910813E+01  0.34745468329E+02  0.00000000000E+00 0. -1.
</event>
<event>
 7    1  0.5456331E-013  0.5052886E+02  0.7816164E-02  0.1300439E+00
        -11   -1    0    0    0    0  0.00000000000E+00  0.00000000000E+00  0.45593999997E+02  0.45594000000E+02  0.51100000000E-03 0. -1.
         11   -1    0    0    0    0 -0.00000000000E+00 -0.00000000000E+00 -0.45593999997E+02  0.45594000000E+02  0.51100000000E-03 0.  1.
    9900012    2    1    2    0    0 -0.35435770396E+02  0.15048622748E+02 -0.13077114528E+02  0.50528858414E+02  0.29999995635E+02 0.  0.
         12    1    1    2    0    0  0.35435770396E+02 -0.15048622748E+02  0.13077114528E+02  0.40659141586E+02  0.00000000000E+00 0. -1.
         11    1    3    3    0    0 -0.20224237432E+02  0.10389675307E+02  0.41151474531E+01  0.23106266931E+02  0.51100000000E-03 0. -1.
        -11    1    3    3    0    0 -0.69589775384E+01  0.86643491652E+01 -0.50547672868E+01  0.12208562054E+02  0.51100000000E-03 0.  1.
         12    1    3    3    0    0 -0.82525554253E+01 -0.40054017240E+01 -0.12137494694E+02  0.15214029429E+02  0.00000000000E+00 0. -1.
</event>
<event>
 7    1  0.5456331E-013  0.5052885E+02  0.7816164E-02  0.1300439E+00
        -11   -1    0    0    0    0  0.00000000000E+00  0.00000000000E+00  0.45593999997E+02  0.45594000000E+02  0.51100000000E-03 0.  1.
         11   -1    0    0    0    0 -0.00000000000E+00 -0.00000000000E+00 -0.45593999997E+02  0.45594000000E+02  0.51100000000E-03 0. -1.
    9900012    2    1    2    0    0  0.36491119726E+02  0.17712469130E+02 -0.27986965750E+01  0.50528854853E+02  0.29999984812E+02 0.  0.
         12    1    1    2    0    0 -0.36491119726E+02 -0.17712469130E+02  0.27986965750E+01  0.40659145147E+02  0.00000000000E+00 0. -1.
         11    1    3    3    0    0 -0.27969753209E+01  0.10618311467E+01  0.40944517069E+01  0.50710049665E+01  0.51100000000E-03 0. -1.
        -11    1    3    3    0    0  0.36112816658E+01  0.48122221610E+01  0.28034908548E+01  0.66376500835E+01  0.51100000000E-03 0.  1.
        -12    1    3    3    0    0  0.35676813381E+02  0.11838415823E+02 -0.96966391367E+01  0.38820199803E+02  0.00000000000E+00 0.  1.
</event>
<event>
 7    1  0.5456331E-013  0.5052886E+02  0.7816164E-02  0.1300439E+00
        -11   -1    0    0    0    0  0.00000000000E+00  0.00000000000E+00  0.45593999997E+02  0.45594000000E+02  0.51100000000E-03 0.  1.
         11   -1    0    0    0    0 -0.00000000000E+00 -0.00000000000E+00 -0.45593999997E+02  0.45594000000E+02  0.51100000000E-03 0. -1.
    9900012    2    1    2    0    0  0.22697657596E+02  0.11989267088E+02  0.31531566426E+02  0.50528857523E+02  0.29999992928E+02 0.  0.
         12    1    1    2    0    0 -0.22697657596E+02 -0.11989267088E+02 -0.31531566426E+02  0.40659142477E+02  0.00000000000E+00 0. -1.
         11    1    3    3    0    0  0.59719542227E+01  0.60724431131E+01  0.66211161530E+01  0.10787862716E+02  0.51100000000E-03 0. -1.
        -11    1    3    3    0    0  0.22261888246E+02  0.45163932468E+01  0.25319644183E+02  0.34015788364E+02  0.51100000000E-03 0.  1.
         12    1    3    3    0    0 -0.55361848724E+01  0.14004307281E+01 -0.40919390981E+00  0.57252064436E+01  0.00000000000E+00 0. -1.
</event>
<event>
 7    1  0.5456331E-013  0.5052886E+02  0.7816164E-02  0.1300439E+00
        -11   -1    0    0    0    0  0.00000000000E+00  0.00000000000E+00  0.45593999997E+02  0.45594000000E+02  0.51100000000E-03 0.  1.
         11   -1    0    0    0    0 -0.00000000000E+00 -0.00000000000E+00 -0.45593999997E+02  0.45594000000E+02  0.51100000000E-03 0. -1.
    9900012    2    1    2    0    0 -0.13957030152E+00  0.35553086346E+02  0.19726225795E+02  0.50528863109E+02  0.30000009907E+02 0.  0.
         12    1    1    2    0    0  0.13957030152E+00 -0.35553086346E+02 -0.19726225795E+02  0.40659136891E+02  0.00000000000E+00 0. -1.
         11    1    3    3    0    0  0.35127266586E+01 -0.55642460638E+00 -0.20527129336E+01  0.41063959343E+01  0.51100000000E-03 0. -1.
        -11    1    3    3    0    0 -0.28109348154E+01 -0.14038030853E+01  0.34367912112E+01  0.46565600747E+01  0.51100000000E-03 0.  1.
        -12    1    3    3    0    0 -0.84136214471E+00  0.37513314037E+02  0.18342147518E+02  0.41765907100E+02  0.00000000000E+00 0.  1.
</event>
<event>
 7    1  0.5456331E-013  0.5052884E+02  0.7816164E-02  0.1300439E+00
        -11   -1    0    0    0    0  0.00000000000E+00  0.00000000000E+00  0.45593999997E+02  0.45594000000E+02  0.51100000000E-03 0.  1.
         11   -1    0    0    0    0 -0.00000000000E+00 -0.00000000000E+00 -0.45593999997E+02  0.45594000000E+02  0.51100000000E-03 0. -1.
    9900012    2    1    2    0    0  0.88928576311E+01 -0.62972185351E+00  0.39669732238E+02  0.50528842086E+02  0.29999946003E+02 0.  0.
         12    1    1    2    0    0 -0.88928576311E+01  0.62972185351E+00 -0.39669732238E+02  0.40659157914E+02  0.00000000000E+00 0. -1.
         11    1    3    3    0    0  0.57116181084E+01 -0.43550634369E+01  0.17230116084E+01  0.73863338822E+01  0.51100000000E-03 0.  1.
        -11    1    3    3    0    0  0.46964393802E+01 -0.17932871310E+01  0.27083510229E+00  0.50344586103E+01  0.51100000000E-03 0. -1.
        -12    1    3    3    0    0 -0.15151998575E+01  0.55186287144E+01  0.37675885528E+02  0.38108049593E+02  0.00000000000E+00 0.  1.
</event>
<event>
 7    1  0.5456331E-013  0.5052887E+02  0.7816164E-02  0.1300439E+00
        -11   -1    0    0    0    0  0.00000000000E+00  0.00000000000E+00  0.45593999997E+02  0.45594000000E+02  0.51100000000E-03 0.  1.
         11   -1    0    0    0    0 -0.00000000000E+00 -0.00000000000E+00 -0.45593999997E+02  0.45594000000E+02  0.51100000000E-03 0. -1.
    9900012    2    1    2    0    0  0.35693654661E+01  0.30486802391E+02  0.26664202446E+02  0.50528865947E+02  0.30000018534E+02 0.  0.
         12    1    1    2    0    0 -0.35693654661E+01 -0.30486802391E+02 -0.26664202446E+02  0.40659134053E+02  0.00000000000E+00 0. -1.
         11    1    3    3    0    0  0.20975131992E+01 -0.19744441266E+01  0.10868994745E+01  0.30788540008E+01  0.51100000000E-03 0. -1.
        -11    1    3    3    0    0  0.74078530394E+01  0.50065857850E+00  0.55356473084E+01  0.92612276211E+01  0.51100000000E-03 0.  1.
        -12    1    3    3    0    0 -0.59360007725E+01  0.31960587939E+02  0.20041655663E+02  0.38188784326E+02  0.00000000000E+00 0.  1.
</event>
<event>
 7    1  0.5456331E-013  0.5052886E+02  0.7816164E-02  0.1300439E+00
        -11   -1    0    0    0    0  0.00000000000E+00  0.00000000000E+00  0.45593999997E+02  0.45594000000E+02  0.51100000000E-03 0. -1.
         11   -1    0    0    0    0 -0.00000000000E+00 -0.00000000000E+00 -0.45593999997E+02  0.45594000000E+02  0.51100000000E-03 0.  1.
    9900012    2    1    2    0    0  0.11130285433E+02  0.12751097481E+02 -0.36968800830E+02  0.50528856187E+02  0.29999988867E+02 0.  0.
         12    1    1    2    0    0 -0.11130285433E+02 -0.12751097481E+02  0.36968800830E+02  0.40659143813E+02  0.00000000000E+00 0. -1.
         11    1    3    3    0    0  0.43908344193E+01  0.14587965877E+02 -0.21547334812E+02  0.26388933534E+02  0.51100000000E-03 0. -1.
        -11    1    3    3    0    0  0.40943729369E+01  0.20350084005E+01 -0.18148426983E+02  0.18715516321E+02  0.51100000000E-03 0.  1.
         12    1    3    3    0    0  0.26450780764E+01 -0.38718767962E+01  0.27269609650E+01  0.54244063325E+01  0.00000000000E+00 0. -1.
</event>
<event>
 7    1  0.5456331E-013  0.5052886E+02  0.7816164E-02  0.1300439E+00
        -11   -1    0    0    0    0  0.00000000000E+00  0.00000000000E+00  0.45593999997E+02  0.45594000000E+02  0.51100000000E-03 0.  1.
         11   -1    0    0    0    0 -0.00000000000E+00 -0.00000000000E+00 -0.45593999997E+02  0.45594000000E+02  0.51100000000E-03 0. -1.
    9900012    2    1    2    0    0  0.18322672837E+01 -0.99911350002E+01  0.39369859484E+02  0.50528858128E+02  0.29999994765E+02 0.  0.
         12    1    1    2    0    0 -0.18322672837E+01  0.99911350002E+01 -0.39369859484E+02  0.40659141872E+02  0.00000000000E+00 0. -1.
         11    1    3    3    0    0 -0.14065958924E+01  0.34520296624E+01  0.14704463846E+02  0.15169583978E+02  0.51100000000E-03 0. -1.
        -11    1    3    3    0    0 -0.15632326996E+00 -0.14816851361E+02  0.27152187518E+02  0.30932261613E+02  0.51100000000E-03 0.  1.
        -12    1    3    3    0    0  0.33951864461E+01  0.13736866984E+01 -0.24867918798E+01  0.44270125369E+01  0.00000000000E+00 0.  1.
</event>
<event>
 7    1  0.5456331E-013  0.5052890E+02  0.7816164E-02  0.1300439E+00
        -11   -1    0    0    0    0  0.00000000000E+00  0.00000000000E+00  0.45593999997E+02  0.45594000000E+02  0.51100000000E-03 0.  1.
         11   -1    0    0    0    0 -0.00000000000E+00 -0.00000000000E+00 -0.45593999997E+02  0.45594000000E+02  0.51100000000E-03 0. -1.
    9900012    2    1    2    0    0  0.80352418876E+01 -0.23974772761E+02  0.31840348340E+02  0.50528897409E+02  0.30000114164E+02 0.  0.
         12    1    1    2    0    0 -0.80352418876E+01  0.23974772761E+02 -0.31840348340E+02  0.40659102591E+02  0.00000000000E+00 0. -1.
         11    1    3    3    0    0  0.11568022535E+02 -0.17345230707E+02  0.27712205143E+02  0.34679136203E+02  0.51100000000E-03 0. -1.
        -11    1    3    3    0    0  0.19614658075E+00 -0.29347850408E+00  0.76777060046E+01  0.76858163436E+01  0.51100000000E-03 0.  1.
         12    1    3    3    0    0 -0.37289272282E+01 -0.63360635496E+01 -0.35495628080E+01  0.81639448618E+01  0.00000000000E+00 0. -1.
</event>
<event>
 7    1  0.5456331E-013  0.5052886E+02  0.7816164E-02  0.1300439E+00
        -11   -1    0    0    0    0  0.00000000000E+00  0.00000000000E+00  0.45593999997E+02  0.45594000000E+02  0.51100000000E-03 0. -1.
         11   -1    0    0    0    0 -0.00000000000E+00 -0.00000000000E+00 -0.45593999997E+02  0.45594000000E+02  0.51100000000E-03 0.  1.
    9900012    2    1    2    0    0  0.27123460736E+01  0.16762797363E+02 -0.36943433992E+02  0.50528861891E+02  0.30000006203E+02 0.  0.
         12    1    1    2    0    0 -0.27123460736E+01 -0.16762797363E+02  0.36943433992E+02  0.40659138109E+02  0.00000000000E+00 0. -1.
         11    1    3    3    0    0  0.37357699903E+01  0.72840248189E+01 -0.16462504099E+02  0.18385511591E+02  0.51100000000E-03 0.  1.
        -11    1    3    3    0    0  0.10589516880E+02  0.74811411092E+01 -0.11441746965E+02  0.17292163367E+02  0.51100000000E-03 0. -1.
         12    1    3    3    0    0 -0.11612940797E+02  0.19976314348E+01 -0.90391829284E+01  0.14851186933E+02  0.00000000000E+00 0. -1.
</event>
<event>
 7    1  0.5456331E-013  0.5052885E+02  0.7816164E-02  0.1300439E+00
        -11   -1    0    0    0    0  0.00000000000E+00  0.00000000000E+00  0.45593999997E+02  0.45594000000E+02  0.51100000000E-03 0.  1.
         11   -1    0    0    0    0 -0.00000000000E+00 -0.00000000000E+00 -0.45593999997E+02  0.45594000000E+02  0.51100000000E-03 0. -1.
    9900012    2    1    2    0    0 -0.17051865541E+02 -0.21727762101E+02  0.29837969123E+02  0.50528853849E+02  0.29999981760E+02 0.  0.
         12    1    1    2    0    0  0.17051865541E+02  0.21727762101E+02 -0.29837969123E+02  0.40659146151E+02  0.00000000000E+00 0. -1.
         11    1    3    3    0    0  0.20548960509E+01 -0.14918959549E+01  0.54847296862E+01  0.60440558661E+01  0.51100000000E-03 0. -1.
        -11    1    3    3    0    0 -0.65463400856E+01 -0.10550193316E+02  0.25724818817E+02  0.28564443823E+02  0.51100000000E-03 0.  1.
        -12    1    3    3    0    0 -0.12560421506E+02 -0.96856728301E+01 -0.13715793801E+01  0.15920354160E+02  0.00000000000E+00 0.  1.
</event>
<event>
 7    1  0.5456331E-013  0.5052886E+02  0.7816164E-02  0.1300439E+00
        -11   -1    0    0    0    0  0.00000000000E+00  0.00000000000E+00  0.45593999997E+02  0.45594000000E+02  0.51100000000E-03 0.  1.
         11   -1    0    0    0    0 -0.00000000000E+00 -0.00000000000E+00 -0.45593999997E+02  0.45594000000E+02  0.51100000000E-03 0. -1.
    9900012    2    1    2    0    0  0.19588704372E+02  0.83847735736E+01  0.34628661699E+02  0.50528856158E+02  0.29999988779E+02 0.  0.
         12    1    1    2    0    0 -0.19588704372E+02 -0.83847735736E+01 -0.34628661699E+02  0.40659143842E+02  0.00000000000E+00 0. -1.
         11    1    3    3    0    0  0.66675040318E+01  0.95279385155E+01  0.77943182176E+01  0.13999593534E+02  0.51100000000E-03 0. -1.
        -11    1    3    3    0    0  0.16600648126E+02  0.49586875069E+01  0.16139204148E+02  0.23677922434E+02  0.51100000000E-03 0.  1.
         12    1    3    3    0    0 -0.36794477862E+01 -0.61018524489E+01  0.10695139334E+02  0.12851340191E+02  0.00000000000E+00 0. -1.
</event>
<event>
 7    1  0.5456331E-013  0.5052886E+02  0.7816164E-02  0.1300439E+00
        -11   -1    0    0    0    0  0.00000000000E+00  0.00000000000E+00  0.45593999997E+02  0.45594000000E+02  0.51100000000E-03 0.  1.
         11   -1    0    0    0    0 -0.00000000000E+00 -0.00000000000E+00 -0.45593999997E+02  0.45594000000E+02  0.51100000000E-03 0. -1.
    9900012    2    1    2    0    0  0.21578872442E+02  0.65838656484E+01  0.33825591823E+02  0.50528859761E+02  0.29999999730E+02 0.  0.
         12    1    1    2    0    0 -0.21578872442E+02 -0.65838656484E+01 -0.33825591823E+02  0.40659140239E+02  0.00000000000E+00 0. -1.
         11    1    3    3    0    0  0.79747980649E+01  0.17524198803E+01 -0.25696585087E+01  0.85598787798E+01  0.51100000000E-03 0. -1.
        -11    1    3    3    0    0  0.80596906516E+00 -0.47513561856E+01  0.68537048745E+01  0.83784391449E+01  0.51100000000E-03 0.  1.
        -12    1    3    3    0    0  0.12798105312E+02  0.95828019537E+01  0.29541545457E+02  0.33590541837E+02  0.00000000000E+00 0.  1.
</event>
<event>
 7    1  0.5456331E-013  0.5052887E+02  0.7816164E-02  0.1300439E+00
        -11   -1    0    0    0    0  0.00000000000E+00  0.00000000000E+00  0.45593999997E+02  0.45594000000E+02  0.51100000000E-03 0.  1.
         11   -1    0    0    0    0 -0.00000000000E+00 -0.00000000000E+00 -0.45593999997E+02  0.45594000000E+02  0.51100000000E-03 0. -1.
    9900012    2    1    2    0    0  0.28126761496E+02 -0.42006909455E+01  0.29058632671E+02  0.50528872497E+02  0.30000038440E+02 0.  0.
         12    1    1    2    0    0 -0.28126761496E+02  0.42006909455E+01 -0.29058632671E+02  0.40659127503E+02  0.00000000000E+00 0. -1.
         11    1    3    3    0    0  0.56360170083E+01  0.12244105829E+01 -0.29176435974E+01  0.64634753357E+01  0.51100000000E-03 0. -1.
        -11    1    3    3    0    0  0.25655230222E+02 -0.64757583788E+01  0.25330431787E+02  0.36630002172E+02  0.51100000000E-03 0.  1.
         12    1    3    3    0    0 -0.31644857344E+01  0.10506568504E+01  0.66458444807E+01  0.74353949890E+01  0.00000000000E+00 0. -1.
</event>
<event>
 7    1  0.5456331E-013  0.5052886E+02  0.7816164E-02  0.1300439E+00
        -11   -1    0    0    0    0  0.00000000000E+00  0.00000000000E+00  0.45593999997E+02  0.45594000000E+02  0.51100000000E-03 0. -1.
         11   -1    0    0    0    0 -0.00000000000E+00 -0.00000000000E+00 -0.45593999997E+02  0.45594000000E+02  0.51100000000E-03 0.  1.
    9900012    2    1    2    0    0 -0.93144560052E+01  0.48975739860E+01 -0.39273657454E+02  0.50528862141E+02  0.30000006964E+02 0.  0.
         12    1    1    2    0    0  0.93144560052E+01 -0.48975739860E+01  0.39273657454E+02  0.40659137859E+02  0.00000000000E+00 0. -1.
         11    1    3    3    0    0 -0.97260388566E+01  0.17197041385E+01 -0.15167646873E+01  0.99926868029E+01  0.51100000000E-03 0. -1.
        -11    1    3    3    0    0  0.18083191021E+00 -0.33954355296E+01 -0.15502783195E+01  0.37369835087E+01  0.51100000000E-03 0.  1.
        -12    1    3    3    0    0  0.23075094110E+00  0.65733053771E+01 -0.36206614447E+02  0.36799191829E+02  0.00000000000E+00 0.  1.
</event>
<event>
 7    1  0.5456331E-013  0.5052888E+02  0.7816164E-02  0.1300439E+00
        -11   -1    0    0    0    0  0.00000000000E+00  0.00000000000E+00  0.45593999997E+02  0.45594000000E+02  0.51100000000E-03 0. -1.
         11   -1    0    0    0    0 -0.00000000000E+00 -0.00000000000E+00 -0.45593999997E+02  0.45594000000E+02  0.51100000000E-03 0.  1.
    9900012    2    1    2    0    0 -0.35522411380E+02 -0.18328219934E+02  0.74430541267E+01  0.50528875428E+02  0.30000047352E+02 0.  0.
         12    1    1    2    0    0  0.35522411380E+02  0.18328219934E+02 -0.74430541267E+01  0.40659124572E+02  0.00000000000E+00 0. -1.
         11    1    3    3    0    0 -0.98013422072E+01 -0.14949702683E+02  0.11265107706E+02  0.21129660935E+02  0.51100000000E-03 0. -1.
        -11    1    3    3    0    0 -0.57954283623E+01 -0.55176837400E+01  0.25034867196E+01  0.83844659802E+01  0.51100000000E-03 0.  1.
        -12    1    3    3    0    0 -0.19925640811E+02  0.21391664887E+01 -0.63255402987E+01  0.21014748513E+02  0.00000000000E+00 0.  1.
</event>
<event>
 7    1  0.5456331E-013  0.5052885E+02  0.7816164E-02  0.1300439E+00
        -11   -1    0    0    0    0  0.00000000000E+00  0.00000000000E+00  0.45593999997E+02  0.45594000000E+02  0.51100000000E-03 0.  1.
         11   -1    0    0    0    0 -0.00000000000E+00 -0.00000000000E+00 -0.45593999997E+02  0.45594000000E+02  0.51100000000E-03 0. -1.
    9900012    2    1    2    0    0  0.15935600300E+02 -0.24052182440E+02  0.28648128221E+02  0.50528854810E+02  0.29999984679E+02 0.  0.
         12    1    1    2    0    0 -0.15935600300E+02  0.24052182440E+02 -0.28648128221E+02  0.40659145190E+02  0.00000000000E+00 0. -1.
         11    1    3    3    0    0 -0.63826887391E+01 -0.94052172640E+01  0.15296727993E+02  0.19057458248E+02  0.51100000000E-03 0. -1.
        -11    1    3    3    0    0  0.88090095104E+01 -0.11577100685E+02  0.55355000611E+01  0.15565014296E+02  0.51100000000E-03 0.  1.
        -12    1    3    3    0    0  0.13509279529E+02 -0.30698644906E+01  0.78159001670E+01  0.15906382266E+02  0.00000000000E+00 0.  1.
</event>
<event>
 7    1  0.5456331E-013  0.5052887E+02  0.7816164E-02  0.1300439E+00
        -11   -1    0    0    0    0  0.00000000000E+00  0.00000000000E+00  0.45593999997E+02  0.45594000000E+02  0.51100000000E-03 0.  1.
         11   -1    0    0    0    0 -0.00000000000E+00 -0.00000000000E+00 -0.45593999997E+02  0.45594000000E+02  0.51100000000E-03 0. -1.
    9900012    2    1    2    0    0 -0.36477186932E+02 -0.60369929608E+01  0.16915500274E+02  0.50528873103E+02  0.30000040285E+02 0.  0.
         12    1    1    2    0    0  0.36477186932E+02  0.60369929608E+01 -0.16915500274E+02  0.40659126897E+02  0.00000000000E+00 0. -1.
         11    1    3    3    0    0 -0.11447528982E+02 -0.74296248013E+00 -0.34243283250E+01  0.11971797600E+02  0.51100000000E-03 0. -1.
        -11    1    3    3    0    0 -0.10754768434E+02  0.66943922461E+01  0.28265937963E+01  0.12979582596E+02  0.51100000000E-03 0.  1.
        -12    1    3    3    0    0 -0.14274889516E+02 -0.11988422727E+02  0.17513234803E+02  0.25577492907E+02  0.00000000000E+00 0.  1.
</event>
<event>
 7    1  0.5456331E-013  0.5052886E+02  0.7816164E-02  0.1300439E+00
        -11   -1    0    0    0    0  0.00000000000E+00  0.00000000000E+00  0.45593999997E+02  0.45594000000E+02  0.51100000000E-03 0.  1.
         11   -1    0    0    0    0 -0.00000000000E+00 -0.00000000000E+00 -0.45593999997E+02  0.45594000000E+02  0.51100000000E-03 0. -1.
    9900012    2    1    2    0    0 -0.23531448758E+02 -0.19903023823E+02  0.26519926695E+02  0.50528856503E+02  0.29999989828E+02 0.  0.
         12    1    1    2    0    0  0.23531448758E+02  0.19903023823E+02 -0.26519926695E+02  0.40659143497E+02  0.00000000000E+00 0. -1.
         11    1    3    3    0    0 -0.42644353096E+01  0.15643970186E+01 -0.38677427828E+01  0.59659182895E+01  0.51100000000E-03 0. -1.
        -11    1    3    3    0    0 -0.72523391076E+01  0.52386391992E+00  0.45951454563E+01  0.86015241652E+01  0.51100000000E-03 0.  1.
         12    1    3    3    0    0 -0.12014674341E+02 -0.21991284762E+02  0.25792524021E+02  0.35961414049E+02  0.00000000000E+00 0. -1.
</event>
<event>
 7    1  0.5456331E-013  0.5052892E+02  0.7816164E-02  0.1300439E+00
        -11   -1    0    0    0    0  0.00000000000E+00  0.00000000000E+00  0.45593999997E+02  0.45594000000E+02  0.51100000000E-03 0. -1.
         11   -1    0    0    0    0 -0.00000000000E+00 -0.00000000000E+00 -0.45593999997E+02  0.45594000000E+02  0.51100000000E-03 0.  1.
    9900012    2    1    2    0    0  0.34083308626E+02 -0.92561763525E+01 -0.20144772495E+02  0.50528922460E+02  0.30000190307E+02 0.  0.
         12    1    1    2    0    0 -0.34083308626E+02  0.92561763525E+01  0.20144772495E+02  0.40659077540E+02  0.00000000000E+00 0. -1.
         11    1    3    3    0    0  0.48168248009E+01 -0.83052378684E+01 -0.37693246001E+01  0.10314387302E+02  0.51100000000E-03 0. -1.
        -11    1    3    3    0    0 -0.11251774517E+01 -0.56012548359E+01 -0.86478581898E+00  0.57782293835E+01  0.51100000000E-03 0.  1.
        -12    1    3    3    0    0  0.30391661277E+02  0.46503163518E+01 -0.15510662076E+02  0.34436305774E+02  0.00000000000E+00 0.  1.
</event>
<event>
 7    1  0.5456331E-013  0.5052887E+02  0.7816164E-02  0.1300439E+00
        -11   -1    0    0    0    0  0.00000000000E+00  0.00000000000E+00  0.45593999997E+02  0.45594000000E+02  0.51100000000E-03 0.  1.
         11   -1    0    0    0    0 -0.00000000000E+00 -0.00000000000E+00 -0.45593999997E+02  0.45594000000E+02  0.51100000000E-03 0. -1.
    9900012    2    1    2    0    0  0.35989414113E+02 -0.29040976883E+01  0.18694744525E+02  0.50528865916E+02  0.30000018439E+02 0.  0.
         12    1    1    2    0    0 -0.35989414113E+02  0.29040976883E+01 -0.18694744525E+02  0.40659134084E+02  0.00000000000E+00 0. -1.
         11    1    3    3    0    0  0.57638502203E+01  0.19742454390E+01 -0.64401888152E+00  0.61265304208E+01  0.51100000000E-03 0. -1.
        -11    1    3    3    0    0 -0.13973169944E+01  0.50490920976E+01 -0.12469888180E+01  0.53852397501E+01  0.51100000000E-03 0.  1.
        -12    1    3    3    0    0  0.31622880887E+02 -0.99274352249E+01  0.20585752225E+02  0.39017095745E+02  0.00000000000E+00 0.  1.
</event>
<event>
 7    1  0.5456331E-013  0.5052886E+02  0.7816164E-02  0.1300439E+00
        -11   -1    0    0    0    0  0.00000000000E+00  0.00000000000E+00  0.45593999997E+02  0.45594000000E+02  0.51100000000E-03 0. -1.
         11   -1    0    0    0    0 -0.00000000000E+00 -0.00000000000E+00 -0.45593999997E+02  0.45594000000E+02  0.51100000000E-03 0.  1.
    9900012    2    1    2    0    0 -0.40370144320E+02 -0.42748442230E+01  0.22677040506E+01  0.50528864160E+02  0.30000013101E+02 0.  0.
         12    1    1    2    0    0  0.40370144320E+02  0.42748442230E+01 -0.22677040506E+01  0.40659135840E+02  0.00000000000E+00 0. -1.
         11    1    3    3    0    0 -0.66387471442E+01 -0.45758598614E+01 -0.37740776688E+01  0.89025344496E+01  0.51100000000E-03 0. -1.
        -11    1    3    3    0    0 -0.34600830543E+02 -0.57309791061E+01  0.55942147264E+01  0.35515585796E+02  0.51100000000E-03 0.  1.
         12    1    3    3    0    0  0.86943336660E+00  0.60319947445E+01  0.44756699297E+00  0.61107439146E+01  0.00000000000E+00 0. -1.
</event>
<event>
 7    1  0.5456331E-013  0.5052884E+02  0.7816164E-02  0.1300439E+00
        -11   -1    0    0    0    0  0.00000000000E+00  0.00000000000E+00  0.45593999997E+02  0.45594000000E+02  0.51100000000E-03 0.  1.
         11   -1    0    0    0    0 -0.00000000000E+00 -0.00000000000E+00 -0.45593999997E+02  0.45594000000E+02  0.51100000000E-03 0. -1.
    9900012    2    1    2    0    0  0.59725284641E+01  0.39288777793E+02 -0.85958079439E+01  0.50528842717E+02  0.29999947924E+02 0.  0.
         12    1    1    2    0    0 -0.59725284641E+01 -0.39288777793E+02  0.85958079439E+01  0.40659157283E+02  0.00000000000E+00 0. -1.
         11    1    3    3    0    0 -0.62436796451E+00  0.44994298800E+01  0.42090259024E+01  0.61927864414E+01  0.51100000000E-03 0. -1.
        -11    1    3    3    0    0  0.49011187644E+01  0.32733295038E+01  0.53206311762E+01  0.79400735234E+01  0.51100000000E-03 0.  1.
        -12    1    3    3    0    0  0.16957776642E+01  0.31516018409E+02 -0.18125465023E+02  0.36395982753E+02  0.00000000000E+00 0.  1.
</event>
<event>
 7    1  0.5456331E-013  0.5052885E+02  0.7816164E-02  0.1300439E+00
        -11   -1    0    0    0    0  0.00000000000E+00  0.00000000000E+00  0.45593999997E+02  0.45594000000E+02  0.51100000000E-03 0.  1.
         11   -1    0    0    0    0 -0.00000000000E+00 -0.00000000000E+00 -0.45593999997E+02  0.45594000000E+02  0.51100000000E-03 0. -1.
    9900012    2    1    2    0    0  0.37622068400E+02 -0.12180387193E+02  0.94543298977E+01  0.50528853222E+02  0.29999979855E+02 0.  0.
         12    1    1    2    0    0 -0.37622068400E+02  0.12180387193E+02 -0.94543298977E+01  0.40659146778E+02  0.00000000000E+00 0. -1.
         11    1    3    3    0    0  0.33612319307E+01 -0.86059006357E+01 -0.56989158427E+01  0.10855277421E+02  0.51100000000E-03 0. -1.
        -11    1    3    3    0    0  0.52816235994E+01 -0.43080496742E+01  0.65068927846E+01  0.94230830312E+01  0.51100000000E-03 0.  1.
        -12    1    3    3    0    0  0.28979212870E+02  0.73356311700E+00  0.86463529557E+01  0.30250492770E+02  0.00000000000E+00 0.  1.
</event>
<event>
 7    1  0.5456331E-013  0.5052886E+02  0.7816164E-02  0.1300439E+00
        -11   -1    0    0    0    0  0.00000000000E+00  0.00000000000E+00  0.45593999997E+02  0.45594000000E+02  0.51100000000E-03 0.  1.
         11   -1    0    0    0    0 -0.00000000000E+00 -0.00000000000E+00 -0.45593999997E+02  0.45594000000E+02  0.51100000000E-03 0. -1.
    9900012    2    1    2    0    0 -0.19900060352E+01 -0.40509198908E+02  0.28654006013E+01  0.50528857845E+02  0.29999993905E+02 0.  0.
         12    1    1    2    0    0  0.19900060352E+01  0.40509198908E+02 -0.28654006013E+01  0.40659142155E+02  0.00000000000E+00 0. -1.
         11    1    3    3    0    0 -0.12859436859E+01 -0.16188294449E+02 -0.75728259196E+01  0.17918209202E+02  0.51100000000E-03 0. -1.
        -11    1    3    3    0    0  0.30895465570E+01 -0.16903667038E+02 -0.23545762468E+01  0.17344258036E+02  0.51100000000E-03 0.  1.
        -12    1    3    3    0    0 -0.37936089063E+01 -0.74172374209E+01  0.12792802768E+02  0.15266390606E+02  0.00000000000E+00 0.  1.
</event>
<event>
 7    1  0.5456331E-013  0.5052888E+02  0.7816164E-02  0.1300439E+00
        -11   -1    0    0    0    0  0.00000000000E+00  0.00000000000E+00  0.45593999997E+02  0.45594000000E+02  0.51100000000E-03 0.  1.
         11   -1    0    0    0    0 -0.00000000000E+00 -0.00000000000E+00 -0.45593999997E+02  0.45594000000E+02  0.51100000000E-03 0. -1.
    9900012    2    1    2    0    0  0.23560823750E+02 -0.33607218935E+01  0.32966000612E+02  0.50528879697E+02  0.30000060328E+02 0.  0.
         12    1    1    2    0    0 -0.23560823750E+02  0.33607218935E+01 -0.32966000612E+02  0.40659120303E+02  0.00000000000E+00 0. -1.
         11    1    3    3    0    0 -0.35510197715E+01 -0.40151649968E+00  0.21163442759E+01  0.41532963141E+01  0.51100000000E-03 0. -1.
        -11    1    3    3    0    0  0.20098351149E+01  0.23579371519E+01 -0.27199246323E+01  0.41227775914E+01  0.51100000000E-03 0.  1.
        -12    1    3    3    0    0  0.25102008407E+02 -0.53171425457E+01  0.33569580968E+02  0.42252805792E+02  0.00000000000E+00 0.  1.
</event>
<event>
 7    1  0.5456331E-013  0.5052886E+02  0.7816164E-02  0.1300439E+00
        -11   -1    0    0    0    0  0.00000000000E+00  0.00000000000E+00  0.45593999997E+02  0.45594000000E+02  0.51100000000E-03 0.  1.
         11   -1    0    0    0    0 -0.00000000000E+00 -0.00000000000E+00 -0.45593999997E+02  0.45594000000E+02  0.51100000000E-03 0. -1.
    9900012    2    1    2    0    0  0.32573964886E+02 -0.23882967001E+02  0.46589942532E+01  0.50528861684E+02  0.30000005575E+02 0.  0.
         12    1    1    2    0    0 -0.32573964886E+02  0.23882967001E+02 -0.46589942532E+01  0.40659138316E+02  0.00000000000E+00 0. -1.
         11    1    3    3    0    0 -0.73100685198E+00 -0.36601242692E+01  0.40067137442E+01  0.54758228581E+01  0.51100000000E-03 0. -1.
        -11    1    3    3    0    0  0.24199610262E+02 -0.24795523962E+02  0.23350560992E+01  0.34725950421E+02  0.51100000000E-03 0.  1.
        -12    1    3    3    0    0  0.91053614756E+01  0.45726812307E+01 -0.16827755902E+01  0.10327088405E+02  0.00000000000E+00 0.  1.
</event>
<event>
 7    1  0.5456331E-013  0.5052886E+02  0.7816164E-02  0.1300439E+00
        -11   -1    0    0    0    0  0.00000000000E+00  0.00000000000E+00  0.45593999997E+02  0.45594000000E+02  0.51100000000E-03 0.  1.
         11   -1    0    0    0    0 -0.00000000000E+00 -0.00000000000E+00 -0.45593999997E+02  0.45594000000E+02  0.51100000000E-03 0. -1.
    9900012    2    1    2    0    0  0.14695453523E+02  0.22451385379E+02  0.30547419492E+02  0.50528857150E+02  0.29999991794E+02 0.  0.
         12    1    1    2    0    0 -0.14695453523E+02 -0.22451385379E+02 -0.30547419492E+02  0.40659142850E+02  0.00000000000E+00 0. -1.
         11    1    3    3    0    0  0.15220363771E+01  0.11122659270E+02  0.15050103236E+02  0.18775935440E+02  0.51100000000E-03 0. -1.
        -11    1    3    3    0    0  0.31018871979E+01  0.14088956397E+02  0.15682032416E+02  0.21308367781E+02  0.51100000000E-03 0.  1.
         12    1    3    3    0    0  0.10071529948E+02 -0.27602302882E+01 -0.18471615943E+00  0.10444553930E+02  0.00000000000E+00 0. -1.
</event>
<event>
 7    1  0.5456331E-013  0.5052894E+02  0.7816164E-02  0.1300439E+00
        -11   -1    0    0    0    0  0.00000000000E+00  0.00000000000E+00  0.45593999997E+02  0.45594000000E+02  0.51100000000E-03 0.  1.
         11   -1    0    0    0    0 -0.00000000000E+00 -0.00000000000E+00 -0.45593999997E+02  0.45594000000E+02  0.51100000000E-03 0. -1.
    9900012    2    1    2    0    0  0.32938750745E+02  0.21487072169E+02  0.10320051908E+02  0.50528941447E+02  0.30000248021E+02 0.  0.
         12    1    1    2    0    0 -0.32938750745E+02 -0.21487072169E+02 -0.10320051908E+02  0.40659058553E+02  0.00000000000E+00 0. -1.
         11    1    3    3    0    0  0.15766365841E+02  0.94980597805E+01 -0.51812154133E+01  0.19121621920E+02  0.51100000000E-03 0. -1.
        -11    1    3    3    0    0  0.49296178004E+01  0.70065216405E+00 -0.35415888675E+01  0.61102288894E+01  0.51100000000E-03 0.  1.
        -12    1    3    3    0    0  0.12242767103E+02  0.11288360224E+02  0.19042856188E+02  0.25297090637E+02  0.00000000000E+00 0.  1.
</event>
<event>
 7    1  0.5456331E-013  0.5052886E+02  0.7816164E-02  0.1300439E+00
        -11   -1    0    0    0    0  0.00000000000E+00  0.00000000000E+00  0.45593999997E+02  0.45594000000E+02  0.51100000000E-03 0. -1.
         11   -1    0    0    0    0 -0.00000000000E+00 -0.00000000000E+00 -0.45593999997E+02  0.45594000000E+02  0.51100000000E-03 0.  1.
    9900012    2    1    2    0    0  0.35482549004E+02 -0.18623817396E+02  0.68780626337E+01  0.50528860759E+02  0.30000002763E+02 0.  0.
         12    1    1    2    0    0 -0.35482549004E+02  0.18623817396E+02 -0.68780626337E+01  0.40659139241E+02  0.00000000000E+00 0. -1.
         11    1    3    3    0    0  0.10872922094E+02 -0.16970935873E+01 -0.65664749890E+00  0.11024143853E+02  0.51100000000E-03 0. -1.
        -11    1    3    3    0    0  0.15241378791E+02 -0.14214666293E+02 -0.70136776102E+01  0.21989725763E+02  0.51100000000E-03 0.  1.
         12    1    3    3    0    0  0.93682481198E+01 -0.27120575158E+01  0.14548387743E+02  0.17514991142E+02  0.00000000000E+00 0. -1.
</event>
<event>
 7    1  0.5456331E-013  0.5052886E+02  0.7816164E-02  0.1300439E+00
        -11   -1    0    0    0    0  0.00000000000E+00  0.00000000000E+00  0.45593999997E+02  0.45594000000E+02  0.51100000000E-03 0. -1.
         11   -1    0    0    0    0 -0.00000000000E+00 -0.00000000000E+00 -0.45593999997E+02  0.45594000000E+02  0.51100000000E-03 0.  1.
    9900012    2    1    2    0    0 -0.22951140371E+02 -0.60857204456E+01 -0.33005675397E+02  0.50528862699E+02  0.30000008659E+02 0.  0.
         12    1    1    2    0    0  0.22951140371E+02  0.60857204456E+01  0.33005675397E+02  0.40659137301E+02  0.00000000000E+00 0. -1.
         11    1    3    3    0    0 -0.10762684221E+02 -0.13890061771E+02 -0.25459062595E+02  0.30934334583E+02  0.51100000000E-03 0. -1.
        -11    1    3    3    0    0  0.10677685890E+01  0.60268908081E+00 -0.38801282607E+01  0.40692455650E+01  0.51100000000E-03 0.  1.
        -12    1    3    3    0    0 -0.13256224739E+02  0.72016522449E+01 -0.36664845416E+01  0.15525282550E+02  0.00000000000E+00 0.  1.
</event>
<event>
 7    1  0.5456331E-013  0.5052886E+02  0.7816164E-02  0.1300439E+00
        -11   -1    0    0    0    0  0.00000000000E+00  0.00000000000E+00  0.45593999997E+02  0.45594000000E+02  0.51100000000E-03 0.  1.
         11   -1    0    0    0    0 -0.00000000000E+00 -0.00000000000E+00 -0.45593999997E+02  0.45594000000E+02  0.51100000000E-03 0. -1.
    9900012    2    1    2    0    0 -0.37479408665E+02  0.92745135089E+00  0.15735297048E+02  0.50528858186E+02  0.29999994942E+02 0.  0.
         12    1    1    2    0    0  0.37479408665E+02 -0.92745135089E+00 -0.15735297048E+02  0.40659141814E+02  0.00000000000E+00 0. -1.
         11    1    3    3    0    0 -0.26145350971E+02 -0.79983427562E+01  0.47517876000E+01  0.27751258528E+02  0.51100000000E-03 0. -1.
        -11    1    3    3    0    0 -0.11082082891E+02  0.89829392430E+01  0.27353845931E+01  0.14525429005E+02  0.51100000000E-03 0.  1.
         12    1    3    3    0    0 -0.25197480274E+00 -0.57145135932E-01  0.82481248545E+01  0.82521706528E+01  0.00000000000E+00 0. -1.
</event>
<event>
 7    1  0.5456331E-013  0.5052886E+02  0.7816164E-02  0.1300439E+00
        -11   -1    0    0    0    0  0.00000000000E+00  0.00000000000E+00  0.45593999997E+02  0.45594000000E+02  0.51100000000E-03 0.  1.
         11   -1    0    0    0    0 -0.00000000000E+00 -0.00000000000E+00 -0.45593999997E+02  0.45594000000E+02  0.51100000000E-03 0. -1.
    9900012    2    1    2    0    0  0.21242138840E+02 -0.40052822951E+00  0.34666650794E+02  0.50528861265E+02  0.30000004301E+02 0.  0.
         12    1    1    2    0    0 -0.21242138840E+02  0.40052822951E+00 -0.34666650794E+02  0.40659138735E+02  0.00000000000E+00 0. -1.
         11    1    3    3    0    0  0.18873989659E+02 -0.22253943136E+01  0.14870915757E+02  0.24131390370E+02  0.51100000000E-03 0. -1.
        -11    1    3    3    0    0  0.27069801656E+01  0.23029933077E+01 -0.23391830063E+01  0.42547969623E+01  0.51100000000E-03 0.  1.
        -12    1    3    3    0    0 -0.33883098398E+00 -0.47812722357E+00  0.22134918044E+02  0.22142673933E+02  0.00000000000E+00 0.  1.
</event>
<event>
 7    1  0.5456331E-013  0.5052886E+02  0.7816164E-02  0.1300439E+00
        -11   -1    0    0    0    0  0.00000000000E+00  0.00000000000E+00  0.45593999997E+02  0.45594000000E+02  0.51100000000E-03 0.  1.
         11   -1    0    0    0    0 -0.00000000000E+00 -0.00000000000E+00 -0.45593999997E+02  0.45594000000E+02  0.51100000000E-03 0. -1.
    9900012    2    1    2    0    0 -0.18524961328E+02 -0.88709368499E+01  0.35089858756E+02  0.50528857113E+02  0.29999991680E+02 0.  0.
         12    1    1    2    0    0  0.18524961328E+02  0.88709368499E+01 -0.35089858756E+02  0.40659142887E+02  0.00000000000E+00 0. -1.
         11    1    3    3    0    0  0.36100765481E+01 -0.64786947274E+01  0.51248130564E+01  0.90149790448E+01  0.51100000000E-03 0. -1.
        -11    1    3    3    0    0 -0.14477575548E+02 -0.33347484689E+01  0.30347743887E+02  0.33789144712E+02  0.51100000000E-03 0.  1.
         12    1    3    3    0    0 -0.76574623282E+01  0.94250634632E+00 -0.38269818704E+00  0.77247333562E+01  0.00000000000E+00 0. -1.
</event>
<event>
 7    1  0.5456331E-013  0.5052886E+02  0.7816164E-02  0.1300439E+00
        -11   -1    0    0    0    0  0.00000000000E+00  0.00000000000E+00  0.45593999997E+02  0.45594000000E+02  0.51100000000E-03 0. -1.
         11   -1    0    0    0    0 -0.00000000000E+00 -0.00000000000E+00 -0.45593999997E+02  0.45594000000E+02  0.51100000000E-03 0.  1.
    9900012    2    1    2    0    0 -0.19142102127E+02  0.32467223173E+02 -0.15252037117E+02  0.50528864611E+02  0.30000014470E+02 0.  0.
         12    1    1    2    0    0  0.19142102127E+02 -0.32467223173E+02  0.15252037117E+02  0.40659135389E+02  0.00000000000E+00 0. -1.
         11    1    3    3    0    0  0.44408491548E+01  0.34121456624E+01 -0.17565460579E+01  0.58693554630E+01  0.51100000000E-03 0. -1.
        -11    1    3    3    0    0 -0.27990035957E+01 -0.23854546838E+01  0.16629865651E+01  0.40361293035E+01  0.51100000000E-03 0.  1.
        -12    1    3    3    0    0 -0.20783947686E+02  0.31440532194E+02 -0.15158477625E+02  0.40623379844E+02  0.00000000000E+00 0.  1.
</event>
<event>
 7    1  0.5456331E-013  0.5052885E+02  0.7816164E-02  0.1300439E+00
        -11   -1    0    0    0    0  0.00000000000E+00  0.00000000000E+00  0.45593999997E+02  0.45594000000E+02  0.51100000000E-03 0.  1.
         11   -1    0    0    0    0 -0.00000000000E+00 -0.00000000000E+00 -0.45593999997E+02  0.45594000000E+02  0.51100000000E-03 0. -1.
    9900012    2    1    2    0    0 -0.66697407689E+01 -0.20141934692E+02  0.34684049780E+02  0.50528852392E+02  0.29999977331E+02 0.  0.
         12    1    1    2    0    0  0.66697407689E+01  0.20141934692E+02 -0.34684049780E+02  0.40659147608E+02  0.00000000000E+00 0. -1.
         11    1    3    3    0    0  0.25827186974E+01 -0.63887582649E+01  0.13135000201E+02  0.14832899197E+02  0.51100000000E-03 0. -1.
        -11    1    3    3    0    0  0.75921437173E+01 -0.61254446112E+01  0.54247236525E+01  0.11161959724E+02  0.51100000000E-03 0.  1.
         12    1    3    3    0    0 -0.16844603184E+02 -0.76277318159E+01  0.16124325927E+02  0.24533993472E+02  0.00000000000E+00 0. -1.
</event>
<event>
 7    1  0.5456331E-013  0.5052885E+02  0.7816164E-02  0.1300439E+00
        -11   -1    0    0    0    0  0.00000000000E+00  0.00000000000E+00  0.45593999997E+02  0.45594000000E+02  0.51100000000E-03 0. -1.
         11   -1    0    0    0    0 -0.00000000000E+00 -0.00000000000E+00 -0.45593999997E+02  0.45594000000E+02  0.51100000000E-03 0.  1.
    9900012    2    1    2    0    0  0.21273319209E+02  0.85724035305E+01 -0.33572704416E+02  0.50528847349E+02  0.29999962003E+02 0.  0.
         12    1    1    2    0    0 -0.21273319209E+02 -0.85724035305E+01  0.33572704416E+02  0.40659152651E+02  0.00000000000E+00 0. -1.
         11    1    3    3    0    0  0.74031648988E+01  0.56499278006E+01 -0.61491678997E+00  0.93330947489E+01  0.51100000000E-03 0. -1.
        -11    1    3    3    0    0  0.44556590477E-01  0.80247305019E+01 -0.46321580616E+01  0.92658066830E+01  0.51100000000E-03 0.  1.
         12    1    3    3    0    0  0.13825597720E+02 -0.51022547721E+01 -0.28325629564E+02  0.31929945917E+02  0.00000000000E+00 0. -1.
</event>
<event>
 7    1  0.5456331E-013  0.5052886E+02  0.7816164E-02  0.1300439E+00
        -11   -1    0    0    0    0  0.00000000000E+00  0.00000000000E+00  0.45593999997E+02  0.45594000000E+02  0.51100000000E-03 0.  1.
         11   -1    0    0    0    0 -0.00000000000E+00 -0.00000000000E+00 -0.45593999997E+02  0.45594000000E+02  0.51100000000E-03 0. -1.
    9900012    2    1    2    0    0 -0.23532536879E+02 -0.16242939590E+02  0.28905927932E+02  0.50528855296E+02  0.29999986158E+02 0.  0.
         12    1    1    2    0    0  0.23532536879E+02  0.16242939590E+02 -0.28905927932E+02  0.40659144704E+02  0.00000000000E+00 0. -1.
         11    1    3    3    0    0  0.39600545538E+01 -0.68313564073E-01 -0.63566924898E+00  0.40113307602E+01  0.51100000000E-03 0. -1.
        -11    1    3    3    0    0 -0.58791577119E+01 -0.26379466025E+00  0.14732749203E+02  0.15864677191E+02  0.51100000000E-03 0.  1.
         12    1    3    3    0    0 -0.21613433721E+02 -0.15910831365E+02  0.14808847978E+02  0.30652847345E+02  0.00000000000E+00 0. -1.
</event>
<event>
 7    1  0.5456331E-013  0.5052886E+02  0.7816164E-02  0.1300439E+00
        -11   -1    0    0    0    0  0.00000000000E+00  0.00000000000E+00  0.45593999997E+02  0.45594000000E+02  0.51100000000E-03 0.  1.
         11   -1    0    0    0    0 -0.00000000000E+00 -0.00000000000E+00 -0.45593999997E+02  0.45594000000E+02  0.51100000000E-03 0. -1.
    9900012    2    1    2    0    0 -0.30623542871E+02 -0.91285243971E+01  0.25140293110E+02  0.50528859905E+02  0.30000000166E+02 0.  0.
         12    1    1    2    0    0  0.30623542871E+02  0.91285243971E+01 -0.25140293110E+02  0.40659140095E+02  0.00000000000E+00 0. -1.
         11    1    3    3    0    0 -0.18579797559E+01  0.15981675885E+01 -0.44462004452E+01  0.50769013261E+01  0.51100000000E-03 0. -1.
        -11    1    3    3    0    0 -0.42772506308E+01 -0.71133403676E+01  0.23051810863E+01  0.86144265187E+01  0.51100000000E-03 0.  1.
        -12    1    3    3    0    0 -0.24488312484E+02 -0.36133516179E+01  0.27281312469E+02  0.36837532060E+02  0.00000000000E+00 0.  1.
</event>
<event>
 7    1  0.5456331E-013  0.5052886E+02  0.7816164E-02  0.1300439E+00
        -11   -1    0    0    0    0  0.00000000000E+00  0.00000000000E+00  0.45593999997E+02  0.45594000000E+02  0.51100000000E-03 0.  1.
         11   -1    0    0    0    0 -0.00000000000E+00 -0.00000000000E+00 -0.45593999997E+02  0.45594000000E+02  0.51100000000E-03 0. -1.
    9900012    2    1    2    0    0 -0.87941778763E+01  0.35434817310E+02 -0.17894183962E+02  0.50528860044E+02  0.30000000590E+02 0.  0.
         12    1    1    2    0    0  0.87941778763E+01 -0.35434817310E+02  0.17894183962E+02  0.40659139956E+02  0.00000000000E+00 0. -1.
         11    1    3    3    0    0 -0.57261425477E+01  0.13680357290E+02 -0.20921236405E+02  0.25644473421E+02  0.51100000000E-03 0. -1.
        -11    1    3    3    0    0 -0.65233192726E+01  0.18036948859E+02  0.43452093552E+00  0.19185255463E+02  0.51100000000E-03 0.  1.
         12    1    3    3    0    0  0.34552839440E+01  0.37175111606E+01  0.25925315075E+01  0.56991311601E+01  0.00000000000E+00 0. -1.
</event>
<event>
 7    1  0.5456331E-013  0.5052886E+02  0.7816164E-02  0.1300439E+00
        -11   -1    0    0    0    0  0.00000000000E+00  0.00000000000E+00  0.45593999997E+02  0.45594000000E+02  0.51100000000E-03 0.  1.
         11   -1    0    0    0    0 -0.00000000000E+00 -0.00000000000E+00 -0.45593999997E+02  0.45594000000E+02  0.51100000000E-03 0. -1.
    9900012    2    1    2    0    0  0.10228915331E+02  0.13990683949E+02  0.36780371513E+02  0.50528859885E+02  0.30000000107E+02 0.  0.
         12    1    1    2    0    0 -0.10228915331E+02 -0.13990683949E+02 -0.36780371513E+02  0.40659140115E+02  0.00000000000E+00 0. -1.
         11    1    3    3    0    0  0.14951225536E+02  0.13061399626E+02  0.13435404675E+02  0.23971846075E+02  0.51100000000E-03 0. -1.
        -11    1    3    3    0    0  0.31246472710E+00  0.13518278693E+01 -0.98911617568E+00  0.17039436211E+01  0.51100000000E-03 0.  1.
        -12    1    3    3    0    0 -0.50347749318E+01 -0.42254354638E+00  0.24334083015E+02  0.24853070189E+02  0.00000000000E+00 0.  1.
</event>
<event>
 7    1  0.5456331E-013  0.5052885E+02  0.7816164E-02  0.1300439E+00
        -11   -1    0    0    0    0  0.00000000000E+00  0.00000000000E+00  0.45593999997E+02  0.45594000000E+02  0.51100000000E-03 0.  1.
         11   -1    0    0    0    0 -0.00000000000E+00 -0.00000000000E+00 -0.45593999997E+02  0.45594000000E+02  0.51100000000E-03 0. -1.
    9900012    2    1    2    0    0  0.19349972919E+02  0.15718712095E+02  0.32119569763E+02  0.50528854366E+02  0.29999983332E+02 0.  0.
         12    1    1    2    0    0 -0.19349972919E+02 -0.15718712095E+02 -0.32119569763E+02  0.40659145634E+02  0.00000000000E+00 0. -1.
         11    1    3    3    0    0  0.25612044433E+01  0.10479653361E+01 -0.14650785746E+01  0.31312066423E+01  0.51100000000E-03 0. -1.
        -11    1    3    3    0    0  0.65977892617E+01  0.11518585005E+02  0.12316125459E+01  0.13331372524E+02  0.51100000000E-03 0.  1.
        -12    1    3    3    0    0  0.10190979214E+02  0.31521617548E+01  0.32353035792E+02  0.34066275200E+02  0.00000000000E+00 0.  1.
</event>
<event>
 7    1  0.5456331E-013  0.5052889E+02  0.7816164E-02  0.1300439E+00
        -11   -1    0    0    0    0  0.00000000000E+00  0.00000000000E+00  0.45593999997E+02  0.45594000000E+02  0.51100000000E-03 0.  1.
         11   -1    0    0    0    0 -0.00000000000E+00 -0.00000000000E+00 -0.45593999997E+02  0.45594000000E+02  0.51100000000E-03 0. -1.
    9900012    2    1    2    0    0 -0.55943626900E+01 -0.36825851583E+02  0.16301014431E+02  0.50528888964E+02  0.30000088496E+02 0.  0.
         12    1    1    2    0    0  0.55943626900E+01  0.36825851583E+02 -0.16301014431E+02  0.40659111036E+02  0.00000000000E+00 0. -1.
         11    1    3    3    0    0  0.35384448219E+01  0.56016836784E+00 -0.17121581165E+01  0.39706253959E+01  0.51100000000E-03 0. -1.
        -11    1    3    3    0    0 -0.23522074295E+01  0.63575470282E+00  0.54081213980E+01  0.59316811403E+01  0.51100000000E-03 0.  1.
        -12    1    3    3    0    0 -0.67806000824E+01 -0.38021774654E+02  0.12605051150E+02  0.40626582428E+02  0.00000000000E+00 0.  1.
</event>
<event>
 7    1  0.5456331E-013  0.5052886E+02  0.7816164E-02  0.1300439E+00
        -11   -1    0    0    0    0  0.00000000000E+00  0.00000000000E+00  0.45593999997E+02  0.45594000000E+02  0.51100000000E-03 0.  1.
         11   -1    0    0    0    0 -0.00000000000E+00 -0.00000000000E+00 -0.45593999997E+02  0.45594000000E+02  0.51100000000E-03 0. -1.
    9900012    2    1    2    0    0  0.15185320696E+02  0.58769357538E+01  0.37256320334E+02  0.50528859044E+02  0.29999997549E+02 0.  0.
         12    1    1    2    0    0 -0.15185320696E+02 -0.58769357538E+01 -0.37256320334E+02  0.40659140956E+02  0.00000000000E+00 0. -1.
         11    1    3    3    0    0  0.88646131043E+01  0.32320071117E+01  0.11498959594E+02  0.14874585960E+02  0.51100000000E-03 0. -1.
        -11    1    3    3    0    0  0.93692585649E+01  0.98160773465E+01  0.68426852555E+01  0.15197391957E+02  0.51100000000E-03 0.  1.
        -12    1    3    3    0    0 -0.30485509730E+01 -0.71711487044E+01  0.18914675484E+02  0.20456881127E+02  0.00000000000E+00 0.  1.
</event>
<event>
 7    1  0.5456331E-013  0.5052891E+02  0.7816164E-02  0.1300439E+00
        -11   -1    0    0    0    0  0.00000000000E+00  0.00000000000E+00  0.45593999997E+02  0.45594000000E+02  0.51100000000E-03 0. -1.
         11   -1    0    0    0    0 -0.00000000000E+00 -0.00000000000E+00 -0.45593999997E+02  0.45594000000E+02  0.51100000000E-03 0.  1.
    9900012    2    1    2    0    0 -0.16542238455E+02 -0.25604750375E+02 -0.26905624635E+02  0.50528910833E+02  0.30000154969E+02 0.  0.
         12    1    1    2    0    0  0.16542238455E+02  0.25604750375E+02  0.26905624635E+02  0.40659089167E+02  0.00000000000E+00 0. -1.
         11    1    3    3    0    0 -0.40281345416E+01  0.25793193132E+01 -0.20463173681E+01  0.52025158373E+01  0.51100000000E-03 0. -1.
        -11    1    3    3    0    0  0.47921550887E+01 -0.35753893993E+00 -0.53414373778E+01  0.71849521926E+01  0.51100000000E-03 0.  1.
        -12    1    3    3    0    0 -0.17306259002E+02 -0.27826530748E+02 -0.19517869889E+02  0.38141442804E+02  0.00000000000E+00 0.  1.
</event>
<event>
 7    1  0.5456331E-013  0.5052886E+02  0.7816164E-02  0.1300439E+00
        -11   -1    0    0    0    0  0.00000000000E+00  0.00000000000E+00  0.45593999997E+02  0.45594000000E+02  0.51100000000E-03 0. -1.
         11   -1    0    0    0    0 -0.00000000000E+00 -0.00000000000E+00 -0.45593999997E+02  0.45594000000E+02  0.51100000000E-03 0.  1.
    9900012    2    1    2    0    0  0.15450790832E+02 -0.36700830334E+02 -0.82151075882E+01  0.50528857397E+02  0.29999992545E+02 0.  0.
         12    1    1    2    0    0 -0.15450790832E+02  0.36700830334E+02  0.82151075882E+01  0.40659142603E+02  0.00000000000E+00 0. -1.
         11    1    3    3    0    0  0.62661568310E+01 -0.31189577317E+02 -0.55432512136E+01  0.32292136643E+02  0.51100000000E-03 0.  1.
        -11    1    3    3    0    0  0.55263911221E+01 -0.65126611318E+01 -0.79957786178E+01  0.11699924351E+02  0.51100000000E-03 0. -1.
         12    1    3    3    0    0  0.36582428786E+01  0.10014081156E+01  0.53239222432E+01  0.65367964038E+01  0.00000000000E+00 0. -1.
</event>
<event>
 7    1  0.5456331E-013  0.5052885E+02  0.7816164E-02  0.1300439E+00
        -11   -1    0    0    0    0  0.00000000000E+00  0.00000000000E+00  0.45593999997E+02  0.45594000000E+02  0.51100000000E-03 0. -1.
         11   -1    0    0    0    0 -0.00000000000E+00 -0.00000000000E+00 -0.45593999997E+02  0.45594000000E+02  0.51100000000E-03 0.  1.
    9900012    2    1    2    0    0 -0.11535550180E+02  0.89936765796E+01 -0.37936936575E+02  0.50528852283E+02  0.29999977000E+02 0.  0.
         12    1    1    2    0    0  0.11535550180E+02 -0.89936765796E+01  0.37936936575E+02  0.40659147717E+02  0.00000000000E+00 0. -1.
         11    1    3    3    0    0 -0.58314050880E+01  0.32468565138E+01 -0.27361354767E+02  0.28163648512E+02  0.51100000000E-03 0.  1.
        -11    1    3    3    0    0 -0.39469914542E+01  0.11666042430E+02 -0.10509581742E+02  0.16190324153E+02  0.51100000000E-03 0. -1.
        -12    1    3    3    0    0 -0.17571536378E+01 -0.59192223638E+01 -0.66000064962E-01  0.61748796189E+01  0.00000000000E+00 0.  1.
</event>
<event>
 7    1  0.5456331E-013  0.5052886E+02  0.7816164E-02  0.1300439E+00
        -11   -1    0    0    0    0  0.00000000000E+00  0.00000000000E+00  0.45593999997E+02  0.45594000000E+02  0.51100000000E-03 0. -1.
         11   -1    0    0    0    0 -0.00000000000E+00 -0.00000000000E+00 -0.45593999997E+02  0.45594000000E+02  0.51100000000E-03 0.  1.
    9900012    2    1    2    0    0 -0.36572815642E+02 -0.17547717146E+02  0.27699350676E+01  0.50528858822E+02  0.29999996876E+02 0.  0.
         12    1    1    2    0    0  0.36572815642E+02  0.17547717146E+02 -0.27699350676E+01  0.40659141178E+02  0.00000000000E+00 0. -1.
         11    1    3    3    0    0 -0.16661050893E+02 -0.87330658012E+00  0.12802051679E+02  0.21029641192E+02  0.51100000000E-03 0.  1.
        -11    1    3    3    0    0 -0.48510447416E+01 -0.11798824298E+01  0.12166579402E+01  0.51385809751E+01  0.51100000000E-03 0. -1.
        -12    1    3    3    0    0 -0.15060720008E+02 -0.15494528136E+02 -0.11248774551E+02  0.24360636655E+02  0.00000000000E+00 0.  1.
</event>
<event>
 7    1  0.5456331E-013  0.5052886E+02  0.7816164E-02  0.1300439E+00
        -11   -1    0    0    0    0  0.00000000000E+00  0.00000000000E+00  0.45593999997E+02  0.45594000000E+02  0.51100000000E-03 0.  1.
         11   -1    0    0    0    0 -0.00000000000E+00 -0.00000000000E+00 -0.45593999997E+02  0.45594000000E+02  0.51100000000E-03 0. -1.
    9900012    2    1    2    0    0 -0.18355889772E+02  0.34359325097E+02 -0.11647462563E+02  0.50528864562E+02  0.30000014322E+02 0.  0.
         12    1    1    2    0    0  0.18355889772E+02 -0.34359325097E+02  0.11647462563E+02  0.40659135438E+02  0.00000000000E+00 0. -1.
         11    1    3    3    0    0 -0.96815076147E+01  0.47337244102E+01  0.27064151968E+01  0.11111454449E+02  0.51100000000E-03 0.  1.
        -11    1    3    3    0    0 -0.96069079817E+01  0.32097974512E+02 -0.14981124879E+02  0.36701590588E+02  0.51100000000E-03 0. -1.
         12    1    3    3    0    0  0.93252582450E+00 -0.24723738256E+01  0.62724711930E+00  0.27158195255E+01  0.00000000000E+00 0. -1.
</event>
<event>
 7    1  0.5456331E-013  0.5052886E+02  0.7816164E-02  0.1300439E+00
        -11   -1    0    0    0    0  0.00000000000E+00  0.00000000000E+00  0.45593999997E+02  0.45594000000E+02  0.51100000000E-03 0. -1.
         11   -1    0    0    0    0 -0.00000000000E+00 -0.00000000000E+00 -0.45593999997E+02  0.45594000000E+02  0.51100000000E-03 0.  1.
    9900012    2    1    2    0    0 -0.11344413110E+02 -0.38859321278E+02 -0.37978012136E+01  0.50528857694E+02  0.29999993445E+02 0.  0.
         12    1    1    2    0    0  0.11344413110E+02  0.38859321278E+02  0.37978012136E+01  0.40659142306E+02  0.00000000000E+00 0. -1.
         11    1    3    3    0    0 -0.64244563631E+01 -0.77022982587E+01 -0.17913098684E+01  0.10188612729E+02  0.51100000000E-03 0. -1.
        -11    1    3    3    0    0 -0.15135055187E+02 -0.20620840432E+02 -0.20964547310E+01  0.25664841288E+02  0.51100000000E-03 0.  1.
         12    1    3    3    0    0  0.10215098440E+02 -0.10536182588E+02  0.89963385867E-01  0.14675403677E+02  0.00000000000E+00 0. -1.
</event>
<event>
 7    1  0.5456331E-013  0.5052886E+02  0.7816164E-02  0.1300439E+00
        -11   -1    0    0    0    0  0.00000000000E+00  0.00000000000E+00  0.45593999997E+02  0.45594000000E+02  0.51100000000E-03 0.  1.
         11   -1    0    0    0    0 -0.00000000000E+00 -0.00000000000E+00 -0.45593999997E+02  0.45594000000E+02  0.51100000000E-03 0. -1.
    9900012    2    1    2    0    0  0.37507190949E+02  0.12589533798E+02  0.93744213602E+01  0.50528861913E+02  0.30000006270E+02 0.  0.
         12    1    1    2    0    0 -0.37507190949E+02 -0.12589533798E+02 -0.93744213602E+01  0.40659138087E+02  0.00000000000E+00 0. -1.
         11    1    3    3    0    0  0.99267771900E+01  0.83305154724E+01 -0.86266938899E+01  0.15567859235E+02  0.51100000000E-03 0. -1.
        -11    1    3    3    0    0  0.12859834193E+02 -0.30919650465E+01  0.10453404858E+02  0.16858506953E+02  0.51100000000E-03 0.  1.
        -12    1    3    3    0    0  0.14720579567E+02  0.73509833723E+01  0.75477103926E+01  0.18102495725E+02  0.00000000000E+00 0.  1.
</event>
<event>
 7    1  0.5456331E-013  0.5052886E+02  0.7816164E-02  0.1300439E+00
        -11   -1    0    0    0    0  0.00000000000E+00  0.00000000000E+00  0.45593999997E+02  0.45594000000E+02  0.51100000000E-03 0. -1.
         11   -1    0    0    0    0 -0.00000000000E+00 -0.00000000000E+00 -0.45593999997E+02  0.45594000000E+02  0.51100000000E-03 0.  1.
    9900012    2    1    2    0    0 -0.39920024868E+02 -0.28412656964E+01 -0.71752594098E+01  0.50528861743E+02  0.30000005753E+02 0.  0.
         12    1    1    2    0    0  0.39920024868E+02  0.28412656964E+01  0.71752594098E+01  0.40659138257E+02  0.00000000000E+00 0. -1.
         11    1    3    3    0    0 -0.19883655221E+02 -0.10619330759E+02  0.54065054192E+01  0.23181031725E+02  0.51100000000E-03 0.  1.
        -11    1    3    3    0    0 -0.54445187604E+00 -0.22498115932E+01 -0.17221617395E+01  0.28851206852E+01  0.51100000000E-03 0. -1.
        -12    1    3    3    0    0 -0.19491917771E+02  0.10027876656E+02 -0.10859603090E+02  0.24462709333E+02  0.00000000000E+00 0.  1.
</event>
<event>
 7    1  0.5456331E-013  0.5052888E+02  0.7816164E-02  0.1300439E+00
        -11   -1    0    0    0    0  0.00000000000E+00  0.00000000000E+00  0.45593999997E+02  0.45594000000E+02  0.51100000000E-03 0. -1.
         11   -1    0    0    0    0 -0.00000000000E+00 -0.00000000000E+00 -0.45593999997E+02  0.45594000000E+02  0.51100000000E-03 0.  1.
    9900012    2    1    2    0    0 -0.38663315152E+02 -0.44218688237E+01  0.11779602724E+02  0.50528881678E+02  0.30000066348E+02 0.  0.
         12    1    1    2    0    0  0.38663315152E+02  0.44218688237E+01 -0.11779602724E+02  0.40659118322E+02  0.00000000000E+00 0. -1.
         11    1    3    3    0    0 -0.12302561702E+02 -0.69930392012E+01  0.11025980739E+02  0.17939561678E+02  0.51100000000E-03 0. -1.
        -11    1    3    3    0    0 -0.22081263049E+02 -0.25595121512E+01  0.71391669308E+01  0.23347397821E+02  0.51100000000E-03 0.  1.
         12    1    3    3    0    0 -0.42794904013E+01  0.51306825287E+01 -0.63855449456E+01  0.92419221787E+01  0.00000000000E+00 0. -1.
</event>
<event>
 7    1  0.5456331E-013  0.5052892E+02  0.7816164E-02  0.1300439E+00
        -11   -1    0    0    0    0  0.00000000000E+00  0.00000000000E+00  0.45593999997E+02  0.45594000000E+02  0.51100000000E-03 0.  1.
         11   -1    0    0    0    0 -0.00000000000E+00 -0.00000000000E+00 -0.45593999997E+02  0.45594000000E+02  0.51100000000E-03 0. -1.
    9900012    2    1    2    0    0 -0.11583143974E+02  0.18406342754E+02  0.34354010161E+02  0.50528921161E+02  0.30000186359E+02 0.  0.
         12    1    1    2    0    0  0.11583143974E+02 -0.18406342754E+02 -0.34354010161E+02  0.40659078839E+02  0.00000000000E+00 0. -1.
         11    1    3    3    0    0 -0.97880292091E+01  0.10958180309E+01  0.29099080981E+01  0.10270048605E+02  0.51100000000E-03 0. -1.
        -11    1    3    3    0    0 -0.41816959265E+01  0.95332839858E+01  0.32365248083E+01  0.10901613526E+02  0.51100000000E-03 0.  1.
        -12    1    3    3    0    0  0.23865811612E+01  0.77772407376E+01  0.28207577255E+02  0.29357259029E+02  0.00000000000E+00 0.  1.
</event>
<event>
 7    1  0.5456331E-013  0.5052886E+02  0.7816164E-02  0.1300439E+00
        -11   -1    0    0    0    0  0.00000000000E+00  0.00000000000E+00  0.45593999997E+02  0.45594000000E+02  0.51100000000E-03 0.  1.
         11   -1    0    0    0    0 -0.00000000000E+00 -0.00000000000E+00 -0.45593999997E+02  0.45594000000E+02  0.51100000000E-03 0. -1.
    9900012    2    1    2    0    0  0.29161676060E+02  0.94187682279E+01  0.26721703222E+02  0.50528856273E+02  0.29999989126E+02 0.  0.
         12    1    1    2    0    0 -0.29161676060E+02 -0.94187682279E+01 -0.26721703222E+02  0.40659143727E+02  0.00000000000E+00 0. -1.
         11    1    3    3    0    0  0.21457333831E+02  0.10643905777E+02  0.69392161508E+01  0.24937173585E+02  0.51100000000E-03 0. -1.
        -11    1    3    3    0    0  0.15961748085E+01  0.35082544559E+01 -0.50036454280E+00  0.38866422891E+01  0.51100000000E-03 0.  1.
        -12    1    3    3    0    0  0.61081674200E+01 -0.47333920054E+01  0.20282851614E+02  0.21705040399E+02  0.00000000000E+00 0.  1.
</event>
<event>
 7    1  0.5456331E-013  0.5052887E+02  0.7816164E-02  0.1300439E+00
        -11   -1    0    0    0    0  0.00000000000E+00  0.00000000000E+00  0.45593999997E+02  0.45594000000E+02  0.51100000000E-03 0.  1.
         11   -1    0    0    0    0 -0.00000000000E+00 -0.00000000000E+00 -0.45593999997E+02  0.45594000000E+02  0.51100000000E-03 0. -1.
    9900012    2    1    2    0    0  0.33374526079E+01 -0.23903574404E+02  0.32720715864E+02  0.50528871802E+02  0.30000036329E+02 0.  0.
         12    1    1    2    0    0 -0.33374526079E+01  0.23903574404E+02 -0.32720715864E+02  0.40659128198E+02  0.00000000000E+00 0. -1.
         11    1    3    3    0    0  0.33192626863E+01 -0.59138513116E+01 -0.28851558376E+00  0.67878114013E+01  0.51100000000E-03 0. -1.
        -11    1    3    3    0    0  0.54112340641E+01 -0.73517199497E+01  0.53305421144E+00  0.91440356172E+01  0.51100000000E-03 0.  1.
        -12    1    3    3    0    0 -0.53930441425E+01 -0.10638003142E+02  0.32476177236E+02  0.34597024783E+02  0.00000000000E+00 0.  1.
</event>
<event>
 7    1  0.5456331E-013  0.5052888E+02  0.7816164E-02  0.1300439E+00
        -11   -1    0    0    0    0  0.00000000000E+00  0.00000000000E+00  0.45593999997E+02  0.45594000000E+02  0.51100000000E-03 0.  1.
         11   -1    0    0    0    0 -0.00000000000E+00 -0.00000000000E+00 -0.45593999997E+02  0.45594000000E+02  0.51100000000E-03 0. -1.
    9900012    2    1    2    0    0 -0.33180692250E+02  0.94050398461E+01  0.21534885850E+02  0.50528875302E+02  0.30000046967E+02 0.  0.
         12    1    1    2    0    0  0.33180692250E+02 -0.94050398461E+01 -0.21534885850E+02  0.40659124698E+02  0.00000000000E+00 0. -1.
         11    1    3    3    0    0  0.38368840093E+01 -0.28964198399E+01  0.16472380997E+01  0.50817635136E+01  0.51100000000E-03 0. -1.
        -11    1    3    3    0    0 -0.14172556927E+01  0.19325519184E+01  0.48968746491E+01  0.54518576839E+01  0.51100000000E-03 0.  1.
         12    1    3    3    0    0 -0.35600320566E+02  0.10368907768E+02  0.14990773101E+02  0.39995254104E+02  0.00000000000E+00 0. -1.
</event>
<event>
 7    1  0.5456331E-013  0.5052887E+02  0.7816164E-02  0.1300439E+00
        -11   -1    0    0    0    0  0.00000000000E+00  0.00000000000E+00  0.45593999997E+02  0.45594000000E+02  0.51100000000E-03 0.  1.
         11   -1    0    0    0    0 -0.00000000000E+00 -0.00000000000E+00 -0.45593999997E+02  0.45594000000E+02  0.51100000000E-03 0. -1.
    9900012    2    1    2    0    0 -0.39935831791E+02  0.51228165788E+01  0.56613643879E+01  0.50528868709E+02  0.30000026929E+02 0.  0.
         12    1    1    2    0    0  0.39935831791E+02 -0.51228165788E+01 -0.56613643879E+01  0.40659131291E+02  0.00000000000E+00 0. -1.
         11    1    3    3    0    0 -0.19940382277E+02  0.93706521412E+00 -0.77971048316E+01  0.21431093780E+02  0.51100000000E-03 0. -1.
        -11    1    3    3    0    0 -0.20200295548E+02  0.70197802868E+01  0.77952416310E+01  0.22761701339E+02  0.51100000000E-03 0.  1.
        -12    1    3    3    0    0  0.20484603388E+00 -0.28340289221E+01  0.56632275885E+01  0.63360735908E+01  0.00000000000E+00 0.  1.
</event>
<event>
 7    1  0.5456331E-013  0.5052887E+02  0.7816164E-02  0.1300439E+00
        -11   -1    0    0    0    0  0.00000000000E+00  0.00000000000E+00  0.45593999997E+02  0.45594000000E+02  0.51100000000E-03 0.  1.
         11   -1    0    0    0    0 -0.00000000000E+00 -0.00000000000E+00 -0.45593999997E+02  0.45594000000E+02  0.51100000000E-03 0. -1.
    9900012    2    1    2    0    0  0.18331712354E+02 -0.34505982725E+01  0.36127646288E+02  0.50528866554E+02  0.30000020376E+02 0.  0.
         12    1    1    2    0    0 -0.18331712354E+02  0.34505982725E+01 -0.36127646288E+02  0.40659133446E+02  0.00000000000E+00 0. -1.
         11    1    3    3    0    0  0.20439444792E+01  0.45135701545E+01  0.33549412732E+01  0.59837827318E+01  0.51100000000E-03 0. -1.
        -11    1    3    3    0    0  0.52376125908E+01  0.73052774654E+01  0.33296219830E+01  0.95857210114E+01  0.51100000000E-03 0.  1.
         12    1    3    3    0    0  0.11050155284E+02 -0.15269445892E+02  0.29443083032E+02  0.34959362810E+02  0.00000000000E+00 0. -1.
</event>
<event>
 7    1  0.5456331E-013  0.5052886E+02  0.7816164E-02  0.1300439E+00
        -11   -1    0    0    0    0  0.00000000000E+00  0.00000000000E+00  0.45593999997E+02  0.45594000000E+02  0.51100000000E-03 0. -1.
         11   -1    0    0    0    0 -0.00000000000E+00 -0.00000000000E+00 -0.45593999997E+02  0.45594000000E+02  0.51100000000E-03 0.  1.
    9900012    2    1    2    0    0 -0.11118434961E+02 -0.37200519290E+02 -0.12069282759E+02  0.50528858128E+02  0.29999994767E+02 0.  0.
         12    1    1    2    0    0  0.11118434961E+02  0.37200519290E+02  0.12069282759E+02  0.40659141872E+02  0.00000000000E+00 0. -1.
         11    1    3    3    0    0 -0.67663400017E+01 -0.14052758036E+02 -0.99741994512E+01  0.18513455118E+02  0.51100000000E-03 0. -1.
        -11    1    3    3    0    0 -0.29245710768E+01 -0.23564148977E+02 -0.86670832669E+01  0.25277273698E+02  0.51100000000E-03 0.  1.
         12    1    3    3    0    0 -0.14275238822E+01  0.41638772326E+00  0.65719999588E+01  0.67381293123E+01  0.00000000000E+00 0. -1.
</event>
<event>
 7    1  0.5456331E-013  0.5052886E+02  0.7816164E-02  0.1300439E+00
        -11   -1    0    0    0    0  0.00000000000E+00  0.00000000000E+00  0.45593999997E+02  0.45594000000E+02  0.51100000000E-03 0.  1.
         11   -1    0    0    0    0 -0.00000000000E+00 -0.00000000000E+00 -0.45593999997E+02  0.45594000000E+02  0.51100000000E-03 0. -1.
    9900012    2    1    2    0    0 -0.12858353539E+02  0.32285856319E+02  0.21105733330E+02  0.50528858920E+02  0.29999997172E+02 0.  0.
         12    1    1    2    0    0  0.12858353539E+02 -0.32285856319E+02 -0.21105733330E+02  0.40659141080E+02  0.00000000000E+00 0. -1.
         11    1    3    3    0    0 -0.32793547804E+01  0.29502860130E+01  0.60321161019E+01  0.74729365220E+01  0.51100000000E-03 0. -1.
        -11    1    3    3    0    0 -0.12384219114E+02  0.16634261983E+01  0.53290491586E+01  0.13584352578E+02  0.51100000000E-03 0.  1.
        -12    1    3    3    0    0  0.28052203549E+01  0.27672144108E+02  0.97445680700E+01  0.29471569819E+02  0.00000000000E+00 0.  1.
</event>
<event>
 7    1  0.5456331E-013  0.5052885E+02  0.7816164E-02  0.1300439E+00
        -11   -1    0    0    0    0  0.00000000000E+00  0.00000000000E+00  0.45593999997E+02  0.45594000000E+02  0.51100000000E-03 0.  1.
         11   -1    0    0    0    0 -0.00000000000E+00 -0.00000000000E+00 -0.45593999997E+02  0.45594000000E+02  0.51100000000E-03 0. -1.
    9900012    2    1    2    0    0  0.28031947438E+02  0.15196040599E+02  0.25228091218E+02  0.50528852031E+02  0.29999976234E+02 0.  0.
         12    1    1    2    0    0 -0.28031947438E+02 -0.15196040599E+02 -0.25228091218E+02  0.40659147969E+02  0.00000000000E+00 0. -1.
         11    1    3    3    0    0  0.13052693819E+02  0.11502271465E+02  0.71101787523E+01  0.18794406267E+02  0.51100000000E-03 0. -1.
        -11    1    3    3    0    0  0.16887238030E+02 -0.35046630252E+01  0.76005922355E+01  0.18847558829E+02  0.51100000000E-03 0.  1.
         12    1    3    3    0    0 -0.19079844109E+01  0.71984321588E+01  0.10517320230E+02  0.12886886935E+02  0.00000000000E+00 0. -1.
</event>
<event>
 7    1  0.5456331E-013  0.5052887E+02  0.7816164E-02  0.1300439E+00
        -11   -1    0    0    0    0  0.00000000000E+00  0.00000000000E+00  0.45593999997E+02  0.45594000000E+02  0.51100000000E-03 0. -1.
         11   -1    0    0    0    0 -0.00000000000E+00 -0.00000000000E+00 -0.45593999997E+02  0.45594000000E+02  0.51100000000E-03 0.  1.
    9900012    2    1    2    0    0  0.38472931384E+02  0.10116486079E+02 -0.84056802028E+01  0.50528865730E+02  0.30000017873E+02 0.  0.
         12    1    1    2    0    0 -0.38472931384E+02 -0.10116486079E+02  0.84056802028E+01  0.40659134270E+02  0.00000000000E+00 0. -1.
         11    1    3    3    0    0 -0.17988324768E+01 -0.44397464175E+01  0.13526929064E+01  0.49776425034E+01  0.51100000000E-03 0. -1.
        -11    1    3    3    0    0  0.14198408130E+02  0.20129724031E+01  0.16804693214E+01  0.14438518924E+02  0.51100000000E-03 0.  1.
        -12    1    3    3    0    0  0.26073355731E+02  0.12543260094E+02 -0.11438842431E+02  0.31112704303E+02  0.00000000000E+00 0.  1.
</event>
<event>
 7    1  0.5456331E-013  0.5052885E+02  0.7816164E-02  0.1300439E+00
        -11   -1    0    0    0    0  0.00000000000E+00  0.00000000000E+00  0.45593999997E+02  0.45594000000E+02  0.51100000000E-03 0. -1.
         11   -1    0    0    0    0 -0.00000000000E+00 -0.00000000000E+00 -0.45593999997E+02  0.45594000000E+02  0.51100000000E-03 0.  1.
    9900012    2    1    2    0    0  0.31531799337E+02 -0.19795238701E+02 -0.16341988656E+02  0.50528850502E+02  0.29999971586E+02 0.  0.
         12    1    1    2    0    0 -0.31531799337E+02  0.19795238701E+02  0.16341988656E+02  0.40659149498E+02  0.00000000000E+00 0. -1.
         11    1    3    3    0    0  0.18983727347E+02 -0.30268291861E+01 -0.64539558655E+01  0.20277996585E+02  0.51100000000E-03 0. -1.
        -11    1    3    3    0    0  0.15192337666E+02 -0.93344805010E+01 -0.29958956699E+00  0.17833378932E+02  0.51100000000E-03 0.  1.
         12    1    3    3    0    0 -0.26442656762E+01 -0.74339290135E+01 -0.95884432238E+01  0.12417474985E+02  0.00000000000E+00 0. -1.
</event>
<event>
 7    1  0.5456331E-013  0.5052886E+02  0.7816164E-02  0.1300439E+00
        -11   -1    0    0    0    0  0.00000000000E+00  0.00000000000E+00  0.45593999997E+02  0.45594000000E+02  0.51100000000E-03 0.  1.
         11   -1    0    0    0    0 -0.00000000000E+00 -0.00000000000E+00 -0.45593999997E+02  0.45594000000E+02  0.51100000000E-03 0. -1.
    9900012    2    1    2    0    0 -0.31328334578E+02  0.86998505618E+01  0.24413386926E+02  0.50528863162E+02  0.30000010067E+02 0.  0.
         12    1    1    2    0    0  0.31328334578E+02 -0.86998505618E+01 -0.24413386926E+02  0.40659136838E+02  0.00000000000E+00 0. -1.
         11    1    3    3    0    0 -0.60934252748E+01  0.53548618389E+01 -0.12479485200E+01  0.82074205852E+01  0.51100000000E-03 0. -1.
        -11    1    3    3    0    0 -0.95256451078E+01 -0.92758921276E+01  0.12528213552E+02  0.18268448882E+02  0.51100000000E-03 0.  1.
         12    1    3    3    0    0 -0.15709264196E+02  0.12620880851E+02  0.13133121893E+02  0.24052993695E+02  0.00000000000E+00 0. -1.
</event>
<event>
 7    1  0.5456331E-013  0.5052886E+02  0.7816164E-02  0.1300439E+00
        -11   -1    0    0    0    0  0.00000000000E+00  0.00000000000E+00  0.45593999997E+02  0.45594000000E+02  0.51100000000E-03 0.  1.
         11   -1    0    0    0    0 -0.00000000000E+00 -0.00000000000E+00 -0.45593999997E+02  0.45594000000E+02  0.51100000000E-03 0. -1.
    9900012    2    1    2    0    0  0.28064993245E+02  0.25662817868E+02  0.14385467446E+02  0.50528859080E+02  0.29999997658E+02 0.  0.
         12    1    1    2    0    0 -0.28064993245E+02 -0.25662817868E+02 -0.14385467446E+02  0.40659140920E+02  0.00000000000E+00 0. -1.
         11    1    3    3    0    0  0.15570978281E+01  0.95471739200E+01 -0.52516767581E+01  0.11006961095E+02  0.51100000000E-03 0. -1.
        -11    1    3    3    0    0  0.12338742815E+02  0.15887504539E+02  0.12014182672E+02  0.23430705501E+02  0.51100000000E-03 0.  1.
        -12    1    3    3    0    0  0.14169152602E+02  0.22813940885E+00  0.76229615321E+01  0.16091192484E+02  0.00000000000E+00 0.  1.
</event>
<event>
 7    1  0.5456331E-013  0.5052887E+02  0.7816164E-02  0.1300439E+00
        -11   -1    0    0    0    0  0.00000000000E+00  0.00000000000E+00  0.45593999997E+02  0.45594000000E+02  0.51100000000E-03 0. -1.
         11   -1    0    0    0    0 -0.00000000000E+00 -0.00000000000E+00 -0.45593999997E+02  0.45594000000E+02  0.51100000000E-03 0.  1.
    9900012    2    1    2    0    0 -0.72187662797E+01  0.39977423093E+02 -0.16912226002E+01  0.50528866000E+02  0.30000018693E+02 0.  0.
         12    1    1    2    0    0  0.72187662797E+01 -0.39977423093E+02  0.16912226002E+01  0.40659134000E+02  0.00000000000E+00 0. -1.
         11    1    3    3    0    0  0.43982420099E+01  0.49421145339E+00  0.27015499147E+01  0.51852820503E+01  0.51100000000E-03 0. -1.
        -11    1    3    3    0    0  0.16161100439E+01  0.48280071308E+01 -0.64184006476E+01  0.81925168089E+01  0.51100000000E-03 0.  1.
         12    1    3    3    0    0 -0.13233118333E+02  0.34655204509E+02  0.20256281328E+01  0.37151067141E+02  0.00000000000E+00 0. -1.
</event>
<event>
 7    1  0.5456331E-013  0.5052887E+02  0.7816164E-02  0.1300439E+00
        -11   -1    0    0    0    0  0.00000000000E+00  0.00000000000E+00  0.45593999997E+02  0.45594000000E+02  0.51100000000E-03 0.  1.
         11   -1    0    0    0    0 -0.00000000000E+00 -0.00000000000E+00 -0.45593999997E+02  0.45594000000E+02  0.51100000000E-03 0. -1.
    9900012    2    1    2    0    0  0.25517011690E+02  0.26304529473E+02  0.17610189309E+02  0.50528869121E+02  0.30000028180E+02 0.  0.
         12    1    1    2    0    0 -0.25517011690E+02 -0.26304529473E+02 -0.17610189309E+02  0.40659130879E+02  0.00000000000E+00 0. -1.
         11    1    3    3    0    0  0.62606604122E+01  0.27192642763E+01 -0.31702096126E+01  0.75259880581E+01  0.51100000000E-03 0. -1.
        -11    1    3    3    0    0  0.55479907708E+01 -0.28100882749E+01  0.91577437329E+01  0.11069826929E+02  0.51100000000E-03 0.  1.
        -12    1    3    3    0    0  0.13708360507E+02  0.26395353471E+02  0.11622655189E+02  0.31933054133E+02  0.00000000000E+00 0.  1.
</event>
<event>
 7    1  0.5456331E-013  0.5052887E+02  0.7816164E-02  0.1300439E+00
        -11   -1    0    0    0    0  0.00000000000E+00  0.00000000000E+00  0.45593999997E+02  0.45594000000E+02  0.51100000000E-03 0.  1.
         11   -1    0    0    0    0 -0.00000000000E+00 -0.00000000000E+00 -0.45593999997E+02  0.45594000000E+02  0.51100000000E-03 0. -1.
    9900012    2    1    2    0    0 -0.88303109663E+01 -0.28623640904E+02  0.27493233652E+02  0.50528866869E+02  0.30000021335E+02 0.  0.
         12    1    1    2    0    0  0.88303109663E+01  0.28623640904E+02 -0.27493233652E+02  0.40659133131E+02  0.00000000000E+00 0. -1.
         11    1    3    3    0    0 -0.13506603353E+02 -0.79067872785E+01  0.74717208257E+01  0.17342786153E+02  0.51100000000E-03 0.  1.
        -11    1    3    3    0    0 -0.54509991199E+01 -0.11583582808E+02  0.89510493404E+01  0.15620949607E+02  0.51100000000E-03 0. -1.
         12    1    3    3    0    0  0.10127291506E+02 -0.91332708171E+01  0.11070463486E+02  0.17565131109E+02  0.00000000000E+00 0. -1.
</event>
<event>
 7    1  0.5456331E-013  0.5052874E+02  0.7816164E-02  0.1300439E+00
        -11   -1    0    0    0    0  0.00000000000E+00  0.00000000000E+00  0.45593999997E+02  0.45594000000E+02  0.51100000000E-03 0.  1.
         11   -1    0    0    0    0 -0.00000000000E+00 -0.00000000000E+00 -0.45593999997E+02  0.45594000000E+02  0.51100000000E-03 0. -1.
    9900012    2    1    2    0    0 -0.39598206171E+02 -0.41842039097E+01  0.82249506558E+01  0.50528741428E+02  0.29999640043E+02 0.  0.
         12    1    1    2    0    0  0.39598206171E+02  0.41842039097E+01 -0.82249506558E+01  0.40659258572E+02  0.00000000000E+00 0. -1.
         11    1    3    3    0    0 -0.33720587273E+02 -0.13433205355E+02  0.50133514592E+01  0.36642362168E+02  0.51100000000E-03 0.  1.
        -11    1    3    3    0    0 -0.63814899169E+01  0.38074630004E+01 -0.21853985183E+00  0.74342415879E+01  0.51100000000E-03 0. -1.
        -12    1    3    3    0    0  0.50387101837E+00  0.54415384451E+01  0.34301390484E+01  0.64521376725E+01  0.00000000000E+00 0.  1.
</event>
<event>
 7    1  0.5456331E-013  0.5052887E+02  0.7816164E-02  0.1300439E+00
        -11   -1    0    0    0    0  0.00000000000E+00  0.00000000000E+00  0.45593999997E+02  0.45594000000E+02  0.51100000000E-03 0.  1.
         11   -1    0    0    0    0 -0.00000000000E+00 -0.00000000000E+00 -0.45593999997E+02  0.45594000000E+02  0.51100000000E-03 0. -1.
    9900012    2    1    2    0    0 -0.63271814717E+00 -0.38619605711E+02  0.12700023407E+02  0.50528869758E+02  0.30000030116E+02 0.  0.
         12    1    1    2    0    0  0.63271814717E+00  0.38619605711E+02 -0.12700023407E+02  0.40659130242E+02  0.00000000000E+00 0. -1.
         11    1    3    3    0    0  0.46053407989E+01 -0.17666936052E+01 -0.26524954414E+01  0.56005448392E+01  0.51100000000E-03 0. -1.
        -11    1    3    3    0    0 -0.30443500943E+01  0.15883103448E+01 -0.11066158250E+00  0.34355557767E+01  0.51100000000E-03 0.  1.
        -12    1    3    3    0    0 -0.21937088518E+01 -0.38441222451E+02  0.15463180431E+02  0.41492769142E+02  0.00000000000E+00 0.  1.
</event>
<event>
 7    1  0.5456331E-013  0.5052886E+02  0.7816164E-02  0.1300439E+00
        -11   -1    0    0    0    0  0.00000000000E+00  0.00000000000E+00  0.45593999997E+02  0.45594000000E+02  0.51100000000E-03 0.  1.
         11   -1    0    0    0    0 -0.00000000000E+00 -0.00000000000E+00 -0.45593999997E+02  0.45594000000E+02  0.51100000000E-03 0. -1.
    9900012    2    1    2    0    0 -0.10221857636E+02  0.65004268123E+01  0.38812674905E+02  0.50528860122E+02  0.30000000828E+02 0.  0.
         12    1    1    2    0    0  0.10221857636E+02 -0.65004268123E+01 -0.38812674905E+02  0.40659139878E+02  0.00000000000E+00 0. -1.
         11    1    3    3    0    0 -0.11249440562E+02  0.86082158039E+01  0.83559484609E+01  0.16446068443E+02  0.51100000000E-03 0. -1.
        -11    1    3    3    0    0 -0.41582584287E+01 -0.50263489361E+01  0.58353796302E+01  0.87525397729E+01  0.51100000000E-03 0.  1.
         12    1    3    3    0    0  0.51858413543E+01  0.29185599445E+01  0.24621346814E+02  0.25330251907E+02  0.00000000000E+00 0. -1.
</event>
<event>
 7    1  0.5456331E-013  0.5052887E+02  0.7816164E-02  0.1300439E+00
        -11   -1    0    0    0    0  0.00000000000E+00  0.00000000000E+00  0.45593999997E+02  0.45594000000E+02  0.51100000000E-03 0.  1.
         11   -1    0    0    0    0 -0.00000000000E+00 -0.00000000000E+00 -0.45593999997E+02  0.45594000000E+02  0.51100000000E-03 0. -1.
    9900012    2    1    2    0    0  0.62698529472E+01  0.13798210168E+02  0.37728816366E+02  0.50528865182E+02  0.30000016206E+02 0.  0.
         12    1    1    2    0    0 -0.62698529472E+01 -0.13798210168E+02 -0.37728816366E+02  0.40659134818E+02  0.00000000000E+00 0. -1.
         11    1    3    3    0    0 -0.36024703644E+01  0.63740188878E+01 -0.16332746301E+01  0.75015662223E+01  0.51100000000E-03 0. -1.
        -11    1    3    3    0    0 -0.14201004811E+01  0.38086931923E+01  0.38911984632E+01  0.56271000480E+01  0.51100000000E-03 0.  1.
         12    1    3    3    0    0  0.11292423793E+02  0.36154980881E+01  0.35470892533E+02  0.37400198911E+02  0.00000000000E+00 0. -1.
</event>
<event>
 7    1  0.5456331E-013  0.5052886E+02  0.7816164E-02  0.1300439E+00
        -11   -1    0    0    0    0  0.00000000000E+00  0.00000000000E+00  0.45593999997E+02  0.45594000000E+02  0.51100000000E-03 0. -1.
         11   -1    0    0    0    0 -0.00000000000E+00 -0.00000000000E+00 -0.45593999997E+02  0.45594000000E+02  0.51100000000E-03 0.  1.
    9900012    2    1    2    0    0 -0.54070932202E+01  0.38333826489E+02 -0.12427649738E+02  0.50528863408E+02  0.30000010815E+02 0.  0.
         12    1    1    2    0    0  0.54070932202E+01 -0.38333826489E+02  0.12427649738E+02  0.40659136592E+02  0.00000000000E+00 0. -1.
         11    1    3    3    0    0 -0.73139012149E+01  0.42434589104E+01 -0.35324266223E+01  0.91639583483E+01  0.51100000000E-03 0.  1.
        -11    1    3    3    0    0 -0.77384845011E+01  0.10346542634E+02  0.27585747417E+01  0.13211541231E+02  0.51100000000E-03 0. -1.
        -12    1    3    3    0    0  0.96452924958E+01  0.23743824945E+02 -0.11653797857E+02  0.28153363828E+02  0.00000000000E+00 0.  1.
</event>
<event>
 7    1  0.5456331E-013  0.5052886E+02  0.7816164E-02  0.1300439E+00
        -11   -1    0    0    0    0  0.00000000000E+00  0.00000000000E+00  0.45593999997E+02  0.45594000000E+02  0.51100000000E-03 0.  1.
         11   -1    0    0    0    0 -0.00000000000E+00 -0.00000000000E+00 -0.45593999997E+02  0.45594000000E+02  0.51100000000E-03 0. -1.
    9900012    2    1    2    0    0 -0.12715391150E+02 -0.20075929325E+02  0.32991533611E+02  0.50528863261E+02  0.30000010369E+02 0.  0.
         12    1    1    2    0    0  0.12715391150E+02  0.20075929325E+02 -0.32991533611E+02  0.40659136739E+02  0.00000000000E+00 0. -1.
         11    1    3    3    0    0  0.34885193287E+00 -0.78773661773E+01  0.59813445824E+01  0.98970237363E+01  0.51100000000E-03 0. -1.
        -11    1    3    3    0    0 -0.98248956682E+01 -0.16748445327E+02  0.28828534065E+02  0.34758069169E+02  0.51100000000E-03 0.  1.
         12    1    3    3    0    0 -0.32393474148E+01  0.45498821793E+01 -0.18183450368E+01  0.58737703558E+01  0.00000000000E+00 0. -1.
</event>
<event>
 7    1  0.5456331E-013  0.5052886E+02  0.7816164E-02  0.1300439E+00
        -11   -1    0    0    0    0  0.00000000000E+00  0.00000000000E+00  0.45593999997E+02  0.45594000000E+02  0.51100000000E-03 0.  1.
         11   -1    0    0    0    0 -0.00000000000E+00 -0.00000000000E+00 -0.45593999997E+02  0.45594000000E+02  0.51100000000E-03 0. -1.
    9900012    2    1    2    0    0 -0.33643972575E+02 -0.95032608649E+01  0.20759015095E+02  0.50528861231E+02  0.30000004199E+02 0.  0.
         12    1    1    2    0    0  0.33643972575E+02  0.95032608649E+01 -0.20759015095E+02  0.40659138769E+02  0.00000000000E+00 0. -1.
         11    1    3    3    0    0 -0.82414673094E+01  0.48837565184E+01  0.40759823863E+01  0.10410883431E+02  0.51100000000E-03 0. -1.
        -11    1    3    3    0    0 -0.37008044251E+01  0.27257645801E+01  0.10973554596E+02  0.11897253745E+02  0.51100000000E-03 0.  1.
        -12    1    3    3    0    0 -0.21701700840E+02 -0.17112781963E+02  0.57094781127E+01  0.28220724055E+02  0.00000000000E+00 0.  1.
</event>
<event>
 7    1  0.5456331E-013  0.5052886E+02  0.7816164E-02  0.1300439E+00
        -11   -1    0    0    0    0  0.00000000000E+00  0.00000000000E+00  0.45593999997E+02  0.45594000000E+02  0.51100000000E-03 0.  1.
         11   -1    0    0    0    0 -0.00000000000E+00 -0.00000000000E+00 -0.45593999997E+02  0.45594000000E+02  0.51100000000E-03 0. -1.
    9900012    2    1    2    0    0  0.26673755056E+02  0.18620084758E+02  0.24391983196E+02  0.50528860690E+02  0.30000002555E+02 0.  0.
         12    1    1    2    0    0 -0.26673755056E+02 -0.18620084758E+02 -0.24391983196E+02  0.40659139310E+02  0.00000000000E+00 0. -1.
         11    1    3    3    0    0  0.11065430720E+02  0.71782146023E+01  0.17573550269E+02  0.21972714698E+02  0.51100000000E-03 0. -1.
        -11    1    3    3    0    0  0.84445525005E+01  0.16775756776E+02  0.50933644102E+01  0.19459672238E+02  0.51100000000E-03 0.  1.
         12    1    3    3    0    0  0.71637718353E+01 -0.53338866196E+01  0.17250685167E+01  0.90964737545E+01  0.00000000000E+00 0. -1.
</event>
<event>
 7    1  0.5456331E-013  0.5052891E+02  0.7816164E-02  0.1300439E+00
        -11   -1    0    0    0    0  0.00000000000E+00  0.00000000000E+00  0.45593999997E+02  0.45594000000E+02  0.51100000000E-03 0.  1.
         11   -1    0    0    0    0 -0.00000000000E+00 -0.00000000000E+00 -0.45593999997E+02  0.45594000000E+02  0.51100000000E-03 0. -1.
    9900012    2    1    2    0    0  0.12117897471E+02  0.35453357182E+02  0.15791698736E+02  0.50528908476E+02  0.30000147803E+02 0.  0.
         12    1    1    2    0    0 -0.12117897471E+02 -0.35453357182E+02 -0.15791698736E+02  0.40659091524E+02  0.00000000000E+00 0. -1.
         11    1    3    3    0    0 -0.17611644118E+01 -0.14873968028E+01 -0.23732700165E+01  0.33085435114E+01  0.51100000000E-03 0. -1.
        -11    1    3    3    0    0 -0.10163030040E+01  0.19990928980E+02  0.13596368245E+02  0.24197754916E+02  0.51100000000E-03 0.  1.
         12    1    3    3    0    0  0.14895364887E+02  0.16949825005E+02  0.45686005074E+01  0.23022610048E+02  0.00000000000E+00 0. -1.
</event>
<event>
 7    1  0.5456331E-013  0.5052886E+02  0.7816164E-02  0.1300439E+00
        -11   -1    0    0    0    0  0.00000000000E+00  0.00000000000E+00  0.45593999997E+02  0.45594000000E+02  0.51100000000E-03 0. -1.
         11   -1    0    0    0    0 -0.00000000000E+00 -0.00000000000E+00 -0.45593999997E+02  0.45594000000E+02  0.51100000000E-03 0.  1.
    9900012    2    1    2    0    0  0.29619659587E+02 -0.23594995848E+02 -0.14802626883E+02  0.50528858030E+02  0.29999994469E+02 0.  0.
         12    1    1    2    0    0 -0.29619659587E+02  0.23594995848E+02  0.14802626883E+02  0.40659141970E+02  0.00000000000E+00 0. -1.
         11    1    3    3    0    0  0.19880903124E+01  0.17864040452E+01 -0.43028020179E+01  0.50653576349E+01  0.51100000000E-03 0. -1.
        -11    1    3    3    0    0  0.24466550869E+02 -0.19834728024E+02 -0.17464318539E+02  0.36014316174E+02  0.51100000000E-03 0.  1.
         12    1    3    3    0    0  0.31650184056E+01 -0.55466718688E+01  0.69644936735E+01  0.94491842217E+01  0.00000000000E+00 0. -1.
</event>
<event>
 7    1  0.5456331E-013  0.5052886E+02  0.7816164E-02  0.1300439E+00
        -11   -1    0    0    0    0  0.00000000000E+00  0.00000000000E+00  0.45593999997E+02  0.45594000000E+02  0.51100000000E-03 0.  1.
         11   -1    0    0    0    0 -0.00000000000E+00 -0.00000000000E+00 -0.45593999997E+02  0.45594000000E+02  0.51100000000E-03 0. -1.
    9900012    2    1    2    0    0  0.28491950838E+02 -0.19046965178E+01  0.28943857139E+02  0.50528855918E+02  0.29999988048E+02 0.  0.
         12    1    1    2    0    0 -0.28491950838E+02  0.19046965178E+01 -0.28943857139E+02  0.40659144082E+02  0.00000000000E+00 0. -1.
         11    1    3    3    0    0 -0.43984196014E+01  0.13532445563E+01  0.16036160027E+01  0.48732894809E+01  0.51100000000E-03 0. -1.
        -11    1    3    3    0    0  0.10092486489E+02 -0.51197857785E+01  0.19538508069E+01  0.11484251093E+02  0.51100000000E-03 0.  1.
        -12    1    3    3    0    0  0.22797883951E+02  0.18618447044E+01  0.25386390330E+02  0.34171315344E+02  0.00000000000E+00 0.  1.
</event>
<event>
 7    1  0.5456331E-013  0.5052887E+02  0.7816164E-02  0.1300439E+00
        -11   -1    0    0    0    0  0.00000000000E+00  0.00000000000E+00  0.45593999997E+02  0.45594000000E+02  0.51100000000E-03 0. -1.
         11   -1    0    0    0    0 -0.00000000000E+00 -0.00000000000E+00 -0.45593999997E+02  0.45594000000E+02  0.51100000000E-03 0.  1.
    9900012    2    1    2    0    0  0.20274647524E+02  0.20565825932E+02 -0.28620802295E+02  0.50528869998E+02  0.30000030847E+02 0.  0.
         12    1    1    2    0    0 -0.20274647524E+02 -0.20565825932E+02  0.28620802295E+02  0.40659130002E+02  0.00000000000E+00 0. -1.
         11    1    3    3    0    0  0.15780301646E+02  0.22659589958E+02 -0.10140330886E+02  0.29416003261E+02  0.51100000000E-03 0. -1.
        -11    1    3    3    0    0  0.11238817542E+01  0.20696801389E+01 -0.57642193628E+00  0.24246543227E+01  0.51100000000E-03 0.  1.
        -12    1    3    3    0    0  0.33704641233E+01 -0.41634441651E+01 -0.17904049473E+02  0.18688212415E+02  0.00000000000E+00 0.  1.
</event>
<event>
 7    1  0.5456331E-013  0.5052885E+02  0.7816164E-02  0.1300439E+00
        -11   -1    0    0    0    0  0.00000000000E+00  0.00000000000E+00  0.45593999997E+02  0.45594000000E+02  0.51100000000E-03 0.  1.
         11   -1    0    0    0    0 -0.00000000000E+00 -0.00000000000E+00 -0.45593999997E+02  0.45594000000E+02  0.51100000000E-03 0. -1.
    9900012    2    1    2    0    0  0.13460604306E+01  0.34006627034E+02  0.22246431435E+02  0.50528852536E+02  0.29999977767E+02 0.  0.
         12    1    1    2    0    0 -0.13460604306E+01 -0.34006627034E+02 -0.22246431435E+02  0.40659147464E+02  0.00000000000E+00 0. -1.
         11    1    3    3    0    0 -0.44377528460E+01  0.14182858998E+02  0.41667231198E+01  0.15434011841E+02  0.51100000000E-03 0. -1.
        -11    1    3    3    0    0 -0.46918497617E+01  0.17584274877E+02  0.65134471349E+01  0.19329903543E+02  0.51100000000E-03 0.  1.
         12    1    3    3    0    0  0.10475663038E+02  0.22394931588E+01  0.11566261181E+02  0.15764937152E+02  0.00000000000E+00 0. -1.
</event>
<event>
 7    1  0.5456331E-013  0.5052886E+02  0.7816164E-02  0.1300439E+00
        -11   -1    0    0    0    0  0.00000000000E+00  0.00000000000E+00  0.45593999997E+02  0.45594000000E+02  0.51100000000E-03 0.  1.
         11   -1    0    0    0    0 -0.00000000000E+00 -0.00000000000E+00 -0.45593999997E+02  0.45594000000E+02  0.51100000000E-03 0. -1.
    9900012    2    1    2    0    0  0.17183528392E+02  0.57668705383E+01  0.36395533767E+02  0.50528864225E+02  0.30000013298E+02 0.  0.
         12    1    1    2    0    0 -0.17183528392E+02 -0.57668705383E+01 -0.36395533767E+02  0.40659135775E+02  0.00000000000E+00 0. -1.
         11    1    3    3    0    0  0.95041141881E+01  0.93581140954E+01  0.16574037055E+02  0.21274425738E+02  0.51100000000E-03 0. -1.
        -11    1    3    3    0    0  0.11298214464E+02  0.47076653189E+01  0.13438042366E+02  0.18176708880E+02  0.51100000000E-03 0.  1.
         12    1    3    3    0    0 -0.36188002598E+01 -0.82989088760E+01  0.63834543453E+01  0.11077729606E+02  0.00000000000E+00 0. -1.
</event>
<event>
 7    1  0.5456331E-013  0.5052885E+02  0.7816164E-02  0.1300439E+00
        -11   -1    0    0    0    0  0.00000000000E+00  0.00000000000E+00  0.45593999997E+02  0.45594000000E+02  0.51100000000E-03 0.  1.
         11   -1    0    0    0    0 -0.00000000000E+00 -0.00000000000E+00 -0.45593999997E+02  0.45594000000E+02  0.51100000000E-03 0. -1.
    9900012    2    1    2    0    0  0.16247712518E+02 -0.35653678613E+02  0.10862468954E+02  0.50528853520E+02  0.29999980760E+02 0.  0.
         12    1    1    2    0    0 -0.16247712518E+02  0.35653678613E+02 -0.10862468954E+02  0.40659146480E+02  0.00000000000E+00 0. -1.
         11    1    3    3    0    0  0.85482243693E+01 -0.10340065106E+02  0.33321685344E+01  0.13823618689E+02  0.51100000000E-03 0. -1.
        -11    1    3    3    0    0  0.10861363650E+02 -0.19810165647E+02 -0.45621008644E+01  0.23048311171E+02  0.51100000000E-03 0.  1.
         12    1    3    3    0    0 -0.31618755019E+01 -0.55034478604E+01  0.12092401284E+02  0.13656923660E+02  0.00000000000E+00 0. -1.
</event>
<event>
 7    1  0.5456331E-013  0.5052887E+02  0.7816164E-02  0.1300439E+00
        -11   -1    0    0    0    0  0.00000000000E+00  0.00000000000E+00  0.45593999997E+02  0.45594000000E+02  0.51100000000E-03 0.  1.
         11   -1    0    0    0    0 -0.00000000000E+00 -0.00000000000E+00 -0.45593999997E+02  0.45594000000E+02  0.51100000000E-03 0. -1.
    9900012    2    1    2    0    0  0.12625449274E+02  0.22907168901E+02  0.31129156182E+02  0.50528871615E+02  0.30000035761E+02 0.  0.
         12    1    1    2    0    0 -0.12625449274E+02 -0.22907168901E+02 -0.31129156182E+02  0.40659128385E+02  0.00000000000E+00 0. -1.
         11    1    3    3    0    0  0.17310167191E+02  0.10093970381E+02  0.89023024811E+01  0.21926721505E+02  0.51100000000E-03 0. -1.
        -11    1    3    3    0    0 -0.25476511801E+01 -0.37250392625E+00 -0.10869855272E+00  0.25770334393E+01  0.51100000000E-03 0.  1.
        -12    1    3    3    0    0 -0.21370667370E+01  0.13185702446E+02  0.22335552253E+02  0.26025116670E+02  0.00000000000E+00 0.  1.
</event>
<event>
 7    1  0.5456331E-013  0.5052885E+02  0.7816164E-02  0.1300439E+00
        -11   -1    0    0    0    0  0.00000000000E+00  0.00000000000E+00  0.45593999997E+02  0.45594000000E+02  0.51100000000E-03 0. -1.
         11   -1    0    0    0    0 -0.00000000000E+00 -0.00000000000E+00 -0.45593999997E+02  0.45594000000E+02  0.51100000000E-03 0.  1.
    9900012    2    1    2    0    0 -0.42004856032E+01 -0.37890521281E+02 -0.14136143821E+02  0.50528852882E+02  0.29999978819E+02 0.  0.
         12    1    1    2    0    0  0.42004856032E+01  0.37890521281E+02  0.14136143821E+02  0.40659147118E+02  0.00000000000E+00 0. -1.
         11    1    3    3    0    0 -0.11624640118E+02 -0.29089607009E+02 -0.14600469166E+02  0.34561701260E+02  0.51100000000E-03 0. -1.
        -11    1    3    3    0    0 -0.17922267144E+01 -0.58059804561E+01  0.13868267872E+01  0.62325576172E+01  0.51100000000E-03 0.  1.
        -12    1    3    3    0    0  0.92163812293E+01 -0.29949338159E+01 -0.92250144222E+00  0.97345940047E+01  0.00000000000E+00 0.  1.
</event>
<event>
 7    1  0.5456331E-013  0.5052886E+02  0.7816164E-02  0.1300439E+00
        -11   -1    0    0    0    0  0.00000000000E+00  0.00000000000E+00  0.45593999997E+02  0.45594000000E+02  0.51100000000E-03 0. -1.
         11   -1    0    0    0    0 -0.00000000000E+00 -0.00000000000E+00 -0.45593999997E+02  0.45594000000E+02  0.51100000000E-03 0.  1.
    9900012    2    1    2    0    0 -0.32533869269E+02 -0.23293553978E+02  0.72196687795E+01  0.50528856824E+02  0.29999990802E+02 0.  0.
         12    1    1    2    0    0  0.32533869269E+02  0.23293553978E+02 -0.72196687795E+01  0.40659143176E+02  0.00000000000E+00 0. -1.
         11    1    3    3    0    0  0.71398150625E+00 -0.85434875987E+01  0.29182556881E+01  0.90563329479E+01  0.51100000000E-03 0. -1.
        -11    1    3    3    0    0 -0.69321053838E+01 -0.13134725960E+02  0.23326869561E+01  0.15033846474E+02  0.51100000000E-03 0.  1.
         12    1    3    3    0    0 -0.26315745392E+02 -0.16153404191E+01  0.19687261353E+01  0.26438677402E+02  0.00000000000E+00 0. -1.
</event>
<event>
 7    1  0.5456331E-013  0.5052887E+02  0.7816164E-02  0.1300439E+00
        -11   -1    0    0    0    0  0.00000000000E+00  0.00000000000E+00  0.45593999997E+02  0.45594000000E+02  0.51100000000E-03 0.  1.
         11   -1    0    0    0    0 -0.00000000000E+00 -0.00000000000E+00 -0.45593999997E+02  0.45594000000E+02  0.51100000000E-03 0. -1.
    9900012    2    1    2    0    0 -0.40620618990E+02  0.17647261354E+01 -0.12729025467E+00  0.50528866361E+02  0.30000019791E+02 0.  0.
         12    1    1    2    0    0  0.40620618990E+02 -0.17647261354E+01  0.12729025467E+00  0.40659133639E+02  0.00000000000E+00 0. -1.
         11    1    3    3    0    0 -0.17131287906E+02 -0.31512910732E+01  0.88307090689E+01  0.19529287844E+02  0.51100000000E-03 0. -1.
        -11    1    3    3    0    0 -0.14926986313E+01  0.18573494264E+01  0.44570609700E+01  0.50540368862E+01  0.51100000000E-03 0.  1.
         12    1    3    3    0    0 -0.21996632452E+02  0.30586677822E+01 -0.13415060294E+02  0.25945541631E+02  0.00000000000E+00 0. -1.
</event>
<event>
 7    1  0.5456331E-013  0.5052887E+02  0.7816164E-02  0.1300439E+00
        -11   -1    0    0    0    0  0.00000000000E+00  0.00000000000E+00  0.45593999997E+02  0.45594000000E+02  0.51100000000E-03 0. -1.
         11   -1    0    0    0    0 -0.00000000000E+00 -0.00000000000E+00 -0.45593999997E+02  0.45594000000E+02  0.51100000000E-03 0.  1.
    9900012    2    1    2    0    0  0.32319564269E+01 -0.17976552910E+02 -0.36325793258E+02  0.50528865077E+02  0.30000015887E+02 0.  0.
         12    1    1    2    0    0 -0.32319564269E+01  0.17976552910E+02  0.36325793258E+02  0.40659134923E+02  0.00000000000E+00 0. -1.
         11    1    3    3    0    0  0.33936886715E+01  0.18700532109E+01 -0.28995433873E+01  0.48395840654E+01  0.51100000000E-03 0.  1.
        -11    1    3    3    0    0  0.96530588712E+01 -0.78308378977E+00 -0.96237284327E+01  0.13653238261E+02  0.51100000000E-03 0. -1.
        -12    1    3    3    0    0 -0.98147911157E+01 -0.19063522331E+02 -0.23802521438E+02  0.32036042751E+02  0.00000000000E+00 0.  1.
</event>
<event>
 7    1  0.5456331E-013  0.5052885E+02  0.7816164E-02  0.1300439E+00
        -11   -1    0    0    0    0  0.00000000000E+00  0.00000000000E+00  0.45593999997E+02  0.45594000000E+02  0.51100000000E-03 0. -1.
         11   -1    0    0    0    0 -0.00000000000E+00 -0.00000000000E+00 -0.45593999997E+02  0.45594000000E+02  0.51100000000E-03 0.  1.
    9900012    2    1    2    0    0 -0.12258314042E+02  0.33502566030E+02 -0.19505855366E+02  0.50528848665E+02  0.29999966002E+02 0.  0.
         12    1    1    2    0    0  0.12258314042E+02 -0.33502566030E+02  0.19505855366E+02  0.40659151335E+02  0.00000000000E+00 0. -1.
         11    1    3    3    0    0 -0.29253279294E+01  0.29720699105E+01 -0.20792835690E+01  0.46598458632E+01  0.51100000000E-03 0.  1.
        -11    1    3    3    0    0  0.34567650542E+01 -0.39922013514E+01 -0.36894322400E+00  0.52936769484E+01  0.51100000000E-03 0. -1.
         12    1    3    3    0    0 -0.12789751167E+02  0.34522697471E+02 -0.17057628573E+02  0.40575325853E+02  0.00000000000E+00 0. -1.
</event>
<event>
 7    1  0.5456331E-013  0.5052874E+02  0.7816164E-02  0.1300439E+00
        -11   -1    0    0    0    0  0.00000000000E+00  0.00000000000E+00  0.45593999997E+02  0.45594000000E+02  0.51100000000E-03 0.  1.
         11   -1    0    0    0    0 -0.00000000000E+00 -0.00000000000E+00 -0.45593999997E+02  0.45594000000E+02  0.51100000000E-03 0. -1.
    9900012    2    1    2    0    0 -0.19601835212E+02 -0.98015599985E+01  0.34247234981E+02  0.50528737513E+02  0.29999628143E+02 0.  0.
         12    1    1    2    0    0  0.19601835212E+02  0.98015599985E+01 -0.34247234981E+02  0.40659262487E+02  0.00000000000E+00 0. -1.
         11    1    3    3    0    0 -0.11573473887E+01 -0.86025754856E+01  0.12267466386E+02  0.15027790581E+02  0.51100000000E-03 0. -1.
        -11    1    3    3    0    0  0.45287530565E+01  0.13081039915E+01  0.45891129047E+01  0.65788067165E+01  0.51100000000E-03 0.  1.
         12    1    3    3    0    0 -0.22973240880E+02 -0.25070885044E+01  0.17390655690E+02  0.28922140216E+02  0.00000000000E+00 0. -1.
</event>
<event>
 7    1  0.5456331E-013  0.5052888E+02  0.7816164E-02  0.1300439E+00
        -11   -1    0    0    0    0  0.00000000000E+00  0.00000000000E+00  0.45593999997E+02  0.45594000000E+02  0.51100000000E-03 0.  1.
         11   -1    0    0    0    0 -0.00000000000E+00 -0.00000000000E+00 -0.45593999997E+02  0.45594000000E+02  0.51100000000E-03 0. -1.
    9900012    2    1    2    0    0  0.11869906174E+01 -0.25149426207E+02  0.31925868996E+02  0.50528884215E+02  0.30000074059E+02 0.  0.
         12    1    1    2    0    0 -0.11869906174E+01  0.25149426207E+02 -0.31925868996E+02  0.40659115785E+02  0.00000000000E+00 0. -1.
         11    1    3    3    0    0 -0.14396408519E+01 -0.88065460745E+01 -0.14955327587E+01  0.90478968848E+01  0.51100000000E-03 0. -1.
        -11    1    3    3    0    0  0.30721153070E+01  0.26878880354E+01  0.15677089293E+01  0.43726817970E+01  0.51100000000E-03 0.  1.
        -12    1    3    3    0    0 -0.44548383766E+00 -0.19030768168E+02  0.31853692825E+02  0.37108305533E+02  0.00000000000E+00 0.  1.
</event>
<event>
 7    1  0.5456331E-013  0.5052887E+02  0.7816164E-02  0.1300439E+00
        -11   -1    0    0    0    0  0.00000000000E+00  0.00000000000E+00  0.45593999997E+02  0.45594000000E+02  0.51100000000E-03 0.  1.
         11   -1    0    0    0    0 -0.00000000000E+00 -0.00000000000E+00 -0.45593999997E+02  0.45594000000E+02  0.51100000000E-03 0. -1.
    9900012    2    1    2    0    0 -0.19971515507E+02 -0.15479583932E+02  0.31854140959E+02  0.50528865152E+02  0.30000016117E+02 0.  0.
         12    1    1    2    0    0  0.19971515507E+02  0.15479583932E+02 -0.31854140959E+02  0.40659134848E+02  0.00000000000E+00 0. -1.
         11    1    3    3    0    0 -0.14454207045E+02 -0.19185632948E+02  0.27968071596E+02  0.36867677470E+02  0.51100000000E-03 0. -1.
        -11    1    3    3    0    0  0.12195152324E+01 -0.14590562105E+01  0.47614916171E+01  0.51271693076E+01  0.51100000000E-03 0.  1.
         12    1    3    3    0    0 -0.67368236945E+01  0.51651052273E+01 -0.87542225464E+00  0.85340183749E+01  0.00000000000E+00 0. -1.
</event>
<event>
 7    1  0.5456331E-013  0.5052886E+02  0.7816164E-02  0.1300439E+00
        -11   -1    0    0    0    0  0.00000000000E+00  0.00000000000E+00  0.45593999997E+02  0.45594000000E+02  0.51100000000E-03 0.  1.
         11   -1    0    0    0    0 -0.00000000000E+00 -0.00000000000E+00 -0.45593999997E+02  0.45594000000E+02  0.51100000000E-03 0. -1.
    9900012    2    1    2    0    0 -0.86082353819E+01 -0.29089101364E+02  0.27071903539E+02  0.50528862088E+02  0.30000006802E+02 0.  0.
         12    1    1    2    0    0  0.86082353819E+01  0.29089101364E+02 -0.27071903539E+02  0.40659137912E+02  0.00000000000E+00 0. -1.
         11    1    3    3    0    0  0.21367834680E+01 -0.12672432109E+02  0.16774140923E+02  0.21131213480E+02  0.51100000000E-03 0. -1.
        -11    1    3    3    0    0 -0.44172188420E+01 -0.12724198469E+02  0.15407962419E+02  0.20465149771E+02  0.51100000000E-03 0.  1.
         12    1    3    3    0    0 -0.63278000079E+01 -0.36924707856E+01 -0.51101998037E+01  0.89324988372E+01  0.00000000000E+00 0. -1.
</event>
<event>
 7    1  0.5456331E-013  0.5052886E+02  0.7816164E-02  0.1300439E+00
        -11   -1    0    0    0    0  0.00000000000E+00  0.00000000000E+00  0.45593999997E+02  0.45594000000E+02  0.51100000000E-03 0.  1.
         11   -1    0    0    0    0 -0.00000000000E+00 -0.00000000000E+00 -0.45593999997E+02  0.45594000000E+02  0.51100000000E-03 0. -1.
    9900012    2    1    2    0    0 -0.29894965836E+02  0.26680092041E+01  0.27428786660E+02  0.50528860891E+02  0.30000003163E+02 0.  0.
         12    1    1    2    0    0  0.29894965836E+02 -0.26680092041E+01 -0.27428786660E+02  0.40659139109E+02  0.00000000000E+00 0. -1.
         11    1    3    3    0    0 -0.15419917743E+02  0.12131463837E+02  0.62852634579E+01  0.20602204130E+02  0.51100000000E-03 0. -1.
        -11    1    3    3    0    0  0.69042753532E+00  0.13638345504E+01 -0.25748280782E+00  0.15501717711E+01  0.51100000000E-03 0.  1.
        -12    1    3    3    0    0 -0.15165475628E+02 -0.10827289183E+02  0.21401006010E+02  0.28376484989E+02  0.00000000000E+00 0.  1.
</event>
<event>
 7    1  0.5456331E-013  0.5052886E+02  0.7816164E-02  0.1300439E+00
        -11   -1    0    0    0    0  0.00000000000E+00  0.00000000000E+00  0.45593999997E+02  0.45594000000E+02  0.51100000000E-03 0. -1.
         11   -1    0    0    0    0 -0.00000000000E+00 -0.00000000000E+00 -0.45593999997E+02  0.45594000000E+02  0.51100000000E-03 0.  1.
    9900012    2    1    2    0    0  0.35293085770E+02 -0.16945812592E+02 -0.10972836822E+02  0.50528860615E+02  0.30000002326E+02 0.  0.
         12    1    1    2    0    0 -0.35293085770E+02  0.16945812592E+02  0.10972836822E+02  0.40659139385E+02  0.00000000000E+00 0. -1.
         11    1    3    3    0    0  0.84936517343E+01 -0.87505492267E+01 -0.11367836525E+02  0.16671590778E+02  0.51100000000E-03 0. -1.
        -11    1    3    3    0    0  0.10526792182E+02 -0.11015113418E+01 -0.88914555114E+01  0.13823337595E+02  0.51100000000E-03 0.  1.
        -12    1    3    3    0    0  0.16272641854E+02 -0.70937520232E+01  0.92864552139E+01  0.20033932243E+02  0.00000000000E+00 0.  1.
</event>
<event>
 7    1  0.5456331E-013  0.5052886E+02  0.7816164E-02  0.1300439E+00
        -11   -1    0    0    0    0  0.00000000000E+00  0.00000000000E+00  0.45593999997E+02  0.45594000000E+02  0.51100000000E-03 0.  1.
         11   -1    0    0    0    0 -0.00000000000E+00 -0.00000000000E+00 -0.45593999997E+02  0.45594000000E+02  0.51100000000E-03 0. -1.
    9900012    2    1    2    0    0 -0.33731236376E+02 -0.66876839448E-01  0.22701650656E+02  0.50528859300E+02  0.29999998328E+02 0.  0.
         12    1    1    2    0    0  0.33731236376E+02  0.66876839448E-01 -0.22701650656E+02  0.40659140700E+02  0.00000000000E+00 0. -1.
         11    1    3    3    0    0 -0.67047576199E+01  0.70323454934E+01 -0.25117660653E+01  0.10035767380E+02  0.51100000000E-03 0. -1.
        -11    1    3    3    0    0 -0.18815961183E+02 -0.22345204745E+01  0.75119637135E+01  0.20382911374E+02  0.51100000000E-03 0.  1.
         12    1    3    3    0    0 -0.82105175734E+01 -0.48647018584E+01  0.17701453008E+02  0.20110180546E+02  0.00000000000E+00 0. -1.
</event>
<event>
 7    1  0.5456331E-013  0.5052891E+02  0.7816164E-02  0.1300439E+00
        -11   -1    0    0    0    0  0.00000000000E+00  0.00000000000E+00  0.45593999997E+02  0.45594000000E+02  0.51100000000E-03 0.  1.
         11   -1    0    0    0    0 -0.00000000000E+00 -0.00000000000E+00 -0.45593999997E+02  0.45594000000E+02  0.51100000000E-03 0. -1.
    9900012    2    1    2    0    0 -0.40519866237E+02 -0.22648129984E+01  0.24844766396E+01  0.50528910463E+02  0.30000153844E+02 0.  0.
         12    1    1    2    0    0  0.40519866237E+02  0.22648129984E+01 -0.24844766396E+01  0.40659089537E+02  0.00000000000E+00 0. -1.
         11    1    3    3    0    0 -0.16912183460E+02 -0.38624237815E+01  0.68046015531E+00  0.17360970397E+02  0.51100000000E-03 0. -1.
        -11    1    3    3    0    0 -0.21051510684E+02 -0.77797551378E+01 -0.24142358178E+01  0.22572532576E+02  0.51100000000E-03 0.  1.
         12    1    3    3    0    0 -0.25561720933E+01  0.93773659210E+01  0.42182523022E+01  0.10595407490E+02  0.00000000000E+00 0. -1.
</event>
<event>
 7    1  0.5456331E-013  0.5052890E+02  0.7816164E-02  0.1300439E+00
        -11   -1    0    0    0    0  0.00000000000E+00  0.00000000000E+00  0.45593999997E+02  0.45594000000E+02  0.51100000000E-03 0.  1.
         11   -1    0    0    0    0 -0.00000000000E+00 -0.00000000000E+00 -0.45593999997E+02  0.45594000000E+02  0.51100000000E-03 0. -1.
    9900012    2    1    2    0    0  0.17192381562E+02 -0.21774537163E+02  0.29722947401E+02  0.50528904404E+02  0.30000135427E+02 0.  0.
         12    1    1    2    0    0 -0.17192381562E+02  0.21774537163E+02 -0.29722947401E+02  0.40659095596E+02  0.00000000000E+00 0. -1.
         11    1    3    3    0    0 -0.12021986154E+01 -0.54002767708E+01  0.17801227791E+01  0.58118076432E+01  0.51100000000E-03 0. -1.
        -11    1    3    3    0    0  0.12510679607E+02 -0.22798811647E+02  0.18809452308E+02  0.32095146255E+02  0.51100000000E-03 0.  1.
         12    1    3    3    0    0  0.58839005705E+01  0.64245512544E+01  0.91333723143E+01  0.12621950506E+02  0.00000000000E+00 0. -1.
</event>
<event>
 7    1  0.5456331E-013  0.5052886E+02  0.7816164E-02  0.1300439E+00
        -11   -1    0    0    0    0  0.00000000000E+00  0.00000000000E+00  0.45593999997E+02  0.45594000000E+02  0.51100000000E-03 0.  1.
         11   -1    0    0    0    0 -0.00000000000E+00 -0.00000000000E+00 -0.45593999997E+02  0.45594000000E+02  0.51100000000E-03 0. -1.
    9900012    2    1    2    0    0  0.12301584901E+02 -0.29236101851E+02  0.25437902102E+02  0.50528861963E+02  0.30000006423E+02 0.  0.
         12    1    1    2    0    0 -0.12301584901E+02  0.29236101851E+02 -0.25437902102E+02  0.40659138037E+02  0.00000000000E+00 0. -1.
         11    1    3    3    0    0 -0.26669941213E+01 -0.56778023868E+01  0.63201646015E+01  0.89047615598E+01  0.51100000000E-03 0. -1.
        -11    1    3    3    0    0  0.42623092402E+01 -0.18818728875E+02  0.22301854057E+02  0.29490414225E+02  0.51100000000E-03 0.  1.
        -12    1    3    3    0    0  0.10706269782E+02 -0.47395705901E+01 -0.31841165565E+01  0.12133686178E+02  0.00000000000E+00 0.  1.
</event>
<event>
 7    1  0.5456331E-013  0.5052886E+02  0.7816164E-02  0.1300439E+00
        -11   -1    0    0    0    0  0.00000000000E+00  0.00000000000E+00  0.45593999997E+02  0.45594000000E+02  0.51100000000E-03 0.  1.
         11   -1    0    0    0    0 -0.00000000000E+00 -0.00000000000E+00 -0.45593999997E+02  0.45594000000E+02  0.51100000000E-03 0. -1.
    9900012    2    1    2    0    0 -0.32740393244E+02  0.37828937293E+01  0.23810123305E+02  0.50528860726E+02  0.30000002662E+02 0.  0.
         12    1    1    2    0    0  0.32740393244E+02 -0.37828937293E+01 -0.23810123305E+02  0.40659139274E+02  0.00000000000E+00 0. -1.
         11    1    3    3    0    0 -0.51361517477E+01  0.26137404708E+01 -0.60755465716E+00  0.57948957667E+01  0.51100000000E-03 0. -1.
        -11    1    3    3    0    0  0.46139931858E+01  0.24337237921E+01  0.39479071131E+01  0.65420115752E+01  0.51100000000E-03 0.  1.
         12    1    3    3    0    0 -0.32218234682E+02 -0.12645705336E+01  0.20469770849E+02  0.38191953384E+02  0.00000000000E+00 0. -1.
</event>
<event>
 7    1  0.5456331E-013  0.5052886E+02  0.7816164E-02  0.1300439E+00
        -11   -1    0    0    0    0  0.00000000000E+00  0.00000000000E+00  0.45593999997E+02  0.45594000000E+02  0.51100000000E-03 0.  1.
         11   -1    0    0    0    0 -0.00000000000E+00 -0.00000000000E+00 -0.45593999997E+02  0.45594000000E+02  0.51100000000E-03 0. -1.
    9900012    2    1    2    0    0 -0.14649711242E+02  0.96923534002E+01  0.36668922420E+02  0.50528860494E+02  0.30000001958E+02 0.  0.
         12    1    1    2    0    0  0.14649711242E+02 -0.96923534002E+01 -0.36668922420E+02  0.40659139506E+02  0.00000000000E+00 0. -1.
         11    1    3    3    0    0  0.51055212662E+01  0.77731994363E+01  0.15530653586E+02  0.18102214724E+02  0.51100000000E-03 0. -1.
        -11    1    3    3    0    0 -0.41289591853E+01  0.55927321280E+01  0.12231309245E+02  0.14068826629E+02  0.51100000000E-03 0.  1.
         12    1    3    3    0    0 -0.15626273322E+02 -0.36735781640E+01  0.89069595895E+01  0.18357819141E+02  0.00000000000E+00 0. -1.
</event>
<event>
 7    1  0.5456331E-013  0.5052886E+02  0.7816164E-02  0.1300439E+00
        -11   -1    0    0    0    0  0.00000000000E+00  0.00000000000E+00  0.45593999997E+02  0.45594000000E+02  0.51100000000E-03 0. -1.
         11   -1    0    0    0    0 -0.00000000000E+00 -0.00000000000E+00 -0.45593999997E+02  0.45594000000E+02  0.51100000000E-03 0.  1.
    9900012    2    1    2    0    0  0.30674659471E+02 -0.24133680220E+02 -0.11392827034E+02  0.50528858808E+02  0.29999996833E+02 0.  0.
         12    1    1    2    0    0 -0.30674659471E+02  0.24133680220E+02  0.11392827034E+02  0.40659141192E+02  0.00000000000E+00 0. -1.
         11    1    3    3    0    0  0.31255939139E+01 -0.54231755731E+01  0.62003316500E+01  0.88104644283E+01  0.51100000000E-03 0. -1.
        -11    1    3    3    0    0  0.24659522510E+01 -0.95625994478E+00  0.35425850826E+01  0.44210024785E+01  0.51100000000E-03 0.  1.
        -12    1    3    3    0    0  0.25083113306E+02 -0.17754244702E+02 -0.21135743767E+02  0.37297391901E+02  0.00000000000E+00 0.  1.
</event>
<event>
 7    1  0.5456331E-013  0.5052886E+02  0.7816164E-02  0.1300439E+00
        -11   -1    0    0    0    0  0.00000000000E+00  0.00000000000E+00  0.45593999997E+02  0.45594000000E+02  0.51100000000E-03 0.  1.
         11   -1    0    0    0    0 -0.00000000000E+00 -0.00000000000E+00 -0.45593999997E+02  0.45594000000E+02  0.51100000000E-03 0. -1.
    9900012    2    1    2    0    0 -0.40266121055E+02 -0.27136884333E+01  0.49437865763E+01  0.50528860370E+02  0.30000001582E+02 0.  0.
         12    1    1    2    0    0  0.40266121055E+02  0.27136884333E+01 -0.49437865763E+01  0.40659139630E+02  0.00000000000E+00 0. -1.
         11    1    3    3    0    0 -0.17465928153E+02  0.88850880365E+01  0.49783511629E+00  0.19602328324E+02  0.51100000000E-03 0. -1.
        -11    1    3    3    0    0 -0.74992377824E+01  0.20506739903E+01  0.67464003526E+01  0.10293578052E+02  0.51100000000E-03 0.  1.
         12    1    3    3    0    0 -0.15300955120E+02 -0.13649450460E+02 -0.23004488926E+01  0.20632953995E+02  0.00000000000E+00 0. -1.
</event>
<event>
 7    1  0.5581881E-013  0.5052887E+02  0.7816164E-02  0.1300439E+00
        -11   -1    0    0    0    0  0.00000000000E+00  0.00000000000E+00  0.45593999997E+02  0.45594000000E+02  0.51100000000E-03 0. -1.
         11   -1    0    0    0    0 -0.00000000000E+00 -0.00000000000E+00 -0.45593999997E+02  0.45594000000E+02  0.51100000000E-03 0.  1.
    9900012    2    1    2    0    0  0.23915789157E+02 -0.99897800858E+01 -0.31327371994E+02  0.50528869251E+02  0.30000028576E+02 0.  0.
         12    1    1    2    0    0 -0.23915789157E+02  0.99897800858E+01  0.31327371994E+02  0.40659130749E+02  0.00000000000E+00 0. -1.
         11    1    3    3    0    0 -0.28225485020E+01 -0.30076927618E+01 -0.27284568522E+00  0.41336957828E+01  0.51100000000E-03 0. -1.
        -11    1    3    3    0    0  0.46591905813E+01  0.27510579169E+01  0.17369458846E+01  0.56827245052E+01  0.51100000000E-03 0.  1.
        -12    1    3    3    0    0  0.22079147078E+02 -0.97331452409E+01 -0.32791472194E+02  0.40712448963E+02  0.00000000000E+00 0.  1.
</event>
<event>
 7    1  0.5456331E-013  0.5052885E+02  0.7816164E-02  0.1300439E+00
        -11   -1    0    0    0    0  0.00000000000E+00  0.00000000000E+00  0.45593999997E+02  0.45594000000E+02  0.51100000000E-03 0.  1.
         11   -1    0    0    0    0 -0.00000000000E+00 -0.00000000000E+00 -0.45593999997E+02  0.45594000000E+02  0.51100000000E-03 0. -1.
    9900012    2    1    2    0    0  0.28318023753E+02 -0.19592765242E+01  0.29110437299E+02  0.50528846129E+02  0.29999958294E+02 0.  0.
         12    1    1    2    0    0 -0.28318023753E+02  0.19592765242E+01 -0.29110437299E+02  0.40659153871E+02  0.00000000000E+00 0. -1.
         11    1    3    3    0    0  0.25250554367E+02 -0.28085386530E+01  0.20291942909E+02  0.32515247692E+02  0.51100000000E-03 0. -1.
        -11    1    3    3    0    0  0.78191028662E+01  0.30150781449E+01  0.95892181558E+01  0.12735076402E+02  0.51100000000E-03 0.  1.
         12    1    3    3    0    0 -0.47516334811E+01 -0.21658160161E+01 -0.77072376560E+00  0.52785220353E+01  0.00000000000E+00 0. -1.
</event>
<event>
 7    1  0.5456331E-013  0.5052883E+02  0.7816164E-02  0.1300439E+00
        -11   -1    0    0    0    0  0.00000000000E+00  0.00000000000E+00  0.45593999997E+02  0.45594000000E+02  0.51100000000E-03 0.  1.
         11   -1    0    0    0    0 -0.00000000000E+00 -0.00000000000E+00 -0.45593999997E+02  0.45594000000E+02  0.51100000000E-03 0. -1.
    9900012    2    1    2    0    0 -0.10386821257E+02 -0.37334160685E+02  0.12306185262E+02  0.50528833683E+02  0.29999920462E+02 0.  0.
         12    1    1    2    0    0  0.10386821257E+02  0.37334160685E+02 -0.12306185262E+02  0.40659166317E+02  0.00000000000E+00 0. -1.
         11    1    3    3    0    0 -0.13553702888E+01 -0.36680230759E+01 -0.18404797174E+01  0.43218963149E+01  0.51100000000E-03 0. -1.
        -11    1    3    3    0    0 -0.30144660970E+01 -0.31400884005E+02  0.98697980123E+00  0.31560682051E+02  0.51100000000E-03 0.  1.
         12    1    3    3    0    0 -0.60169848711E+01 -0.22652536046E+01  0.13159685178E+02  0.14646255317E+02  0.00000000000E+00 0. -1.
</event>
<event>
 7    1  0.5456331E-013  0.5052886E+02  0.7816164E-02  0.1300439E+00
        -11   -1    0    0    0    0  0.00000000000E+00  0.00000000000E+00  0.45593999997E+02  0.45594000000E+02  0.51100000000E-03 0. -1.
         11   -1    0    0    0    0 -0.00000000000E+00 -0.00000000000E+00 -0.45593999997E+02  0.45594000000E+02  0.51100000000E-03 0.  1.
    9900012    2    1    2    0    0  0.71426725290E+01  0.38930192877E+02 -0.93052774087E+01  0.50528857413E+02  0.29999992592E+02 0.  0.
         12    1    1    2    0    0 -0.71426725290E+01 -0.38930192877E+02  0.93052774087E+01  0.40659142587E+02  0.00000000000E+00 0. -1.
         11    1    3    3    0    0  0.16101464854E+01  0.70331830039E+01 -0.90958800500E+01  0.11610050345E+02  0.51100000000E-03 0. -1.
        -11    1    3    3    0    0 -0.82078698206E+01  0.13978224143E+02 -0.16422019254E+01  0.16292842128E+02  0.51100000000E-03 0.  1.
         12    1    3    3    0    0  0.13740395864E+02  0.17918785730E+02  0.14328045667E+01  0.22625964940E+02  0.00000000000E+00 0. -1.
</event>
<event>
 7    1  0.5456331E-013  0.5052885E+02  0.7816164E-02  0.1300439E+00
        -11   -1    0    0    0    0  0.00000000000E+00  0.00000000000E+00  0.45593999997E+02  0.45594000000E+02  0.51100000000E-03 0. -1.
         11   -1    0    0    0    0 -0.00000000000E+00 -0.00000000000E+00 -0.45593999997E+02  0.45594000000E+02  0.51100000000E-03 0.  1.
    9900012    2    1    2    0    0  0.76684378954E+01 -0.29424546584E+02 -0.26991804288E+02  0.50528851212E+02  0.29999973745E+02 0.  0.
         12    1    1    2    0    0 -0.76684378954E+01  0.29424546584E+02  0.26991804288E+02  0.40659148788E+02  0.00000000000E+00 0. -1.
         11    1    3    3    0    0 -0.44243758814E+00 -0.28321979861E+02 -0.21686031681E+02  0.35673719523E+02  0.51100000000E-03 0. -1.
        -11    1    3    3    0    0 -0.10339517328E+01 -0.22862952147E+01 -0.50401165641E+01  0.56301844762E+01  0.51100000000E-03 0.  1.
         12    1    3    3    0    0  0.91448272163E+01  0.11837284916E+01 -0.26565604254E+00  0.92249472134E+01  0.00000000000E+00 0. -1.
</event>
<event>
 7    1  0.5456331E-013  0.5052886E+02  0.7816164E-02  0.1300439E+00
        -11   -1    0    0    0    0  0.00000000000E+00  0.00000000000E+00  0.45593999997E+02  0.45594000000E+02  0.51100000000E-03 0. -1.
         11   -1    0    0    0    0 -0.00000000000E+00 -0.00000000000E+00 -0.45593999997E+02  0.45594000000E+02  0.51100000000E-03 0.  1.
    9900012    2    1    2    0    0  0.25721423638E+00 -0.37517630938E+02 -0.15669301798E+02  0.50528858234E+02  0.29999995087E+02 0.  0.
         12    1    1    2    0    0 -0.25721423638E+00  0.37517630938E+02  0.15669301798E+02  0.40659141766E+02  0.00000000000E+00 0. -1.
         11    1    3    3    0    0  0.11344101231E+02 -0.63610514718E+01 -0.55678912021E+01  0.14147544708E+02  0.51100000000E-03 0. -1.
        -11    1    3    3    0    0  0.75141097595E+00 -0.48756253856E+01 -0.51561508516E+01  0.71359815877E+01  0.51100000000E-03 0.  1.
         12    1    3    3    0    0 -0.11838297971E+02 -0.26280954080E+02 -0.49452597441E+01  0.29245331938E+02  0.00000000000E+00 0. -1.
</event>
<event>
 7    1  0.5456331E-013  0.5052882E+02  0.7816164E-02  0.1300439E+00
        -11   -1    0    0    0    0  0.00000000000E+00  0.00000000000E+00  0.45593999997E+02  0.45594000000E+02  0.51100000000E-03 0.  1.
         11   -1    0    0    0    0 -0.00000000000E+00 -0.00000000000E+00 -0.45593999997E+02  0.45594000000E+02  0.51100000000E-03 0. -1.
    9900012    2    1    2    0    0 -0.13663919909E+02  0.11472537679E+02  0.36535564185E+02  0.50528815572E+02  0.29999865412E+02 0.  0.
         12    1    1    2    0    0  0.13663919909E+02 -0.11472537679E+02 -0.36535564185E+02  0.40659184428E+02  0.00000000000E+00 0. -1.
         11    1    3    3    0    0 -0.10440733667E+02 -0.12242607240E+01  0.21091965679E+02  0.23566475135E+02  0.51100000000E-03 0.  1.
        -11    1    3    3    0    0 -0.40724679975E+01  0.46421618677E+01  0.17540677323E+02  0.18595967939E+02  0.51100000000E-03 0. -1.
         12    1    3    3    0    0  0.84928175611E+00  0.80546365349E+01 -0.20970788165E+01  0.83663724979E+01  0.00000000000E+00 0. -1.
</event>
<event>
 7    1  0.5456331E-013  0.5052886E+02  0.7816164E-02  0.1300439E+00
        -11   -1    0    0    0    0  0.00000000000E+00  0.00000000000E+00  0.45593999997E+02  0.45594000000E+02  0.51100000000E-03 0.  1.
         11   -1    0    0    0    0 -0.00000000000E+00 -0.00000000000E+00 -0.45593999997E+02  0.45594000000E+02  0.51100000000E-03 0. -1.
    9900012    2    1    2    0    0 -0.40547112136E+02  0.55335017046E+00  0.29650445811E+01  0.50528856031E+02  0.29999988390E+02 0.  0.
         12    1    1    2    0    0  0.40547112136E+02 -0.55335017046E+00 -0.29650445811E+01  0.40659143969E+02  0.00000000000E+00 0. -1.
         11    1    3    3    0    0 -0.12037749037E+02 -0.45482899542E+01 -0.62254822103E+00  0.12883396677E+02  0.51100000000E-03 0. -1.
        -11    1    3    3    0    0 -0.25727866269E+02  0.98133803863E+01  0.99276618388E+01  0.29270873018E+02  0.51100000000E-03 0.  1.
         12    1    3    3    0    0 -0.27814968293E+01 -0.47117402616E+01 -0.63400690366E+01  0.83745863357E+01  0.00000000000E+00 0. -1.
</event>
<event>
 7    1  0.5456331E-013  0.5052885E+02  0.7816164E-02  0.1300439E+00
        -11   -1    0    0    0    0  0.00000000000E+00  0.00000000000E+00  0.45593999997E+02  0.45594000000E+02  0.51100000000E-03 0.  1.
         11   -1    0    0    0    0 -0.00000000000E+00 -0.00000000000E+00 -0.45593999997E+02  0.45594000000E+02  0.51100000000E-03 0. -1.
    9900012    2    1    2    0    0 -0.39984141382E+02  0.35587796089E+01  0.64629676051E+01  0.50528850665E+02  0.29999972082E+02 0.  0.
         12    1    1    2    0    0  0.39984141382E+02 -0.35587796089E+01 -0.64629676051E+01  0.40659149335E+02  0.00000000000E+00 0. -1.
         11    1    3    3    0    0 -0.54692649268E+01 -0.45576829718E+01  0.89160573431E+01  0.11409706908E+02  0.51100000000E-03 0. -1.
        -11    1    3    3    0    0 -0.55858494475E+01  0.13570090110E+01  0.59218880098E+01  0.82529961449E+01  0.51100000000E-03 0.  1.
         12    1    3    3    0    0 -0.28929027008E+02  0.67594535698E+01 -0.83749777478E+01  0.30866147613E+02  0.00000000000E+00 0. -1.
</event>
<event>
 7    1  0.5456331E-013  0.5052886E+02  0.7816164E-02  0.1300439E+00
        -11   -1    0    0    0    0  0.00000000000E+00  0.00000000000E+00  0.45593999997E+02  0.45594000000E+02  0.51100000000E-03 0. -1.
         11   -1    0    0    0    0 -0.00000000000E+00 -0.00000000000E+00 -0.45593999997E+02  0.45594000000E+02  0.51100000000E-03 0.  1.
    9900012    2    1    2    0    0  0.27070982499E+02  0.21735941806E+02 -0.21163093624E+02  0.50528858453E+02  0.29999995753E+02 0.  0.
         12    1    1    2    0    0 -0.27070982499E+02 -0.21735941806E+02  0.21163093624E+02  0.40659141547E+02  0.00000000000E+00 0. -1.
         11    1    3    3    0    0  0.10962109000E+02  0.14786331150E+01 -0.10320072301E+02  0.15128056127E+02  0.51100000000E-03 0. -1.
        -11    1    3    3    0    0  0.20124379145E+02  0.12598300530E+02 -0.12123479105E+02  0.26658705109E+02  0.51100000000E-03 0.  1.
         12    1    3    3    0    0 -0.40155056465E+01  0.76590081614E+01  0.12804577826E+01  0.87420972167E+01  0.00000000000E+00 0. -1.
</event>
<event>
 7    1  0.5456331E-013  0.5052886E+02  0.7816164E-02  0.1300439E+00
        -11   -1    0    0    0    0  0.00000000000E+00  0.00000000000E+00  0.45593999997E+02  0.45594000000E+02  0.51100000000E-03 0.  1.
         11   -1    0    0    0    0 -0.00000000000E+00 -0.00000000000E+00 -0.45593999997E+02  0.45594000000E+02  0.51100000000E-03 0. -1.
    9900012    2    1    2    0    0  0.18856908703E+02 -0.46082708504E+01  0.35725994514E+02  0.50528857731E+02  0.29999993558E+02 0.  0.
         12    1    1    2    0    0 -0.18856908703E+02  0.46082708504E+01 -0.35725994514E+02  0.40659142269E+02  0.00000000000E+00 0. -1.
         11    1    3    3    0    0  0.69629631555E+01 -0.12131271561E+02  0.91536483422E+01  0.16716455480E+02  0.51100000000E-03 0. -1.
        -11    1    3    3    0    0  0.18908943192E+01 -0.46753043776E+01  0.78452675850E+01  0.93264235423E+01  0.51100000000E-03 0.  1.
        -12    1    3    3    0    0  0.10003051229E+02  0.12198305088E+02  0.18727078587E+02  0.24485978708E+02  0.00000000000E+00 0.  1.
</event>
<event>
 7    1  0.5456331E-013  0.5052886E+02  0.7816164E-02  0.1300439E+00
        -11   -1    0    0    0    0  0.00000000000E+00  0.00000000000E+00  0.45593999997E+02  0.45594000000E+02  0.51100000000E-03 0.  1.
         11   -1    0    0    0    0 -0.00000000000E+00 -0.00000000000E+00 -0.45593999997E+02  0.45594000000E+02  0.51100000000E-03 0. -1.
    9900012    2    1    2    0    0  0.84422383776E+01 -0.16936930268E+02  0.35986588561E+02  0.50528861397E+02  0.30000004702E+02 0.  0.
         12    1    1    2    0    0 -0.84422383776E+01  0.16936930268E+02 -0.35986588561E+02  0.40659138603E+02  0.00000000000E+00 0. -1.
         11    1    3    3    0    0 -0.67050269164E+01 -0.48054556499E+01  0.17205552471E+02  0.19080902128E+02  0.51100000000E-03 0. -1.
        -11    1    3    3    0    0  0.64528042944E+01 -0.14608881641E+02  0.13908716898E+02  0.21178066769E+02  0.51100000000E-03 0.  1.
        -12    1    3    3    0    0  0.86944609997E+01  0.24774070233E+01  0.48723191919E+01  0.10269892499E+02  0.00000000000E+00 0.  1.
</event>
<event>
 7    1  0.5456331E-013  0.5052888E+02  0.7816164E-02  0.1300439E+00
        -11   -1    0    0    0    0  0.00000000000E+00  0.00000000000E+00  0.45593999997E+02  0.45594000000E+02  0.51100000000E-03 0.  1.
         11   -1    0    0    0    0 -0.00000000000E+00 -0.00000000000E+00 -0.45593999997E+02  0.45594000000E+02  0.51100000000E-03 0. -1.
    9900012    2    1    2    0    0  0.50131943949E+01  0.10892676020E+00  0.40348735527E+02  0.50528875050E+02  0.30000046203E+02 0.  0.
         12    1    1    2    0    0 -0.50131943949E+01 -0.10892676020E+00 -0.40348735527E+02  0.40659124950E+02  0.00000000000E+00 0. -1.
         11    1    3    3    0    0  0.29995331085E+01  0.56565361829E+00 -0.33239687786E+01  0.45128629037E+01  0.51100000000E-03 0. -1.
        -11    1    3    3    0    0  0.31052597137E+00  0.66916537259E+01  0.15206809082E+02  0.16616910022E+02  0.51100000000E-03 0.  1.
        -12    1    3    3    0    0  0.17031353150E+01 -0.71483805840E+01  0.28465895223E+02  0.29399102124E+02  0.00000000000E+00 0.  1.
</event>
<event>
 7    1  0.5456331E-013  0.5052886E+02  0.7816164E-02  0.1300439E+00
        -11   -1    0    0    0    0  0.00000000000E+00  0.00000000000E+00  0.45593999997E+02  0.45594000000E+02  0.51100000000E-03 0. -1.
         11   -1    0    0    0    0 -0.00000000000E+00 -0.00000000000E+00 -0.45593999997E+02  0.45594000000E+02  0.51100000000E-03 0.  1.
    9900012    2    1    2    0    0 -0.34645732703E+02  0.18430627659E+02 -0.10637249048E+02  0.50528857145E+02  0.29999991778E+02 0.  0.
         12    1    1    2    0    0  0.34645732703E+02 -0.18430627659E+02  0.10637249048E+02  0.40659142855E+02  0.00000000000E+00 0. -1.
         11    1    3    3    0    0 -0.20561440346E+02  0.11055284501E+02 -0.67671371726E+01  0.24306095743E+02  0.51100000000E-03 0. -1.
        -11    1    3    3    0    0 -0.17191258846E+02  0.79673531511E+01  0.24987020849E+01  0.19111818577E+02  0.51100000000E-03 0.  1.
         12    1    3    3    0    0  0.31069664895E+01 -0.59200999280E+00 -0.63688139605E+01  0.71109428251E+01  0.00000000000E+00 0. -1.
</event>
<event>
 7    1  0.5456331E-013  0.5052885E+02  0.7816164E-02  0.1300439E+00
        -11   -1    0    0    0    0  0.00000000000E+00  0.00000000000E+00  0.45593999997E+02  0.45594000000E+02  0.51100000000E-03 0.  1.
         11   -1    0    0    0    0 -0.00000000000E+00 -0.00000000000E+00 -0.45593999997E+02  0.45594000000E+02  0.51100000000E-03 0. -1.
    9900012    2    1    2    0    0  0.25477904705E+02 -0.26866106735E+00  0.31685494035E+02  0.50528851716E+02  0.29999975275E+02 0.  0.
         12    1    1    2    0    0 -0.25477904705E+02  0.26866106735E+00 -0.31685494035E+02  0.40659148284E+02  0.00000000000E+00 0. -1.
         11    1    3    3    0    0 -0.13883996707E+01 -0.15114175577E-01  0.26779699114E+01  0.30165220356E+01  0.51100000000E-03 0. -1.
        -11    1    3    3    0    0  0.28305714962E+01  0.10791344420E+02  0.93404464353E+01  0.14550229869E+02  0.51100000000E-03 0.  1.
        -12    1    3    3    0    0  0.24035732880E+02 -0.11044891311E+02  0.19667077689E+02  0.32962099811E+02  0.00000000000E+00 0.  1.
</event>
<event>
 7    1  0.5456331E-013  0.5052886E+02  0.7816164E-02  0.1300439E+00
        -11   -1    0    0    0    0  0.00000000000E+00  0.00000000000E+00  0.45593999997E+02  0.45594000000E+02  0.51100000000E-03 0.  1.
         11   -1    0    0    0    0 -0.00000000000E+00 -0.00000000000E+00 -0.45593999997E+02  0.45594000000E+02  0.51100000000E-03 0. -1.
    9900012    2    1    2    0    0 -0.31746980518E+02  0.50401319019E+01  0.24897624762E+02  0.50528863015E+02  0.30000009619E+02 0.  0.
         12    1    1    2    0    0  0.31746980518E+02 -0.50401319019E+01 -0.24897624762E+02  0.40659136985E+02  0.00000000000E+00 0. -1.
         11    1    3    3    0    0 -0.30077080746E+01 -0.42540743043E+01  0.25472256591E+01  0.57992943422E+01  0.51100000000E-03 0. -1.
        -11    1    3    3    0    0  0.13804165629E+01 -0.51542847049E+01  0.28754201756E+01  0.60613729595E+01  0.51100000000E-03 0.  1.
        -12    1    3    3    0    0 -0.30119689007E+02  0.14448490911E+02  0.19474978927E+02  0.38668195713E+02  0.00000000000E+00 0.  1.
</event>
<event>
 7    1  0.5456331E-013  0.5052888E+02  0.7816164E-02  0.1300439E+00
        -11   -1    0    0    0    0  0.00000000000E+00  0.00000000000E+00  0.45593999997E+02  0.45594000000E+02  0.51100000000E-03 0.  1.
         11   -1    0    0    0    0 -0.00000000000E+00 -0.00000000000E+00 -0.45593999997E+02  0.45594000000E+02  0.51100000000E-03 0. -1.
    9900012    2    1    2    0    0 -0.14149841787E+02 -0.28217459385E+02  0.25626576123E+02  0.50528875065E+02  0.30000046246E+02 0.  0.
         12    1    1    2    0    0  0.14149841787E+02  0.28217459385E+02 -0.25626576123E+02  0.40659124935E+02  0.00000000000E+00 0. -1.
         11    1    3    3    0    0 -0.12039217381E+01 -0.62749782564E+01 -0.11380482961E+01  0.64899871999E+01  0.51100000000E-03 0. -1.
        -11    1    3    3    0    0  0.81421897672E+00  0.34164073370E+01 -0.13421362474E+01  0.37598033994E+01  0.51100000000E-03 0.  1.
        -12    1    3    3    0    0 -0.13760139026E+02 -0.25358888465E+02  0.28106760666E+02  0.40279084465E+02  0.00000000000E+00 0.  1.
</event>
<event>
 7    1  0.5456331E-013  0.5052884E+02  0.7816164E-02  0.1300439E+00
        -11   -1    0    0    0    0  0.00000000000E+00  0.00000000000E+00  0.45593999997E+02  0.45594000000E+02  0.51100000000E-03 0.  1.
         11   -1    0    0    0    0 -0.00000000000E+00 -0.00000000000E+00 -0.45593999997E+02  0.45594000000E+02  0.51100000000E-03 0. -1.
    9900012    2    1    2    0    0 -0.71263553028E+00 -0.28685172396E+02  0.28806599310E+02  0.50528842009E+02  0.29999945770E+02 0.  0.
         12    1    1    2    0    0  0.71263553028E+00  0.28685172396E+02 -0.28806599310E+02  0.40659157991E+02  0.00000000000E+00 0. -1.
         11    1    3    3    0    0 -0.27667715982E+01 -0.39383796529E+01  0.10759881284E+02  0.11787319664E+02  0.51100000000E-03 0. -1.
        -11    1    3    3    0    0  0.50932432380E+01 -0.82509084937E+01  0.19629265496E+02  0.21893530593E+02  0.51100000000E-03 0.  1.
        -12    1    3    3    0    0 -0.30391071700E+01 -0.16495884249E+02 -0.15825474705E+01  0.16847991751E+02  0.00000000000E+00 0.  1.
</event>
<event>
 7    1  0.5456331E-013  0.5052886E+02  0.7816164E-02  0.1300439E+00
        -11   -1    0    0    0    0  0.00000000000E+00  0.00000000000E+00  0.45593999997E+02  0.45594000000E+02  0.51100000000E-03 0. -1.
         11   -1    0    0    0    0 -0.00000000000E+00 -0.00000000000E+00 -0.45593999997E+02  0.45594000000E+02  0.51100000000E-03 0.  1.
    9900012    2    1    2    0    0 -0.23798628507E+02  0.32447407677E+02 -0.58272120478E+01  0.50528863462E+02  0.30000010979E+02 0.  0.
         12    1    1    2    0    0  0.23798628507E+02 -0.32447407677E+02  0.58272120478E+01  0.40659136538E+02  0.00000000000E+00 0. -1.
         11    1    3    3    0    0 -0.97039552717E+01  0.14062060468E+02  0.23498202260E+01  0.17246157482E+02  0.51100000000E-03 0. -1.
        -11    1    3    3    0    0  0.30785954834E+01  0.12585806951E+02 -0.78585854799E+01  0.15153799945E+02  0.51100000000E-03 0.  1.
         12    1    3    3    0    0 -0.17173268718E+02  0.57995402580E+01 -0.31844679394E+00  0.18128906035E+02  0.00000000000E+00 0. -1.
</event>
<event>
 7    1  0.5456331E-013  0.5052886E+02  0.7816164E-02  0.1300439E+00
        -11   -1    0    0    0    0  0.00000000000E+00  0.00000000000E+00  0.45593999997E+02  0.45594000000E+02  0.51100000000E-03 0. -1.
         11   -1    0    0    0    0 -0.00000000000E+00 -0.00000000000E+00 -0.45593999997E+02  0.45594000000E+02  0.51100000000E-03 0.  1.
    9900012    2    1    2    0    0 -0.28377453606E+02  0.29041926928E+02 -0.21100320041E+01  0.50528860463E+02  0.30000001862E+02 0.  0.
         12    1    1    2    0    0  0.28377453606E+02 -0.29041926928E+02  0.21100320041E+01  0.40659139537E+02  0.00000000000E+00 0. -1.
         11    1    3    3    0    0 -0.30047501137E+01  0.10393602095E+02  0.56197117510E+01  0.12191663061E+02  0.51100000000E-03 0. -1.
        -11    1    3    3    0    0  0.28101807044E+01  0.22255643096E+01 -0.42095439506E+01  0.55290607359E+01  0.51100000000E-03 0.  1.
        -12    1    3    3    0    0 -0.28182884196E+02  0.16422760523E+02 -0.35201998045E+01  0.32808136666E+02  0.00000000000E+00 0.  1.
</event>
<event>
 7    1  0.5456331E-013  0.5052886E+02  0.7816164E-02  0.1300439E+00
        -11   -1    0    0    0    0  0.00000000000E+00  0.00000000000E+00  0.45593999997E+02  0.45594000000E+02  0.51100000000E-03 0.  1.
         11   -1    0    0    0    0 -0.00000000000E+00 -0.00000000000E+00 -0.45593999997E+02  0.45594000000E+02  0.51100000000E-03 0. -1.
    9900012    2    1    2    0    0 -0.64407908871E+01 -0.23683496664E+02  0.32415642241E+02  0.50528860026E+02  0.30000000536E+02 0.  0.
         12    1    1    2    0    0  0.64407908871E+01  0.23683496664E+02 -0.32415642241E+02  0.40659139974E+02  0.00000000000E+00 0. -1.
         11    1    3    3    0    0 -0.84009765994E+01 -0.46334657051E+01 -0.20484862716E+00  0.95962167277E+01  0.51100000000E-03 0. -1.
        -11    1    3    3    0    0  0.22624484846E+00 -0.14582969072E+02  0.33046646734E+02  0.36121946712E+02  0.51100000000E-03 0.  1.
         12    1    3    3    0    0  0.17339408638E+01 -0.44670618873E+01 -0.42615586566E+00  0.48106965863E+01  0.00000000000E+00 0. -1.
</event>
<event>
 7    1  0.5456331E-013  0.5052884E+02  0.7816164E-02  0.1300439E+00
        -11   -1    0    0    0    0  0.00000000000E+00  0.00000000000E+00  0.45593999997E+02  0.45594000000E+02  0.51100000000E-03 0. -1.
         11   -1    0    0    0    0 -0.00000000000E+00 -0.00000000000E+00 -0.45593999997E+02  0.45594000000E+02  0.51100000000E-03 0.  1.
    9900012    2    1    2    0    0  0.16372480467E+02  0.33289545582E+02 -0.16640766687E+02  0.50528842635E+02  0.29999947674E+02 0.  0.
         12    1    1    2    0    0 -0.16372480467E+02 -0.33289545582E+02  0.16640766687E+02  0.40659157365E+02  0.00000000000E+00 0. -1.
         11    1    3    3    0    0  0.98823993999E+01  0.11388621403E+01  0.61070121386E+00  0.99665330536E+01  0.51100000000E-03 0. -1.
        -11    1    3    3    0    0  0.82631281681E+01  0.95028584486E+01 -0.11671418383E+02  0.17169904285E+02  0.51100000000E-03 0.  1.
         12    1    3    3    0    0 -0.17730471015E+01  0.22647824993E+02 -0.55800495182E+01  0.23392405297E+02  0.00000000000E+00 0. -1.
</event>
<event>
 7    1  0.5456331E-013  0.5052886E+02  0.7816164E-02  0.1300439E+00
        -11   -1    0    0    0    0  0.00000000000E+00  0.00000000000E+00  0.45593999997E+02  0.45594000000E+02  0.51100000000E-03 0. -1.
         11   -1    0    0    0    0 -0.00000000000E+00 -0.00000000000E+00 -0.45593999997E+02  0.45594000000E+02  0.51100000000E-03 0.  1.
    9900012    2    1    2    0    0 -0.13276748064E+02 -0.25352661646E+02 -0.28881410425E+02  0.50528863759E+02  0.30000011882E+02 0.  0.
         12    1    1    2    0    0  0.13276748064E+02  0.25352661646E+02  0.28881410425E+02  0.40659136241E+02  0.00000000000E+00 0. -1.
         11    1    3    3    0    0 -0.44017349998E+00 -0.11875018895E+02  0.22527402298E+01  0.12094819770E+02  0.51100000000E-03 0. -1.
        -11    1    3    3    0    0 -0.13047745146E+00  0.19608562856E+01 -0.60188108048E+01  0.63315136819E+01  0.51100000000E-03 0.  1.
        -12    1    3    3    0    0 -0.12706097112E+02 -0.15438499037E+02 -0.25115339850E+02  0.32102530308E+02  0.00000000000E+00 0.  1.
</event>
<event>
 7    1  0.5456331E-013  0.5052887E+02  0.7816164E-02  0.1300439E+00
        -11   -1    0    0    0    0  0.00000000000E+00  0.00000000000E+00  0.45593999997E+02  0.45594000000E+02  0.51100000000E-03 0.  1.
         11   -1    0    0    0    0 -0.00000000000E+00 -0.00000000000E+00 -0.45593999997E+02  0.45594000000E+02  0.51100000000E-03 0. -1.
    9900012    2    1    2    0    0 -0.25750843048E+01 -0.24820363411E+02  0.32101136721E+02  0.50528874606E+02  0.30000044852E+02 0.  0.
         12    1    1    2    0    0  0.25750843048E+01  0.24820363411E+02 -0.32101136721E+02  0.40659125394E+02  0.00000000000E+00 0. -1.
         11    1    3    3    0    0 -0.12308309127E+02 -0.11319837927E+02  0.36951327142E+01  0.17125630216E+02  0.51100000000E-03 0. -1.
        -11    1    3    3    0    0 -0.48491639698E+00 -0.23897205177E+01  0.32039172384E+01  0.40262878680E+01  0.51100000000E-03 0.  1.
        -12    1    3    3    0    0  0.10218141219E+02 -0.11110804967E+02  0.25202086768E+02  0.29376956522E+02  0.00000000000E+00 0.  1.
</event>
<event>
 7    1  0.5456331E-013  0.5052885E+02  0.7816164E-02  0.1300439E+00
        -11   -1    0    0    0    0  0.00000000000E+00  0.00000000000E+00  0.45593999997E+02  0.45594000000E+02  0.51100000000E-03 0. -1.
         11   -1    0    0    0    0 -0.00000000000E+00 -0.00000000000E+00 -0.45593999997E+02  0.45594000000E+02  0.51100000000E-03 0.  1.
    9900012    2    1    2    0    0  0.20307239557E+02  0.26279985192E+02 -0.23455167547E+02  0.50528849925E+02  0.29999969832E+02 0.  0.
         12    1    1    2    0    0 -0.20307239557E+02 -0.26279985192E+02  0.23455167547E+02  0.40659150075E+02  0.00000000000E+00 0. -1.
         11    1    3    3    0    0  0.75479667706E+01  0.14991575040E+02 -0.24818413377E+02  0.29961187683E+02  0.51100000000E-03 0. -1.
        -11    1    3    3    0    0  0.90402845577E+01  0.88396750614E+01 -0.43076747603E+01  0.13357494607E+02  0.51100000000E-03 0.  1.
        -12    1    3    3    0    0  0.37189882289E+01  0.24487350906E+01  0.56709205899E+01  0.72101676352E+01  0.00000000000E+00 0.  1.
</event>
<event>
 7    1  0.5456331E-013  0.5052889E+02  0.7816164E-02  0.1300439E+00
        -11   -1    0    0    0    0  0.00000000000E+00  0.00000000000E+00  0.45593999997E+02  0.45594000000E+02  0.51100000000E-03 0.  1.
         11   -1    0    0    0    0 -0.00000000000E+00 -0.00000000000E+00 -0.45593999997E+02  0.45594000000E+02  0.51100000000E-03 0. -1.
    9900012    2    1    2    0    0 -0.20382861709E+02  0.26143407653E+02  0.23541962884E+02  0.50528894851E+02  0.30000106388E+02 0.  0.
         12    1    1    2    0    0  0.20382861709E+02 -0.26143407653E+02 -0.23541962884E+02  0.40659105149E+02  0.00000000000E+00 0. -1.
         11    1    3    3    0    0  0.81902877545E+00  0.78267418546E+01  0.37366976798E+01  0.87115788468E+01  0.51100000000E-03 0. -1.
        -11    1    3    3    0    0 -0.13023126866E+02  0.21558613679E+02  0.21185278313E+02  0.32911877409E+02  0.51100000000E-03 0.  1.
         12    1    3    3    0    0 -0.81787636183E+01 -0.32419478811E+01 -0.13800131088E+01  0.89054385949E+01  0.00000000000E+00 0. -1.
</event>
<event>
 7    1  0.5456331E-013  0.5052886E+02  0.7816164E-02  0.1300439E+00
        -11   -1    0    0    0    0  0.00000000000E+00  0.00000000000E+00  0.45593999997E+02  0.45594000000E+02  0.51100000000E-03 0. -1.
         11   -1    0    0    0    0 -0.00000000000E+00 -0.00000000000E+00 -0.45593999997E+02  0.45594000000E+02  0.51100000000E-03 0.  1.
    9900012    2    1    2    0    0 -0.33303296570E+02  0.20569225668E+02 -0.10998330608E+02  0.50528857324E+02  0.29999992321E+02 0.  0.
         12    1    1    2    0    0  0.33303296570E+02 -0.20569225668E+02  0.10998330608E+02  0.40659142676E+02  0.00000000000E+00 0. -1.
         11    1    3    3    0    0 -0.29912343602E+01  0.21794435758E+01  0.41502013756E+01  0.55607219870E+01  0.51100000000E-03 0. -1.
        -11    1    3    3    0    0 -0.11033918655E+02 -0.23939594610E+01  0.25150249895E+01  0.11567357250E+02  0.51100000000E-03 0.  1.
        -12    1    3    3    0    0 -0.19278143555E+02  0.20783741553E+02 -0.17663556973E+02  0.33400778087E+02  0.00000000000E+00 0.  1.
</event>
<event>
 7    1  0.5456331E-013  0.5052890E+02  0.7816164E-02  0.1300439E+00
        -11   -1    0    0    0    0  0.00000000000E+00  0.00000000000E+00  0.45593999997E+02  0.45594000000E+02  0.51100000000E-03 0.  1.
         11   -1    0    0    0    0 -0.00000000000E+00 -0.00000000000E+00 -0.45593999997E+02  0.45594000000E+02  0.51100000000E-03 0. -1.
    9900012    2    1    2    0    0 -0.73881042857E+01 -0.19103141992E+02  0.35123332506E+02  0.50528897634E+02  0.30000114847E+02 0.  0.
         12    1    1    2    0    0  0.73881042857E+01  0.19103141992E+02 -0.35123332506E+02  0.40659102366E+02  0.00000000000E+00 0. -1.
         11    1    3    3    0    0  0.81630975773E+01 -0.36431435591E+01  0.16852600734E+01  0.90966344779E+01  0.51100000000E-03 0. -1.
        -11    1    3    3    0    0 -0.27447675779E+01 -0.76090459583E+00  0.14592584544E+00  0.28520202444E+01  0.51100000000E-03 0.  1.
        -12    1    3    3    0    0 -0.12806434285E+02 -0.14699093837E+02  0.33292146587E+02  0.38580242911E+02  0.00000000000E+00 0.  1.
</event>
<event>
 7    1  0.5456331E-013  0.5052886E+02  0.7816164E-02  0.1300439E+00
        -11   -1    0    0    0    0  0.00000000000E+00  0.00000000000E+00  0.45593999997E+02  0.45594000000E+02  0.51100000000E-03 0.  1.
         11   -1    0    0    0    0 -0.00000000000E+00 -0.00000000000E+00 -0.45593999997E+02  0.45594000000E+02  0.51100000000E-03 0. -1.
    9900012    2    1    2    0    0 -0.20610305850E+02  0.32412835026E+02  0.13333771922E+02  0.50528855206E+02  0.29999985885E+02 0.  0.
         12    1    1    2    0    0  0.20610305850E+02 -0.32412835026E+02 -0.13333771922E+02  0.40659144794E+02  0.00000000000E+00 0. -1.
         11    1    3    3    0    0 -0.63608368362E+01  0.20847130851E+02 -0.28705263820E+01  0.21984154110E+02  0.51100000000E-03 0. -1.
        -11    1    3    3    0    0 -0.84384369777E+01  0.14636554202E+02  0.12325060259E+02  0.20912748460E+02  0.51100000000E-03 0.  1.
        -12    1    3    3    0    0 -0.58110320365E+01 -0.30708500265E+01  0.38792380456E+01  0.76319526354E+01  0.00000000000E+00 0.  1.
</event>
<event>
 7    1  0.5456331E-013  0.5052885E+02  0.7816164E-02  0.1300439E+00
        -11   -1    0    0    0    0  0.00000000000E+00  0.00000000000E+00  0.45593999997E+02  0.45594000000E+02  0.51100000000E-03 0. -1.
         11   -1    0    0    0    0 -0.00000000000E+00 -0.00000000000E+00 -0.45593999997E+02  0.45594000000E+02  0.51100000000E-03 0.  1.
    9900012    2    1    2    0    0 -0.23656170608E+02  0.25834956478E+02 -0.20642354379E+02  0.50528853694E+02  0.29999981288E+02 0.  0.
         12    1    1    2    0    0  0.23656170608E+02 -0.25834956478E+02  0.20642354379E+02  0.40659146306E+02  0.00000000000E+00 0. -1.
         11    1    3    3    0    0 -0.15804369626E+02  0.28291832420E+02 -0.65350558104E+01  0.33059232231E+02  0.51100000000E-03 0. -1.
        -11    1    3    3    0    0 -0.25819377843E+01  0.17976623817E+01 -0.24498079277E+01  0.39874242193E+01  0.51100000000E-03 0.  1.
         12    1    3    3    0    0 -0.52698631973E+01 -0.42545383243E+01 -0.11657490641E+02  0.13482197244E+02  0.00000000000E+00 0. -1.
</event>
<event>
 7    1  0.5456331E-013  0.5052886E+02  0.7816164E-02  0.1300439E+00
        -11   -1    0    0    0    0  0.00000000000E+00  0.00000000000E+00  0.45593999997E+02  0.45594000000E+02  0.51100000000E-03 0.  1.
         11   -1    0    0    0    0 -0.00000000000E+00 -0.00000000000E+00 -0.45593999997E+02  0.45594000000E+02  0.51100000000E-03 0. -1.
    9900012    2    1    2    0    0  0.11497178721E+02 -0.27826610254E+02  0.27325089494E+02  0.50528857453E+02  0.29999992715E+02 0.  0.
         12    1    1    2    0    0 -0.11497178721E+02  0.27826610254E+02 -0.27325089494E+02  0.40659142547E+02  0.00000000000E+00 0. -1.
         11    1    3    3    0    0  0.59675150584E+01  0.11873666462E+01  0.98842923124E+01  0.11606907870E+02  0.51100000000E-03 0. -1.
        -11    1    3    3    0    0  0.74079297401E+01 -0.50565826581E+01  0.10703143320E+02  0.13964373541E+02  0.51100000000E-03 0.  1.
         12    1    3    3    0    0 -0.18782660779E+01 -0.23957394242E+02  0.67376538621E+01  0.24957576042E+02  0.00000000000E+00 0. -1.
</event>
<event>
 7    1  0.5456331E-013  0.5052886E+02  0.7816164E-02  0.1300439E+00
        -11   -1    0    0    0    0  0.00000000000E+00  0.00000000000E+00  0.45593999997E+02  0.45594000000E+02  0.51100000000E-03 0.  1.
         11   -1    0    0    0    0 -0.00000000000E+00 -0.00000000000E+00 -0.45593999997E+02  0.45594000000E+02  0.51100000000E-03 0. -1.
    9900012    2    1    2    0    0  0.17765677051E+02 -0.11141242944E+02  0.34834166833E+02  0.50528858908E+02  0.29999997135E+02 0.  0.
         12    1    1    2    0    0 -0.17765677051E+02  0.11141242944E+02 -0.34834166833E+02  0.40659141092E+02  0.00000000000E+00 0. -1.
         11    1    3    3    0    0 -0.20836309798E+01  0.24594560786E+01 -0.16942039948E+01  0.36415339762E+01  0.51100000000E-03 0. -1.
        -11    1    3    3    0    0  0.41933536386E+01  0.39174853386E+01  0.92542990423E+01  0.10889121045E+02  0.51100000000E-03 0.  1.
         12    1    3    3    0    0  0.15655954393E+02 -0.17518184361E+02  0.27274071785E+02  0.35998203886E+02  0.00000000000E+00 0. -1.
</event>
<event>
 7    1  0.5456331E-013  0.5052888E+02  0.7816164E-02  0.1300439E+00
        -11   -1    0    0    0    0  0.00000000000E+00  0.00000000000E+00  0.45593999997E+02  0.45594000000E+02  0.51100000000E-03 0. -1.
         11   -1    0    0    0    0 -0.00000000000E+00 -0.00000000000E+00 -0.45593999997E+02  0.45594000000E+02  0.51100000000E-03 0.  1.
    9900012    2    1    2    0    0 -0.13014782065E+01  0.39581748883E+02  0.92062542822E+01  0.50528882842E+02  0.30000069886E+02 0.  0.
         12    1    1    2    0    0  0.13014782065E+01 -0.39581748883E+02 -0.92062542822E+01  0.40659117158E+02  0.00000000000E+00 0. -1.
         11    1    3    3    0    0 -0.52350355592E+01  0.97718446026E+01  0.11691585127E+02  0.16111725770E+02  0.51100000000E-03 0. -1.
        -11    1    3    3    0    0  0.43448259647E+01  0.39643070476E+01  0.47662694010E+01  0.75703743167E+01  0.51100000000E-03 0.  1.
        -12    1    3    3    0    0 -0.41126861197E+00  0.25845597233E+02 -0.72516002454E+01  0.26846782755E+02  0.00000000000E+00 0.  1.
</event>
<event>
 7    1  0.5456331E-013  0.5052886E+02  0.7816164E-02  0.1300439E+00
        -11   -1    0    0    0    0  0.00000000000E+00  0.00000000000E+00  0.45593999997E+02  0.45594000000E+02  0.51100000000E-03 0.  1.
         11   -1    0    0    0    0 -0.00000000000E+00 -0.00000000000E+00 -0.45593999997E+02  0.45594000000E+02  0.51100000000E-03 0. -1.
    9900012    2    1    2    0    0  0.22321835720E+02 -0.16086261312E+02  0.29935485292E+02  0.50528862865E+02  0.30000009163E+02 0.  0.
         12    1    1    2    0    0 -0.22321835720E+02  0.16086261312E+02 -0.29935485292E+02  0.40659137135E+02  0.00000000000E+00 0. -1.
         11    1    3    3    0    0  0.33432545057E+00 -0.29824123710E+01  0.14152092526E+02  0.14466799238E+02  0.51100000000E-03 0.  1.
        -11    1    3    3    0    0 -0.28349900145E+01 -0.59463373729E+01  0.34129986586E+01  0.74192086262E+01  0.51100000000E-03 0. -1.
        -12    1    3    3    0    0  0.24822500284E+02 -0.71575115684E+01  0.12370394107E+02  0.28642855001E+02  0.00000000000E+00 0.  1.
</event>
<event>
 7    1  0.5456331E-013  0.5052886E+02  0.7816164E-02  0.1300439E+00
        -11   -1    0    0    0    0  0.00000000000E+00  0.00000000000E+00  0.45593999997E+02  0.45594000000E+02  0.51100000000E-03 0.  1.
         11   -1    0    0    0    0 -0.00000000000E+00 -0.00000000000E+00 -0.45593999997E+02  0.45594000000E+02  0.51100000000E-03 0. -1.
    9900012    2    1    2    0    0  0.10522619123E+02 -0.36579011981E+02  0.14297417117E+02  0.50528858753E+02  0.29999996666E+02 0.  0.
         12    1    1    2    0    0 -0.10522619123E+02  0.36579011981E+02 -0.14297417117E+02  0.40659141247E+02  0.00000000000E+00 0. -1.
         11    1    3    3    0    0 -0.44220982752E+01 -0.21939588284E+02  0.29982395911E+01  0.22580742418E+02  0.51100000000E-03 0. -1.
        -11    1    3    3    0    0  0.44066006217E+01 -0.14289854906E+02  0.56452247460E+01  0.15983949605E+02  0.51100000000E-03 0.  1.
         12    1    3    3    0    0  0.10538116776E+02 -0.34956879120E+00  0.56539527800E+01  0.11964166731E+02  0.00000000000E+00 0. -1.
</event>
<event>
 7    1  0.5456331E-013  0.5052886E+02  0.7816164E-02  0.1300439E+00
        -11   -1    0    0    0    0  0.00000000000E+00  0.00000000000E+00  0.45593999997E+02  0.45594000000E+02  0.51100000000E-03 0. -1.
         11   -1    0    0    0    0 -0.00000000000E+00 -0.00000000000E+00 -0.45593999997E+02  0.45594000000E+02  0.51100000000E-03 0.  1.
    9900012    2    1    2    0    0 -0.39253269946E+02  0.50093621125E+01  0.93409370665E+01  0.50528855696E+02  0.29999987374E+02 0.  0.
         12    1    1    2    0    0  0.39253269946E+02 -0.50093621125E+01 -0.93409370665E+01  0.40659144304E+02  0.00000000000E+00 0. -1.
         11    1    3    3    0    0 -0.16339530297E+01  0.34190128398E+01  0.55566846818E+01  0.67257859181E+01  0.51100000000E-03 0. -1.
        -11    1    3    3    0    0 -0.36076328889E+02  0.14255882724E+01  0.99456285881E+01  0.37449290197E+02  0.51100000000E-03 0.  1.
         12    1    3    3    0    0 -0.15429880281E+01  0.16476100029E+00 -0.61613762033E+01  0.63537795808E+01  0.00000000000E+00 0. -1.
</event>
<event>
 7    1  0.5456331E-013  0.5052886E+02  0.7816164E-02  0.1300439E+00
        -11   -1    0    0    0    0  0.00000000000E+00  0.00000000000E+00  0.45593999997E+02  0.45594000000E+02  0.51100000000E-03 0.  1.
         11   -1    0    0    0    0 -0.00000000000E+00 -0.00000000000E+00 -0.45593999997E+02  0.45594000000E+02  0.51100000000E-03 0. -1.
    9900012    2    1    2    0    0 -0.47425287167E+01 -0.91057774128E+01  0.39341567600E+02  0.50528859550E+02  0.29999999087E+02 0.  0.
         12    1    1    2    0    0  0.47425287167E+01  0.91057774128E+01 -0.39341567600E+02  0.40659140450E+02  0.00000000000E+00 0. -1.
         11    1    3    3    0    0 -0.14422916438E+01 -0.13934641216E+02  0.18183987699E+02  0.22954560329E+02  0.51100000000E-03 0.  1.
        -11    1    3    3    0    0  0.14535120767E+01 -0.57888268866E+01  0.59531924150E+01  0.84299296718E+01  0.51100000000E-03 0. -1.
        -12    1    3    3    0    0 -0.47537491497E+01  0.10617690690E+02  0.15204387486E+02  0.19144369548E+02  0.00000000000E+00 0.  1.
</event>
<event>
 7    1  0.5456331E-013  0.5052886E+02  0.7816164E-02  0.1300439E+00
        -11   -1    0    0    0    0  0.00000000000E+00  0.00000000000E+00  0.45593999997E+02  0.45594000000E+02  0.51100000000E-03 0.  1.
         11   -1    0    0    0    0 -0.00000000000E+00 -0.00000000000E+00 -0.45593999997E+02  0.45594000000E+02  0.51100000000E-03 0. -1.
    9900012    2    1    2    0    0 -0.56972303313E+01  0.24351018515E+02  0.32058306307E+02  0.50528861551E+02  0.30000005170E+02 0.  0.
         12    1    1    2    0    0  0.56972303313E+01 -0.24351018515E+02 -0.32058306307E+02  0.40659138449E+02  0.00000000000E+00 0. -1.
         11    1    3    3    0    0 -0.26271432148E+00 -0.15734653907E+00 -0.43889596033E+01  0.43996299172E+01  0.51100000000E-03 0. -1.
        -11    1    3    3    0    0 -0.17785873096E+01  0.12605841539E+02  0.78948234237E+01  0.14979948293E+02  0.51100000000E-03 0.  1.
         12    1    3    3    0    0 -0.36559287002E+01  0.11902523515E+02  0.28552442486E+02  0.31149283340E+02  0.00000000000E+00 0. -1.
</event>
<event>
 7    1  0.5456331E-013  0.5052886E+02  0.7816164E-02  0.1300439E+00
        -11   -1    0    0    0    0  0.00000000000E+00  0.00000000000E+00  0.45593999997E+02  0.45594000000E+02  0.51100000000E-03 0.  1.
         11   -1    0    0    0    0 -0.00000000000E+00 -0.00000000000E+00 -0.45593999997E+02  0.45594000000E+02  0.51100000000E-03 0. -1.
    9900012    2    1    2    0    0 -0.36858853753E+02 -0.17097634768E+02  0.15037018985E+01  0.50528864077E+02  0.30000012847E+02 0.  0.
         12    1    1    2    0    0  0.36858853753E+02  0.17097634768E+02 -0.15037018985E+01  0.40659135923E+02  0.00000000000E+00 0. -1.
         11    1    3    3    0    0 -0.10223812067E+02 -0.54290836370E+00  0.82773354432E+01  0.13165688929E+02  0.51100000000E-03 0. -1.
        -11    1    3    3    0    0 -0.83066743827E+01 -0.15569540424E+02  0.41270492509E+00  0.17651678502E+02  0.51100000000E-03 0.  1.
        -12    1    3    3    0    0 -0.18328367303E+02 -0.98518598009E+00 -0.71863384698E+01  0.19711496646E+02  0.00000000000E+00 0.  1.
</event>
<event>
 7    1  0.5456331E-013  0.5052887E+02  0.7816164E-02  0.1300439E+00
        -11   -1    0    0    0    0  0.00000000000E+00  0.00000000000E+00  0.45593999997E+02  0.45594000000E+02  0.51100000000E-03 0. -1.
         11   -1    0    0    0    0 -0.00000000000E+00 -0.00000000000E+00 -0.45593999997E+02  0.45594000000E+02  0.51100000000E-03 0.  1.
    9900012    2    1    2    0    0  0.36099501390E+02 -0.17381684578E+02  0.69186496747E+01  0.50528872209E+02  0.30000037568E+02 0.  0.
         12    1    1    2    0    0 -0.36099501390E+02  0.17381684578E+02 -0.69186496747E+01  0.40659127791E+02  0.00000000000E+00 0. -1.
         11    1    3    3    0    0  0.24881284418E+02 -0.57065617813E+01  0.67721344863E+01  0.26410319336E+02  0.51100000000E-03 0. -1.
        -11    1    3    3    0    0  0.13632222091E+02 -0.17719788170E+01 -0.13628230982E+01  0.13814292422E+02  0.51100000000E-03 0.  1.
         12    1    3    3    0    0 -0.24140051187E+01 -0.99031439796E+01  0.15093382866E+01  0.10304260452E+02  0.00000000000E+00 0. -1.
</event>
<event>
 7    1  0.5456331E-013  0.5052886E+02  0.7816164E-02  0.1300439E+00
        -11   -1    0    0    0    0  0.00000000000E+00  0.00000000000E+00  0.45593999997E+02  0.45594000000E+02  0.51100000000E-03 0.  1.
         11   -1    0    0    0    0 -0.00000000000E+00 -0.00000000000E+00 -0.45593999997E+02  0.45594000000E+02  0.51100000000E-03 0. -1.
    9900012    2    1    2    0    0  0.25081920966E+02 -0.13907977906E+02  0.28820672893E+02  0.50528858411E+02  0.29999995626E+02 0.  0.
         12    1    1    2    0    0 -0.25081920966E+02  0.13907977906E+02 -0.28820672893E+02  0.40659141589E+02  0.00000000000E+00 0. -1.
         11    1    3    3    0    0  0.17699298522E+02 -0.17808390708E+02  0.15323440577E+02  0.29414482473E+02  0.51100000000E-03 0. -1.
        -11    1    3    3    0    0  0.70526646647E+01 -0.35898308524E+01  0.10235692794E+02  0.12938174974E+02  0.51100000000E-03 0.  1.
         12    1    3    3    0    0  0.32995777926E+00  0.74902436549E+01  0.32615395217E+01  0.81762009636E+01  0.00000000000E+00 0. -1.
</event>
<event>
 7    1  0.5456331E-013  0.5052887E+02  0.7816164E-02  0.1300439E+00
        -11   -1    0    0    0    0  0.00000000000E+00  0.00000000000E+00  0.45593999997E+02  0.45594000000E+02  0.51100000000E-03 0.  1.
         11   -1    0    0    0    0 -0.00000000000E+00 -0.00000000000E+00 -0.45593999997E+02  0.45594000000E+02  0.51100000000E-03 0. -1.
    9900012    2    1    2    0    0  0.18113508172E+02 -0.36349860628E+02 -0.19374489294E+01  0.50528865057E+02  0.30000015827E+02 0.  0.
         12    1    1    2    0    0 -0.18113508172E+02  0.36349860628E+02  0.19374489294E+01  0.40659134943E+02  0.00000000000E+00 0. -1.
         11    1    3    3    0    0  0.15757874668E+02 -0.28962674788E+02 -0.11717863189E+02  0.34992220034E+02  0.51100000000E-03 0. -1.
        -11    1    3    3    0    0  0.58998886579E+01 -0.38446318381E+01  0.52848324024E+01  0.88045064557E+01  0.51100000000E-03 0.  1.
        -12    1    3    3    0    0 -0.35442551541E+01 -0.35425540019E+01  0.44955818570E+01  0.67321385671E+01  0.00000000000E+00 0.  1.
</event>
<event>
 7    1  0.5456331E-013  0.5052886E+02  0.7816164E-02  0.1300439E+00
        -11   -1    0    0    0    0  0.00000000000E+00  0.00000000000E+00  0.45593999997E+02  0.45594000000E+02  0.51100000000E-03 0.  1.
         11   -1    0    0    0    0 -0.00000000000E+00 -0.00000000000E+00 -0.45593999997E+02  0.45594000000E+02  0.51100000000E-03 0. -1.
    9900012    2    1    2    0    0  0.13945149125E+02  0.37157961825E+02  0.88308853393E+01  0.50528857769E+02  0.29999993673E+02 0.  0.
         12    1    1    2    0    0 -0.13945149125E+02 -0.37157961825E+02 -0.88308853393E+01  0.40659142231E+02  0.00000000000E+00 0. -1.
         11    1    3    3    0    0 -0.51077850321E+00 -0.12362560293E+01 -0.29167091513E+00  0.13690492442E+01  0.51100000000E-03 0. -1.
        -11    1    3    3    0    0  0.42792716740E+01  0.92322526365E+01  0.14594962835E+02  0.17792121718E+02  0.51100000000E-03 0.  1.
         12    1    3    3    0    0  0.10176655954E+02  0.29161965218E+02 -0.54724065810E+01  0.31367686806E+02  0.00000000000E+00 0. -1.
</event>
<event>
 7    1  0.5456331E-013  0.5052885E+02  0.7816164E-02  0.1300439E+00
        -11   -1    0    0    0    0  0.00000000000E+00  0.00000000000E+00  0.45593999997E+02  0.45594000000E+02  0.51100000000E-03 0.  1.
         11   -1    0    0    0    0 -0.00000000000E+00 -0.00000000000E+00 -0.45593999997E+02  0.45594000000E+02  0.51100000000E-03 0. -1.
    9900012    2    1    2    0    0  0.22352714369E+02 -0.19885916070E+01  0.33905277091E+02  0.50528854031E+02  0.29999982314E+02 0.  0.
         12    1    1    2    0    0 -0.22352714369E+02  0.19885916070E+01 -0.33905277091E+02  0.40659145969E+02  0.00000000000E+00 0. -1.
         11    1    3    3    0    0  0.42288327621E+01 -0.91391693683E+01  0.73662342046E+01  0.12476732340E+02  0.51100000000E-03 0. -1.
        -11    1    3    3    0    0  0.64968780168E+01  0.14042831453E+01  0.23912810799E+02  0.24819426981E+02  0.51100000000E-03 0.  1.
        -12    1    3    3    0    0  0.11627003590E+02  0.57462946159E+01  0.26262320881E+01  0.13232694710E+02  0.00000000000E+00 0.  1.
</event>
<event>
 7    1  0.5456331E-013  0.5052886E+02  0.7816164E-02  0.1300439E+00
        -11   -1    0    0    0    0  0.00000000000E+00  0.00000000000E+00  0.45593999997E+02  0.45594000000E+02  0.51100000000E-03 0.  1.
         11   -1    0    0    0    0 -0.00000000000E+00 -0.00000000000E+00 -0.45593999997E+02  0.45594000000E+02  0.51100000000E-03 0. -1.
    9900012    2    1    2    0    0 -0.21579453896E+02  0.21371151657E+02  0.27032702568E+02  0.50528856357E+02  0.29999989384E+02 0.  0.
         12    1    1    2    0    0  0.21579453896E+02 -0.21371151657E+02 -0.27032702568E+02  0.40659143643E+02  0.00000000000E+00 0. -1.
         11    1    3    3    0    0 -0.31542121416E+01 -0.46471063649E+01  0.66503450636E+01  0.87046965212E+01  0.51100000000E-03 0. -1.
        -11    1    3    3    0    0 -0.22738565908E+01 -0.27142535653E+01  0.23929476448E+01  0.42736161391E+01  0.51100000000E-03 0.  1.
        -12    1    3    3    0    0 -0.16151385164E+02  0.28732511588E+02  0.17989409859E+02  0.37550543697E+02  0.00000000000E+00 0.  1.
</event>
<event>
 7    1  0.5456331E-013  0.5052885E+02  0.7816164E-02  0.1300439E+00
        -11   -1    0    0    0    0  0.00000000000E+00  0.00000000000E+00  0.45593999997E+02  0.45594000000E+02  0.51100000000E-03 0. -1.
         11   -1    0    0    0    0 -0.00000000000E+00 -0.00000000000E+00 -0.45593999997E+02  0.45594000000E+02  0.51100000000E-03 0.  1.
    9900012    2    1    2    0    0  0.48671767076E+01 -0.15711067735E+02 -0.37183858168E+02  0.50528851377E+02  0.29999974246E+02 0.  0.
         12    1    1    2    0    0 -0.48671767076E+01  0.15711067735E+02  0.37183858168E+02  0.40659148623E+02  0.00000000000E+00 0. -1.
         11    1    3    3    0    0  0.24273951401E+00 -0.17901203992E+01  0.27846553277E+01  0.33193009912E+01  0.51100000000E-03 0. -1.
        -11    1    3    3    0    0 -0.94068665567E+00 -0.45793035811E+01  0.10355214531E+01  0.47882374224E+01  0.51100000000E-03 0.  1.
        -12    1    3    3    0    0  0.55651238493E+01 -0.93416437551E+01 -0.41004034948E+02  0.42421312964E+02  0.00000000000E+00 0.  1.
</event>
<event>
 7    1  0.5456331E-013  0.5052886E+02  0.7816164E-02  0.1300439E+00
        -11   -1    0    0    0    0  0.00000000000E+00  0.00000000000E+00  0.45593999997E+02  0.45594000000E+02  0.51100000000E-03 0. -1.
         11   -1    0    0    0    0 -0.00000000000E+00 -0.00000000000E+00 -0.45593999997E+02  0.45594000000E+02  0.51100000000E-03 0.  1.
    9900012    2    1    2    0    0 -0.10395295455E+02 -0.24324268821E+01 -0.39232468688E+02  0.50528862436E+02  0.30000007860E+02 0.  0.
         12    1    1    2    0    0  0.10395295455E+02  0.24324268821E+01  0.39232468688E+02  0.40659137564E+02  0.00000000000E+00 0. -1.
         11    1    3    3    0    0  0.79616203477E+00  0.16317779187E+01 -0.40754514811E+00  0.18608241374E+01  0.51100000000E-03 0. -1.
        -11    1    3    3    0    0 -0.40023928085E+01  0.10001483177E+02 -0.26584405408E+02  0.28684131939E+02  0.51100000000E-03 0.  1.
         12    1    3    3    0    0 -0.71890646814E+01 -0.14065687977E+02 -0.12240518132E+02  0.19983906360E+02  0.00000000000E+00 0. -1.
</event>
<event>
 7    1  0.5456331E-013  0.5052886E+02  0.7816164E-02  0.1300439E+00
        -11   -1    0    0    0    0  0.00000000000E+00  0.00000000000E+00  0.45593999997E+02  0.45594000000E+02  0.51100000000E-03 0.  1.
         11   -1    0    0    0    0 -0.00000000000E+00 -0.00000000000E+00 -0.45593999997E+02  0.45594000000E+02  0.51100000000E-03 0. -1.
    9900012    2    1    2    0    0  0.17228466038E+02  0.36426745697E+02  0.54256558119E+01  0.50528860990E+02  0.30000003464E+02 0.  0.
         12    1    1    2    0    0 -0.17228466038E+02 -0.36426745697E+02 -0.54256558119E+01  0.40659139010E+02  0.00000000000E+00 0. -1.
         11    1    3    3    0    0  0.31642036023E+01 -0.33808321929E+01  0.43986911862E+00  0.46514186928E+01  0.51100000000E-03 0. -1.
        -11    1    3    3    0    0  0.63710313758E+01  0.31589246277E+01  0.45219389802E+01  0.84271453053E+01  0.51100000000E-03 0.  1.
        -12    1    3    3    0    0  0.76932310600E+01  0.36648653262E+02  0.46384771310E+00  0.37450296991E+02  0.00000000000E+00 0.  1.
</event>
<event>
 7    1  0.5456331E-013  0.5052887E+02  0.7816164E-02  0.1300439E+00
        -11   -1    0    0    0    0  0.00000000000E+00  0.00000000000E+00  0.45593999997E+02  0.45594000000E+02  0.51100000000E-03 0.  1.
         11   -1    0    0    0    0 -0.00000000000E+00 -0.00000000000E+00 -0.45593999997E+02  0.45594000000E+02  0.51100000000E-03 0. -1.
    9900012    2    1    2    0    0 -0.35375941449E+02 -0.19650242695E+02  0.39466109290E+01  0.50528868071E+02  0.30000024989E+02 0.  0.
         12    1    1    2    0    0  0.35375941449E+02  0.19650242695E+02 -0.39466109290E+01  0.40659131929E+02  0.00000000000E+00 0. -1.
         11    1    3    3    0    0 -0.65831458399E+01 -0.13329002200E+02  0.45907418524E+01  0.15558760227E+02  0.51100000000E-03 0. -1.
        -11    1    3    3    0    0 -0.17234031883E+02 -0.10173844489E+02  0.62559994980E+01  0.20967987424E+02  0.51100000000E-03 0.  1.
        -12    1    3    3    0    0 -0.11558763727E+02  0.38526039942E+01 -0.69001304214E+01  0.14002120420E+02  0.00000000000E+00 0.  1.
</event>
<event>
 7    1  0.5456331E-013  0.5052886E+02  0.7816164E-02  0.1300439E+00
        -11   -1    0    0    0    0  0.00000000000E+00  0.00000000000E+00  0.45593999997E+02  0.45594000000E+02  0.51100000000E-03 0.  1.
         11   -1    0    0    0    0 -0.00000000000E+00 -0.00000000000E+00 -0.45593999997E+02  0.45594000000E+02  0.51100000000E-03 0. -1.
    9900012    2    1    2    0    0 -0.12111215665E+02 -0.35456791653E+01  0.38651160852E+02  0.50528860550E+02  0.30000002127E+02 0.  0.
         12    1    1    2    0    0  0.12111215665E+02  0.35456791653E+01 -0.38651160852E+02  0.40659139450E+02  0.00000000000E+00 0. -1.
         11    1    3    3    0    0 -0.20553999667E+01 -0.79850799392E+01  0.22814718127E+02  0.24258968118E+02  0.51100000000E-03 0.  1.
        -11    1    3    3    0    0 -0.12264900547E+02 -0.34054462348E+01  0.85157469639E+01  0.15314790110E+02  0.51100000000E-03 0. -1.
         12    1    3    3    0    0  0.22090848491E+01  0.78448470087E+01  0.73206957614E+01  0.10955102322E+02  0.00000000000E+00 0. -1.
</event>
<event>
 7    1  0.5456331E-013  0.5052886E+02  0.7816164E-02  0.1300439E+00
        -11   -1    0    0    0    0  0.00000000000E+00  0.00000000000E+00  0.45593999997E+02  0.45594000000E+02  0.51100000000E-03 0.  1.
         11   -1    0    0    0    0 -0.00000000000E+00 -0.00000000000E+00 -0.45593999997E+02  0.45594000000E+02  0.51100000000E-03 0. -1.
    9900012    2    1    2    0    0  0.36317485759E+02 -0.86202478006E+01  0.16121328084E+02  0.50528860029E+02  0.30000000543E+02 0.  0.
         12    1    1    2    0    0 -0.36317485759E+02  0.86202478006E+01 -0.16121328084E+02  0.40659139971E+02  0.00000000000E+00 0. -1.
         11    1    3    3    0    0  0.25735209436E+02 -0.16495518138E+01 -0.25802911916E+00  0.25789311840E+02  0.51100000000E-03 0. -1.
        -11    1    3    3    0    0 -0.16592068929E+01 -0.27917723305E+01 -0.69261292964E+00  0.33206434904E+01  0.51100000000E-03 0.  1.
        -12    1    3    3    0    0  0.12241483216E+02 -0.41789236563E+01  0.17071970133E+02  0.21418904698E+02  0.00000000000E+00 0.  1.
</event>
<event>
 7    1  0.5456331E-013  0.5052892E+02  0.7816164E-02  0.1300439E+00
        -11   -1    0    0    0    0  0.00000000000E+00  0.00000000000E+00  0.45593999997E+02  0.45594000000E+02  0.51100000000E-03 0. -1.
         11   -1    0    0    0    0 -0.00000000000E+00 -0.00000000000E+00 -0.45593999997E+02  0.45594000000E+02  0.51100000000E-03 0.  1.
    9900012    2    1    2    0    0  0.28892087185E+02 -0.24433323865E+02 -0.14880219240E+02  0.50528918092E+02  0.30000177031E+02 0.  0.
         12    1    1    2    0    0 -0.28892087185E+02  0.24433323865E+02  0.14880219240E+02  0.40659081908E+02  0.00000000000E+00 0. -1.
         11    1    3    3    0    0  0.67753518791E+01 -0.43245527648E+01 -0.47301765559E+01  0.93263991022E+01  0.51100000000E-03 0. -1.
        -11    1    3    3    0    0  0.46644561873E+01 -0.19222252028E+02 -0.12753069801E+02  0.23534929661E+02  0.51100000000E-03 0.  1.
        -12    1    3    3    0    0  0.17452279118E+02 -0.88651907257E+00  0.26030271169E+01  0.17667589328E+02  0.00000000000E+00 0.  1.
</event>
<event>
 7    1  0.5456331E-013  0.5052886E+02  0.7816164E-02  0.1300439E+00
        -11   -1    0    0    0    0  0.00000000000E+00  0.00000000000E+00  0.45593999997E+02  0.45594000000E+02  0.51100000000E-03 0.  1.
         11   -1    0    0    0    0 -0.00000000000E+00 -0.00000000000E+00 -0.45593999997E+02  0.45594000000E+02  0.51100000000E-03 0. -1.
    9900012    2    1    2    0    0 -0.27680129895E+02 -0.29198824098E+02  0.58655372948E+01  0.50528862682E+02  0.30000008607E+02 0.  0.
         12    1    1    2    0    0  0.27680129895E+02  0.29198824098E+02 -0.58655372948E+01  0.40659137318E+02  0.00000000000E+00 0. -1.
         11    1    3    3    0    0 -0.86588558499E+01 -0.19072972975E+02  0.44646038395E+01  0.21416973887E+02  0.51100000000E-03 0. -1.
        -11    1    3    3    0    0 -0.19251054419E+01 -0.72752857586E+01  0.76084662048E+01  0.10701615396E+02  0.51100000000E-03 0.  1.
        -12    1    3    3    0    0 -0.17096168603E+02 -0.28505653643E+01 -0.62075327495E+01  0.18410273399E+02  0.00000000000E+00 0.  1.
</event>
<event>
 7    1  0.5456331E-013  0.5052886E+02  0.7816164E-02  0.1300439E+00
        -11   -1    0    0    0    0  0.00000000000E+00  0.00000000000E+00  0.45593999997E+02  0.45594000000E+02  0.51100000000E-03 0. -1.
         11   -1    0    0    0    0 -0.00000000000E+00 -0.00000000000E+00 -0.45593999997E+02  0.45594000000E+02  0.51100000000E-03 0.  1.
    9900012    2    1    2    0    0  0.12525761553E+02 -0.18455490575E+02 -0.33995086132E+02  0.50528859380E+02  0.29999998573E+02 0.  0.
         12    1    1    2    0    0 -0.12525761553E+02  0.18455490575E+02  0.33995086132E+02  0.40659140620E+02  0.00000000000E+00 0. -1.
         11    1    3    3    0    0  0.31935812975E+01 -0.65781187163E+01 -0.33358752232E+01  0.80373298498E+01  0.51100000000E-03 0. -1.
        -11    1    3    3    0    0 -0.24452985431E+01 -0.16555159582E+02 -0.18068293594E+02  0.24627546110E+02  0.51100000000E-03 0.  1.
         12    1    3    3    0    0  0.11777478798E+02  0.46777877232E+01 -0.12590917315E+02  0.17863983421E+02  0.00000000000E+00 0. -1.
</event>
<event>
 7    1  0.5456331E-013  0.5052884E+02  0.7816164E-02  0.1300439E+00
        -11   -1    0    0    0    0  0.00000000000E+00  0.00000000000E+00  0.45593999997E+02  0.45594000000E+02  0.51100000000E-03 0. -1.
         11   -1    0    0    0    0 -0.00000000000E+00 -0.00000000000E+00 -0.45593999997E+02  0.45594000000E+02  0.51100000000E-03 0.  1.
    9900012    2    1    2    0    0 -0.37862010986E+02  0.37246494763E+01 -0.14344407183E+02  0.50528844732E+02  0.29999954049E+02 0.  0.
         12    1    1    2    0    0  0.37862010986E+02 -0.37246494763E+01  0.14344407183E+02  0.40659155268E+02  0.00000000000E+00 0. -1.
         11    1    3    3    0    0 -0.39117692285E+01 -0.40476033047E+01  0.62243791098E+01  0.83921348043E+01  0.51100000000E-03 0. -1.
        -11    1    3    3    0    0 -0.15529216264E+02  0.52301134150E+01 -0.32093288847E+01  0.16697617682E+02  0.51100000000E-03 0.  1.
        -12    1    3    3    0    0 -0.18421025493E+02  0.25421393661E+01 -0.17359457408E+02  0.25439092246E+02  0.00000000000E+00 0.  1.
</event>
<event>
 7    1  0.5456331E-013  0.5052886E+02  0.7816164E-02  0.1300439E+00
        -11   -1    0    0    0    0  0.00000000000E+00  0.00000000000E+00  0.45593999997E+02  0.45594000000E+02  0.51100000000E-03 0. -1.
         11   -1    0    0    0    0 -0.00000000000E+00 -0.00000000000E+00 -0.45593999997E+02  0.45594000000E+02  0.51100000000E-03 0.  1.
    9900012    2    1    2    0    0  0.31708755955E+02 -0.21522310384E+02 -0.13583474141E+02  0.50528858123E+02  0.29999994750E+02 0.  0.
         12    1    1    2    0    0 -0.31708755955E+02  0.21522310384E+02  0.13583474141E+02  0.40659141877E+02  0.00000000000E+00 0. -1.
         11    1    3    3    0    0  0.13999515228E+01 -0.13681981300E+01  0.14484346530E+01  0.24351167517E+01  0.51100000000E-03 0. -1.
        -11    1    3    3    0    0  0.29202155422E+02 -0.40134665883E+01 -0.88822887044E+01  0.30785854678E+02  0.51100000000E-03 0.  1.
        -12    1    3    3    0    0  0.11066490094E+01 -0.16140645666E+02 -0.61496200899E+01  0.17307886693E+02  0.00000000000E+00 0.  1.
</event>
<event>
 7    1  0.5456331E-013  0.5052894E+02  0.7816164E-02  0.1300439E+00
        -11   -1    0    0    0    0  0.00000000000E+00  0.00000000000E+00  0.45593999997E+02  0.45594000000E+02  0.51100000000E-03 0.  1.
         11   -1    0    0    0    0 -0.00000000000E+00 -0.00000000000E+00 -0.45593999997E+02  0.45594000000E+02  0.51100000000E-03 0. -1.
    9900012    2    1    2    0    0  0.27322718158E+02  0.21027117330E+02  0.21551996874E+02  0.50528940000E+02  0.30000243624E+02 0.  0.
         12    1    1    2    0    0 -0.27322718158E+02 -0.21027117330E+02 -0.21551996874E+02  0.40659060000E+02  0.00000000000E+00 0. -1.
         11    1    3    3    0    0 -0.18644158184E+01  0.19152904149E+00 -0.32641320246E+01  0.37639457824E+01  0.51100000000E-03 0. -1.
        -11    1    3    3    0    0  0.43871415335E+01  0.50591415219E+01 -0.19883780877E+01  0.69853826992E+01  0.51100000000E-03 0.  1.
        -12    1    3    3    0    0  0.24799992443E+02  0.15776446767E+02  0.26804506987E+02  0.39779611519E+02  0.00000000000E+00 0.  1.
</event>
<event>
 7    1  0.5456331E-013  0.5052887E+02  0.7816164E-02  0.1300439E+00
        -11   -1    0    0    0    0  0.00000000000E+00  0.00000000000E+00  0.45593999997E+02  0.45594000000E+02  0.51100000000E-03 0.  1.
         11   -1    0    0    0    0 -0.00000000000E+00 -0.00000000000E+00 -0.45593999997E+02  0.45594000000E+02  0.51100000000E-03 0. -1.
    9900012    2    1    2    0    0 -0.30124778088E+02 -0.27269442551E+02  0.14283637585E+01  0.50528868493E+02  0.30000026271E+02 0.  0.
         12    1    1    2    0    0  0.30124778088E+02  0.27269442551E+02 -0.14283637585E+01  0.40659131507E+02  0.00000000000E+00 0. -1.
         11    1    3    3    0    0 -0.20212434176E+02 -0.14885016775E+02 -0.12611368044E+01  0.25133576865E+02  0.51100000000E-03 0.  1.
        -11    1    3    3    0    0 -0.92579348418E+01 -0.17305941737E+02 -0.24480774064E+00  0.19628166191E+02  0.51100000000E-03 0. -1.
        -12    1    3    3    0    0 -0.65440906961E+00  0.49215159608E+01  0.29343083035E+01  0.57671254367E+01  0.00000000000E+00 0.  1.
</event>
<event>
 7    1  0.5456331E-013  0.5052886E+02  0.7816164E-02  0.1300439E+00
        -11   -1    0    0    0    0  0.00000000000E+00  0.00000000000E+00  0.45593999997E+02  0.45594000000E+02  0.51100000000E-03 0.  1.
         11   -1    0    0    0    0 -0.00000000000E+00 -0.00000000000E+00 -0.45593999997E+02  0.45594000000E+02  0.51100000000E-03 0. -1.
    9900012    2    1    2    0    0 -0.23078704398E+02 -0.20850968659E+02  0.26187332213E+02  0.50528857619E+02  0.29999993218E+02 0.  0.
         12    1    1    2    0    0  0.23078704398E+02  0.20850968659E+02 -0.26187332213E+02  0.40659142381E+02  0.00000000000E+00 0. -1.
         11    1    3    3    0    0 -0.19819330480E+01 -0.37278668811E+01 -0.64493285328E+01  0.77083648639E+01  0.51100000000E-03 0. -1.
        -11    1    3    3    0    0 -0.34599306401E+01 -0.82914694520E+00  0.58522110385E+01  0.68488669859E+01  0.51100000000E-03 0.  1.
        -12    1    3    3    0    0 -0.17636840710E+02 -0.16293954833E+02  0.26784449708E+02  0.35971625769E+02  0.00000000000E+00 0.  1.
</event>
<event>
 7    1  0.5456331E-013  0.5052885E+02  0.7816164E-02  0.1300439E+00
        -11   -1    0    0    0    0  0.00000000000E+00  0.00000000000E+00  0.45593999997E+02  0.45594000000E+02  0.51100000000E-03 0.  1.
         11   -1    0    0    0    0 -0.00000000000E+00 -0.00000000000E+00 -0.45593999997E+02  0.45594000000E+02  0.51100000000E-03 0. -1.
    9900012    2    1    2    0    0 -0.13837691255E+02  0.19316688439E+02  0.32993184317E+02  0.50528851424E+02  0.29999974389E+02 0.  0.
         12    1    1    2    0    0  0.13837691255E+02 -0.19316688439E+02 -0.32993184317E+02  0.40659148576E+02  0.00000000000E+00 0. -1.
         11    1    3    3    0    0 -0.93023538440E+01  0.99538632541E+01  0.12543267732E+02  0.18518821409E+02  0.51100000000E-03 0.  1.
        -11    1    3    3    0    0  0.41040842626E+01  0.13870758973E+02  0.92764227968E+01  0.17184105513E+02  0.51100000000E-03 0. -1.
         12    1    3    3    0    0 -0.86394216736E+01 -0.45079337879E+01  0.11173493789E+02  0.14825924502E+02  0.00000000000E+00 0. -1.
</event>
<event>
 7    1  0.5456331E-013  0.5052886E+02  0.7816164E-02  0.1300439E+00
        -11   -1    0    0    0    0  0.00000000000E+00  0.00000000000E+00  0.45593999997E+02  0.45594000000E+02  0.51100000000E-03 0.  1.
         11   -1    0    0    0    0 -0.00000000000E+00 -0.00000000000E+00 -0.45593999997E+02  0.45594000000E+02  0.51100000000E-03 0. -1.
    9900012    2    1    2    0    0  0.56465369237E+01  0.85303612190E+01  0.39351181425E+02  0.50528856855E+02  0.29999990896E+02 0.  0.
         12    1    1    2    0    0 -0.56465369237E+01 -0.85303612190E+01 -0.39351181425E+02  0.40659143145E+02  0.00000000000E+00 0. -1.
         11    1    3    3    0    0  0.96451792369E+01  0.24943390508E+01  0.45925877407E+01  0.10970099007E+02  0.51100000000E-03 0. -1.
        -11    1    3    3    0    0  0.31831146747E+01  0.10098074851E+02  0.20931553819E+02  0.23457051824E+02  0.51100000000E-03 0.  1.
        -12    1    3    3    0    0 -0.71817569878E+01 -0.40620526830E+01  0.13827039865E+02  0.16101706023E+02  0.00000000000E+00 0.  1.
</event>
<event>
 7    1  0.5456331E-013  0.5052886E+02  0.7816164E-02  0.1300439E+00
        -11   -1    0    0    0    0  0.00000000000E+00  0.00000000000E+00  0.45593999997E+02  0.45594000000E+02  0.51100000000E-03 0. -1.
         11   -1    0    0    0    0 -0.00000000000E+00 -0.00000000000E+00 -0.45593999997E+02  0.45594000000E+02  0.51100000000E-03 0.  1.
    9900012    2    1    2    0    0  0.53349209998E+01  0.14523562867E+02 -0.37600135517E+02  0.50528862634E+02  0.30000008462E+02 0.  0.
         12    1    1    2    0    0 -0.53349209998E+01 -0.14523562867E+02  0.37600135517E+02  0.40659137366E+02  0.00000000000E+00 0. -1.
         11    1    3    3    0    0 -0.32964573669E+01  0.59434924452E+01  0.18578534860E+01  0.70458039608E+01  0.51100000000E-03 0. -1.
        -11    1    3    3    0    0  0.13692901223E+01 -0.14155165695E+01  0.16706262799E+00  0.19765001341E+01  0.51100000000E-03 0.  1.
        -12    1    3    3    0    0  0.72620882444E+01  0.99955869915E+01 -0.39625051631E+02  0.41506558539E+02  0.00000000000E+00 0.  1.
</event>
<event>
 7    1  0.5456331E-013  0.5052886E+02  0.7816164E-02  0.1300439E+00
        -11   -1    0    0    0    0  0.00000000000E+00  0.00000000000E+00  0.45593999997E+02  0.45594000000E+02  0.51100000000E-03 0.  1.
         11   -1    0    0    0    0 -0.00000000000E+00 -0.00000000000E+00 -0.45593999997E+02  0.45594000000E+02  0.51100000000E-03 0. -1.
    9900012    2    1    2    0    0 -0.40090260420E+02 -0.65966385345E+01  0.15560869974E+01  0.50528855552E+02  0.29999986936E+02 0.  0.
         12    1    1    2    0    0  0.40090260420E+02  0.65966385345E+01 -0.15560869974E+01  0.40659144448E+02  0.00000000000E+00 0. -1.
         11    1    3    3    0    0 -0.35028501246E+01  0.44684512894E+01 -0.57131952370E+01  0.80546642387E+01  0.51100000000E-03 0. -1.
        -11    1    3    3    0    0 -0.23132393701E+01 -0.20543267820E+01 -0.42082248927E+01  0.52230730341E+01  0.51100000000E-03 0.  1.
        -12    1    3    3    0    0 -0.34274170925E+02 -0.90107630420E+01  0.11477507127E+02  0.37251118279E+02  0.00000000000E+00 0.  1.
</event>
<event>
 7    1  0.5456331E-013  0.5052887E+02  0.7816164E-02  0.1300439E+00
        -11   -1    0    0    0    0  0.00000000000E+00  0.00000000000E+00  0.45593999997E+02  0.45594000000E+02  0.51100000000E-03 0. -1.
         11   -1    0    0    0    0 -0.00000000000E+00 -0.00000000000E+00 -0.45593999997E+02  0.45594000000E+02  0.51100000000E-03 0.  1.
    9900012    2    1    2    0    0  0.34738644828E+02 -0.14616807225E+02 -0.15255820418E+02  0.50528873663E+02  0.30000041985E+02 0.  0.
         12    1    1    2    0    0 -0.34738644828E+02  0.14616807225E+02  0.15255820418E+02  0.40659126337E+02  0.00000000000E+00 0. -1.
         11    1    3    3    0    0 -0.13660958520E+01  0.39058063452E+01 -0.26998583159E+01  0.49407262898E+01  0.51100000000E-03 0. -1.
        -11    1    3    3    0    0  0.11096121701E+02  0.14710957459E+01 -0.66801387506E+01  0.13035040985E+02  0.51100000000E-03 0.  1.
        -12    1    3    3    0    0  0.25008618978E+02 -0.19993709316E+02 -0.58758233512E+01  0.32553106387E+02  0.00000000000E+00 0.  1.
</event>
<event>
 7    1  0.5456331E-013  0.5052887E+02  0.7816164E-02  0.1300439E+00
        -11   -1    0    0    0    0  0.00000000000E+00  0.00000000000E+00  0.45593999997E+02  0.45594000000E+02  0.51100000000E-03 0. -1.
         11   -1    0    0    0    0 -0.00000000000E+00 -0.00000000000E+00 -0.45593999997E+02  0.45594000000E+02  0.51100000000E-03 0.  1.
    9900012    2    1    2    0    0 -0.29793895196E+02  0.47707485704E+01 -0.27253049886E+02  0.50528868665E+02  0.30000026793E+02 0.  0.
         12    1    1    2    0    0  0.29793895196E+02 -0.47707485704E+01  0.27253049886E+02  0.40659131335E+02  0.00000000000E+00 0. -1.
         11    1    3    3    0    0 -0.74333071871E+01 -0.81329098841E+00  0.12615199667E+00  0.74787306782E+01  0.51100000000E-03 0. -1.
        -11    1    3    3    0    0 -0.10079749393E+02  0.41457147977E+01  0.20849825687E+01  0.11096641455E+02  0.51100000000E-03 0.  1.
        -12    1    3    3    0    0 -0.12280838616E+02  0.14383247611E+01 -0.29464184451E+02  0.31953496531E+02  0.00000000000E+00 0.  1.
</event>
<event>
 7    1  0.5456331E-013  0.5052885E+02  0.7816164E-02  0.1300439E+00
        -11   -1    0    0    0    0  0.00000000000E+00  0.00000000000E+00  0.45593999997E+02  0.45594000000E+02  0.51100000000E-03 0.  1.
         11   -1    0    0    0    0 -0.00000000000E+00 -0.00000000000E+00 -0.45593999997E+02  0.45594000000E+02  0.51100000000E-03 0. -1.
    9900012    2    1    2    0    0 -0.26482074154E+01  0.35443676806E+02  0.19745860699E+02  0.50528852902E+02  0.29999978880E+02 0.  0.
         12    1    1    2    0    0  0.26482074154E+01 -0.35443676806E+02 -0.19745860699E+02  0.40659147098E+02  0.00000000000E+00 0. -1.
         11    1    3    3    0    0 -0.61853604874E+01  0.74540263336E+01 -0.92089093652E+00  0.97298115768E+01  0.51100000000E-03 0. -1.
        -11    1    3    3    0    0 -0.89076349911E+00  0.66276306168E+01 -0.40606112503E+01  0.78235229399E+01  0.51100000000E-03 0.  1.
        -12    1    3    3    0    0  0.44279165711E+01  0.21362019855E+02  0.24727362886E+02  0.32975518385E+02  0.00000000000E+00 0.  1.
</event>
<event>
 7    1  0.5456331E-013  0.5052884E+02  0.7816164E-02  0.1300439E+00
        -11   -1    0    0    0    0  0.00000000000E+00  0.00000000000E+00  0.45593999997E+02  0.45594000000E+02  0.51100000000E-03 0.  1.
         11   -1    0    0    0    0 -0.00000000000E+00 -0.00000000000E+00 -0.45593999997E+02  0.45594000000E+02  0.51100000000E-03 0. -1.
    9900012    2    1    2    0    0  0.23727873394E+02 -0.30497109397E+01  0.32876348187E+02  0.50528843802E+02  0.29999951221E+02 0.  0.
         12    1    1    2    0    0 -0.23727873394E+02  0.30497109397E+01 -0.32876348187E+02  0.40659156198E+02  0.00000000000E+00 0. -1.
         11    1    3    3    0    0 -0.20463898822E+01  0.28073274383E+01 -0.22866245669E+01  0.41590204456E+01  0.51100000000E-03 0. -1.
        -11    1    3    3    0    0 -0.10944240331E+01 -0.18457696955E+01  0.66472125849E+01  0.69849885571E+01  0.51100000000E-03 0.  1.
        -12    1    3    3    0    0  0.26868687309E+02 -0.40112686824E+01  0.28515760169E+02  0.39384834799E+02  0.00000000000E+00 0.  1.
</event>
<event>
 7    1  0.5456331E-013  0.5052886E+02  0.7816164E-02  0.1300439E+00
        -11   -1    0    0    0    0  0.00000000000E+00  0.00000000000E+00  0.45593999997E+02  0.45594000000E+02  0.51100000000E-03 0.  1.
         11   -1    0    0    0    0 -0.00000000000E+00 -0.00000000000E+00 -0.45593999997E+02  0.45594000000E+02  0.51100000000E-03 0. -1.
    9900012    2    1    2    0    0 -0.36059347582E+02  0.38439607060E+01 -0.18387854038E+02  0.50528858862E+02  0.29999996997E+02 0.  0.
         12    1    1    2    0    0  0.36059347582E+02 -0.38439607060E+01  0.18387854038E+02  0.40659141138E+02  0.00000000000E+00 0. -1.
         11    1    3    3    0    0 -0.30707633910E+01 -0.36924734599E+01 -0.22779550220E+01  0.53153576925E+01  0.51100000000E-03 0. -1.
        -11    1    3    3    0    0 -0.60273843946E+01  0.14940092074E+01  0.68812722118E+01  0.92689445821E+01  0.51100000000E-03 0.  1.
        -12    1    3    3    0    0 -0.26961199796E+02  0.60424249584E+01 -0.22991171228E+02  0.35944556588E+02  0.00000000000E+00 0.  1.
</event>
<event>
 7    1  0.5456331E-013  0.5052885E+02  0.7816164E-02  0.1300439E+00
        -11   -1    0    0    0    0  0.00000000000E+00  0.00000000000E+00  0.45593999997E+02  0.45594000000E+02  0.51100000000E-03 0.  1.
         11   -1    0    0    0    0 -0.00000000000E+00 -0.00000000000E+00 -0.45593999997E+02  0.45594000000E+02  0.51100000000E-03 0. -1.
    9900012    2    1    2    0    0 -0.19374382395E+02 -0.88455812489E+00  0.35735382086E+02  0.50528847658E+02  0.29999962942E+02 0.  0.
         12    1    1    2    0    0  0.19374382395E+02  0.88455812489E+00 -0.35735382086E+02  0.40659152342E+02  0.00000000000E+00 0. -1.
         11    1    3    3    0    0 -0.32177957920E+01  0.88087172581E+01  0.39772895543E+01  0.10186586374E+02  0.51100000000E-03 0. -1.
        -11    1    3    3    0    0 -0.69123691404E+01 -0.10233748272E+02  0.76747261510E+01  0.14540009373E+02  0.51100000000E-03 0.  1.
         12    1    3    3    0    0 -0.92442174628E+01  0.54047288870E+00  0.24083366381E+02  0.25802251911E+02  0.00000000000E+00 0. -1.
</event>
<event>
 7    1  0.5456331E-013  0.5052886E+02  0.7816164E-02  0.1300439E+00
        -11   -1    0    0    0    0  0.00000000000E+00  0.00000000000E+00  0.45593999997E+02  0.45594000000E+02  0.51100000000E-03 0.  1.
         11   -1    0    0    0    0 -0.00000000000E+00 -0.00000000000E+00 -0.45593999997E+02  0.45594000000E+02  0.51100000000E-03 0. -1.
    9900012    2    1    2    0    0  0.11424919186E+02 -0.14164681528E+02  0.36359301902E+02  0.50528858149E+02  0.29999994831E+02 0.  0.
         12    1    1    2    0    0 -0.11424919186E+02  0.14164681528E+02 -0.36359301902E+02  0.40659141851E+02  0.00000000000E+00 0. -1.
         11    1    3    3    0    0  0.36011520599E+01 -0.10987196937E+02  0.15610964121E+02  0.19426502355E+02  0.51100000000E-03 0.  1.
        -11    1    3    3    0    0 -0.14648975661E+00 -0.79659979993E+01  0.20284018800E+02  0.21792659368E+02  0.51100000000E-03 0. -1.
         12    1    3    3    0    0  0.79702568830E+01  0.47885134087E+01  0.46431898140E+00  0.93096964270E+01  0.00000000000E+00 0. -1.
</event>
<event>
 7    1  0.5456331E-013  0.5052883E+02  0.7816164E-02  0.1300439E+00
        -11   -1    0    0    0    0  0.00000000000E+00  0.00000000000E+00  0.45593999997E+02  0.45594000000E+02  0.51100000000E-03 0.  1.
         11   -1    0    0    0    0 -0.00000000000E+00 -0.00000000000E+00 -0.45593999997E+02  0.45594000000E+02  0.51100000000E-03 0. -1.
    9900012    2    1    2    0    0  0.26754065922E+02  0.22717172260E+02  0.20526038519E+02  0.50528828634E+02  0.29999905117E+02 0.  0.
         12    1    1    2    0    0 -0.26754065922E+02 -0.22717172260E+02 -0.20526038519E+02  0.40659171366E+02  0.00000000000E+00 0. -1.
         11    1    3    3    0    0  0.54965912410E+01  0.54326132432E+01  0.16090438769E+02  0.17850154676E+02  0.51100000000E-03 0. -1.
        -11    1    3    3    0    0  0.42657514941E+01  0.11506174898E+02  0.76287547203E+01  0.14449449658E+02  0.51100000000E-03 0.  1.
         12    1    3    3    0    0  0.16991723187E+02  0.57783841191E+01 -0.31931549708E+01  0.18229224300E+02  0.00000000000E+00 0. -1.
</event>
<event>
 7    1  0.5456331E-013  0.5052886E+02  0.7816164E-02  0.1300439E+00
        -11   -1    0    0    0    0  0.00000000000E+00  0.00000000000E+00  0.45593999997E+02  0.45594000000E+02  0.51100000000E-03 0.  1.
         11   -1    0    0    0    0 -0.00000000000E+00 -0.00000000000E+00 -0.45593999997E+02  0.45594000000E+02  0.51100000000E-03 0. -1.
    9900012    2    1    2    0    0 -0.11341421491E+02  0.30426234715E+02  0.24470025144E+02  0.50528859196E+02  0.29999998013E+02 0.  0.
         12    1    1    2    0    0  0.11341421491E+02 -0.30426234715E+02 -0.24470025144E+02  0.40659140804E+02  0.00000000000E+00 0. -1.
         11    1    3    3    0    0  0.30264578676E+01  0.44256668030E+01  0.15956284113E+02  0.16832972905E+02  0.51100000000E-03 0. -1.
        -11    1    3    3    0    0 -0.69227256861E+01  0.16442892099E+02  0.11489780017E+02  0.21220458916E+02  0.51100000000E-03 0.  1.
        -12    1    3    3    0    0 -0.74451536727E+01  0.95576758124E+01 -0.29760389855E+01  0.12475427375E+02  0.00000000000E+00 0.  1.
</event>
<event>
 7    1  0.5456331E-013  0.5052886E+02  0.7816164E-02  0.1300439E+00
        -11   -1    0    0    0    0  0.00000000000E+00  0.00000000000E+00  0.45593999997E+02  0.45594000000E+02  0.51100000000E-03 0.  1.
         11   -1    0    0    0    0 -0.00000000000E+00 -0.00000000000E+00 -0.45593999997E+02  0.45594000000E+02  0.51100000000E-03 0. -1.
    9900012    2    1    2    0    0 -0.35001597621E+02 -0.58960067669E+01  0.19831573779E+02  0.50528855268E+02  0.29999986072E+02 0.  0.
         12    1    1    2    0    0  0.35001597621E+02  0.58960067669E+01 -0.19831573779E+02  0.40659144732E+02  0.00000000000E+00 0. -1.
         11    1    3    3    0    0 -0.27419942517E+01 -0.39367157954E+01 -0.59467775290E+01  0.76407085385E+01  0.51100000000E-03 0. -1.
        -11    1    3    3    0    0 -0.11841083307E+02 -0.57739159752E+01  0.71616488891E+01  0.14994618189E+02  0.51100000000E-03 0.  1.
        -12    1    3    3    0    0 -0.20418520062E+02  0.38146250038E+01  0.18616702419E+02  0.27893528540E+02  0.00000000000E+00 0.  1.
</event>
<event>
 7    1  0.5456331E-013  0.5052886E+02  0.7816164E-02  0.1300439E+00
        -11   -1    0    0    0    0  0.00000000000E+00  0.00000000000E+00  0.45593999997E+02  0.45594000000E+02  0.51100000000E-03 0. -1.
         11   -1    0    0    0    0 -0.00000000000E+00 -0.00000000000E+00 -0.45593999997E+02  0.45594000000E+02  0.51100000000E-03 0.  1.
    9900012    2    1    2    0    0  0.31045536720E+02  0.18125011508E+01 -0.26192651492E+02  0.50528862000E+02  0.30000006536E+02 0.  0.
         12    1    1    2    0    0 -0.31045536720E+02 -0.18125011508E+01  0.26192651492E+02  0.40659138000E+02  0.00000000000E+00 0. -1.
         11    1    3    3    0    0  0.19215477526E+01  0.46040397494E+00 -0.18584495522E+00  0.19846551826E+01  0.51100000000E-03 0. -1.
        -11    1    3    3    0    0  0.24399070444E+02 -0.11305551617E+02 -0.13314375341E+02  0.30006711364E+02  0.51100000000E-03 0.  1.
         12    1    3    3    0    0  0.47249185241E+01  0.12657648793E+02 -0.12692431196E+02  0.18537495454E+02  0.00000000000E+00 0. -1.
</event>
<event>
 7    1  0.5456331E-013  0.5052886E+02  0.7816164E-02  0.1300439E+00
        -11   -1    0    0    0    0  0.00000000000E+00  0.00000000000E+00  0.45593999997E+02  0.45594000000E+02  0.51100000000E-03 0.  1.
         11   -1    0    0    0    0 -0.00000000000E+00 -0.00000000000E+00 -0.45593999997E+02  0.45594000000E+02  0.51100000000E-03 0. -1.
    9900012    2    1    2    0    0  0.25844246402E+01 -0.92068339496E+01  0.39518610608E+02  0.50528860480E+02  0.30000001915E+02 0.  0.
         12    1    1    2    0    0 -0.25844246402E+01  0.92068339496E+01 -0.39518610608E+02  0.40659139520E+02  0.00000000000E+00 0. -1.
         11    1    3    3    0    0 -0.66501295402E+01 -0.12534356778E+02  0.12820906649E+02  0.19123544920E+02  0.51100000000E-03 0. -1.
        -11    1    3    3    0    0 -0.34672623130E+01  0.82466378435E+00  0.50293084404E+01  0.61640832209E+01  0.51100000000E-03 0.  1.
        -12    1    3    3    0    0  0.12701816493E+02  0.25028590441E+01  0.21668395519E+02  0.25241232339E+02  0.00000000000E+00 0.  1.
</event>
<event>
 7    1  0.5456331E-013  0.5052886E+02  0.7816164E-02  0.1300439E+00
        -11   -1    0    0    0    0  0.00000000000E+00  0.00000000000E+00  0.45593999997E+02  0.45594000000E+02  0.51100000000E-03 0. -1.
         11   -1    0    0    0    0 -0.00000000000E+00 -0.00000000000E+00 -0.45593999997E+02  0.45594000000E+02  0.51100000000E-03 0.  1.
    9900012    2    1    2    0    0  0.23934950752E+02  0.28093141120E+02 -0.17060453193E+02  0.50528861930E+02  0.30000006321E+02 0.  0.
         12    1    1    2    0    0 -0.23934950752E+02 -0.28093141120E+02  0.17060453193E+02  0.40659138070E+02  0.00000000000E+00 0. -1.
         11    1    3    3    0    0  0.15386265841E+02  0.10829328920E+02 -0.34217563677E+01  0.19123806062E+02  0.51100000000E-03 0. -1.
        -11    1    3    3    0    0  0.15159428131E+02  0.13106847368E+02 -0.72345638995E+01  0.21305788515E+02  0.51100000000E-03 0.  1.
        -12    1    3    3    0    0 -0.66107432196E+01  0.41569648318E+01 -0.64041329257E+01  0.10099267353E+02  0.00000000000E+00 0.  1.
</event>
<event>
 7    1  0.5456331E-013  0.5052891E+02  0.7816164E-02  0.1300439E+00
        -11   -1    0    0    0    0  0.00000000000E+00  0.00000000000E+00  0.45593999997E+02  0.45594000000E+02  0.51100000000E-03 0. -1.
         11   -1    0    0    0    0 -0.00000000000E+00 -0.00000000000E+00 -0.45593999997E+02  0.45594000000E+02  0.51100000000E-03 0.  1.
    9900012    2    1    2    0    0 -0.46378764686E+01 -0.40349042113E+02  0.18990224338E+01  0.50528912654E+02  0.30000160503E+02 0.  0.
         12    1    1    2    0    0  0.46378764686E+01  0.40349042113E+02 -0.18990224338E+01  0.40659087346E+02  0.00000000000E+00 0. -1.
         11    1    3    3    0    0 -0.95579143672E+01 -0.16220611259E+02  0.39169875325E+01  0.19230308064E+02  0.51100000000E-03 0. -1.
        -11    1    3    3    0    0  0.14488759690E+01  0.75718412014E+00  0.49588992408E+01  0.52214223451E+01  0.51100000000E-03 0.  1.
         12    1    3    3    0    0  0.34711619296E+01 -0.24885614975E+02 -0.69768643395E+01  0.26077182245E+02  0.00000000000E+00 0. -1.
</event>
<event>
 7    1  0.5456331E-013  0.5052886E+02  0.7816164E-02  0.1300439E+00
        -11   -1    0    0    0    0  0.00000000000E+00  0.00000000000E+00  0.45593999997E+02  0.45594000000E+02  0.51100000000E-03 0.  1.
         11   -1    0    0    0    0 -0.00000000000E+00 -0.00000000000E+00 -0.45593999997E+02  0.45594000000E+02  0.51100000000E-03 0. -1.
    9900012    2    1    2    0    0  0.99615617910E+00  0.37580450745E+02  0.15488161360E+02  0.50528858990E+02  0.29999997387E+02 0.  0.
         12    1    1    2    0    0 -0.99615617910E+00 -0.37580450745E+02 -0.15488161360E+02  0.40659141010E+02  0.00000000000E+00 0. -1.
         11    1    3    3    0    0 -0.14578463405E+01  0.27061614920E+01 -0.40352589976E+01  0.50726661049E+01  0.51100000000E-03 0. -1.
        -11    1    3    3    0    0 -0.34561991530E+01  0.20647630337E+01 -0.31729648526E+01  0.51260379619E+01  0.51100000000E-03 0.  1.
        -12    1    3    3    0    0  0.59102016726E+01  0.32809526219E+02  0.22696385210E+02  0.40330154923E+02  0.00000000000E+00 0.  1.
</event>
<event>
 7    1  0.5456331E-013  0.5052876E+02  0.7816164E-02  0.1300439E+00
        -11   -1    0    0    0    0  0.00000000000E+00  0.00000000000E+00  0.45593999997E+02  0.45594000000E+02  0.51100000000E-03 0. -1.
         11   -1    0    0    0    0 -0.00000000000E+00 -0.00000000000E+00 -0.45593999997E+02  0.45594000000E+02  0.51100000000E-03 0.  1.
    9900012    2    1    2    0    0 -0.40344545711E+02 -0.35729809372E+01 -0.35672415873E+01  0.50528760288E+02  0.29999697369E+02 0.  0.
         12    1    1    2    0    0  0.40344545711E+02  0.35729809372E+01  0.35672415873E+01  0.40659239712E+02  0.00000000000E+00 0. -1.
         11    1    3    3    0    0  0.30260184139E+00  0.36578485452E+01 -0.40940736235E+01  0.54984418656E+01  0.51100000000E-03 0. -1.
        -11    1    3    3    0    0 -0.27202782071E+02 -0.38486649500E+00 -0.71118988817E+01  0.28119718714E+02  0.51100000000E-03 0.  1.
         12    1    3    3    0    0 -0.13444365482E+02 -0.68459629874E+01  0.76387309179E+01  0.16910599708E+02  0.00000000000E+00 0. -1.
</event>
<event>
 7    1  0.5456331E-013  0.5052886E+02  0.7816164E-02  0.1300439E+00
        -11   -1    0    0    0    0  0.00000000000E+00  0.00000000000E+00  0.45593999997E+02  0.45594000000E+02  0.51100000000E-03 0.  1.
         11   -1    0    0    0    0 -0.00000000000E+00 -0.00000000000E+00 -0.45593999997E+02  0.45594000000E+02  0.51100000000E-03 0. -1.
    9900012    2    1    2    0    0 -0.34711059357E+01  0.23467078959E+02  0.33021405761E+02  0.50528860686E+02  0.30000002542E+02 0.  0.
         12    1    1    2    0    0  0.34711059357E+01 -0.23467078959E+02 -0.33021405761E+02  0.40659139314E+02  0.00000000000E+00 0. -1.
         11    1    3    3    0    0  0.11433172550E+01  0.11947611974E+02  0.29769684448E+02  0.32098079672E+02  0.51100000000E-03 0. -1.
        -11    1    3    3    0    0  0.46141983467E+01  0.45327177850E+01  0.20908612559E+01  0.67976509144E+01  0.51100000000E-03 0.  1.
         12    1    3    3    0    0 -0.92286215373E+01  0.69867491998E+01  0.11608600576E+01  0.11633130100E+02  0.00000000000E+00 0. -1.
</event>
<event>
 7    1  0.5456331E-013  0.5052885E+02  0.7816164E-02  0.1300439E+00
        -11   -1    0    0    0    0  0.00000000000E+00  0.00000000000E+00  0.45593999997E+02  0.45594000000E+02  0.51100000000E-03 0.  1.
         11   -1    0    0    0    0 -0.00000000000E+00 -0.00000000000E+00 -0.45593999997E+02  0.45594000000E+02  0.51100000000E-03 0. -1.
    9900012    2    1    2    0    0 -0.23111734863E+02 -0.17839539610E+02  0.28297787859E+02  0.50528852695E+02  0.29999978252E+02 0.  0.
         12    1    1    2    0    0  0.23111734863E+02  0.17839539610E+02 -0.28297787859E+02  0.40659147305E+02  0.00000000000E+00 0. -1.
         11    1    3    3    0    0 -0.66103036909E+01  0.17971314559E+01  0.50437211625E+01  0.85067573013E+01  0.51100000000E-03 0. -1.
        -11    1    3    3    0    0  0.52884540648E+01 -0.57642151132E+01  0.10826701242E+02  0.13357072371E+02  0.51100000000E-03 0.  1.
         12    1    3    3    0    0 -0.21789885237E+02 -0.13872455952E+02  0.12427365454E+02  0.28665023023E+02  0.00000000000E+00 0. -1.
</event>
<event>
 7    1  0.5456331E-013  0.5052886E+02  0.7816164E-02  0.1300439E+00
        -11   -1    0    0    0    0  0.00000000000E+00  0.00000000000E+00  0.45593999997E+02  0.45594000000E+02  0.51100000000E-03 0. -1.
         11   -1    0    0    0    0 -0.00000000000E+00 -0.00000000000E+00 -0.45593999997E+02  0.45594000000E+02  0.51100000000E-03 0.  1.
    9900012    2    1    2    0    0  0.37905516323E+01  0.16616259702E+02 -0.36914726482E+02  0.50528863273E+02  0.30000010404E+02 0.  0.
         12    1    1    2    0    0 -0.37905516323E+01 -0.16616259702E+02  0.36914726482E+02  0.40659136727E+02  0.00000000000E+00 0. -1.
         11    1    3    3    0    0  0.16999275099E+01 -0.58616029343E+01 -0.60967938218E+01  0.86266469537E+01  0.51100000000E-03 0.  1.
        -11    1    3    3    0    0 -0.42075567641E+01  0.15340790708E+02 -0.94314989601E+01  0.18493149174E+02  0.51100000000E-03 0. -1.
         12    1    3    3    0    0  0.62981808865E+01  0.71370719284E+01 -0.21386433700E+02  0.23409067145E+02  0.00000000000E+00 0. -1.
</event>
<event>
 7    1  0.5456331E-013  0.5052885E+02  0.7816164E-02  0.1300439E+00
        -11   -1    0    0    0    0  0.00000000000E+00  0.00000000000E+00  0.45593999997E+02  0.45594000000E+02  0.51100000000E-03 0.  1.
         11   -1    0    0    0    0 -0.00000000000E+00 -0.00000000000E+00 -0.45593999997E+02  0.45594000000E+02  0.51100000000E-03 0. -1.
    9900012    2    1    2    0    0 -0.41816403728E+01 -0.16510448410E+02  0.36919982512E+02  0.50528854269E+02  0.29999983036E+02 0.  0.
         12    1    1    2    0    0  0.41816403728E+01  0.16510448410E+02 -0.36919982512E+02  0.40659145731E+02  0.00000000000E+00 0. -1.
         11    1    3    3    0    0  0.61996404893E+00 -0.54066788159E+01 -0.99233326301E+00  0.55318402730E+01  0.51100000000E-03 0. -1.
        -11    1    3    3    0    0 -0.42526265905E+01 -0.13022328369E+02  0.98714787845E+01  0.16885258740E+02  0.51100000000E-03 0.  1.
         12    1    3    3    0    0 -0.54897783124E+00  0.19185587756E+01  0.28040836990E+02  0.28111755256E+02  0.00000000000E+00 0. -1.
</event>
<event>
 7    1  0.5456331E-013  0.5052886E+02  0.7816164E-02  0.1300439E+00
        -11   -1    0    0    0    0  0.00000000000E+00  0.00000000000E+00  0.45593999997E+02  0.45594000000E+02  0.51100000000E-03 0.  1.
         11   -1    0    0    0    0 -0.00000000000E+00 -0.00000000000E+00 -0.45593999997E+02  0.45594000000E+02  0.51100000000E-03 0. -1.
    9900012    2    1    2    0    0  0.38357170354E+01  0.22971646126E+02  0.33328016322E+02  0.50528856835E+02  0.29999990836E+02 0.  0.
         12    1    1    2    0    0 -0.38357170354E+01 -0.22971646126E+02 -0.33328016322E+02  0.40659143165E+02  0.00000000000E+00 0. -1.
         11    1    3    3    0    0  0.32856442323E+01  0.89730673198E+01  0.86064899829E+01  0.12860134728E+02  0.51100000000E-03 0. -1.
        -11    1    3    3    0    0  0.90235442167E+01  0.45127874352E+01  0.25357191709E+00  0.10092269301E+02  0.51100000000E-03 0.  1.
        -12    1    3    3    0    0 -0.84734714136E+01  0.94857913709E+01  0.24467954422E+02  0.27576452806E+02  0.00000000000E+00 0.  1.
</event>
<event>
 7    1  0.5456331E-013  0.5052886E+02  0.7816164E-02  0.1300439E+00
        -11   -1    0    0    0    0  0.00000000000E+00  0.00000000000E+00  0.45593999997E+02  0.45594000000E+02  0.51100000000E-03 0. -1.
         11   -1    0    0    0    0 -0.00000000000E+00 -0.00000000000E+00 -0.45593999997E+02  0.45594000000E+02  0.51100000000E-03 0.  1.
    9900012    2    1    2    0    0 -0.14898687661E+02  0.30841527900E+02 -0.21908785750E+02  0.50528860434E+02  0.30000001775E+02 0.  0.
         12    1    1    2    0    0  0.14898687661E+02 -0.30841527900E+02  0.21908785750E+02  0.40659139566E+02  0.00000000000E+00 0. -1.
         11    1    3    3    0    0 -0.10879493554E+02  0.34433008434E+02 -0.15778346845E+02  0.39407507904E+02  0.51100000000E-03 0. -1.
        -11    1    3    3    0    0  0.13391409425E+01  0.11616619318E+01 -0.13024434927E+00  0.17775603391E+01  0.51100000000E-03 0.  1.
         12    1    3    3    0    0 -0.53583350486E+01 -0.47531424655E+01 -0.60001945554E+01  0.93437921902E+01  0.00000000000E+00 0. -1.
</event>
<event>
 7    1  0.5456331E-013  0.5052886E+02  0.7816164E-02  0.1300439E+00
        -11   -1    0    0    0    0  0.00000000000E+00  0.00000000000E+00  0.45593999997E+02  0.45594000000E+02  0.51100000000E-03 0. -1.
         11   -1    0    0    0    0 -0.00000000000E+00 -0.00000000000E+00 -0.45593999997E+02  0.45594000000E+02  0.51100000000E-03 0.  1.
    9900012    2    1    2    0    0 -0.37934638017E+02 -0.12415310572E+01 -0.14580371381E+02  0.50528863383E+02  0.30000010740E+02 0.  0.
         12    1    1    2    0    0  0.37934638017E+02  0.12415310572E+01  0.14580371381E+02  0.40659136617E+02  0.00000000000E+00 0. -1.
         11    1    3    3    0    0 -0.19234724125E+02 -0.43458300094E+01 -0.40428136148E+01  0.20129709209E+02  0.51100000000E-03 0. -1.
        -11    1    3    3    0    0 -0.14628457974E+02 -0.58833260911E+01 -0.12761850959E+02  0.20284726983E+02  0.51100000000E-03 0.  1.
        -12    1    3    3    0    0 -0.40714559171E+01  0.89876250433E+01  0.22242931934E+01  0.10114427192E+02  0.00000000000E+00 0.  1.
</event>
<event>
 7    1  0.5456331E-013  0.5052885E+02  0.7816164E-02  0.1300439E+00
        -11   -1    0    0    0    0  0.00000000000E+00  0.00000000000E+00  0.45593999997E+02  0.45594000000E+02  0.51100000000E-03 0.  1.
         11   -1    0    0    0    0 -0.00000000000E+00 -0.00000000000E+00 -0.45593999997E+02  0.45594000000E+02  0.51100000000E-03 0. -1.
    9900012    2    1    2    0    0 -0.40113747080E+02 -0.50998433404E+01 -0.42479434758E+01  0.50528854280E+02  0.29999983069E+02 0.  0.
         12    1    1    2    0    0  0.40113747080E+02  0.50998433404E+01  0.42479434758E+01  0.40659145720E+02  0.00000000000E+00 0. -1.
         11    1    3    3    0    0 -0.12190979546E+02  0.10821835191E+02  0.10174000902E+00  0.16301608831E+02  0.51100000000E-03 0.  1.
        -11    1    3    3    0    0 -0.10454272218E+02 -0.42916597028E+00 -0.27781445493E+01  0.10825621388E+02  0.51100000000E-03 0. -1.
        -12    1    3    3    0    0 -0.17468495317E+02 -0.15492512561E+02 -0.15715389356E+01  0.23401624061E+02  0.00000000000E+00 0.  1.
</event>
<event>
 7    1  0.5456331E-013  0.5052885E+02  0.7816164E-02  0.1300439E+00
        -11   -1    0    0    0    0  0.00000000000E+00  0.00000000000E+00  0.45593999997E+02  0.45594000000E+02  0.51100000000E-03 0.  1.
         11   -1    0    0    0    0 -0.00000000000E+00 -0.00000000000E+00 -0.45593999997E+02  0.45594000000E+02  0.51100000000E-03 0. -1.
    9900012    2    1    2    0    0 -0.39942366041E+02  0.23774315630E+01 -0.72195123410E+01  0.50528854113E+02  0.29999982563E+02 0.  0.
         12    1    1    2    0    0  0.39942366041E+02 -0.23774315630E+01  0.72195123410E+01  0.40659145887E+02  0.00000000000E+00 0. -1.
         11    1    3    3    0    0 -0.13774817248E+02  0.47369018327E+01 -0.13326423334E+02  0.19742780663E+02  0.51100000000E-03 0. -1.
        -11    1    3    3    0    0 -0.27178291006E+01 -0.36068123975E+01 -0.31906929609E+01  0.55295761612E+01  0.51100000000E-03 0.  1.
        -12    1    3    3    0    0 -0.23449719692E+02  0.12473421277E+01  0.92976039534E+01  0.25256497289E+02  0.00000000000E+00 0.  1.
</event>
<event>
 7    1  0.5456331E-013  0.5052886E+02  0.7816164E-02  0.1300439E+00
        -11   -1    0    0    0    0  0.00000000000E+00  0.00000000000E+00  0.45593999997E+02  0.45594000000E+02  0.51100000000E-03 0. -1.
         11   -1    0    0    0    0 -0.00000000000E+00 -0.00000000000E+00 -0.45593999997E+02  0.45594000000E+02  0.51100000000E-03 0.  1.
    9900012    2    1    2    0    0 -0.23626708258E+02  0.29669992602E+02 -0.14650457723E+02  0.50528859384E+02  0.29999998585E+02 0.  0.
         12    1    1    2    0    0  0.23626708258E+02 -0.29669992602E+02  0.14650457723E+02  0.40659140616E+02  0.00000000000E+00 0. -1.
         11    1    3    3    0    0 -0.11416350443E+02  0.15618185669E+02 -0.31267850777E+01  0.19596876441E+02  0.51100000000E-03 0. -1.
        -11    1    3    3    0    0 -0.17875202887E+02  0.12794533797E+02 -0.12114171825E+02  0.25099325341E+02  0.51100000000E-03 0.  1.
         12    1    3    3    0    0  0.56648450720E+01  0.12572731357E+01  0.59049917980E+00  0.58326576025E+01  0.00000000000E+00 0. -1.
</event>
<event>
 7    1  0.5456331E-013  0.5052887E+02  0.7816164E-02  0.1300439E+00
        -11   -1    0    0    0    0  0.00000000000E+00  0.00000000000E+00  0.45593999997E+02  0.45594000000E+02  0.51100000000E-03 0.  1.
         11   -1    0    0    0    0 -0.00000000000E+00 -0.00000000000E+00 -0.45593999997E+02  0.45594000000E+02  0.51100000000E-03 0. -1.
    9900012    2    1    2    0    0  0.65689302652E+01 -0.39199657519E+02 -0.85674479131E+01  0.50528866239E+02  0.30000019421E+02 0.  0.
         12    1    1    2    0    0 -0.65689302652E+01  0.39199657519E+02  0.85674479131E+01  0.40659133761E+02  0.00000000000E+00 0. -1.
         11    1    3    3    0    0 -0.28184122221E+01 -0.19306802794E+02 -0.69447468792E+01  0.20710518850E+02  0.51100000000E-03 0. -1.
        -11    1    3    3    0    0  0.29695745217E+01 -0.22166751133E+02 -0.37673649129E+01  0.22679864799E+02  0.51100000000E-03 0.  1.
         12    1    3    3    0    0  0.64177679657E+01  0.22738964080E+01  0.21446638791E+01  0.71384825901E+01  0.00000000000E+00 0. -1.
</event>
<event>
 7    1  0.5456331E-013  0.5052886E+02  0.7816164E-02  0.1300439E+00
        -11   -1    0    0    0    0  0.00000000000E+00  0.00000000000E+00  0.45593999997E+02  0.45594000000E+02  0.51100000000E-03 0. -1.
         11   -1    0    0    0    0 -0.00000000000E+00 -0.00000000000E+00 -0.45593999997E+02  0.45594000000E+02  0.51100000000E-03 0.  1.
    9900012    2    1    2    0    0  0.19044972980E+02 -0.25432761182E+02 -0.25369849813E+02  0.50528860600E+02  0.30000002281E+02 0.  0.
         12    1    1    2    0    0 -0.19044972980E+02  0.25432761182E+02  0.25369849813E+02  0.40659139400E+02  0.00000000000E+00 0. -1.
         11    1    3    3    0    0 -0.28763244603E+01 -0.10424668791E+02 -0.11243837900E+02  0.15600347842E+02  0.51100000000E-03 0. -1.
        -11    1    3    3    0    0  0.23991291388E+02 -0.12861900654E+02 -0.15834518095E+02  0.31491943643E+02  0.51100000000E-03 0.  1.
         12    1    3    3    0    0 -0.20699939471E+01 -0.21461917363E+01  0.17085061813E+01  0.34365691149E+01  0.00000000000E+00 0. -1.
</event>
<event>
 7    1  0.5456331E-013  0.5052886E+02  0.7816164E-02  0.1300439E+00
        -11   -1    0    0    0    0  0.00000000000E+00  0.00000000000E+00  0.45593999997E+02  0.45594000000E+02  0.51100000000E-03 0.  1.
         11   -1    0    0    0    0 -0.00000000000E+00 -0.00000000000E+00 -0.45593999997E+02  0.45594000000E+02  0.51100000000E-03 0. -1.
    9900012    2    1    2    0    0  0.37754412963E+02 -0.14306004340E+02  0.48070882980E+01  0.50528861344E+02  0.30000004542E+02 0.  0.
         12    1    1    2    0    0 -0.37754412963E+02  0.14306004340E+02 -0.48070882980E+01  0.40659138656E+02  0.00000000000E+00 0. -1.
         11    1    3    3    0    0  0.18771450673E+01  0.57305264552E+00  0.77193414444E+01  0.79649416530E+01  0.51100000000E-03 0. -1.
        -11    1    3    3    0    0  0.10796103967E+02  0.13342454073E+01  0.45324693682E+01  0.11784708333E+02  0.51100000000E-03 0.  1.
        -12    1    3    3    0    0  0.25081163929E+02 -0.16213302393E+02 -0.74447225146E+01  0.30779211358E+02  0.00000000000E+00 0.  1.
</event>
<event>
 7    1  0.5456331E-013  0.5052884E+02  0.7816164E-02  0.1300439E+00
        -11   -1    0    0    0    0  0.00000000000E+00  0.00000000000E+00  0.45593999997E+02  0.45594000000E+02  0.51100000000E-03 0.  1.
         11   -1    0    0    0    0 -0.00000000000E+00 -0.00000000000E+00 -0.45593999997E+02  0.45594000000E+02  0.51100000000E-03 0. -1.
    9900012    2    1    2    0    0  0.68399770587E+01 -0.11699111339E+02  0.38334222869E+02  0.50528841927E+02  0.29999945521E+02 0.  0.
         12    1    1    2    0    0 -0.68399770587E+01  0.11699111339E+02 -0.38334222869E+02  0.40659158073E+02  0.00000000000E+00 0. -1.
         11    1    3    3    0    0 -0.33043630210E+01  0.46972777711E+01  0.37673039261E+01  0.68684650808E+01  0.51100000000E-03 0. -1.
        -11    1    3    3    0    0  0.75194526308E+00  0.43750256316E+00 -0.20789613730E+01  0.22536438989E+01  0.51100000000E-03 0.  1.
        -12    1    3    3    0    0  0.93923948166E+01 -0.16833891673E+02  0.36645880315E+02  0.41406732947E+02  0.00000000000E+00 0.  1.
</event>
<event>
 7    1  0.5456331E-013  0.5052885E+02  0.7816164E-02  0.1300439E+00
        -11   -1    0    0    0    0  0.00000000000E+00  0.00000000000E+00  0.45593999997E+02  0.45594000000E+02  0.51100000000E-03 0.  1.
         11   -1    0    0    0    0 -0.00000000000E+00 -0.00000000000E+00 -0.45593999997E+02  0.45594000000E+02  0.51100000000E-03 0. -1.
    9900012    2    1    2    0    0  0.62438379396E+01  0.17282284967E+02  0.36269867455E+02  0.50528853783E+02  0.29999981559E+02 0.  0.
         12    1    1    2    0    0 -0.62438379396E+01 -0.17282284967E+02 -0.36269867455E+02  0.40659146217E+02  0.00000000000E+00 0. -1.
         11    1    3    3    0    0  0.43732009724E+00  0.74369578588E+00 -0.14511909697E+01  0.16882795328E+01  0.51100000000E-03 0.  1.
        -11    1    3    3    0    0  0.25769593140E+01  0.84481541487E+01 -0.12386300482E+01  0.89188694622E+01  0.51100000000E-03 0. -1.
        -12    1    3    3    0    0  0.32295585283E+01  0.80904350324E+01  0.38959688473E+02  0.39921704788E+02  0.00000000000E+00 0.  1.
</event>
<event>
 7    1  0.5456331E-013  0.5052886E+02  0.7816164E-02  0.1300439E+00
        -11   -1    0    0    0    0  0.00000000000E+00  0.00000000000E+00  0.45593999997E+02  0.45594000000E+02  0.51100000000E-03 0.  1.
         11   -1    0    0    0    0 -0.00000000000E+00 -0.00000000000E+00 -0.45593999997E+02  0.45594000000E+02  0.51100000000E-03 0. -1.
    9900012    2    1    2    0    0 -0.40220519398E+02  0.45214123140E+01  0.38771416752E+01  0.50528861083E+02  0.30000003747E+02 0.  0.
         12    1    1    2    0    0  0.40220519398E+02 -0.45214123140E+01 -0.38771416752E+01  0.40659138917E+02  0.00000000000E+00 0. -1.
         11    1    3    3    0    0 -0.78258225834E+01  0.51666731034E+01 -0.36853243809E+01  0.10075694821E+02  0.51100000000E-03 0. -1.
        -11    1    3    3    0    0 -0.18419761821E+02 -0.57391057692E+00 -0.75087335437E+01  0.19899700465E+02  0.51100000000E-03 0.  1.
        -12    1    3    3    0    0 -0.13974934993E+02 -0.71350212547E-01  0.15071199600E+02  0.20553465798E+02  0.00000000000E+00 0.  1.
</event>
<event>
 7    1  0.5456331E-013  0.5052887E+02  0.7816164E-02  0.1300439E+00
        -11   -1    0    0    0    0  0.00000000000E+00  0.00000000000E+00  0.45593999997E+02  0.45594000000E+02  0.51100000000E-03 0.  1.
         11   -1    0    0    0    0 -0.00000000000E+00 -0.00000000000E+00 -0.45593999997E+02  0.45594000000E+02  0.51100000000E-03 0. -1.
    9900012    2    1    2    0    0 -0.13406468603E+02 -0.10334761212E+01  0.38371390231E+02  0.50528867427E+02  0.30000023031E+02 0.  0.
         12    1    1    2    0    0  0.13406468603E+02  0.10334761212E+01 -0.38371390231E+02  0.40659132573E+02  0.00000000000E+00 0. -1.
         11    1    3    3    0    0  0.55962720100E+00  0.19020706997E+01 -0.14518805922E+01  0.24574403484E+01  0.51100000000E-03 0. -1.
        -11    1    3    3    0    0 -0.17516362620E+02  0.41344939752E+01  0.21024441913E+02  0.27675696159E+02  0.51100000000E-03 0.  1.
        -12    1    3    3    0    0  0.35502668162E+01 -0.70700407962E+01  0.18798828911E+02  0.20395730919E+02  0.00000000000E+00 0.  1.
</event>
<event>
 7    1  0.5456331E-013  0.5052886E+02  0.7816164E-02  0.1300439E+00
        -11   -1    0    0    0    0  0.00000000000E+00  0.00000000000E+00  0.45593999997E+02  0.45594000000E+02  0.51100000000E-03 0.  1.
         11   -1    0    0    0    0 -0.00000000000E+00 -0.00000000000E+00 -0.45593999997E+02  0.45594000000E+02  0.51100000000E-03 0. -1.
    9900012    2    1    2    0    0 -0.17708084646E+02 -0.24373004430E+01  0.36519163791E+02  0.50528855650E+02  0.29999987235E+02 0.  0.
         12    1    1    2    0    0  0.17708084646E+02  0.24373004430E+01 -0.36519163791E+02  0.40659144350E+02  0.00000000000E+00 0. -1.
         11    1    3    3    0    0 -0.14271491507E+02  0.14114287360E+01  0.18560782372E+02  0.23455708121E+02  0.51100000000E-03 0. -1.
        -11    1    3    3    0    0 -0.58943596613E+01  0.40506999926E+01  0.17363568045E+02  0.18778848255E+02  0.51100000000E-03 0.  1.
         12    1    3    3    0    0  0.24577665221E+01 -0.78994291716E+01  0.59481337315E+00  0.82942992750E+01  0.00000000000E+00 0. -1.
</event>
<event>
 7    1  0.5456331E-013  0.5052886E+02  0.7816164E-02  0.1300439E+00
        -11   -1    0    0    0    0  0.00000000000E+00  0.00000000000E+00  0.45593999997E+02  0.45594000000E+02  0.51100000000E-03 0. -1.
         11   -1    0    0    0    0 -0.00000000000E+00 -0.00000000000E+00 -0.45593999997E+02  0.45594000000E+02  0.51100000000E-03 0.  1.
    9900012    2    1    2    0    0  0.17817380728E+02  0.33310507186E+02 -0.15037179947E+02  0.50528859259E+02  0.29999998203E+02 0.  0.
         12    1    1    2    0    0 -0.17817380728E+02 -0.33310507186E+02  0.15037179947E+02  0.40659140741E+02  0.00000000000E+00 0. -1.
         11    1    3    3    0    0 -0.47664763630E+01  0.13963713267E+01 -0.11727343921E+01  0.51033769228E+01  0.51100000000E-03 0. -1.
        -11    1    3    3    0    0  0.79055658310E+01  0.12005729319E+01 -0.71544863952E+01  0.10729679507E+02  0.51100000000E-03 0.  1.
        -12    1    3    3    0    0  0.14678291260E+02  0.30713562928E+02 -0.67099591602E+01  0.34695802829E+02  0.00000000000E+00 0.  1.
</event>
<event>
 7    1  0.5456331E-013  0.5052883E+02  0.7816164E-02  0.1300439E+00
        -11   -1    0    0    0    0  0.00000000000E+00  0.00000000000E+00  0.45593999997E+02  0.45594000000E+02  0.51100000000E-03 0.  1.
         11   -1    0    0    0    0 -0.00000000000E+00 -0.00000000000E+00 -0.45593999997E+02  0.45594000000E+02  0.51100000000E-03 0. -1.
    9900012    2    1    2    0    0 -0.22368875503E+02  0.33138105925E+02  0.73937438082E+01  0.50528830025E+02  0.29999909344E+02 0.  0.
         12    1    1    2    0    0  0.22368875503E+02 -0.33138105925E+02 -0.73937438082E+01  0.40659169975E+02  0.00000000000E+00 0. -1.
         11    1    3    3    0    0  0.17882771064E+01  0.11106804442E+02 -0.45391230213E+01  0.12131062525E+02  0.51100000000E-03 0. -1.
        -11    1    3    3    0    0 -0.14896323087E+02  0.22366067775E+02  0.11162758320E+02  0.29098945046E+02  0.51100000000E-03 0.  1.
         12    1    3    3    0    0 -0.92608295220E+01 -0.33476629251E+00  0.77010850956E+00  0.92988224535E+01  0.00000000000E+00 0. -1.
</event>
<event>
 7    1  0.5456331E-013  0.5052885E+02  0.7816164E-02  0.1300439E+00
        -11   -1    0    0    0    0  0.00000000000E+00  0.00000000000E+00  0.45593999997E+02  0.45594000000E+02  0.51100000000E-03 0.  1.
         11   -1    0    0    0    0 -0.00000000000E+00 -0.00000000000E+00 -0.45593999997E+02  0.45594000000E+02  0.51100000000E-03 0. -1.
    9900012    2    1    2    0    0 -0.16093586562E+02  0.19995356538E+02  0.31533289533E+02  0.50528853915E+02  0.29999981961E+02 0.  0.
         12    1    1    2    0    0  0.16093586562E+02 -0.19995356538E+02 -0.31533289533E+02  0.40659146085E+02  0.00000000000E+00 0. -1.
         11    1    3    3    0    0  0.51651275073E+01 -0.14641999636E+01  0.15213290972E+01  0.55800417726E+01  0.51100000000E-03 0. -1.
        -11    1    3    3    0    0 -0.10188721472E+02  0.17452730125E+01  0.13240369389E+02  0.16797720230E+02  0.51100000000E-03 0.  1.
         12    1    3    3    0    0 -0.11069992598E+02  0.19714283490E+02  0.16771591047E+02  0.28151091913E+02  0.00000000000E+00 0. -1.
</event>
<event>
 7    1  0.5456331E-013  0.5052887E+02  0.7816164E-02  0.1300439E+00
        -11   -1    0    0    0    0  0.00000000000E+00  0.00000000000E+00  0.45593999997E+02  0.45594000000E+02  0.51100000000E-03 0.  1.
         11   -1    0    0    0    0 -0.00000000000E+00 -0.00000000000E+00 -0.45593999997E+02  0.45594000000E+02  0.51100000000E-03 0. -1.
    9900012    2    1    2    0    0  0.39391463833E+02  0.36487809216E+01 -0.93895751975E+01  0.50528866370E+02  0.30000019819E+02 0.  0.
         12    1    1    2    0    0 -0.39391463833E+02 -0.36487809216E+01  0.93895751975E+01  0.40659133630E+02  0.00000000000E+00 0. -1.
         11    1    3    3    0    0  0.67465575713E+01 -0.69885870779E+01 -0.11557139174E+02  0.15097147232E+02  0.51100000000E-03 0. -1.
        -11    1    3    3    0    0  0.91637806936E+01 -0.55464991412E-01  0.29250138051E+01  0.96194417190E+01  0.51100000000E-03 0.  1.
        -12    1    3    3    0    0  0.23481125568E+02  0.10692832991E+02 -0.75744982896E+00  0.25812277419E+02  0.00000000000E+00 0.  1.
</event>
<event>
 7    1  0.5456331E-013  0.5052886E+02  0.7816164E-02  0.1300439E+00
        -11   -1    0    0    0    0  0.00000000000E+00  0.00000000000E+00  0.45593999997E+02  0.45594000000E+02  0.51100000000E-03 0. -1.
         11   -1    0    0    0    0 -0.00000000000E+00 -0.00000000000E+00 -0.45593999997E+02  0.45594000000E+02  0.51100000000E-03 0.  1.
    9900012    2    1    2    0    0 -0.16071799078E+02 -0.37006733536E+02  0.50363620429E+01  0.50528855945E+02  0.29999988132E+02 0.  0.
         12    1    1    2    0    0  0.16071799078E+02  0.37006733536E+02 -0.50363620429E+01  0.40659144055E+02  0.00000000000E+00 0. -1.
         11    1    3    3    0    0 -0.92091726373E+01 -0.10376626918E+02 -0.18157588857E+01  0.13992148779E+02  0.51100000000E-03 0. -1.
        -11    1    3    3    0    0 -0.13857977814E+02 -0.24988137749E+02  0.67049199306E+01  0.29349727917E+02  0.51100000000E-03 0.  1.
         12    1    3    3    0    0  0.69953513732E+01 -0.16419688692E+01  0.14720099799E+00  0.71869792497E+01  0.00000000000E+00 0. -1.
</event>
<event>
 7    1  0.5456331E-013  0.5052886E+02  0.7816164E-02  0.1300439E+00
        -11   -1    0    0    0    0  0.00000000000E+00  0.00000000000E+00  0.45593999997E+02  0.45594000000E+02  0.51100000000E-03 0.  1.
         11   -1    0    0    0    0 -0.00000000000E+00 -0.00000000000E+00 -0.45593999997E+02  0.45594000000E+02  0.51100000000E-03 0. -1.
    9900012    2    1    2    0    0  0.25820868639E+02  0.13632283339E+02  0.28295036001E+02  0.50528862421E+02  0.30000007816E+02 0.  0.
         12    1    1    2    0    0 -0.25820868639E+02 -0.13632283339E+02 -0.28295036001E+02  0.40659137579E+02  0.00000000000E+00 0. -1.
         11    1    3    3    0    0  0.11854973254E+02  0.91087775482E+01  0.12899503782E+02  0.19746073467E+02  0.51100000000E-03 0. -1.
        -11    1    3    3    0    0  0.82092985578E+01  0.12405491890E+02  0.14831391573E+02  0.21006165479E+02  0.51100000000E-03 0.  1.
         12    1    3    3    0    0  0.57565968278E+01 -0.78819861001E+01  0.56414064549E+00  0.97766234758E+01  0.00000000000E+00 0. -1.
</event>
<event>
 7    1  0.5456331E-013  0.5052887E+02  0.7816164E-02  0.1300439E+00
        -11   -1    0    0    0    0  0.00000000000E+00  0.00000000000E+00  0.45593999997E+02  0.45594000000E+02  0.51100000000E-03 0.  1.
         11   -1    0    0    0    0 -0.00000000000E+00 -0.00000000000E+00 -0.45593999997E+02  0.45594000000E+02  0.51100000000E-03 0. -1.
    9900012    2    1    2    0    0 -0.13806348881E+02 -0.36620370909E+02  0.11022632313E+02  0.50528865011E+02  0.30000015687E+02 0.  0.
         12    1    1    2    0    0  0.13806348881E+02  0.36620370909E+02 -0.11022632313E+02  0.40659134989E+02  0.00000000000E+00 0. -1.
         11    1    3    3    0    0 -0.98030088036E+01 -0.20824965447E+02 -0.48662771415E+01  0.23525705536E+02  0.51100000000E-03 0. -1.
        -11    1    3    3    0    0 -0.27250124227E+01 -0.18243221525E+01 -0.23195888228E+01  0.40167569739E+01  0.51100000000E-03 0.  1.
        -12    1    3    3    0    0 -0.12783276548E+01 -0.13971083310E+02  0.18208498277E+02  0.22986402501E+02  0.00000000000E+00 0.  1.
</event>
<event>
 7    1  0.5456331E-013  0.5052885E+02  0.7816164E-02  0.1300439E+00
        -11   -1    0    0    0    0  0.00000000000E+00  0.00000000000E+00  0.45593999997E+02  0.45594000000E+02  0.51100000000E-03 0.  1.
         11   -1    0    0    0    0 -0.00000000000E+00 -0.00000000000E+00 -0.45593999997E+02  0.45594000000E+02  0.51100000000E-03 0. -1.
    9900012    2    1    2    0    0  0.22951942545E+01  0.11924382911E+02  0.38803450823E+02  0.50528848259E+02  0.29999964769E+02 0.  0.
         12    1    1    2    0    0 -0.22951942545E+01 -0.11924382911E+02 -0.38803450823E+02  0.40659151741E+02  0.00000000000E+00 0. -1.
         11    1    3    3    0    0 -0.56862331355E+01  0.37557792607E+01  0.43004033292E+01  0.80580763325E+01  0.51100000000E-03 0. -1.
        -11    1    3    3    0    0 -0.54852393847E+01 -0.38244708980E+01  0.10502768094E+02  0.12450805863E+02  0.51100000000E-03 0.  1.
        -12    1    3    3    0    0  0.13466666775E+02  0.11993074548E+02  0.24000279400E+02  0.30019966063E+02  0.00000000000E+00 0.  1.
</event>
<event>
 7    1  0.5456331E-013  0.5052886E+02  0.7816164E-02  0.1300439E+00
        -11   -1    0    0    0    0  0.00000000000E+00  0.00000000000E+00  0.45593999997E+02  0.45594000000E+02  0.51100000000E-03 0.  1.
         11   -1    0    0    0    0 -0.00000000000E+00 -0.00000000000E+00 -0.45593999997E+02  0.45594000000E+02  0.51100000000E-03 0. -1.
    9900012    2    1    2    0    0  0.68416566872E+01  0.14174981779E+02  0.37489032434E+02  0.50528856779E+02  0.29999990665E+02 0.  0.
         12    1    1    2    0    0 -0.68416566872E+01 -0.14174981779E+02 -0.37489032434E+02  0.40659143221E+02  0.00000000000E+00 0. -1.
         11    1    3    3    0    0 -0.35774959095E-02  0.43567934720E+01  0.26026150026E+01  0.50749647554E+01  0.51100000000E-03 0. -1.
        -11    1    3    3    0    0  0.10238667803E+02 -0.67019921163E+01  0.13572093155E+02  0.18274264132E+02  0.51100000000E-03 0.  1.
        -12    1    3    3    0    0 -0.33934336197E+01  0.16520180424E+02  0.21314324276E+02  0.27179627891E+02  0.00000000000E+00 0.  1.
</event>
<event>
 7    1  0.5456331E-013  0.5052886E+02  0.7816164E-02  0.1300439E+00
        -11   -1    0    0    0    0  0.00000000000E+00  0.00000000000E+00  0.45593999997E+02  0.45594000000E+02  0.51100000000E-03 0.  1.
         11   -1    0    0    0    0 -0.00000000000E+00 -0.00000000000E+00 -0.45593999997E+02  0.45594000000E+02  0.51100000000E-03 0. -1.
    9900012    2    1    2    0    0  0.16026084419E+02 -0.21502521475E+02  0.30560954920E+02  0.50528858627E+02  0.29999996283E+02 0.  0.
         12    1    1    2    0    0 -0.16026084419E+02  0.21502521475E+02 -0.30560954920E+02  0.40659141373E+02  0.00000000000E+00 0. -1.
         11    1    3    3    0    0  0.55895175865E+01 -0.13832212292E+02  0.11745923843E+01  0.14965041640E+02  0.51100000000E-03 0. -1.
        -11    1    3    3    0    0  0.22894149858E+01 -0.70941618693E+01  0.31625634276E+01  0.80975527970E+01  0.51100000000E-03 0.  1.
         12    1    3    3    0    0  0.81471518467E+01 -0.57614731311E+00  0.26223799108E+02  0.27466264190E+02  0.00000000000E+00 0. -1.
</event>
<event>
 7    1  0.5456331E-013  0.5052886E+02  0.7816164E-02  0.1300439E+00
        -11   -1    0    0    0    0  0.00000000000E+00  0.00000000000E+00  0.45593999997E+02  0.45594000000E+02  0.51100000000E-03 0.  1.
         11   -1    0    0    0    0 -0.00000000000E+00 -0.00000000000E+00 -0.45593999997E+02  0.45594000000E+02  0.51100000000E-03 0. -1.
    9900012    2    1    2    0    0 -0.14075353320E+02 -0.25023925263E+02  0.28789809841E+02  0.50528861330E+02  0.30000004500E+02 0.  0.
         12    1    1    2    0    0  0.14075353320E+02  0.25023925263E+02 -0.28789809841E+02  0.40659138670E+02  0.00000000000E+00 0. -1.
         11    1    3    3    0    0 -0.61489577240E+01  0.19585612849E+01 -0.21963681696E+01  0.68168670807E+01  0.51100000000E-03 0. -1.
        -11    1    3    3    0    0 -0.29512639698E+01 -0.45977303284E+01  0.39118554740E+00  0.54774181496E+01  0.51100000000E-03 0.  1.
        -12    1    3    3    0    0 -0.49751316262E+01 -0.22384756220E+02  0.30594992463E+02  0.38234576100E+02  0.00000000000E+00 0.  1.
</event>
<event>
 7    1  0.5456331E-013  0.5052886E+02  0.7816164E-02  0.1300439E+00
        -11   -1    0    0    0    0  0.00000000000E+00  0.00000000000E+00  0.45593999997E+02  0.45594000000E+02  0.51100000000E-03 0. -1.
         11   -1    0    0    0    0 -0.00000000000E+00 -0.00000000000E+00 -0.45593999997E+02  0.45594000000E+02  0.51100000000E-03 0.  1.
    9900012    2    1    2    0    0 -0.36701680902E+02  0.12319885773E+02  0.12424688777E+02  0.50528857638E+02  0.29999993275E+02 0.  0.
         12    1    1    2    0    0  0.36701680902E+02 -0.12319885773E+02 -0.12424688777E+02  0.40659142362E+02  0.00000000000E+00 0. -1.
         11    1    3    3    0    0 -0.38365645645E+01  0.52823615930E+01 -0.36103787354E+01  0.74603891675E+01  0.51100000000E-03 0. -1.
        -11    1    3    3    0    0 -0.13140532748E+02 -0.49579142049E+01 -0.14346376419E+01  0.14117814972E+02  0.51100000000E-03 0.  1.
        -12    1    3    3    0    0 -0.19724583589E+02  0.11995438384E+02  0.17469705154E+02  0.28950653498E+02  0.00000000000E+00 0.  1.
</event>
<event>
 7    1  0.5456331E-013  0.5052886E+02  0.7816164E-02  0.1300439E+00
        -11   -1    0    0    0    0  0.00000000000E+00  0.00000000000E+00  0.45593999997E+02  0.45594000000E+02  0.51100000000E-03 0. -1.
         11   -1    0    0    0    0 -0.00000000000E+00 -0.00000000000E+00 -0.45593999997E+02  0.45594000000E+02  0.51100000000E-03 0.  1.
    9900012    2    1    2    0    0  0.39017132958E+02  0.10872347598E+02  0.35525948330E+01  0.50528861586E+02  0.30000005276E+02 0.  0.
         12    1    1    2    0    0 -0.39017132958E+02 -0.10872347598E+02 -0.35525948330E+01  0.40659138414E+02  0.00000000000E+00 0. -1.
         11    1    3    3    0    0  0.43629926083E+01  0.78607668951E+01  0.43580434254E+01  0.99909911139E+01  0.51100000000E-03 0. -1.
        -11    1    3    3    0    0  0.15538349980E+02  0.11717896791E+02 -0.15189855054E+01  0.19520674746E+02  0.51100000000E-03 0.  1.
        -12    1    3    3    0    0  0.19115790369E+02 -0.87063160876E+01  0.71353691303E+00  0.21017195726E+02  0.00000000000E+00 0.  1.
</event>
<event>
 7    1  0.5456331E-013  0.5052885E+02  0.7816164E-02  0.1300439E+00
        -11   -1    0    0    0    0  0.00000000000E+00  0.00000000000E+00  0.45593999997E+02  0.45594000000E+02  0.51100000000E-03 0.  1.
         11   -1    0    0    0    0 -0.00000000000E+00 -0.00000000000E+00 -0.45593999997E+02  0.45594000000E+02  0.51100000000E-03 0. -1.
    9900012    2    1    2    0    0 -0.28091627868E+02  0.39551440109E+01  0.29127027394E+02  0.50528850412E+02  0.29999971312E+02 0.  0.
         12    1    1    2    0    0  0.28091627868E+02 -0.39551440109E+01 -0.29127027394E+02  0.40659149588E+02  0.00000000000E+00 0. -1.
         11    1    3    3    0    0 -0.71388056575E+01  0.25832675354E+01  0.42528127956E+01  0.87018523494E+01  0.51100000000E-03 0. -1.
        -11    1    3    3    0    0 -0.21126354259E+02  0.71741886152E+01  0.75467539832E+01  0.23553032130E+02  0.51100000000E-03 0.  1.
         12    1    3    3    0    0  0.17353204830E+00 -0.58023121397E+01  0.17327460615E+02  0.18273965933E+02  0.00000000000E+00 0. -1.
</event>
<event>
 7    1  0.5456331E-013  0.5052883E+02  0.7816164E-02  0.1300439E+00
        -11   -1    0    0    0    0  0.00000000000E+00  0.00000000000E+00  0.45593999997E+02  0.45594000000E+02  0.51100000000E-03 0. -1.
         11   -1    0    0    0    0 -0.00000000000E+00 -0.00000000000E+00 -0.45593999997E+02  0.45594000000E+02  0.51100000000E-03 0.  1.
    9900012    2    1    2    0    0 -0.40555223771E+02  0.28091476131E+01  0.74196108795E+00  0.50528831395E+02  0.29999913507E+02 0.  0.
         12    1    1    2    0    0  0.40555223771E+02 -0.28091476131E+01 -0.74196108795E+00  0.40659168605E+02  0.00000000000E+00 0. -1.
         11    1    3    3    0    0 -0.72406019562E+01 -0.67222816688E+00  0.62945465590E+01  0.96176672869E+01  0.51100000000E-03 0. -1.
        -11    1    3    3    0    0 -0.16162868494E+02 -0.87301304871E+01  0.21421243481E+01  0.18494382749E+02  0.51100000000E-03 0.  1.
         12    1    3    3    0    0 -0.17151753320E+02  0.12211506267E+02 -0.76947098192E+01  0.22416781359E+02  0.00000000000E+00 0. -1.
</event>
<event>
 7    1  0.5456331E-013  0.5052887E+02  0.7816164E-02  0.1300439E+00
        -11   -1    0    0    0    0  0.00000000000E+00  0.00000000000E+00  0.45593999997E+02  0.45594000000E+02  0.51100000000E-03 0.  1.
         11   -1    0    0    0    0 -0.00000000000E+00 -0.00000000000E+00 -0.45593999997E+02  0.45594000000E+02  0.51100000000E-03 0. -1.
    9900012    2    1    2    0    0  0.35406758352E+02  0.19351066738E+02  0.50062733115E+01  0.50528867036E+02  0.30000021842E+02 0.  0.
         12    1    1    2    0    0 -0.35406758352E+02 -0.19351066738E+02 -0.50062733115E+01  0.40659132964E+02  0.00000000000E+00 0. -1.
         11    1    3    3    0    0  0.22196458496E+02  0.11521797384E+02 -0.14860693769E+01  0.25052803979E+02  0.51100000000E-03 0. -1.
        -11    1    3    3    0    0  0.17690270536E+02  0.67577719773E+01  0.20009721237E+01  0.19042506228E+02  0.51100000000E-03 0.  1.
         12    1    3    3    0    0 -0.44799706801E+01  0.10714973768E+01  0.44913705647E+01  0.64335568291E+01  0.00000000000E+00 0. -1.
</event>
<event>
 7    1  0.5456331E-013  0.5052889E+02  0.7816164E-02  0.1300439E+00
        -11   -1    0    0    0    0  0.00000000000E+00  0.00000000000E+00  0.45593999997E+02  0.45594000000E+02  0.51100000000E-03 0. -1.
         11   -1    0    0    0    0 -0.00000000000E+00 -0.00000000000E+00 -0.45593999997E+02  0.45594000000E+02  0.51100000000E-03 0.  1.
    9900012    2    1    2    0    0 -0.24800085233E+02 -0.32097683901E+02  0.28032040748E+01  0.50528886724E+02  0.30000081686E+02 0.  0.
         12    1    1    2    0    0  0.24800085233E+02  0.32097683901E+02 -0.28032040748E+01  0.40659113276E+02  0.00000000000E+00 0. -1.
         11    1    3    3    0    0 -0.74694855482E+01 -0.87223357598E+01 -0.13642861785E+01  0.11564325856E+02  0.51100000000E-03 0. -1.
        -11    1    3    3    0    0 -0.73177398824E+01 -0.21926514639E+02 -0.67493016039E+01  0.24080582086E+02  0.51100000000E-03 0.  1.
         12    1    3    3    0    0 -0.10012859802E+02 -0.14488335017E+01  0.10916791857E+02  0.14883978782E+02  0.00000000000E+00 0. -1.
</event>
<event>
 7    1  0.5456331E-013  0.5052887E+02  0.7816164E-02  0.1300439E+00
        -11   -1    0    0    0    0  0.00000000000E+00  0.00000000000E+00  0.45593999997E+02  0.45594000000E+02  0.51100000000E-03 0.  1.
         11   -1    0    0    0    0 -0.00000000000E+00 -0.00000000000E+00 -0.45593999997E+02  0.45594000000E+02  0.51100000000E-03 0. -1.
    9900012    2    1    2    0    0 -0.40310059561E+02  0.53163683695E+01  0.16048046712E-01  0.50528869021E+02  0.30000027875E+02 0.  0.
         12    1    1    2    0    0  0.40310059561E+02 -0.53163683695E+01 -0.16048046712E-01  0.40659130979E+02  0.00000000000E+00 0. -1.
         11    1    3    3    0    0 -0.86985777862E+01  0.59940491128E+00  0.12522237706E+02  0.15258800057E+02  0.51100000000E-03 0. -1.
        -11    1    3    3    0    0 -0.88593209831E+01  0.17072097088E-01 -0.72564473312E+01  0.11451807188E+02  0.51100000000E-03 0.  1.
        -12    1    3    3    0    0 -0.22752160792E+02  0.46998913611E+01 -0.52497423282E+01  0.23818261776E+02  0.00000000000E+00 0.  1.
</event>
<event>
 7    1  0.5456331E-013  0.5052884E+02  0.7816164E-02  0.1300439E+00
        -11   -1    0    0    0    0  0.00000000000E+00  0.00000000000E+00  0.45593999997E+02  0.45594000000E+02  0.51100000000E-03 0.  1.
         11   -1    0    0    0    0 -0.00000000000E+00 -0.00000000000E+00 -0.45593999997E+02  0.45594000000E+02  0.51100000000E-03 0. -1.
    9900012    2    1    2    0    0  0.18922673255E+02  0.33103100401E+02  0.14116811648E+02  0.50528841249E+02  0.29999943459E+02 0.  0.
         12    1    1    2    0    0 -0.18922673255E+02 -0.33103100401E+02 -0.14116811648E+02  0.40659158751E+02  0.00000000000E+00 0. -1.
         11    1    3    3    0    0  0.21485399734E+02  0.19709081772E+02  0.32001803425E+01  0.29331066474E+02  0.51100000000E-03 0. -1.
        -11    1    3    3    0    0  0.19162660888E+01  0.10238501066E+01 -0.18589275365E+01  0.28593629730E+01  0.51100000000E-03 0.  1.
        -12    1    3    3    0    0 -0.44789925676E+01  0.12370168522E+02  0.12775558842E+02  0.18338411801E+02  0.00000000000E+00 0.  1.
</event>
<event>
 7    1  0.5456331E-013  0.5052886E+02  0.7816164E-02  0.1300439E+00
        -11   -1    0    0    0    0  0.00000000000E+00  0.00000000000E+00  0.45593999997E+02  0.45594000000E+02  0.51100000000E-03 0.  1.
         11   -1    0    0    0    0 -0.00000000000E+00 -0.00000000000E+00 -0.45593999997E+02  0.45594000000E+02  0.51100000000E-03 0. -1.
    9900012    2    1    2    0    0 -0.28787693419E+02  0.58669831706E+01 -0.28107166342E+02  0.50528861006E+02  0.30000003515E+02 0.  0.
         12    1    1    2    0    0  0.28787693419E+02 -0.58669831706E+01  0.28107166342E+02  0.40659138994E+02  0.00000000000E+00 0. -1.
         11    1    3    3    0    0 -0.49381466861E+01 -0.15512693705E+01 -0.93556100327E+01  0.10692014249E+02  0.51100000000E-03 0. -1.
        -11    1    3    3    0    0 -0.21541183107E+02  0.23658813326E+01 -0.23900855080E+02  0.32262529938E+02  0.51100000000E-03 0.  1.
        -12    1    3    3    0    0 -0.23083636257E+01  0.50523712086E+01  0.51492987710E+01  0.75743168200E+01  0.00000000000E+00 0.  1.
</event>
<event>
 7    1  0.5456331E-013  0.5052885E+02  0.7816164E-02  0.1300439E+00
        -11   -1    0    0    0    0  0.00000000000E+00  0.00000000000E+00  0.45593999997E+02  0.45594000000E+02  0.51100000000E-03 0.  1.
         11   -1    0    0    0    0 -0.00000000000E+00 -0.00000000000E+00 -0.45593999997E+02  0.45594000000E+02  0.51100000000E-03 0. -1.
    9900012    2    1    2    0    0 -0.39420213448E+02  0.90292095198E+00 -0.99195788980E+01  0.50528849246E+02  0.29999967768E+02 0.  0.
         12    1    1    2    0    0  0.39420213448E+02 -0.90292095198E+00  0.99195788980E+01  0.40659150754E+02  0.00000000000E+00 0. -1.
         11    1    3    3    0    0 -0.52681471402E+01  0.21084765724E-02  0.24426477235E+01  0.58068844400E+01  0.51100000000E-03 0. -1.
        -11    1    3    3    0    0 -0.30217160089E+02  0.52826636744E+01  0.38735158363E+00  0.30677896617E+02  0.51100000000E-03 0.  1.
         12    1    3    3    0    0 -0.39349062187E+01 -0.43818511990E+01 -0.12749578205E+02  0.14044068189E+02  0.00000000000E+00 0. -1.
</event>
<event>
 7    1  0.5456331E-013  0.5052886E+02  0.7816164E-02  0.1300439E+00
        -11   -1    0    0    0    0  0.00000000000E+00  0.00000000000E+00  0.45593999997E+02  0.45594000000E+02  0.51100000000E-03 0. -1.
         11   -1    0    0    0    0 -0.00000000000E+00 -0.00000000000E+00 -0.45593999997E+02  0.45594000000E+02  0.51100000000E-03 0.  1.
    9900012    2    1    2    0    0  0.33760857180E+02 -0.22258641030E+02  0.42335223026E+01  0.50528864629E+02  0.30000014525E+02 0.  0.
         12    1    1    2    0    0 -0.33760857180E+02  0.22258641030E+02 -0.42335223026E+01  0.40659135371E+02  0.00000000000E+00 0. -1.
         11    1    3    3    0    0  0.45561383114E+00  0.15600369302E+00  0.47847913219E+01  0.48089655198E+01  0.51100000000E-03 0. -1.
        -11    1    3    3    0    0  0.10981945150E+02 -0.30712633766E+01  0.91596583759E+01  0.14626521111E+02  0.51100000000E-03 0.  1.
        -12    1    3    3    0    0  0.22323298200E+02 -0.19343381347E+02 -0.97109273951E+01  0.31093377998E+02  0.00000000000E+00 0.  1.
</event>
<event>
 7    1  0.5456331E-013  0.5052886E+02  0.7816164E-02  0.1300439E+00
        -11   -1    0    0    0    0  0.00000000000E+00  0.00000000000E+00  0.45593999997E+02  0.45594000000E+02  0.51100000000E-03 0. -1.
         11   -1    0    0    0    0 -0.00000000000E+00 -0.00000000000E+00 -0.45593999997E+02  0.45594000000E+02  0.51100000000E-03 0.  1.
    9900012    2    1    2    0    0 -0.52454520798E+01  0.40319211912E+02  0.11007430953E+00  0.50528859170E+02  0.29999997932E+02 0.  0.
         12    1    1    2    0    0  0.52454520798E+01 -0.40319211912E+02 -0.11007430953E+00  0.40659140830E+02  0.00000000000E+00 0. -1.
         11    1    3    3    0    0 -0.80849976789E+01  0.11707847821E+01  0.14405529237E+01  0.82953672288E+01  0.51100000000E-03 0. -1.
        -11    1    3    3    0    0 -0.51810597146E+01  0.27761041811E+02 -0.17939646210E+01  0.28297299014E+02  0.51100000000E-03 0.  1.
        -12    1    3    3    0    0  0.80206053137E+01  0.11387385319E+02  0.46348600685E+00  0.13936192926E+02  0.00000000000E+00 0.  1.
</event>
<event>
 7    1  0.5456331E-013  0.5052882E+02  0.7816164E-02  0.1300439E+00
        -11   -1    0    0    0    0  0.00000000000E+00  0.00000000000E+00  0.45593999997E+02  0.45594000000E+02  0.51100000000E-03 0. -1.
         11   -1    0    0    0    0 -0.00000000000E+00 -0.00000000000E+00 -0.45593999997E+02  0.45594000000E+02  0.51100000000E-03 0.  1.
    9900012    2    1    2    0    0 -0.22430214626E+00  0.37508393622E+02 -0.15692012203E+02  0.50528817144E+02  0.29999870190E+02 0.  0.
         12    1    1    2    0    0  0.22430214626E+00 -0.37508393622E+02  0.15692012203E+02  0.40659182856E+02  0.00000000000E+00 0. -1.
         11    1    3    3    0    0  0.37993437598E+01  0.29343374803E+02 -0.15796733008E+01  0.29630457739E+02  0.51100000000E-03 0. -1.
        -11    1    3    3    0    0  0.22971366222E+01  0.22451889576E+01  0.10987300827E+01  0.33948369876E+01  0.51100000000E-03 0.  1.
        -12    1    3    3    0    0 -0.63207825282E+01  0.59198298620E+01 -0.15211068984E+02  0.17503522417E+02  0.00000000000E+00 0.  1.
</event>
<event>
 7    1  0.5456331E-013  0.5052885E+02  0.7816164E-02  0.1300439E+00
        -11   -1    0    0    0    0  0.00000000000E+00  0.00000000000E+00  0.45593999997E+02  0.45594000000E+02  0.51100000000E-03 0.  1.
         11   -1    0    0    0    0 -0.00000000000E+00 -0.00000000000E+00 -0.45593999997E+02  0.45594000000E+02  0.51100000000E-03 0. -1.
    9900012    2    1    2    0    0 -0.48421960285E+01 -0.40018968561E+02  0.53105645083E+01  0.50528846019E+02  0.29999957958E+02 0.  0.
         12    1    1    2    0    0  0.48421960285E+01  0.40018968561E+02 -0.53105645083E+01  0.40659153981E+02  0.00000000000E+00 0. -1.
         11    1    3    3    0    0 -0.50465305904E+01  0.12532588279E+01 -0.25865418946E+01  0.58076094844E+01  0.51100000000E-03 0. -1.
        -11    1    3    3    0    0 -0.13844081817E-01 -0.12550949907E+01 -0.29952468517E+01  0.32476082058E+01  0.51100000000E-03 0.  1.
        -12    1    3    3    0    0  0.21817864374E+00 -0.40017132398E+02  0.10892353255E+02  0.41473628328E+02  0.00000000000E+00 0.  1.
</event>
<event>
 7    1  0.5456331E-013  0.5052886E+02  0.7816164E-02  0.1300439E+00
        -11   -1    0    0    0    0  0.00000000000E+00  0.00000000000E+00  0.45593999997E+02  0.45594000000E+02  0.51100000000E-03 0.  1.
         11   -1    0    0    0    0 -0.00000000000E+00 -0.00000000000E+00 -0.45593999997E+02  0.45594000000E+02  0.51100000000E-03 0. -1.
    9900012    2    1    2    0    0  0.22534413149E+01 -0.35413881266E+01  0.40441884101E+02  0.50528863053E+02  0.30000009736E+02 0.  0.
         12    1    1    2    0    0 -0.22534413149E+01  0.35413881266E+01 -0.40441884101E+02  0.40659136947E+02  0.00000000000E+00 0. -1.
         11    1    3    3    0    0 -0.31855723327E+01  0.33281826907E+01  0.56519724972E+01  0.72917394687E+01  0.51100000000E-03 0. -1.
        -11    1    3    3    0    0 -0.92702482226E+01 -0.55197863829E+01  0.12707687860E+02  0.16670059233E+02  0.51100000000E-03 0.  1.
        -12    1    3    3    0    0  0.14709261870E+02 -0.13497844344E+01  0.22082223744E+02  0.26567064352E+02  0.00000000000E+00 0.  1.
</event>
<event>
 7    1  0.5456331E-013  0.5052886E+02  0.7816164E-02  0.1300439E+00
        -11   -1    0    0    0    0  0.00000000000E+00  0.00000000000E+00  0.45593999997E+02  0.45594000000E+02  0.51100000000E-03 0. -1.
         11   -1    0    0    0    0 -0.00000000000E+00 -0.00000000000E+00 -0.45593999997E+02  0.45594000000E+02  0.51100000000E-03 0.  1.
    9900012    2    1    2    0    0  0.25813083788E+02  0.29481301170E+02 -0.10849111806E+02  0.50528860310E+02  0.30000001399E+02 0.  0.
         12    1    1    2    0    0 -0.25813083788E+02 -0.29481301170E+02  0.10849111806E+02  0.40659139690E+02  0.00000000000E+00 0. -1.
         11    1    3    3    0    0  0.12412813587E+02  0.63744875557E+01 -0.71336210718E+01  0.15671649007E+02  0.51100000000E-03 0. -1.
        -11    1    3    3    0    0  0.94413783202E+01  0.16777306065E+01 -0.81901660667E+01  0.12610837602E+02  0.51100000000E-03 0.  1.
         12    1    3    3    0    0  0.39588918805E+01  0.21429083008E+02  0.44746753327E+01  0.22246373701E+02  0.00000000000E+00 0. -1.
</event>
<event>
 7    1  0.5456331E-013  0.5052882E+02  0.7816164E-02  0.1300439E+00
        -11   -1    0    0    0    0  0.00000000000E+00  0.00000000000E+00  0.45593999997E+02  0.45594000000E+02  0.51100000000E-03 0.  1.
         11   -1    0    0    0    0 -0.00000000000E+00 -0.00000000000E+00 -0.45593999997E+02  0.45594000000E+02  0.51100000000E-03 0. -1.
    9900012    2    1    2    0    0 -0.11537414421E+02 -0.13203130027E+02  0.36684248846E+02  0.50528822839E+02  0.29999887502E+02 0.  0.
         12    1    1    2    0    0  0.11537414421E+02  0.13203130027E+02 -0.36684248846E+02  0.40659177161E+02  0.00000000000E+00 0. -1.
         11    1    3    3    0    0 -0.11090192377E+02 -0.13560687516E+02  0.12925586024E+02  0.21770516466E+02  0.51100000000E-03 0. -1.
        -11    1    3    3    0    0  0.15537706575E+01 -0.54003341678E+01  0.21556715260E+02  0.22277113490E+02  0.51100000000E-03 0.  1.
        -12    1    3    3    0    0 -0.20009927012E+01  0.57578916572E+01  0.22019475614E+01  0.64811928833E+01  0.00000000000E+00 0.  1.
</event>
<event>
 7    1  0.5456331E-013  0.5052887E+02  0.7816164E-02  0.1300439E+00
        -11   -1    0    0    0    0  0.00000000000E+00  0.00000000000E+00  0.45593999997E+02  0.45594000000E+02  0.51100000000E-03 0.  1.
         11   -1    0    0    0    0 -0.00000000000E+00 -0.00000000000E+00 -0.45593999997E+02  0.45594000000E+02  0.51100000000E-03 0. -1.
    9900012    2    1    2    0    0  0.88226299187E+01  0.29767709275E+02  0.26252806033E+02  0.50528866478E+02  0.30000020146E+02 0.  0.
         12    1    1    2    0    0 -0.88226299187E+01 -0.29767709275E+02 -0.26252806033E+02  0.40659133522E+02  0.00000000000E+00 0. -1.
         11    1    3    3    0    0 -0.26568489201E+01  0.17927223624E+01  0.98568856499E+01  0.10364887584E+02  0.51100000000E-03 0.  1.
        -11    1    3    3    0    0 -0.48524638376E+01  0.74739942177E+00  0.19695103189E+01  0.52899888797E+01  0.51100000000E-03 0. -1.
        -12    1    3    3    0    0  0.16331942676E+02  0.27227587491E+02  0.14426410064E+02  0.34873990014E+02  0.00000000000E+00 0.  1.
</event>
<event>
 7    1  0.5456331E-013  0.5052886E+02  0.7816164E-02  0.1300439E+00
        -11   -1    0    0    0    0  0.00000000000E+00  0.00000000000E+00  0.45593999997E+02  0.45594000000E+02  0.51100000000E-03 0. -1.
         11   -1    0    0    0    0 -0.00000000000E+00 -0.00000000000E+00 -0.45593999997E+02  0.45594000000E+02  0.51100000000E-03 0.  1.
    9900012    2    1    2    0    0  0.40155220201E+02 -0.37402149387E+01  0.51705578312E+01  0.50528860985E+02  0.30000003450E+02 0.  0.
         12    1    1    2    0    0 -0.40155220201E+02  0.37402149387E+01 -0.51705578312E+01  0.40659139015E+02  0.00000000000E+00 0. -1.
         11    1    3    3    0    0 -0.21907326687E+01 -0.22444127296E+01  0.41784387123E+01  0.52245620352E+01  0.51100000000E-03 0. -1.
        -11    1    3    3    0    0  0.25543321212E+01 -0.42622124153E+01 -0.18813989589E+01  0.53132597868E+01  0.51100000000E-03 0.  1.
         12    1    3    3    0    0  0.39791620748E+02  0.27664102062E+01  0.28735180778E+01  0.39991039163E+02  0.00000000000E+00 0. -1.
</event>
<event>
 7    1  0.5456331E-013  0.5052886E+02  0.7816164E-02  0.1300439E+00
        -11   -1    0    0    0    0  0.00000000000E+00  0.00000000000E+00  0.45593999997E+02  0.45594000000E+02  0.51100000000E-03 0.  1.
         11   -1    0    0    0    0 -0.00000000000E+00 -0.00000000000E+00 -0.45593999997E+02  0.45594000000E+02  0.51100000000E-03 0. -1.
    9900012    2    1    2    0    0 -0.27615639018E+02  0.19834753782E+02  0.22296298853E+02  0.50528856889E+02  0.29999991000E+02 0.  0.
         12    1    1    2    0    0  0.27615639018E+02 -0.19834753782E+02 -0.22296298853E+02  0.40659143111E+02  0.00000000000E+00 0. -1.
         11    1    3    3    0    0 -0.19493269450E+01 -0.96421706990E-01 -0.30135447739E+01  0.35903516610E+01  0.51100000000E-03 0. -1.
        -11    1    3    3    0    0 -0.40441210289E+01  0.62007226522E+01 -0.36693440476E+01  0.82624428776E+01  0.51100000000E-03 0.  1.
        -12    1    3    3    0    0 -0.21622191044E+02  0.13730452837E+02  0.28979187675E+02  0.38676062351E+02  0.00000000000E+00 0.  1.
</event>
<event>
 7    1  0.5456331E-013  0.5052888E+02  0.7816164E-02  0.1300439E+00
        -11   -1    0    0    0    0  0.00000000000E+00  0.00000000000E+00  0.45593999997E+02  0.45594000000E+02  0.51100000000E-03 0.  1.
         11   -1    0    0    0    0 -0.00000000000E+00 -0.00000000000E+00 -0.45593999997E+02  0.45594000000E+02  0.51100000000E-03 0. -1.
    9900012    2    1    2    0    0 -0.36761713612E+02 -0.39211768465E+01  0.16922310862E+02  0.50528882690E+02  0.30000069424E+02 0.  0.
         12    1    1    2    0    0  0.36761713612E+02  0.39211768465E+01 -0.16922310862E+02  0.40659117310E+02  0.00000000000E+00 0. -1.
         11    1    3    3    0    0 -0.19936055681E+02  0.71454018528E+01  0.64883004144E+01  0.22149517518E+02  0.51100000000E-03 0. -1.
        -11    1    3    3    0    0 -0.13205824221E+02  0.35550444637E+00  0.12248739225E+01  0.13267271504E+02  0.51100000000E-03 0.  1.
         12    1    3    3    0    0 -0.36198337092E+01 -0.11422083146E+02  0.92091365251E+01  0.15112093667E+02  0.00000000000E+00 0. -1.
</event>
<event>
 7    1  0.5456331E-013  0.5052885E+02  0.7816164E-02  0.1300439E+00
        -11   -1    0    0    0    0  0.00000000000E+00  0.00000000000E+00  0.45593999997E+02  0.45594000000E+02  0.51100000000E-03 0.  1.
         11   -1    0    0    0    0 -0.00000000000E+00 -0.00000000000E+00 -0.45593999997E+02  0.45594000000E+02  0.51100000000E-03 0. -1.
    9900012    2    1    2    0    0  0.17576880711E+02  0.22797700981E+02  0.28713838088E+02  0.50528850927E+02  0.29999972878E+02 0.  0.
         12    1    1    2    0    0 -0.17576880711E+02 -0.22797700981E+02 -0.28713838088E+02  0.40659149073E+02  0.00000000000E+00 0. -1.
         11    1    3    3    0    0  0.25861659502E+01 -0.50712684855E+00  0.18693331725E+02  0.18878190676E+02  0.51100000000E-03 0. -1.
        -11    1    3    3    0    0  0.17447484979E+01  0.56902984997E+01  0.73387840066E+01  0.94488832829E+01  0.51100000000E-03 0.  1.
         12    1    3    3    0    0  0.13245966263E+02  0.17614529330E+02  0.26817223572E+01  0.22201776969E+02  0.00000000000E+00 0. -1.
</event>
<event>
 7    1  0.5456331E-013  0.5052886E+02  0.7816164E-02  0.1300439E+00
        -11   -1    0    0    0    0  0.00000000000E+00  0.00000000000E+00  0.45593999997E+02  0.45594000000E+02  0.51100000000E-03 0. -1.
         11   -1    0    0    0    0 -0.00000000000E+00 -0.00000000000E+00 -0.45593999997E+02  0.45594000000E+02  0.51100000000E-03 0.  1.
    9900012    2    1    2    0    0  0.60831775855E+01  0.24396477900E+02 -0.31952661566E+02  0.50528858781E+02  0.29999996752E+02 0.  0.
         12    1    1    2    0    0 -0.60831775855E+01 -0.24396477900E+02  0.31952661566E+02  0.40659141219E+02  0.00000000000E+00 0. -1.
         11    1    3    3    0    0 -0.30080564052E+01  0.91002071197E+00 -0.67006882863E+01  0.74010651128E+01  0.51100000000E-03 0.  1.
        -11    1    3    3    0    0  0.16332230030E+02  0.16011143794E+02 -0.23086720228E+02  0.32497617058E+02  0.51100000000E-03 0. -1.
         12    1    3    3    0    0 -0.72409960394E+01  0.74753133941E+01 -0.21652530523E+01  0.10630176610E+02  0.00000000000E+00 0. -1.
</event>
<event>
 7    1  0.5456331E-013  0.5052885E+02  0.7816164E-02  0.1300439E+00
        -11   -1    0    0    0    0  0.00000000000E+00  0.00000000000E+00  0.45593999997E+02  0.45594000000E+02  0.51100000000E-03 0. -1.
         11   -1    0    0    0    0 -0.00000000000E+00 -0.00000000000E+00 -0.45593999997E+02  0.45594000000E+02  0.51100000000E-03 0.  1.
    9900012    2    1    2    0    0 -0.49286556408E+01  0.29941613536E+01 -0.40248103483E+02  0.50528849952E+02  0.29999969915E+02 0.  0.
         12    1    1    2    0    0  0.49286556408E+01 -0.29941613536E+01  0.40248103483E+02  0.40659150048E+02  0.00000000000E+00 0. -1.
         11    1    3    3    0    0 -0.38805484642E+01  0.77339590945E+00 -0.51767517229E+00  0.39905871073E+01  0.51100000000E-03 0. -1.
        -11    1    3    3    0    0 -0.10308230909E+02  0.82196586676E+01 -0.22488059910E+02  0.26067896959E+02  0.51100000000E-03 0.  1.
        -12    1    3    3    0    0  0.92601237326E+01 -0.59988932234E+01 -0.17242368400E+02  0.20470365886E+02  0.00000000000E+00 0.  1.
</event>
<event>
 7    1  0.5456331E-013  0.5052889E+02  0.7816164E-02  0.1300439E+00
        -11   -1    0    0    0    0  0.00000000000E+00  0.00000000000E+00  0.45593999997E+02  0.45594000000E+02  0.51100000000E-03 0.  1.
         11   -1    0    0    0    0 -0.00000000000E+00 -0.00000000000E+00 -0.45593999997E+02  0.45594000000E+02  0.51100000000E-03 0. -1.
    9900012    2    1    2    0    0  0.35328395129E+02  0.12764997259E+02  0.15560298133E+02  0.50528886195E+02  0.30000080078E+02 0.  0.
         12    1    1    2    0    0 -0.35328395129E+02 -0.12764997259E+02 -0.15560298133E+02  0.40659113805E+02  0.00000000000E+00 0. -1.
         11    1    3    3    0    0  0.32051337444E+01 -0.38681181754E+01  0.80925879095E+01  0.95249776836E+01  0.51100000000E-03 0. -1.
        -11    1    3    3    0    0  0.52383857854E+01 -0.24027715302E+01  0.55583574864E+01  0.80068305134E+01  0.51100000000E-03 0.  1.
         12    1    3    3    0    0  0.26884875599E+02  0.19035886964E+02  0.19093527374E+01  0.32997077998E+02  0.00000000000E+00 0. -1.
</event>
<event>
 7    1  0.5456331E-013  0.5052886E+02  0.7816164E-02  0.1300439E+00
        -11   -1    0    0    0    0  0.00000000000E+00  0.00000000000E+00  0.45593999997E+02  0.45594000000E+02  0.51100000000E-03 0.  1.
         11   -1    0    0    0    0 -0.00000000000E+00 -0.00000000000E+00 -0.45593999997E+02  0.45594000000E+02  0.51100000000E-03 0. -1.
    9900012    2    1    2    0    0  0.87907825886E+01 -0.15201823729E+02  0.36671407615E+02  0.50528862778E+02  0.30000008899E+02 0.  0.
         12    1    1    2    0    0 -0.87907825886E+01  0.15201823729E+02 -0.36671407615E+02  0.40659137222E+02  0.00000000000E+00 0. -1.
         11    1    3    3    0    0  0.40921815025E+01 -0.95681958821E+01  0.28281876216E+01  0.10784014437E+02  0.51100000000E-03 0. -1.
        -11    1    3    3    0    0 -0.56364981793E+01 -0.42479094713E+01  0.39565642051E+01  0.80913068890E+01  0.51100000000E-03 0.  1.
         12    1    3    3    0    0  0.10335099265E+02 -0.13857183760E+01  0.29886655788E+02  0.31653541452E+02  0.00000000000E+00 0. -1.
</event>
<event>
 7    1  0.5456331E-013  0.5052886E+02  0.7816164E-02  0.1300439E+00
        -11   -1    0    0    0    0  0.00000000000E+00  0.00000000000E+00  0.45593999997E+02  0.45594000000E+02  0.51100000000E-03 0.  1.
         11   -1    0    0    0    0 -0.00000000000E+00 -0.00000000000E+00 -0.45593999997E+02  0.45594000000E+02  0.51100000000E-03 0. -1.
    9900012    2    1    2    0    0 -0.17899965828E+02 -0.97081400014E+00  0.36494030895E+02  0.50528861452E+02  0.30000004869E+02 0.  0.
         12    1    1    2    0    0  0.17899965828E+02  0.97081400014E+00 -0.36494030895E+02  0.40659138548E+02  0.00000000000E+00 0. -1.
         11    1    3    3    0    0 -0.11137477443E+02 -0.80379834705E+01  0.76365236221E+01  0.15715249770E+02  0.51100000000E-03 0. -1.
        -11    1    3    3    0    0 -0.40430727560E+00 -0.44586597519E+01  0.19991404463E+01  0.49030270182E+01  0.51100000000E-03 0.  1.
         12    1    3    3    0    0 -0.63581811101E+01  0.11525829222E+02  0.26858366827E+02  0.29910584663E+02  0.00000000000E+00 0. -1.
</event>
<event>
 7    1  0.5456331E-013  0.5052886E+02  0.7816164E-02  0.1300439E+00
        -11   -1    0    0    0    0  0.00000000000E+00  0.00000000000E+00  0.45593999997E+02  0.45594000000E+02  0.51100000000E-03 0. -1.
         11   -1    0    0    0    0 -0.00000000000E+00 -0.00000000000E+00 -0.45593999997E+02  0.45594000000E+02  0.51100000000E-03 0.  1.
    9900012    2    1    2    0    0 -0.57296200060E+01  0.22856269194E+02 -0.33134999452E+02  0.50528858647E+02  0.29999996344E+02 0.  0.
         12    1    1    2    0    0  0.57296200060E+01 -0.22856269194E+02  0.33134999452E+02  0.40659141353E+02  0.00000000000E+00 0. -1.
         11    1    3    3    0    0 -0.74769316788E+01  0.97034098861E+01 -0.65395228701E+01  0.13886181274E+02  0.51100000000E-03 0. -1.
        -11    1    3    3    0    0 -0.49932256063E+01  0.16395291725E+02 -0.21907907677E+02  0.27815361075E+02  0.51100000000E-03 0.  1.
        -12    1    3    3    0    0  0.67405372791E+01 -0.32424324166E+01 -0.46875689048E+01  0.88273162980E+01  0.00000000000E+00 0.  1.
</event>
<event>
 7    1  0.5456331E-013  0.5052886E+02  0.7816164E-02  0.1300439E+00
        -11   -1    0    0    0    0  0.00000000000E+00  0.00000000000E+00  0.45593999997E+02  0.45594000000E+02  0.51100000000E-03 0. -1.
         11   -1    0    0    0    0 -0.00000000000E+00 -0.00000000000E+00 -0.45593999997E+02  0.45594000000E+02  0.51100000000E-03 0.  1.
    9900012    2    1    2    0    0  0.46456204294E+00  0.29279012533E+02 -0.28207962304E+02  0.50528861665E+02  0.30000005518E+02 0.  0.
         12    1    1    2    0    0 -0.46456204294E+00 -0.29279012533E+02  0.28207962304E+02  0.40659138335E+02  0.00000000000E+00 0. -1.
         11    1    3    3    0    0 -0.35651533498E+01  0.74416732714E+01 -0.33034878028E+01  0.88882985666E+01  0.51100000000E-03 0. -1.
        -11    1    3    3    0    0 -0.76319361805E+01  0.14937569956E+02 -0.22197668325E+02  0.27822902893E+02  0.51100000000E-03 0.  1.
        -12    1    3    3    0    0  0.11661651573E+02  0.68997693053E+01 -0.27068061755E+01  0.13817660205E+02  0.00000000000E+00 0.  1.
</event>
<event>
 7    1  0.5456331E-013  0.5052886E+02  0.7816164E-02  0.1300439E+00
        -11   -1    0    0    0    0  0.00000000000E+00  0.00000000000E+00  0.45593999997E+02  0.45594000000E+02  0.51100000000E-03 0.  1.
         11   -1    0    0    0    0 -0.00000000000E+00 -0.00000000000E+00 -0.45593999997E+02  0.45594000000E+02  0.51100000000E-03 0. -1.
    9900012    2    1    2    0    0  0.28539601888E+01 -0.16389779004E+02  0.37099808122E+02  0.50528859487E+02  0.29999998896E+02 0.  0.
         12    1    1    2    0    0 -0.28539601888E+01  0.16389779004E+02 -0.37099808122E+02  0.40659140513E+02  0.00000000000E+00 0. -1.
         11    1    3    3    0    0  0.13278756487E+02 -0.95234264157E+01  0.29522842284E+02  0.33743432566E+02  0.51100000000E-03 0. -1.
        -11    1    3    3    0    0 -0.42458966983E+01 -0.74336151504E+01  0.29851736926E+01  0.90662856348E+01  0.51100000000E-03 0.  1.
        -12    1    3    3    0    0 -0.61788996003E+01  0.56726256237E+00  0.45917921459E+01  0.77191412862E+01  0.00000000000E+00 0.  1.
</event>
<event>
 7    1  0.5456331E-013  0.5052886E+02  0.7816164E-02  0.1300439E+00
        -11   -1    0    0    0    0  0.00000000000E+00  0.00000000000E+00  0.45593999997E+02  0.45594000000E+02  0.51100000000E-03 0. -1.
         11   -1    0    0    0    0 -0.00000000000E+00 -0.00000000000E+00 -0.45593999997E+02  0.45594000000E+02  0.51100000000E-03 0.  1.
    9900012    2    1    2    0    0 -0.20943673120E+02 -0.48476326539E+00 -0.34846710766E+02  0.50528859694E+02  0.29999999526E+02 0.  0.
         12    1    1    2    0    0  0.20943673120E+02  0.48476326539E+00  0.34846710766E+02  0.40659140306E+02  0.00000000000E+00 0. -1.
         11    1    3    3    0    0 -0.99227424797E+01 -0.53802263619E+01 -0.23012320232E+02  0.25631514523E+02  0.51100000000E-03 0. -1.
        -11    1    3    3    0    0 -0.19911569484E+01 -0.53951660569E+01 -0.93590302523E+01  0.10984715303E+02  0.51100000000E-03 0.  1.
         12    1    3    3    0    0 -0.90297736918E+01  0.10290629153E+02 -0.24753602818E+01  0.13912629867E+02  0.00000000000E+00 0. -1.
</event>
<event>
 7    1  0.5456331E-013  0.5052886E+02  0.7816164E-02  0.1300439E+00
        -11   -1    0    0    0    0  0.00000000000E+00  0.00000000000E+00  0.45593999997E+02  0.45594000000E+02  0.51100000000E-03 0.  1.
         11   -1    0    0    0    0 -0.00000000000E+00 -0.00000000000E+00 -0.45593999997E+02  0.45594000000E+02  0.51100000000E-03 0. -1.
    9900012    2    1    2    0    0 -0.27187848245E+02 -0.22598458491E+02 -0.20082233531E+02  0.50528861765E+02  0.30000005822E+02 0.  0.
         12    1    1    2    0    0  0.27187848245E+02  0.22598458491E+02  0.20082233531E+02  0.40659138235E+02  0.00000000000E+00 0. -1.
         11    1    3    3    0    0 -0.16346820483E+02 -0.14469112680E+02 -0.24118303460E+02  0.32531005574E+02  0.51100000000E-03 0. -1.
        -11    1    3    3    0    0 -0.20513841863E+01 -0.46188913542E+01 -0.32887791174E+01  0.60297929290E+01  0.51100000000E-03 0.  1.
        -12    1    3    3    0    0 -0.87896435763E+01 -0.35104544570E+01  0.73248490463E+01  0.11968063262E+02  0.00000000000E+00 0.  1.
</event>
<event>
 7    1  0.5456331E-013  0.5052886E+02  0.7816164E-02  0.1300439E+00
        -11   -1    0    0    0    0  0.00000000000E+00  0.00000000000E+00  0.45593999997E+02  0.45594000000E+02  0.51100000000E-03 0. -1.
         11   -1    0    0    0    0 -0.00000000000E+00 -0.00000000000E+00 -0.45593999997E+02  0.45594000000E+02  0.51100000000E-03 0.  1.
    9900012    2    1    2    0    0  0.24831783512E+02  0.30873317704E+02 -0.91316278605E+01  0.50528857783E+02  0.29999993716E+02 0.  0.
         12    1    1    2    0    0 -0.24831783512E+02 -0.30873317704E+02  0.91316278605E+01  0.40659142217E+02  0.00000000000E+00 0. -1.
         11    1    3    3    0    0 -0.10141789209E+01 -0.22421661340E+01 -0.53502282132E+01  0.58890415223E+01  0.51100000000E-03 0. -1.
        -11    1    3    3    0    0  0.25976430044E+01  0.63502037624E+01 -0.60051986404E+01  0.91178532547E+01  0.51100000000E-03 0.  1.
         12    1    3    3    0    0  0.23248319429E+02  0.26765280076E+02  0.22237989932E+01  0.35521963006E+02  0.00000000000E+00 0. -1.
</event>
<event>
 7    1  0.5456331E-013  0.5052887E+02  0.7816164E-02  0.1300439E+00
        -11   -1    0    0    0    0  0.00000000000E+00  0.00000000000E+00  0.45593999997E+02  0.45594000000E+02  0.51100000000E-03 0.  1.
         11   -1    0    0    0    0 -0.00000000000E+00 -0.00000000000E+00 -0.45593999997E+02  0.45594000000E+02  0.51100000000E-03 0. -1.
    9900012    2    1    2    0    0  0.26493455943E+01 -0.26576278059E+02  0.30656932403E+02  0.50528867054E+02  0.30000021898E+02 0.  0.
         12    1    1    2    0    0 -0.26493455943E+01  0.26576278059E+02 -0.30656932403E+02  0.40659132946E+02  0.00000000000E+00 0. -1.
         11    1    3    3    0    0  0.18655925958E+01  0.31804216244E+01  0.29204831168E+01  0.47036942225E+01  0.51100000000E-03 0. -1.
        -11    1    3    3    0    0 -0.20434554767E+01 -0.18321586749E+01  0.14564371747E+02  0.14820709846E+02  0.51100000000E-03 0.  1.
         12    1    3    3    0    0  0.28272084752E+01 -0.27924541009E+02  0.13172077539E+02  0.31004462985E+02  0.00000000000E+00 0. -1.
</event>
<event>
 7    1  0.5456331E-013  0.5052886E+02  0.7816164E-02  0.1300439E+00
        -11   -1    0    0    0    0  0.00000000000E+00  0.00000000000E+00  0.45593999997E+02  0.45594000000E+02  0.51100000000E-03 0.  1.
         11   -1    0    0    0    0 -0.00000000000E+00 -0.00000000000E+00 -0.45593999997E+02  0.45594000000E+02  0.51100000000E-03 0. -1.
    9900012    2    1    2    0    0 -0.37759427812E+02  0.87722911527E+01 -0.12265318372E+02  0.50528861845E+02  0.30000006065E+02 0.  0.
         12    1    1    2    0    0  0.37759427812E+02 -0.87722911527E+01  0.12265318372E+02  0.40659138155E+02  0.00000000000E+00 0. -1.
         11    1    3    3    0    0 -0.15192637297E+02 -0.42728624169E+01 -0.56111041893E+01  0.16749867813E+02  0.51100000000E-03 0. -1.
        -11    1    3    3    0    0 -0.22842551494E+02  0.55477721156E+01 -0.10023809362E+02  0.25554582536E+02  0.51100000000E-03 0.  1.
        -12    1    3    3    0    0  0.27576097937E+00  0.74973814540E+01  0.33695951793E+01  0.82244114961E+01  0.00000000000E+00 0.  1.
</event>
<event>
 7    1  0.5456331E-013  0.5052886E+02  0.7816164E-02  0.1300439E+00
        -11   -1    0    0    0    0  0.00000000000E+00  0.00000000000E+00  0.45593999997E+02  0.45594000000E+02  0.51100000000E-03 0. -1.
         11   -1    0    0    0    0 -0.00000000000E+00 -0.00000000000E+00 -0.45593999997E+02  0.45594000000E+02  0.51100000000E-03 0.  1.
    9900012    2    1    2    0    0 -0.84272727852E+01  0.51830021334E+01 -0.39437082212E+02  0.50528857226E+02  0.29999992024E+02 0.  0.
         12    1    1    2    0    0  0.84272727852E+01 -0.51830021334E+01  0.39437082212E+02  0.40659142774E+02  0.00000000000E+00 0. -1.
         11    1    3    3    0    0 -0.32168894543E+01  0.69038475470E+01 -0.34543207237E+01  0.83632422324E+01  0.51100000000E-03 0.  1.
        -11    1    3    3    0    0 -0.64033752023E+01 -0.93544687620E+01 -0.10198239025E+02  0.15248389399E+02  0.51100000000E-03 0. -1.
         12    1    3    3    0    0  0.11929918714E+01  0.76336233484E+01 -0.25784522464E+02  0.26917225594E+02  0.00000000000E+00 0. -1.
</event>
<event>
 7    1  0.5456331E-013  0.5052886E+02  0.7816164E-02  0.1300439E+00
        -11   -1    0    0    0    0  0.00000000000E+00  0.00000000000E+00  0.45593999997E+02  0.45594000000E+02  0.51100000000E-03 0.  1.
         11   -1    0    0    0    0 -0.00000000000E+00 -0.00000000000E+00 -0.45593999997E+02  0.45594000000E+02  0.51100000000E-03 0. -1.
    9900012    2    1    2    0    0 -0.10933053852E+02 -0.30255109583E+02  0.24864884367E+02  0.50528858384E+02  0.29999995543E+02 0.  0.
         12    1    1    2    0    0  0.10933053852E+02  0.30255109583E+02 -0.24864884367E+02  0.40659141616E+02  0.00000000000E+00 0. -1.
         11    1    3    3    0    0 -0.16355746484E+01  0.23976467101E+01  0.21693066510E+01  0.36234935883E+01  0.51100000000E-03 0. -1.
        -11    1    3    3    0    0 -0.16769194508E+02 -0.18162198403E+02  0.12860436147E+02  0.27865070491E+02  0.51100000000E-03 0.  1.
        -12    1    3    3    0    0  0.74717153039E+01 -0.14490557889E+02  0.98351415689E+01  0.19040294305E+02  0.00000000000E+00 0.  1.
</event>
<event>
 7    1  0.5456331E-013  0.5052885E+02  0.7816164E-02  0.1300439E+00
        -11   -1    0    0    0    0  0.00000000000E+00  0.00000000000E+00  0.45593999997E+02  0.45594000000E+02  0.51100000000E-03 0.  1.
         11   -1    0    0    0    0 -0.00000000000E+00 -0.00000000000E+00 -0.45593999997E+02  0.45594000000E+02  0.51100000000E-03 0. -1.
    9900012    2    1    2    0    0 -0.39179310608E+02 -0.35209195735E+01  0.10283552043E+02  0.50528847316E+02  0.29999961901E+02 0.  0.
         12    1    1    2    0    0  0.39179310608E+02  0.35209195735E+01 -0.10283552043E+02  0.40659152684E+02  0.00000000000E+00 0. -1.
         11    1    3    3    0    0 -0.20551044242E+00 -0.32643966611E+00  0.21840364378E+01  0.22178396742E+01  0.51100000000E-03 0. -1.
        -11    1    3    3    0    0 -0.33410324144E+02  0.56715920790E+01  0.13565606795E+02  0.36502635578E+02  0.51100000000E-03 0.  1.
         12    1    3    3    0    0 -0.55634760215E+01 -0.88660719864E+01 -0.54660911896E+01  0.11808372064E+02  0.00000000000E+00 0. -1.
</event>
<event>
 7    1  0.5456331E-013  0.5052886E+02  0.7816164E-02  0.1300439E+00
        -11   -1    0    0    0    0  0.00000000000E+00  0.00000000000E+00  0.45593999997E+02  0.45594000000E+02  0.51100000000E-03 0. -1.
         11   -1    0    0    0    0 -0.00000000000E+00 -0.00000000000E+00 -0.45593999997E+02  0.45594000000E+02  0.51100000000E-03 0.  1.
    9900012    2    1    2    0    0  0.57155138003E+01 -0.42010150233E+00 -0.40253223493E+02  0.50528860992E+02  0.30000003472E+02 0.  0.
         12    1    1    2    0    0 -0.57155138003E+01  0.42010150233E+00  0.40253223493E+02  0.40659139008E+02  0.00000000000E+00 0. -1.
         11    1    3    3    0    0 -0.41670726301E+01  0.85925188359E+01 -0.25630974073E+01  0.98876358565E+01  0.51100000000E-03 0.  1.
        -11    1    3    3    0    0  0.68665128544E+00 -0.42214813381E+01 -0.65737722219E+01  0.78426319665E+01  0.51100000000E-03 0. -1.
        -12    1    3    3    0    0  0.91959351449E+01 -0.47911390001E+01 -0.31116353864E+02  0.32798593169E+02  0.00000000000E+00 0.  1.
</event>
<event>
 7    1  0.5456331E-013  0.5052887E+02  0.7816164E-02  0.1300439E+00
        -11   -1    0    0    0    0  0.00000000000E+00  0.00000000000E+00  0.45593999997E+02  0.45594000000E+02  0.51100000000E-03 0. -1.
         11   -1    0    0    0    0 -0.00000000000E+00 -0.00000000000E+00 -0.45593999997E+02  0.45594000000E+02  0.51100000000E-03 0.  1.
    9900012    2    1    2    0    0 -0.34360589813E+02 -0.55168152378E+01 -0.21025693233E+02  0.50528866234E+02  0.30000019406E+02 0.  0.
         12    1    1    2    0    0  0.34360589813E+02  0.55168152378E+01  0.21025693233E+02  0.40659133766E+02  0.00000000000E+00 0. -1.
         11    1    3    3    0    0 -0.70895521127E+01  0.69027795640E+01 -0.47986077889E+01  0.10997124708E+02  0.51100000000E-03 0. -1.
        -11    1    3    3    0    0 -0.13101701295E+02  0.97394744535E+00 -0.15080247687E+02  0.20000425521E+02  0.51100000000E-03 0.  1.
        -12    1    3    3    0    0 -0.14169336405E+02 -0.13393542247E+02 -0.11468377576E+01  0.19531316006E+02  0.00000000000E+00 0.  1.
</event>
<event>
 7    1  0.5456331E-013  0.5052876E+02  0.7816164E-02  0.1300439E+00
        -11   -1    0    0    0    0  0.00000000000E+00  0.00000000000E+00  0.45593999997E+02  0.45594000000E+02  0.51100000000E-03 0.  1.
         11   -1    0    0    0    0 -0.00000000000E+00 -0.00000000000E+00 -0.45593999997E+02  0.45594000000E+02  0.51100000000E-03 0. -1.
    9900012    2    1    2    0    0  0.37828730405E+02 -0.81812622724E+01 -0.12459043486E+02  0.50528761677E+02  0.29999701591E+02 0.  0.
         12    1    1    2    0    0 -0.37828730405E+02  0.81812622724E+01  0.12459043486E+02  0.40659238323E+02  0.00000000000E+00 0. -1.
         11    1    3    3    0    0  0.60046599497E+01 -0.10282004575E+02 -0.65281540340E+00  0.11924836578E+02  0.51100000000E-03 0. -1.
        -11    1    3    3    0    0  0.23248986015E+02 -0.69342410830E+01 -0.86145057245E+01  0.25745072524E+02  0.51100000000E-03 0.  1.
         12    1    3    3    0    0  0.85750844403E+01  0.90349833857E+01 -0.31917223584E+01  0.12858852575E+02  0.00000000000E+00 0. -1.
</event>
<event>
 7    1  0.5456331E-013  0.5052886E+02  0.7816164E-02  0.1300439E+00
        -11   -1    0    0    0    0  0.00000000000E+00  0.00000000000E+00  0.45593999997E+02  0.45594000000E+02  0.51100000000E-03 0.  1.
         11   -1    0    0    0    0 -0.00000000000E+00 -0.00000000000E+00 -0.45593999997E+02  0.45594000000E+02  0.51100000000E-03 0. -1.
    9900012    2    1    2    0    0  0.36631818586E+02 -0.49016018388E+01  0.16948441286E+02  0.50528862091E+02  0.30000006811E+02 0.  0.
         12    1    1    2    0    0 -0.36631818586E+02  0.49016018388E+01 -0.16948441286E+02  0.40659137909E+02  0.00000000000E+00 0. -1.
         11    1    3    3    0    0  0.10192227187E+02 -0.53099014373E+01 -0.28351989692E+00  0.11495952857E+02  0.51100000000E-03 0. -1.
        -11    1    3    3    0    0  0.25466123486E+02 -0.78692411591E+01  0.13855574449E+02  0.30040395227E+02  0.51100000000E-03 0.  1.
        -12    1    3    3    0    0  0.97346791254E+00  0.82775407575E+01  0.33763867337E+01  0.89925140058E+01  0.00000000000E+00 0.  1.
</event>
<event>
 7    1  0.5456331E-013  0.5052886E+02  0.7816164E-02  0.1300439E+00
        -11   -1    0    0    0    0  0.00000000000E+00  0.00000000000E+00  0.45593999997E+02  0.45594000000E+02  0.51100000000E-03 0.  1.
         11   -1    0    0    0    0 -0.00000000000E+00 -0.00000000000E+00 -0.45593999997E+02  0.45594000000E+02  0.51100000000E-03 0. -1.
    9900012    2    1    2    0    0  0.11132664075E+02 -0.36287077593E+02 -0.14576604762E+02  0.50528860609E+02  0.30000002307E+02 0.  0.
         12    1    1    2    0    0 -0.11132664075E+02  0.36287077593E+02  0.14576604762E+02  0.40659139391E+02  0.00000000000E+00 0. -1.
         11    1    3    3    0    0 -0.67424382370E+01 -0.71478752641E+00 -0.34429375701E+01  0.76042891818E+01  0.51100000000E-03 0. -1.
        -11    1    3    3    0    0  0.26948812922E+01 -0.47895616404E-01  0.85228532337E-01  0.26966540996E+01  0.51100000000E-03 0.  1.
        -12    1    3    3    0    0  0.15180221020E+02 -0.35524394450E+02 -0.11218895724E+02  0.40227917328E+02  0.00000000000E+00 0.  1.
</event>
<event>
 7    1  0.5456331E-013  0.5052886E+02  0.7816164E-02  0.1300439E+00
        -11   -1    0    0    0    0  0.00000000000E+00  0.00000000000E+00  0.45593999997E+02  0.45594000000E+02  0.51100000000E-03 0. -1.
         11   -1    0    0    0    0 -0.00000000000E+00 -0.00000000000E+00 -0.45593999997E+02  0.45594000000E+02  0.51100000000E-03 0.  1.
    9900012    2    1    2    0    0 -0.22777363007E+02  0.33661287110E+02 -0.11291157213E+01  0.50528863047E+02  0.30000009718E+02 0.  0.
         12    1    1    2    0    0  0.22777363007E+02 -0.33661287110E+02  0.11291157213E+01  0.40659136953E+02  0.00000000000E+00 0. -1.
         11    1    3    3    0    0 -0.81701396035E+01  0.10060376469E+02  0.93007686748E+00  0.12993359807E+02  0.51100000000E-03 0. -1.
        -11    1    3    3    0    0 -0.11437377366E+02  0.72864237898E+01 -0.12052340702E+02  0.18142890875E+02  0.51100000000E-03 0.  1.
         12    1    3    3    0    0 -0.31698460378E+01  0.16314486851E+02  0.99931481131E+01  0.19392612365E+02  0.00000000000E+00 0. -1.
</event>
<event>
 7    1  0.5456331E-013  0.5052887E+02  0.7816164E-02  0.1300439E+00
        -11   -1    0    0    0    0  0.00000000000E+00  0.00000000000E+00  0.45593999997E+02  0.45594000000E+02  0.51100000000E-03 0.  1.
         11   -1    0    0    0    0 -0.00000000000E+00 -0.00000000000E+00 -0.45593999997E+02  0.45594000000E+02  0.51100000000E-03 0. -1.
    9900012    2    1    2    0    0 -0.24238537842E+02 -0.31697780850E+02  0.78044362484E+01  0.50528865077E+02  0.30000015888E+02 0.  0.
         12    1    1    2    0    0  0.24238537842E+02  0.31697780850E+02 -0.78044362484E+01  0.40659134923E+02  0.00000000000E+00 0. -1.
         11    1    3    3    0    0  0.41729635385E+00  0.31018912452E+01  0.23325509903E+01  0.39034164430E+01  0.51100000000E-03 0. -1.
        -11    1    3    3    0    0 -0.21158983198E+02 -0.14438214327E+02  0.22227756278E+01  0.25711968705E+02  0.51100000000E-03 0.  1.
        -12    1    3    3    0    0 -0.34968509976E+01 -0.20361457769E+02  0.32491096302E+01  0.20913479929E+02  0.00000000000E+00 0.  1.
</event>
<event>
 7    1  0.5456331E-013  0.5052886E+02  0.7816164E-02  0.1300439E+00
        -11   -1    0    0    0    0  0.00000000000E+00  0.00000000000E+00  0.45593999997E+02  0.45594000000E+02  0.51100000000E-03 0. -1.
         11   -1    0    0    0    0 -0.00000000000E+00 -0.00000000000E+00 -0.45593999997E+02  0.45594000000E+02  0.51100000000E-03 0.  1.
    9900012    2    1    2    0    0  0.31693639601E+02  0.56283689146E+01 -0.24839498216E+02  0.50528855895E+02  0.29999987977E+02 0.  0.
         12    1    1    2    0    0 -0.31693639601E+02 -0.56283689146E+01  0.24839498216E+02  0.40659144105E+02  0.00000000000E+00 0. -1.
         11    1    3    3    0    0  0.13049316516E+02 -0.16426623009E+01 -0.23023330719E+00  0.13154315208E+02  0.51100000000E-03 0. -1.
        -11    1    3    3    0    0  0.57039006829E+01  0.62141929602E+01  0.11646609187E+01  0.85151108310E+01  0.51100000000E-03 0.  1.
        -12    1    3    3    0    0  0.12940422402E+02  0.10568382553E+01 -0.25773925827E+02  0.28859429856E+02  0.00000000000E+00 0.  1.
</event>
<event>
 7    1  0.5456331E-013  0.5052886E+02  0.7816164E-02  0.1300439E+00
        -11   -1    0    0    0    0  0.00000000000E+00  0.00000000000E+00  0.45593999997E+02  0.45594000000E+02  0.51100000000E-03 0.  1.
         11   -1    0    0    0    0 -0.00000000000E+00 -0.00000000000E+00 -0.45593999997E+02  0.45594000000E+02  0.51100000000E-03 0. -1.
    9900012    2    1    2    0    0 -0.23033364029E+02  0.13289744707E+02  0.30757315976E+02  0.50528860081E+02  0.30000000703E+02 0.  0.
         12    1    1    2    0    0  0.23033364029E+02 -0.13289744707E+02 -0.30757315976E+02  0.40659139919E+02  0.00000000000E+00 0. -1.
         11    1    3    3    0    0 -0.67927413418E+01  0.67952954040E+01  0.27420939674E+01  0.99918193614E+01  0.51100000000E-03 0. -1.
        -11    1    3    3    0    0 -0.20926586322E+02  0.57497587702E-01  0.23148869426E+02  0.31205696227E+02  0.51100000000E-03 0.  1.
         12    1    3    3    0    0  0.46859636352E+01  0.64369517158E+01  0.48663525829E+01  0.93313444928E+01  0.00000000000E+00 0. -1.
</event>
<event>
 7    1  0.5456331E-013  0.5052887E+02  0.7816164E-02  0.1300439E+00
        -11   -1    0    0    0    0  0.00000000000E+00  0.00000000000E+00  0.45593999997E+02  0.45594000000E+02  0.51100000000E-03 0.  1.
         11   -1    0    0    0    0 -0.00000000000E+00 -0.00000000000E+00 -0.45593999997E+02  0.45594000000E+02  0.51100000000E-03 0. -1.
    9900012    2    1    2    0    0 -0.13437678765E+02  0.99829364124E+01  0.37053136381E+02  0.50528866393E+02  0.30000019888E+02 0.  0.
         12    1    1    2    0    0  0.13437678765E+02 -0.99829364124E+01 -0.37053136381E+02  0.40659133607E+02  0.00000000000E+00 0. -1.
         11    1    3    3    0    0  0.59419675067E+01  0.74581753674E+01  0.21776324470E+02  0.23772666349E+02  0.51100000000E-03 0. -1.
        -11    1    3    3    0    0 -0.71237034933E+00 -0.10719297868E+01  0.49647340106E+01  0.51288487050E+01  0.51100000000E-03 0.  1.
         12    1    3    3    0    0 -0.18667275922E+02  0.35966908317E+01  0.10312077901E+02  0.21627351339E+02  0.00000000000E+00 0. -1.
</event>
<event>
 7    1  0.5456331E-013  0.5052887E+02  0.7816164E-02  0.1300439E+00
        -11   -1    0    0    0    0  0.00000000000E+00  0.00000000000E+00  0.45593999997E+02  0.45594000000E+02  0.51100000000E-03 0.  1.
         11   -1    0    0    0    0 -0.00000000000E+00 -0.00000000000E+00 -0.45593999997E+02  0.45594000000E+02  0.51100000000E-03 0. -1.
    9900012    2    1    2    0    0 -0.38666664076E+01  0.38866991852E+02  0.11294736542E+02  0.50528865254E+02  0.30000016427E+02 0.  0.
         12    1    1    2    0    0  0.38666664076E+01 -0.38866991852E+02 -0.11294736542E+02  0.40659134746E+02  0.00000000000E+00 0. -1.
         11    1    3    3    0    0  0.23095468455E+01  0.33552698483E+00  0.69165329666E+01  0.72996584528E+01  0.51100000000E-03 0. -1.
        -11    1    3    3    0    0 -0.50765276809E+01  0.80426758183E+00 -0.53470468917E+00  0.51675805755E+01  0.51100000000E-03 0.  1.
         12    1    3    3    0    0 -0.10996855722E+01  0.37727197285E+02  0.49129082641E+01  0.38061626226E+02  0.00000000000E+00 0. -1.
</event>
<event>
 7    1  0.5456331E-013  0.5052884E+02  0.7816164E-02  0.1300439E+00
        -11   -1    0    0    0    0  0.00000000000E+00  0.00000000000E+00  0.45593999997E+02  0.45594000000E+02  0.51100000000E-03 0.  1.
         11   -1    0    0    0    0 -0.00000000000E+00 -0.00000000000E+00 -0.45593999997E+02  0.45594000000E+02  0.51100000000E-03 0. -1.
    9900012    2    1    2    0    0 -0.20053194968E+02 -0.15316678633E+02  0.31881594059E+02  0.50528839746E+02  0.29999938893E+02 0.  0.
         12    1    1    2    0    0  0.20053194968E+02  0.15316678633E+02 -0.31881594059E+02  0.40659160254E+02  0.00000000000E+00 0. -1.
         11    1    3    3    0    0  0.12483806758E+01  0.81956433285E-01  0.16206101195E+02  0.16254319037E+02  0.51100000000E-03 0. -1.
        -11    1    3    3    0    0 -0.19713815044E+01  0.12481615168E+01 -0.21345026787E+01  0.31623336564E+01  0.51100000000E-03 0.  1.
        -12    1    3    3    0    0 -0.19330194140E+02 -0.16646796584E+02  0.17809995543E+02  0.31112187053E+02  0.00000000000E+00 0.  1.
</event>
<event>
 7    1  0.5739253E-013  0.5052886E+02  0.7816164E-02  0.1300439E+00
        -11   -1    0    0    0    0  0.00000000000E+00  0.00000000000E+00  0.45593999997E+02  0.45594000000E+02  0.51100000000E-03 0. -1.
         11   -1    0    0    0    0 -0.00000000000E+00 -0.00000000000E+00 -0.45593999997E+02  0.45594000000E+02  0.51100000000E-03 0.  1.
    9900012    2    1    2    0    0 -0.33010376152E+00 -0.12906281311E+02 -0.38554954080E+02  0.50528861423E+02  0.30000004780E+02 0.  0.
         12    1    1    2    0    0  0.33010376152E+00  0.12906281311E+02  0.38554954080E+02  0.40659138577E+02  0.00000000000E+00 0. -1.
         11    1    3    3    0    0 -0.22926784436E+01  0.39809403076E+01  0.41911439609E-01  0.45941285363E+01  0.51100000000E-03 0.  1.
        -11    1    3    3    0    0 -0.12067526240E+01 -0.62371486609E+01 -0.64012935122E+00  0.63849856038E+01  0.51100000000E-03 0. -1.
        -12    1    3    3    0    0  0.31693273060E+01 -0.10650072958E+02 -0.37956736168E+02  0.39549747282E+02  0.00000000000E+00 0.  1.
</event>
<event>
 7    1  0.5456331E-013  0.5052886E+02  0.7816164E-02  0.1300439E+00
        -11   -1    0    0    0    0  0.00000000000E+00  0.00000000000E+00  0.45593999997E+02  0.45594000000E+02  0.51100000000E-03 0. -1.
         11   -1    0    0    0    0 -0.00000000000E+00 -0.00000000000E+00 -0.45593999997E+02  0.45594000000E+02  0.51100000000E-03 0.  1.
    9900012    2    1    2    0    0  0.36958187448E+02  0.14818419885E+01 -0.16883779884E+02  0.50528862057E+02  0.30000006708E+02 0.  0.
         12    1    1    2    0    0 -0.36958187448E+02 -0.14818419885E+01  0.16883779884E+02  0.40659137943E+02  0.00000000000E+00 0. -1.
         11    1    3    3    0    0  0.14271114436E+00 -0.27528932920E+01 -0.13676967874E+01  0.30772362131E+01  0.51100000000E-03 0. -1.
        -11    1    3    3    0    0 -0.32677719660E+01  0.33644948012E+01 -0.88696055100E+00  0.47733487374E+01  0.51100000000E-03 0.  1.
        -12    1    3    3    0    0  0.40083248270E+02  0.87024047933E+00 -0.14629122545E+02  0.42678277106E+02  0.00000000000E+00 0.  1.
</event>
<event>
 7    1  0.5456331E-013  0.5052886E+02  0.7816164E-02  0.1300439E+00
        -11   -1    0    0    0    0  0.00000000000E+00  0.00000000000E+00  0.45593999997E+02  0.45594000000E+02  0.51100000000E-03 0.  1.
         11   -1    0    0    0    0 -0.00000000000E+00 -0.00000000000E+00 -0.45593999997E+02  0.45594000000E+02  0.51100000000E-03 0. -1.
    9900012    2    1    2    0    0  0.16172190046E+02 -0.25664042699E+02  0.27073652821E+02  0.50528862090E+02  0.30000006808E+02 0.  0.
         12    1    1    2    0    0 -0.16172190046E+02  0.25664042699E+02 -0.27073652821E+02  0.40659137910E+02  0.00000000000E+00 0. -1.
         11    1    3    3    0    0  0.50069542540E+00 -0.63655578812E+01 -0.34118895916E+01  0.72396142089E+01  0.51100000000E-03 0. -1.
        -11    1    3    3    0    0  0.13783263264E+01 -0.13100315194E+02  0.65020571677E+01  0.14689955388E+02  0.51100000000E-03 0.  1.
         12    1    3    3    0    0  0.14293168294E+02 -0.61981696241E+01  0.23983485245E+02  0.28599292492E+02  0.00000000000E+00 0. -1.
</event>
<event>
 7    1  0.5456331E-013  0.5052886E+02  0.7816164E-02  0.1300439E+00
        -11   -1    0    0    0    0  0.00000000000E+00  0.00000000000E+00  0.45593999997E+02  0.45594000000E+02  0.51100000000E-03 0.  1.
         11   -1    0    0    0    0 -0.00000000000E+00 -0.00000000000E+00 -0.45593999997E+02  0.45594000000E+02  0.51100000000E-03 0. -1.
    9900012    2    1    2    0    0 -0.39039653275E+02  0.92165947858E+01  0.66426950970E+01  0.50528861477E+02  0.30000004946E+02 0.  0.
         12    1    1    2    0    0  0.39039653275E+02 -0.92165947858E+01 -0.66426950970E+01  0.40659138523E+02  0.00000000000E+00 0. -1.
         11    1    3    3    0    0 -0.13624299543E+02  0.58577099991E+01 -0.40027430884E+01  0.15360867715E+02  0.51100000000E-03 0. -1.
        -11    1    3    3    0    0 -0.21896563403E+02  0.47567136870E+01 -0.14888781272E+01  0.22456682131E+02  0.51100000000E-03 0.  1.
        -12    1    3    3    0    0 -0.35187903283E+01 -0.13978289002E+01  0.12134316313E+02  0.12711311631E+02  0.00000000000E+00 0.  1.
</event>
<event>
 7    1  0.5456331E-013  0.5052886E+02  0.7816164E-02  0.1300439E+00
        -11   -1    0    0    0    0  0.00000000000E+00  0.00000000000E+00  0.45593999997E+02  0.45594000000E+02  0.51100000000E-03 0.  1.
         11   -1    0    0    0    0 -0.00000000000E+00 -0.00000000000E+00 -0.45593999997E+02  0.45594000000E+02  0.51100000000E-03 0. -1.
    9900012    2    1    2    0    0 -0.29217688099E+02 -0.67895112627E+01 -0.27448045702E+02  0.50528856208E+02  0.29999988931E+02 0.  0.
         12    1    1    2    0    0  0.29217688099E+02  0.67895112627E+01  0.27448045702E+02  0.40659143792E+02  0.00000000000E+00 0. -1.
         11    1    3    3    0    0 -0.61333994390E+01 -0.10182743248E+01 -0.17194150884E+02  0.18283716695E+02  0.51100000000E-03 0. -1.
        -11    1    3    3    0    0 -0.64899249213E+01 -0.10283634056E+02  0.12121643326E+00  0.12160877787E+02  0.51100000000E-03 0.  1.
         12    1    3    3    0    0 -0.16594363738E+02  0.45123971175E+01 -0.10375111250E+02  0.20084261726E+02  0.00000000000E+00 0. -1.
</event>
<event>
 7    1  0.5456331E-013  0.5052887E+02  0.7816164E-02  0.1300439E+00
        -11   -1    0    0    0    0  0.00000000000E+00  0.00000000000E+00  0.45593999997E+02  0.45594000000E+02  0.51100000000E-03 0.  1.
         11   -1    0    0    0    0 -0.00000000000E+00 -0.00000000000E+00 -0.45593999997E+02  0.45594000000E+02  0.51100000000E-03 0. -1.
    9900012    2    1    2    0    0 -0.22626141480E+02 -0.25606006945E+01  0.33684804806E+02  0.50528867828E+02  0.30000024249E+02 0.  0.
         12    1    1    2    0    0  0.22626141480E+02  0.25606006945E+01 -0.33684804806E+02  0.40659132172E+02  0.00000000000E+00 0. -1.
         11    1    3    3    0    0 -0.12097615545E+02 -0.10970567375E+02  0.12680997898E+02  0.20676396165E+02  0.51100000000E-03 0. -1.
        -11    1    3    3    0    0 -0.10855213171E+02  0.93398523798E+01  0.72271052699E+01  0.16040559414E+02  0.51100000000E-03 0.  1.
         12    1    3    3    0    0  0.32668723618E+00 -0.92988569921E+00  0.13776701638E+02  0.13811912249E+02  0.00000000000E+00 0. -1.
</event>
<event>
 7    1  0.5456331E-013  0.5052887E+02  0.7816164E-02  0.1300439E+00
        -11   -1    0    0    0    0  0.00000000000E+00  0.00000000000E+00  0.45593999997E+02  0.45594000000E+02  0.51100000000E-03 0.  1.
         11   -1    0    0    0    0 -0.00000000000E+00 -0.00000000000E+00 -0.45593999997E+02  0.45594000000E+02  0.51100000000E-03 0. -1.
    9900012    2    1    2    0    0  0.16488923204E+01  0.78778762123E+01  0.39854551367E+02  0.50528867641E+02  0.30000023683E+02 0.  0.
         12    1    1    2    0    0 -0.16488923204E+01 -0.78778762123E+01 -0.39854551367E+02  0.40659132359E+02  0.00000000000E+00 0. -1.
         11    1    3    3    0    0 -0.25762346977E+00  0.25186207970E+01 -0.87160758182E+00  0.26775960504E+01  0.51100000000E-03 0. -1.
        -11    1    3    3    0    0  0.53870984117E+01  0.64188157624E+01  0.15690349417E+01  0.85254850888E+01  0.51100000000E-03 0.  1.
        -12    1    3    3    0    0 -0.34805826215E+01 -0.10595603471E+01  0.39157124007E+02  0.39325786502E+02  0.00000000000E+00 0.  1.
</event>
<event>
 7    1  0.5456331E-013  0.5052886E+02  0.7816164E-02  0.1300439E+00
        -11   -1    0    0    0    0  0.00000000000E+00  0.00000000000E+00  0.45593999997E+02  0.45594000000E+02  0.51100000000E-03 0.  1.
         11   -1    0    0    0    0 -0.00000000000E+00 -0.00000000000E+00 -0.45593999997E+02  0.45594000000E+02  0.51100000000E-03 0. -1.
    9900012    2    1    2    0    0  0.95379570129E+01  0.20822450404E+02  0.33594923581E+02  0.50528856438E+02  0.29999989627E+02 0.  0.
         12    1    1    2    0    0 -0.95379570129E+01 -0.20822450404E+02 -0.33594923581E+02  0.40659143562E+02  0.00000000000E+00 0. -1.
         11    1    3    3    0    0 -0.78001942123E+00  0.31680770025E-01 -0.27868076911E+01  0.28940855787E+01  0.51100000000E-03 0. -1.
        -11    1    3    3    0    0  0.11801998821E+02  0.47757367539E+01  0.80709897737E+01  0.15074339584E+02  0.51100000000E-03 0.  1.
        -12    1    3    3    0    0 -0.14840223867E+01  0.16015032880E+02  0.28310741498E+02  0.32560431275E+02  0.00000000000E+00 0.  1.
</event>
<event>
 7    1  0.5456331E-013  0.5052886E+02  0.7816164E-02  0.1300439E+00
        -11   -1    0    0    0    0  0.00000000000E+00  0.00000000000E+00  0.45593999997E+02  0.45594000000E+02  0.51100000000E-03 0.  1.
         11   -1    0    0    0    0 -0.00000000000E+00 -0.00000000000E+00 -0.45593999997E+02  0.45594000000E+02  0.51100000000E-03 0. -1.
    9900012    2    1    2    0    0  0.24893169819E+02  0.19105681282E+02  0.25854765145E+02  0.50528857835E+02  0.29999993876E+02 0.  0.
         12    1    1    2    0    0 -0.24893169819E+02 -0.19105681282E+02 -0.25854765145E+02  0.40659142165E+02  0.00000000000E+00 0. -1.
         11    1    3    3    0    0  0.46132814030E+01  0.18531902512E+02  0.95072349610E+01  0.21333103218E+02  0.51100000000E-03 0. -1.
        -11    1    3    3    0    0  0.22477631286E+01  0.47278438395E+01  0.14289567590E+01  0.54264964879E+01  0.51100000000E-03 0.  1.
         12    1    3    3    0    0  0.18032125288E+02 -0.41540650703E+01  0.14918573425E+02  0.23769258130E+02  0.00000000000E+00 0. -1.
</event>
<event>
 7    1  0.5456331E-013  0.5052887E+02  0.7816164E-02  0.1300439E+00
        -11   -1    0    0    0    0  0.00000000000E+00  0.00000000000E+00  0.45593999997E+02  0.45594000000E+02  0.51100000000E-03 0.  1.
         11   -1    0    0    0    0 -0.00000000000E+00 -0.00000000000E+00 -0.45593999997E+02  0.45594000000E+02  0.51100000000E-03 0. -1.
    9900012    2    1    2    0    0 -0.13226227303E+02 -0.36060944364E+02  0.13335664274E+02  0.50528871398E+02  0.30000035100E+02 0.  0.
         12    1    1    2    0    0  0.13226227303E+02  0.36060944364E+02 -0.13335664274E+02  0.40659128602E+02  0.00000000000E+00 0. -1.
         11    1    3    3    0    0 -0.51881627140E+01 -0.53279190217E+01 -0.55358126948E+01  0.92708670523E+01  0.51100000000E-03 0. -1.
        -11    1    3    3    0    0 -0.17164394239E+01  0.22813520911E+01  0.28020351109E+01  0.40002665765E+01  0.51100000000E-03 0.  1.
        -12    1    3    3    0    0 -0.63216251649E+01 -0.33014377433E+02  0.16069441858E+02  0.37257737769E+02  0.00000000000E+00 0.  1.
</event>
<event>
 7    1  0.5456331E-013  0.5052886E+02  0.7816164E-02  0.1300439E+00
        -11   -1    0    0    0    0  0.00000000000E+00  0.00000000000E+00  0.45593999997E+02  0.45594000000E+02  0.51100000000E-03 0.  1.
         11   -1    0    0    0    0 -0.00000000000E+00 -0.00000000000E+00 -0.45593999997E+02  0.45594000000E+02  0.51100000000E-03 0. -1.
    9900012    2    1    2    0    0  0.10013730157E+02  0.39054491266E+02  0.52571500425E+01  0.50528859499E+02  0.29999998932E+02 0.  0.
         12    1    1    2    0    0 -0.10013730157E+02 -0.39054491266E+02 -0.52571500425E+01  0.40659140501E+02  0.00000000000E+00 0. -1.
         11    1    3    3    0    0  0.95475776425E+01  0.63559509054E+01 -0.21039878562E+01  0.11661094113E+02  0.51100000000E-03 0. -1.
        -11    1    3    3    0    0 -0.91151925597E+01  0.12495425343E+02  0.55582978111E+01  0.16435238505E+02  0.51100000000E-03 0.  1.
         12    1    3    3    0    0  0.95813450746E+01  0.20203115018E+02  0.18028400877E+01  0.22432526881E+02  0.00000000000E+00 0. -1.
</event>
<event>
 7    1  0.5456331E-013  0.5052886E+02  0.7816164E-02  0.1300439E+00
        -11   -1    0    0    0    0  0.00000000000E+00  0.00000000000E+00  0.45593999997E+02  0.45594000000E+02  0.51100000000E-03 0. -1.
         11   -1    0    0    0    0 -0.00000000000E+00 -0.00000000000E+00 -0.45593999997E+02  0.45594000000E+02  0.51100000000E-03 0.  1.
    9900012    2    1    2    0    0 -0.19272539775E+02  0.34300182839E+02  0.10258273612E+02  0.50528861917E+02  0.30000006284E+02 0.  0.
         12    1    1    2    0    0  0.19272539775E+02 -0.34300182839E+02 -0.10258273612E+02  0.40659138083E+02  0.00000000000E+00 0. -1.
         11    1    3    3    0    0 -0.11943168518E+02  0.29974873244E+02 -0.51206295736E+01  0.32670371099E+02  0.51100000000E-03 0.  1.
        -11    1    3    3    0    0 -0.72088078680E+00 -0.37202134593E+00  0.62685553615E+00  0.10251912577E+01  0.51100000000E-03 0. -1.
        -12    1    3    3    0    0 -0.66084904699E+01  0.46973309408E+01  0.14752047649E+02  0.16833299561E+02  0.00000000000E+00 0.  1.
</event>
<event>
 7    1  0.5456331E-013  0.5052888E+02  0.7816164E-02  0.1300439E+00
        -11   -1    0    0    0    0  0.00000000000E+00  0.00000000000E+00  0.45593999997E+02  0.45594000000E+02  0.51100000000E-03 0.  1.
         11   -1    0    0    0    0 -0.00000000000E+00 -0.00000000000E+00 -0.45593999997E+02  0.45594000000E+02  0.51100000000E-03 0. -1.
    9900012    2    1    2    0    0  0.10274139332E+02  0.30253994622E+02  0.25145616019E+02  0.50528878827E+02  0.30000057683E+02 0.  0.
         12    1    1    2    0    0 -0.10274139332E+02 -0.30253994622E+02 -0.25145616019E+02  0.40659121173E+02  0.00000000000E+00 0. -1.
         11    1    3    3    0    0  0.77328200649E+01  0.89970701271E+01  0.14906675652E+01  0.11956833489E+02  0.51100000000E-03 0. -1.
        -11    1    3    3    0    0  0.53380994204E+01  0.60891270257E+01 -0.22666333566E+01  0.84089476388E+01  0.51100000000E-03 0.  1.
        -12    1    3    3    0    0 -0.27967801533E+01  0.15167797469E+02  0.25921581810E+02  0.30163097699E+02  0.00000000000E+00 0.  1.
</event>
<event>
 7    1  0.5456331E-013  0.5052886E+02  0.7816164E-02  0.1300439E+00
        -11   -1    0    0    0    0  0.00000000000E+00  0.00000000000E+00  0.45593999997E+02  0.45594000000E+02  0.51100000000E-03 0. -1.
         11   -1    0    0    0    0 -0.00000000000E+00 -0.00000000000E+00 -0.45593999997E+02  0.45594000000E+02  0.51100000000E-03 0.  1.
    9900012    2    1    2    0    0  0.40054915872E+02 -0.20486986995E+01  0.66762424107E+01  0.50528860011E+02  0.30000000490E+02 0.  0.
         12    1    1    2    0    0 -0.40054915872E+02  0.20486986995E+01 -0.66762424107E+01  0.40659139989E+02  0.00000000000E+00 0. -1.
         11    1    3    3    0    0  0.80286912290E+01  0.51029305726E+01  0.41356620502E+00  0.95221226913E+01  0.51100000000E-03 0. -1.
        -11    1    3    3    0    0  0.35917341393E+02 -0.72060962923E+01  0.57501981664E+01  0.37081639874E+02  0.51100000000E-03 0.  1.
         12    1    3    3    0    0 -0.38911167500E+01  0.54467020131E-01  0.51247803923E+00  0.39250974459E+01  0.00000000000E+00 0. -1.
</event>
<event>
 7    1  0.5456331E-013  0.5052886E+02  0.7816164E-02  0.1300439E+00
        -11   -1    0    0    0    0  0.00000000000E+00  0.00000000000E+00  0.45593999997E+02  0.45594000000E+02  0.51100000000E-03 0. -1.
         11   -1    0    0    0    0 -0.00000000000E+00 -0.00000000000E+00 -0.45593999997E+02  0.45594000000E+02  0.51100000000E-03 0.  1.
    9900012    2    1    2    0    0 -0.21875418240E+02 -0.33980353412E+02  0.44684602844E+01  0.50528862300E+02  0.30000007448E+02 0.  0.
         12    1    1    2    0    0  0.21875418240E+02  0.33980353412E+02 -0.44684602844E+01  0.40659137700E+02  0.00000000000E+00 0. -1.
         11    1    3    3    0    0 -0.18804508511E+02 -0.17109357049E+02 -0.48971457856E+01  0.25890571181E+02  0.51100000000E-03 0. -1.
        -11    1    3    3    0    0  0.20825295985E+01 -0.16473122256E+01 -0.32567277213E+01  0.42020046179E+01  0.51100000000E-03 0.  1.
         12    1    3    3    0    0 -0.51534393272E+01 -0.15223684138E+02  0.12622333791E+02  0.20436286501E+02  0.00000000000E+00 0. -1.
</event>
<event>
 7    1  0.5456331E-013  0.5052886E+02  0.7816164E-02  0.1300439E+00
        -11   -1    0    0    0    0  0.00000000000E+00  0.00000000000E+00  0.45593999997E+02  0.45594000000E+02  0.51100000000E-03 0.  1.
         11   -1    0    0    0    0 -0.00000000000E+00 -0.00000000000E+00 -0.45593999997E+02  0.45594000000E+02  0.51100000000E-03 0. -1.
    9900012    2    1    2    0    0 -0.25120318869E+02 -0.42808563584E+01  0.31682953488E+02  0.50528859663E+02  0.29999999432E+02 0.  0.
         12    1    1    2    0    0  0.25120318869E+02  0.42808563584E+01 -0.31682953488E+02  0.40659140337E+02  0.00000000000E+00 0. -1.
         11    1    3    3    0    0 -0.91642258189E+00 -0.32536815568E+00 -0.34461967850E+01  0.35807774752E+01  0.51100000000E-03 0. -1.
        -11    1    3    3    0    0 -0.88114578747E+01  0.75272892567E+01  0.16737708434E+02  0.20358112814E+02  0.51100000000E-03 0.  1.
         12    1    3    3    0    0 -0.15392438412E+02 -0.11482777459E+02  0.18391441838E+02  0.26589969374E+02  0.00000000000E+00 0. -1.
</event>
<event>
 7    1  0.5456331E-013  0.5052886E+02  0.7816164E-02  0.1300439E+00
        -11   -1    0    0    0    0  0.00000000000E+00  0.00000000000E+00  0.45593999997E+02  0.45594000000E+02  0.51100000000E-03 0.  1.
         11   -1    0    0    0    0 -0.00000000000E+00 -0.00000000000E+00 -0.45593999997E+02  0.45594000000E+02  0.51100000000E-03 0. -1.
    9900012    2    1    2    0    0  0.10376153705E+02  0.12643134096E+02  0.37224353949E+02  0.50528856718E+02  0.29999990482E+02 0.  0.
         12    1    1    2    0    0 -0.10376153705E+02 -0.12643134096E+02 -0.37224353949E+02  0.40659143282E+02  0.00000000000E+00 0. -1.
         11    1    3    3    0    0 -0.11244034685E+01  0.24952945459E+01  0.27441028397E+02  0.27577179294E+02  0.51100000000E-03 0. -1.
        -11    1    3    3    0    0  0.40024869984E+01  0.34358557837E+01  0.11583985001E+02  0.12728460862E+02  0.51100000000E-03 0.  1.
         12    1    3    3    0    0  0.74980701754E+01  0.67119837666E+01 -0.18006594500E+01  0.10223216563E+02  0.00000000000E+00 0. -1.
</event>
<event>
 7    1  0.5456331E-013  0.5052886E+02  0.7816164E-02  0.1300439E+00
        -11   -1    0    0    0    0  0.00000000000E+00  0.00000000000E+00  0.45593999997E+02  0.45594000000E+02  0.51100000000E-03 0. -1.
         11   -1    0    0    0    0 -0.00000000000E+00 -0.00000000000E+00 -0.45593999997E+02  0.45594000000E+02  0.51100000000E-03 0.  1.
    9900012    2    1    2    0    0  0.36862244927E+02 -0.48961593743E+01 -0.16442879234E+02  0.50528858897E+02  0.29999997105E+02 0.  0.
         12    1    1    2    0    0 -0.36862244927E+02  0.48961593743E+01  0.16442879234E+02  0.40659141103E+02  0.00000000000E+00 0. -1.
         11    1    3    3    0    0  0.14603462921E+02  0.76156546612E+01  0.18866646405E+01  0.16577660538E+02  0.51100000000E-03 0. -1.
        -11    1    3    3    0    0  0.95913229801E+01 -0.13287639151E+01 -0.97937330755E+00  0.97323307787E+01  0.51100000000E-03 0.  1.
        -12    1    3    3    0    0  0.12667459027E+02 -0.11183050120E+02 -0.17350170567E+02  0.24218867581E+02  0.00000000000E+00 0.  1.
</event>
<event>
 7    1  0.5456331E-013  0.5052886E+02  0.7816164E-02  0.1300439E+00
        -11   -1    0    0    0    0  0.00000000000E+00  0.00000000000E+00  0.45593999997E+02  0.45594000000E+02  0.51100000000E-03 0. -1.
         11   -1    0    0    0    0 -0.00000000000E+00 -0.00000000000E+00 -0.45593999997E+02  0.45594000000E+02  0.51100000000E-03 0.  1.
    9900012    2    1    2    0    0 -0.38709259263E+02  0.12414953762E+02  0.79220550078E+00  0.50528863029E+02  0.30000009664E+02 0.  0.
         12    1    1    2    0    0  0.38709259263E+02 -0.12414953762E+02 -0.79220550078E+00  0.40659136971E+02  0.00000000000E+00 0. -1.
         11    1    3    3    0    0 -0.16070071489E+02  0.14118760041E+02  0.71715939405E-01  0.21391393741E+02  0.51100000000E-03 0. -1.
        -11    1    3    3    0    0 -0.66832313512E+01  0.49042388728E+01 -0.63841726794E+01  0.10463020657E+02  0.51100000000E-03 0.  1.
        -12    1    3    3    0    0 -0.15955956423E+02 -0.66080451517E+01  0.71046622408E+01  0.18674448631E+02  0.00000000000E+00 0.  1.
</event>
<event>
 7    1  0.5456331E-013  0.5052886E+02  0.7816164E-02  0.1300439E+00
        -11   -1    0    0    0    0  0.00000000000E+00  0.00000000000E+00  0.45593999997E+02  0.45594000000E+02  0.51100000000E-03 0. -1.
         11   -1    0    0    0    0 -0.00000000000E+00 -0.00000000000E+00 -0.45593999997E+02  0.45594000000E+02  0.51100000000E-03 0.  1.
    9900012    2    1    2    0    0  0.10227072372E+02 -0.35025695158E+02 -0.17938047174E+02  0.50528857522E+02  0.29999992925E+02 0.  0.
         12    1    1    2    0    0 -0.10227072372E+02  0.35025695158E+02  0.17938047174E+02  0.40659142478E+02  0.00000000000E+00 0. -1.
         11    1    3    3    0    0  0.72395752001E+01 -0.89444813020E+01  0.79388089661E+00  0.11534532586E+02  0.51100000000E-03 0. -1.
        -11    1    3    3    0    0  0.46863025631E+01 -0.20912621730E+02 -0.21455101674E+01  0.21538393475E+02  0.51100000000E-03 0.  1.
        -12    1    3    3    0    0 -0.16988053914E+01 -0.51685921258E+01 -0.16586417903E+02  0.17455931461E+02  0.00000000000E+00 0.  1.
</event>
<event>
 7    1  0.5456331E-013  0.5052886E+02  0.7816164E-02  0.1300439E+00
        -11   -1    0    0    0    0  0.00000000000E+00  0.00000000000E+00  0.45593999997E+02  0.45594000000E+02  0.51100000000E-03 0. -1.
         11   -1    0    0    0    0 -0.00000000000E+00 -0.00000000000E+00 -0.45593999997E+02  0.45594000000E+02  0.51100000000E-03 0.  1.
    9900012    2    1    2    0    0 -0.32466475914E+02 -0.21182108283E+02 -0.12264247946E+02  0.50528861454E+02  0.30000004876E+02 0.  0.
         12    1    1    2    0    0  0.32466475914E+02  0.21182108283E+02  0.12264247946E+02  0.40659138546E+02  0.00000000000E+00 0. -1.
         11    1    3    3    0    0 -0.60177215167E+01  0.42043433845E+01 -0.90778474211E+01  0.11674621605E+02  0.51100000000E-03 0. -1.
        -11    1    3    3    0    0  0.10738722320E+01 -0.11707972074E+01  0.11188736469E+01  0.19431536662E+01  0.51100000000E-03 0.  1.
         12    1    3    3    0    0 -0.27522626630E+02 -0.24215654460E+02 -0.43052741718E+01  0.36911086183E+02  0.00000000000E+00 0. -1.
</event>
<event>
 7    1  0.5456331E-013  0.5052886E+02  0.7816164E-02  0.1300439E+00
        -11   -1    0    0    0    0  0.00000000000E+00  0.00000000000E+00  0.45593999997E+02  0.45594000000E+02  0.51100000000E-03 0.  1.
         11   -1    0    0    0    0 -0.00000000000E+00 -0.00000000000E+00 -0.45593999997E+02  0.45594000000E+02  0.51100000000E-03 0. -1.
    9900012    2    1    2    0    0 -0.93588315208E+01  0.30452438639E+02  0.25263158309E+02  0.50528856941E+02  0.29999991159E+02 0.  0.
         12    1    1    2    0    0  0.93588315208E+01 -0.30452438639E+02 -0.25263158309E+02  0.40659143059E+02  0.00000000000E+00 0. -1.
         11    1    3    3    0    0  0.66632888377E+01  0.57792613714E+01  0.97126570896E+01  0.13120022414E+02  0.51100000000E-03 0. -1.
        -11    1    3    3    0    0 -0.71555345954E+01  0.15835104343E+02  0.17588844544E+02  0.24724879323E+02  0.51100000000E-03 0.  1.
        -12    1    3    3    0    0 -0.88665857630E+01  0.88380729248E+01 -0.20383433242E+01  0.12683955204E+02  0.00000000000E+00 0.  1.
</event>
<event>
 7    1  0.5456331E-013  0.5052886E+02  0.7816164E-02  0.1300439E+00
        -11   -1    0    0    0    0  0.00000000000E+00  0.00000000000E+00  0.45593999997E+02  0.45594000000E+02  0.51100000000E-03 0. -1.
         11   -1    0    0    0    0 -0.00000000000E+00 -0.00000000000E+00 -0.45593999997E+02  0.45594000000E+02  0.51100000000E-03 0.  1.
    9900012    2    1    2    0    0  0.40106598734E+02  0.45438873081E+01  0.48968708845E+01  0.50528861810E+02  0.30000005958E+02 0.  0.
         12    1    1    2    0    0 -0.40106598734E+02 -0.45438873081E+01 -0.48968708845E+01  0.40659138190E+02  0.00000000000E+00 0. -1.
         11    1    3    3    0    0  0.58608413170E+01  0.69498509812E+01  0.29277286872E+01  0.95509939342E+01  0.51100000000E-03 0. -1.
        -11    1    3    3    0    0  0.38163080501E+01 -0.92716716820E+00 -0.80089981168E+01  0.89200839226E+01  0.51100000000E-03 0.  1.
         12    1    3    3    0    0  0.30429449367E+02 -0.14787965049E+01  0.99781403141E+01  0.32057783953E+02  0.00000000000E+00 0. -1.
</event>
<event>
 7    1  0.5456331E-013  0.5052886E+02  0.7816164E-02  0.1300439E+00
        -11   -1    0    0    0    0  0.00000000000E+00  0.00000000000E+00  0.45593999997E+02  0.45594000000E+02  0.51100000000E-03 0. -1.
         11   -1    0    0    0    0 -0.00000000000E+00 -0.00000000000E+00 -0.45593999997E+02  0.45594000000E+02  0.51100000000E-03 0.  1.
    9900012    2    1    2    0    0  0.27228874163E+02 -0.10720221399E+02 -0.28228189971E+02  0.50528862724E+02  0.30000008735E+02 0.  0.
         12    1    1    2    0    0 -0.27228874163E+02  0.10720221399E+02  0.28228189971E+02  0.40659137276E+02  0.00000000000E+00 0. -1.
         11    1    3    3    0    0  0.44124362292E+00 -0.61580025197E+00 -0.12397541073E+02  0.12420665474E+02  0.51100000000E-03 0. -1.
        -11    1    3    3    0    0  0.65874387115E+01 -0.72611690547E+01 -0.14710481120E+02  0.17678155443E+02  0.51100000000E-03 0.  1.
        -12    1    3    3    0    0  0.20200191829E+02 -0.28432520922E+01 -0.11201677767E+01  0.20430041807E+02  0.00000000000E+00 0.  1.
</event>
<event>
 7    1  0.5456331E-013  0.5052883E+02  0.7816164E-02  0.1300439E+00
        -11   -1    0    0    0    0  0.00000000000E+00  0.00000000000E+00  0.45593999997E+02  0.45594000000E+02  0.51100000000E-03 0. -1.
         11   -1    0    0    0    0 -0.00000000000E+00 -0.00000000000E+00 -0.45593999997E+02  0.45594000000E+02  0.51100000000E-03 0.  1.
    9900012    2    1    2    0    0 -0.58065108223E+01 -0.30496699225E+02 -0.26256505179E+02  0.50528827655E+02  0.29999902140E+02 0.  0.
         12    1    1    2    0    0  0.58065108223E+01  0.30496699225E+02  0.26256505179E+02  0.40659172345E+02  0.00000000000E+00 0. -1.
         11    1    3    3    0    0 -0.55705908037E+01 -0.10052954822E+01  0.16929936285E+01  0.59083270556E+01  0.51100000000E-03 0. -1.
        -11    1    3    3    0    0 -0.52703231411E+01 -0.22910543026E+02 -0.11431670726E+02  0.26141009613E+02  0.51100000000E-03 0.  1.
         12    1    3    3    0    0  0.50344031224E+01 -0.65808607172E+01 -0.16517828082E+02  0.18479490986E+02  0.00000000000E+00 0. -1.
</event>
<event>
 7    1  0.5456331E-013  0.5052886E+02  0.7816164E-02  0.1300439E+00
        -11   -1    0    0    0    0  0.00000000000E+00  0.00000000000E+00  0.45593999997E+02  0.45594000000E+02  0.51100000000E-03 0. -1.
         11   -1    0    0    0    0 -0.00000000000E+00 -0.00000000000E+00 -0.45593999997E+02  0.45594000000E+02  0.51100000000E-03 0.  1.
    9900012    2    1    2    0    0  0.37663084185E+02 -0.14976777879E+02 -0.32177733788E+01  0.50528857713E+02  0.29999993504E+02 0.  0.
         12    1    1    2    0    0 -0.37663084185E+02  0.14976777879E+02  0.32177733788E+01  0.40659142287E+02  0.00000000000E+00 0. -1.
         11    1    3    3    0    0  0.78370081333E+01 -0.51870077755E+01  0.35872488786E+01  0.10059428459E+02  0.51100000000E-03 0. -1.
        -11    1    3    3    0    0  0.12328405876E+02 -0.12659926621E+02  0.59290333039E+01  0.18639119337E+02  0.51100000000E-03 0.  1.
        -12    1    3    3    0    0  0.17497670176E+02  0.28701565171E+01 -0.12734055561E+02  0.21830309917E+02  0.00000000000E+00 0.  1.
</event>
<event>
 7    1  0.5456331E-013  0.5052886E+02  0.7816164E-02  0.1300439E+00
        -11   -1    0    0    0    0  0.00000000000E+00  0.00000000000E+00  0.45593999997E+02  0.45594000000E+02  0.51100000000E-03 0. -1.
         11   -1    0    0    0    0 -0.00000000000E+00 -0.00000000000E+00 -0.45593999997E+02  0.45594000000E+02  0.51100000000E-03 0.  1.
    9900012    2    1    2    0    0  0.19882665682E+02 -0.23521917107E+02 -0.26543629838E+02  0.50528864938E+02  0.30000015467E+02 0.  0.
         12    1    1    2    0    0 -0.19882665682E+02  0.23521917107E+02  0.26543629838E+02  0.40659135062E+02  0.00000000000E+00 0. -1.
         11    1    3    3    0    0  0.49376347108E+01 -0.17438083299E+02 -0.12766667491E+02  0.22168779506E+02  0.51100000000E-03 0. -1.
        -11    1    3    3    0    0  0.69917758361E+01 -0.11892664446E+02 -0.12139318837E+02  0.18376165516E+02  0.51100000000E-03 0.  1.
        -12    1    3    3    0    0  0.79532551353E+01  0.58088306388E+01 -0.16376435088E+01  0.99839199166E+01  0.00000000000E+00 0.  1.
</event>
<event>
 7    1  0.5456331E-013  0.5052886E+02  0.7816164E-02  0.1300439E+00
        -11   -1    0    0    0    0  0.00000000000E+00  0.00000000000E+00  0.45593999997E+02  0.45594000000E+02  0.51100000000E-03 0.  1.
         11   -1    0    0    0    0 -0.00000000000E+00 -0.00000000000E+00 -0.45593999997E+02  0.45594000000E+02  0.51100000000E-03 0. -1.
    9900012    2    1    2    0    0 -0.20859433111E+02  0.14328362821E+02  0.31823696909E+02  0.50528860612E+02  0.30000002318E+02 0.  0.
         12    1    1    2    0    0  0.20859433111E+02 -0.14328362821E+02 -0.31823696909E+02  0.40659139388E+02  0.00000000000E+00 0. -1.
         11    1    3    3    0    0  0.20563116460E+01 -0.13247879642E+01  0.13282115758E+01  0.27834559430E+01  0.51100000000E-03 0. -1.
        -11    1    3    3    0    0 -0.13560398240E+01 -0.47170845220E+01 -0.39038569272E+00  0.49236299253E+01  0.51100000000E-03 0.  1.
        -12    1    3    3    0    0 -0.21559704933E+02  0.20370235307E+02  0.30885871025E+02  0.42821774744E+02  0.00000000000E+00 0.  1.
</event>
<event>
 7    1  0.5456331E-013  0.5052886E+02  0.7816164E-02  0.1300439E+00
        -11   -1    0    0    0    0  0.00000000000E+00  0.00000000000E+00  0.45593999997E+02  0.45594000000E+02  0.51100000000E-03 0.  1.
         11   -1    0    0    0    0 -0.00000000000E+00 -0.00000000000E+00 -0.45593999997E+02  0.45594000000E+02  0.51100000000E-03 0. -1.
    9900012    2    1    2    0    0 -0.11411155341E+01 -0.34787334920E+02  0.21016772223E+02  0.50528861665E+02  0.30000005518E+02 0.  0.
         12    1    1    2    0    0  0.11411155341E+01  0.34787334920E+02 -0.21016772223E+02  0.40659138335E+02  0.00000000000E+00 0. -1.
         11    1    3    3    0    0 -0.35641472796E+01 -0.49807964535E+01  0.13866291854E+02  0.15158678345E+02  0.51100000000E-03 0. -1.
        -11    1    3    3    0    0  0.50889053975E+01 -0.99114568728E+01  0.10153291711E+02  0.15073926771E+02  0.51100000000E-03 0.  1.
        -12    1    3    3    0    0 -0.26658736521E+01 -0.19895081593E+02 -0.30028113419E+01  0.20296256549E+02  0.00000000000E+00 0.  1.
</event>
<event>
 7    1  0.5456331E-013  0.5052883E+02  0.7816164E-02  0.1300439E+00
        -11   -1    0    0    0    0  0.00000000000E+00  0.00000000000E+00  0.45593999997E+02  0.45594000000E+02  0.51100000000E-03 0.  1.
         11   -1    0    0    0    0 -0.00000000000E+00 -0.00000000000E+00 -0.45593999997E+02  0.45594000000E+02  0.51100000000E-03 0. -1.
    9900012    2    1    2    0    0 -0.44189919552E+01 -0.30880135903E+02  0.26077920086E+02  0.50528828841E+02  0.29999905745E+02 0.  0.
         12    1    1    2    0    0  0.44189919552E+01  0.30880135903E+02 -0.26077920086E+02  0.40659171159E+02  0.00000000000E+00 0. -1.
         11    1    3    3    0    0 -0.40288875569E+01 -0.27516694741E+01  0.11784263651E+02  0.12754312600E+02  0.51100000000E-03 0. -1.
        -11    1    3    3    0    0 -0.62225315780E+01 -0.13926128133E+02  0.16261542775E+02  0.22295621043E+02  0.51100000000E-03 0.  1.
         12    1    3    3    0    0  0.58324271797E+01 -0.14202338297E+02 -0.19678863398E+01  0.15478895198E+02  0.00000000000E+00 0. -1.
</event>
<event>
 7    1  0.5456331E-013  0.5052887E+02  0.7816164E-02  0.1300439E+00
        -11   -1    0    0    0    0  0.00000000000E+00  0.00000000000E+00  0.45593999997E+02  0.45594000000E+02  0.51100000000E-03 0.  1.
         11   -1    0    0    0    0 -0.00000000000E+00 -0.00000000000E+00 -0.45593999997E+02  0.45594000000E+02  0.51100000000E-03 0. -1.
    9900012    2    1    2    0    0 -0.16561402484E+02 -0.47395199557E+01  0.36829634630E+02  0.50528867095E+02  0.30000022021E+02 0.  0.
         12    1    1    2    0    0  0.16561402484E+02  0.47395199557E+01 -0.36829634630E+02  0.40659132905E+02  0.00000000000E+00 0. -1.
         11    1    3    3    0    0 -0.84567817282E+01  0.54892556930E+00  0.10617904497E+01  0.85408357729E+01  0.51100000000E-03 0. -1.
        -11    1    3    3    0    0 -0.97893633405E+01  0.20017886860E+01  0.32169203162E+02  0.33685255304E+02  0.51100000000E-03 0.  1.
        -12    1    3    3    0    0  0.16847425848E+01 -0.72902342110E+01  0.35986410179E+01  0.83027760179E+01  0.00000000000E+00 0.  1.
</event>
<event>
 7    1  0.5456331E-013  0.5052886E+02  0.7816164E-02  0.1300439E+00
        -11   -1    0    0    0    0  0.00000000000E+00  0.00000000000E+00  0.45593999997E+02  0.45594000000E+02  0.51100000000E-03 0. -1.
         11   -1    0    0    0    0 -0.00000000000E+00 -0.00000000000E+00 -0.45593999997E+02  0.45594000000E+02  0.51100000000E-03 0.  1.
    9900012    2    1    2    0    0 -0.23460052135E+02 -0.29458672544E+02 -0.15329008899E+02  0.50528856526E+02  0.29999989897E+02 0.  0.
         12    1    1    2    0    0  0.23460052135E+02  0.29458672544E+02  0.15329008899E+02  0.40659143474E+02  0.00000000000E+00 0. -1.
         11    1    3    3    0    0 -0.15707277338E+02 -0.55436474808E+01 -0.34739659351E+01  0.17015258691E+02  0.51100000000E-03 0.  1.
        -11    1    3    3    0    0 -0.57039078749E+01 -0.87412276795E+00 -0.83020207694E+01  0.10110499729E+02  0.51100000000E-03 0. -1.
        -12    1    3    3    0    0 -0.20488669224E+01 -0.23040902295E+02 -0.35530221947E+01  0.23403098106E+02  0.00000000000E+00 0.  1.
</event>
<event>
 7    1  0.5456331E-013  0.5052887E+02  0.7816164E-02  0.1300439E+00
        -11   -1    0    0    0    0  0.00000000000E+00  0.00000000000E+00  0.45593999997E+02  0.45594000000E+02  0.51100000000E-03 0.  1.
         11   -1    0    0    0    0 -0.00000000000E+00 -0.00000000000E+00 -0.45593999997E+02  0.45594000000E+02  0.51100000000E-03 0. -1.
    9900012    2    1    2    0    0  0.36498942652E+02  0.23411590970E+01  0.17762636213E+02  0.50528867128E+02  0.30000022123E+02 0.  0.
         12    1    1    2    0    0 -0.36498942652E+02 -0.23411590970E+01 -0.17762636213E+02  0.40659132872E+02  0.00000000000E+00 0. -1.
         11    1    3    3    0    0  0.12778513806E+02  0.46827087575E+01  0.85642189458E+01  0.16079926082E+02  0.51100000000E-03 0. -1.
        -11    1    3    3    0    0  0.18127287493E+02  0.81552306070E+01  0.10506717258E+02  0.22483270356E+02  0.51100000000E-03 0.  1.
         12    1    3    3    0    0  0.55931413530E+01 -0.10496780268E+02 -0.13082999911E+01  0.11965670689E+02  0.00000000000E+00 0. -1.
</event>
<event>
 7    1  0.5456331E-013  0.5052886E+02  0.7816164E-02  0.1300439E+00
        -11   -1    0    0    0    0  0.00000000000E+00  0.00000000000E+00  0.45593999997E+02  0.45594000000E+02  0.51100000000E-03 0. -1.
         11   -1    0    0    0    0 -0.00000000000E+00 -0.00000000000E+00 -0.45593999997E+02  0.45594000000E+02  0.51100000000E-03 0.  1.
    9900012    2    1    2    0    0  0.14277937257E+02 -0.34291995101E+02  0.16533768677E+02  0.50528856785E+02  0.29999990683E+02 0.  0.
         12    1    1    2    0    0 -0.14277937257E+02  0.34291995101E+02 -0.16533768677E+02  0.40659143215E+02  0.00000000000E+00 0. -1.
         11    1    3    3    0    0 -0.33375180995E+00  0.93260472273E+00  0.30587297456E+01  0.32151158233E+01  0.51100000000E-03 0. -1.
        -11    1    3    3    0    0 -0.56753328159E+01 -0.22614561478E+01  0.44818823910E+01  0.75769952162E+01  0.51100000000E-03 0.  1.
        -12    1    3    3    0    0  0.20287021882E+02 -0.32963143676E+02  0.89931565405E+01  0.39736745745E+02  0.00000000000E+00 0.  1.
</event>
<event>
 7    1  0.5879142E-013  0.5052886E+02  0.7816164E-02  0.1300439E+00
        -11   -1    0    0    0    0  0.00000000000E+00  0.00000000000E+00  0.45593999997E+02  0.45594000000E+02  0.51100000000E-03 0. -1.
         11   -1    0    0    0    0 -0.00000000000E+00 -0.00000000000E+00 -0.45593999997E+02  0.45594000000E+02  0.51100000000E-03 0.  1.
    9900012    2    1    2    0    0 -0.46040293257E+01  0.35933293872E+02 -0.18459883528E+02  0.50528855956E+02  0.29999988164E+02 0.  0.
         12    1    1    2    0    0  0.46040293257E+01 -0.35933293872E+02  0.18459883528E+02  0.40659144044E+02  0.00000000000E+00 0. -1.
         11    1    3    3    0    0  0.13917960835E+01 -0.31664244202E+01 -0.96348012139E+00  0.35904921881E+01  0.51100000000E-03 0. -1.
        -11    1    3    3    0    0 -0.11602583688E+02  0.25196511584E+02 -0.15606898914E+02  0.31828594663E+02  0.51100000000E-03 0.  1.
         12    1    3    3    0    0  0.56067582791E+01  0.13903206708E+02 -0.18895044921E+01  0.15109769105E+02  0.00000000000E+00 0. -1.
</event>
<event>
 7    1  0.5456331E-013  0.5052886E+02  0.7816164E-02  0.1300439E+00
        -11   -1    0    0    0    0  0.00000000000E+00  0.00000000000E+00  0.45593999997E+02  0.45594000000E+02  0.51100000000E-03 0.  1.
         11   -1    0    0    0    0 -0.00000000000E+00 -0.00000000000E+00 -0.45593999997E+02  0.45594000000E+02  0.51100000000E-03 0. -1.
    9900012    2    1    2    0    0  0.74579610683E+01 -0.25731592298E+02  0.30584795111E+02  0.50528859362E+02  0.29999998516E+02 0.  0.
         12    1    1    2    0    0 -0.74579610683E+01  0.25731592298E+02 -0.30584795111E+02  0.40659140638E+02  0.00000000000E+00 0. -1.
         11    1    3    3    0    0  0.22788619319E+01  0.21227331904E+01  0.48550093013E+01  0.57680432973E+01  0.51100000000E-03 0. -1.
        -11    1    3    3    0    0 -0.43675193936E+01  0.18298311189E+01  0.72242321321E+00  0.47901360249E+01  0.51100000000E-03 0.  1.
        -12    1    3    3    0    0  0.95466185300E+01 -0.29684156607E+02  0.25007362596E+02  0.39970680040E+02  0.00000000000E+00 0.  1.
</event>
<event>
 7    1  0.5456331E-013  0.5052887E+02  0.7816164E-02  0.1300439E+00
        -11   -1    0    0    0    0  0.00000000000E+00  0.00000000000E+00  0.45593999997E+02  0.45594000000E+02  0.51100000000E-03 0. -1.
         11   -1    0    0    0    0 -0.00000000000E+00 -0.00000000000E+00 -0.45593999997E+02  0.45594000000E+02  0.51100000000E-03 0.  1.
    9900012    2    1    2    0    0  0.34394388968E+02 -0.49755284524E+01 -0.21105340133E+02  0.50528865012E+02  0.30000015690E+02 0.  0.
         12    1    1    2    0    0 -0.34394388968E+02  0.49755284524E+01  0.21105340133E+02  0.40659134988E+02  0.00000000000E+00 0. -1.
         11    1    3    3    0    0  0.48891021829E+01  0.69317764799E+01 -0.40581153447E+01  0.94032518702E+01  0.51100000000E-03 0. -1.
        -11    1    3    3    0    0  0.97571338782E+01  0.47987166298E+01 -0.87626094025E+01  0.13964693574E+02  0.51100000000E-03 0.  1.
         12    1    3    3    0    0  0.19748152907E+02 -0.16706021562E+02 -0.82846153861E+01  0.27160919568E+02  0.00000000000E+00 0. -1.
</event>
<event>
 7    1  0.5456331E-013  0.5052886E+02  0.7816164E-02  0.1300439E+00
        -11   -1    0    0    0    0  0.00000000000E+00  0.00000000000E+00  0.45593999997E+02  0.45594000000E+02  0.51100000000E-03 0. -1.
         11   -1    0    0    0    0 -0.00000000000E+00 -0.00000000000E+00 -0.45593999997E+02  0.45594000000E+02  0.51100000000E-03 0.  1.
    9900012    2    1    2    0    0 -0.34054603906E+02 -0.13462934318E+02 -0.17669161937E+02  0.50528856733E+02  0.29999990527E+02 0.  0.
         12    1    1    2    0    0  0.34054603906E+02  0.13462934318E+02  0.17669161937E+02  0.40659143267E+02  0.00000000000E+00 0. -1.
         11    1    3    3    0    0 -0.65734826197E+01  0.59335644969E+01 -0.37366130763E+01  0.96114587308E+01  0.51100000000E-03 0. -1.
        -11    1    3    3    0    0 -0.27110697596E+02 -0.10128988070E+02 -0.84772564741E+01  0.30157092053E+02  0.51100000000E-03 0.  1.
         12    1    3    3    0    0 -0.37042368979E+00 -0.92675107449E+01 -0.54552923864E+01  0.10760305950E+02  0.00000000000E+00 0. -1.
</event>
<event>
 7    1  0.5456331E-013  0.5052885E+02  0.7816164E-02  0.1300439E+00
        -11   -1    0    0    0    0  0.00000000000E+00  0.00000000000E+00  0.45593999997E+02  0.45594000000E+02  0.51100000000E-03 0. -1.
         11   -1    0    0    0    0 -0.00000000000E+00 -0.00000000000E+00 -0.45593999997E+02  0.45594000000E+02  0.51100000000E-03 0.  1.
    9900012    2    1    2    0    0  0.77309075602E+01 -0.38719850355E+02 -0.97042507253E+01  0.50528853116E+02  0.29999979532E+02 0.  0.
         12    1    1    2    0    0 -0.77309075602E+01  0.38719850355E+02  0.97042507253E+01  0.40659146884E+02  0.00000000000E+00 0. -1.
         11    1    3    3    0    0  0.10358435977E+02 -0.49226625268E+01 -0.74800210324E+01  0.13692352506E+02  0.51100000000E-03 0. -1.
        -11    1    3    3    0    0  0.20656491321E+01 -0.43731609980E+00  0.19703603254E+01  0.28879874967E+01  0.51100000000E-03 0.  1.
        -12    1    3    3    0    0 -0.46931775487E+01 -0.33359871728E+02 -0.41945900183E+01  0.33948513114E+02  0.00000000000E+00 0.  1.
</event>
<event>
 7    1  0.5456331E-013  0.5052886E+02  0.7816164E-02  0.1300439E+00
        -11   -1    0    0    0    0  0.00000000000E+00  0.00000000000E+00  0.45593999997E+02  0.45594000000E+02  0.51100000000E-03 0.  1.
         11   -1    0    0    0    0 -0.00000000000E+00 -0.00000000000E+00 -0.45593999997E+02  0.45594000000E+02  0.51100000000E-03 0. -1.
    9900012    2    1    2    0    0 -0.51551144058E+01  0.22607850871E+02  0.33398733788E+02  0.50528861492E+02  0.30000004992E+02 0.  0.
         12    1    1    2    0    0  0.51551144058E+01 -0.22607850871E+02 -0.33398733788E+02  0.40659138508E+02  0.00000000000E+00 0. -1.
         11    1    3    3    0    0 -0.86665620726E+01  0.39146908360E+00  0.73465135101E+01  0.11368104821E+02  0.51100000000E-03 0. -1.
        -11    1    3    3    0    0 -0.47873708106E+01 -0.35098851553E+00  0.69750139892E+01  0.84671679224E+01  0.51100000000E-03 0.  1.
        -12    1    3    3    0    0  0.82988184775E+01  0.22567370303E+02  0.19077206289E+02  0.30693588749E+02  0.00000000000E+00 0.  1.
</event>
<event>
 7    1  0.5456331E-013  0.5052886E+02  0.7816164E-02  0.1300439E+00
        -11   -1    0    0    0    0  0.00000000000E+00  0.00000000000E+00  0.45593999997E+02  0.45594000000E+02  0.51100000000E-03 0. -1.
         11   -1    0    0    0    0 -0.00000000000E+00 -0.00000000000E+00 -0.45593999997E+02  0.45594000000E+02  0.51100000000E-03 0.  1.
    9900012    2    1    2    0    0 -0.18950438815E+02  0.35497448649E+02 -0.58290696644E+01  0.50528855333E+02  0.29999986272E+02 0.  0.
         12    1    1    2    0    0  0.18950438815E+02 -0.35497448649E+02  0.58290696644E+01  0.40659144667E+02  0.00000000000E+00 0. -1.
         11    1    3    3    0    0 -0.58617719932E+01  0.17739082325E+02 -0.14809187554E+02  0.23840038777E+02  0.51100000000E-03 0. -1.
        -11    1    3    3    0    0 -0.68692010640E+01  0.78365587351E+01 -0.20285768785E+01  0.10616623780E+02  0.51100000000E-03 0.  1.
         12    1    3    3    0    0 -0.62194657579E+01  0.99218075890E+01  0.11008694768E+02  0.16072192777E+02  0.00000000000E+00 0. -1.
</event>
<event>
 7    1  0.5456331E-013  0.5052885E+02  0.7816164E-02  0.1300439E+00
        -11   -1    0    0    0    0  0.00000000000E+00  0.00000000000E+00  0.45593999997E+02  0.45594000000E+02  0.51100000000E-03 0.  1.
         11   -1    0    0    0    0 -0.00000000000E+00 -0.00000000000E+00 -0.45593999997E+02  0.45594000000E+02  0.51100000000E-03 0. -1.
    9900012    2    1    2    0    0  0.18675861683E+02  0.21373898353E+02  0.29112457033E+02  0.50528849801E+02  0.29999969455E+02 0.  0.
         12    1    1    2    0    0 -0.18675861683E+02 -0.21373898353E+02 -0.29112457033E+02  0.40659150199E+02  0.00000000000E+00 0. -1.
         11    1    3    3    0    0  0.19939174461E+02  0.20064302983E+02  0.15415150445E+02  0.32214496673E+02  0.51100000000E-03 0. -1.
        -11    1    3    3    0    0  0.87764287249E+00  0.24743562035E+01 -0.14316221251E+01  0.29903574709E+01  0.51100000000E-03 0.  1.
        -12    1    3    3    0    0 -0.21409556508E+01 -0.11647608336E+01  0.15128928713E+02  0.15323995657E+02  0.00000000000E+00 0.  1.
</event>
<event>
 7    1  0.5456331E-013  0.5052886E+02  0.7816164E-02  0.1300439E+00
        -11   -1    0    0    0    0  0.00000000000E+00  0.00000000000E+00  0.45593999997E+02  0.45594000000E+02  0.51100000000E-03 0.  1.
         11   -1    0    0    0    0 -0.00000000000E+00 -0.00000000000E+00 -0.45593999997E+02  0.45594000000E+02  0.51100000000E-03 0. -1.
    9900012    2    1    2    0    0 -0.11469924147E+02 -0.38001762897E+02 -0.88018598623E+01  0.50528857360E+02  0.29999992431E+02 0.  0.
         12    1    1    2    0    0  0.11469924147E+02  0.38001762897E+02  0.88018598623E+01  0.40659142640E+02  0.00000000000E+00 0. -1.
         11    1    3    3    0    0 -0.91139670298E+01 -0.24482113070E+02 -0.49819601319E+01  0.26594326132E+02  0.51100000000E-03 0. -1.
        -11    1    3    3    0    0 -0.28532165346E+01 -0.17621392368E+02  0.63025849319E+00  0.17862013873E+02  0.51100000000E-03 0.  1.
         12    1    3    3    0    0  0.49725941723E+00  0.41017425415E+01 -0.44501582236E+01  0.60725173544E+01  0.00000000000E+00 0. -1.
</event>
<event>
 7    1  0.5456331E-013  0.5052886E+02  0.7816164E-02  0.1300439E+00
        -11   -1    0    0    0    0  0.00000000000E+00  0.00000000000E+00  0.45593999997E+02  0.45594000000E+02  0.51100000000E-03 0. -1.
         11   -1    0    0    0    0 -0.00000000000E+00 -0.00000000000E+00 -0.45593999997E+02  0.45594000000E+02  0.51100000000E-03 0.  1.
    9900012    2    1    2    0    0  0.22701427198E+02  0.29922999591E+02 -0.15570007204E+02  0.50528858031E+02  0.29999994471E+02 0.  0.
         12    1    1    2    0    0 -0.22701427198E+02 -0.29922999591E+02  0.15570007204E+02  0.40659141969E+02  0.00000000000E+00 0. -1.
         11    1    3    3    0    0  0.10054494226E+01  0.13246220807E+02 -0.22531600183E+01  0.13474050042E+02  0.51100000000E-03 0. -1.
        -11    1    3    3    0    0  0.56276320887E+01  0.15053532987E+02  0.80258500263E-01  0.16071264418E+02  0.51100000000E-03 0.  1.
         12    1    3    3    0    0  0.16068345687E+02  0.16232457966E+01 -0.13397105686E+02  0.20983543570E+02  0.00000000000E+00 0. -1.
</event>
<event>
 7    1  0.5456331E-013  0.5052887E+02  0.7816164E-02  0.1300439E+00
        -11   -1    0    0    0    0  0.00000000000E+00  0.00000000000E+00  0.45593999997E+02  0.45594000000E+02  0.51100000000E-03 0.  1.
         11   -1    0    0    0    0 -0.00000000000E+00 -0.00000000000E+00 -0.45593999997E+02  0.45594000000E+02  0.51100000000E-03 0. -1.
    9900012    2    1    2    0    0  0.20752450014E+02 -0.15084401450E+02  0.31543013981E+02  0.50528867204E+02  0.30000022354E+02 0.  0.
         12    1    1    2    0    0 -0.20752450014E+02  0.15084401450E+02 -0.31543013981E+02  0.40659132796E+02  0.00000000000E+00 0. -1.
         11    1    3    3    0    0 -0.92339563717E-01 -0.83821076804E+01  0.94987284623E+01  0.12668626540E+02  0.51100000000E-03 0.  1.
        -11    1    3    3    0    0  0.28673960612E+01  0.71168953141E+01  0.29634692245E+01  0.82252239598E+01  0.51100000000E-03 0. -1.
         12    1    3    3    0    0  0.17977393517E+02 -0.13819189083E+02  0.19080816294E+02  0.29635016704E+02  0.00000000000E+00 0. -1.
</event>
<event>
 7    1  0.5456331E-013  0.5052886E+02  0.7816164E-02  0.1300439E+00
        -11   -1    0    0    0    0  0.00000000000E+00  0.00000000000E+00  0.45593999997E+02  0.45594000000E+02  0.51100000000E-03 0.  1.
         11   -1    0    0    0    0 -0.00000000000E+00 -0.00000000000E+00 -0.45593999997E+02  0.45594000000E+02  0.51100000000E-03 0. -1.
    9900012    2    1    2    0    0  0.25213860959E+01 -0.23954575005E+02  0.32756470438E+02  0.50528863179E+02  0.30000010118E+02 0.  0.
         12    1    1    2    0    0 -0.25213860959E+01  0.23954575005E+02 -0.32756470438E+02  0.40659136821E+02  0.00000000000E+00 0. -1.
         11    1    3    3    0    0  0.37967299578E+01 -0.24079338940E+02  0.22120991930E+02  0.32917594177E+02  0.51100000000E-03 0. -1.
        -11    1    3    3    0    0 -0.43866760702E+01 -0.45099379864E+01  0.85418060943E+00  0.63491804479E+01  0.51100000000E-03 0.  1.
         12    1    3    3    0    0  0.31113322083E+01  0.46347019218E+01  0.97812978983E+01  0.11262088554E+02  0.00000000000E+00 0. -1.
</event>
<event>
 7    1  0.5456331E-013  0.5052886E+02  0.7816164E-02  0.1300439E+00
        -11   -1    0    0    0    0  0.00000000000E+00  0.00000000000E+00  0.45593999997E+02  0.45594000000E+02  0.51100000000E-03 0. -1.
         11   -1    0    0    0    0 -0.00000000000E+00 -0.00000000000E+00 -0.45593999997E+02  0.45594000000E+02  0.51100000000E-03 0.  1.
    9900012    2    1    2    0    0 -0.72189028137E+01  0.19516039874E+02 -0.34931035019E+02  0.50528861080E+02  0.30000003738E+02 0.  0.
         12    1    1    2    0    0  0.72189028137E+01 -0.19516039874E+02  0.34931035019E+02  0.40659138920E+02  0.00000000000E+00 0. -1.
         11    1    3    3    0    0 -0.66887335586E+01  0.78701534120E+00 -0.14845567518E+02  0.16301822750E+02  0.51100000000E-03 0. -1.
        -11    1    3    3    0    0  0.56050719275E+01 -0.50089361060E+00 -0.10430795627E+02  0.11851971287E+02  0.51100000000E-03 0.  1.
        -12    1    3    3    0    0 -0.61352411826E+01  0.19229918144E+02 -0.96546718747E+01  0.22375067043E+02  0.00000000000E+00 0.  1.
</event>
<event>
 7    1  0.5456331E-013  0.5052888E+02  0.7816164E-02  0.1300439E+00
        -11   -1    0    0    0    0  0.00000000000E+00  0.00000000000E+00  0.45593999997E+02  0.45594000000E+02  0.51100000000E-03 0. -1.
         11   -1    0    0    0    0 -0.00000000000E+00 -0.00000000000E+00 -0.45593999997E+02  0.45594000000E+02  0.51100000000E-03 0.  1.
    9900012    2    1    2    0    0 -0.18833594181E+02 -0.36027263157E+02  0.70461016035E+00  0.50528875122E+02  0.30000046420E+02 0.  0.
         12    1    1    2    0    0  0.18833594181E+02  0.36027263157E+02 -0.70461016035E+00  0.40659124878E+02  0.00000000000E+00 0. -1.
         11    1    3    3    0    0 -0.39171615514E+00 -0.77792945597E+01 -0.22128229293E+01  0.80973730908E+01  0.51100000000E-03 0.  1.
        -11    1    3    3    0    0 -0.40924071949E+01 -0.21848881689E+02 -0.76367864661E+01  0.23504083379E+02  0.51100000000E-03 0. -1.
         12    1    3    3    0    0 -0.14349470831E+02 -0.63990869091E+01  0.10554219556E+02  0.18927418652E+02  0.00000000000E+00 0. -1.
</event>
<event>
 7    1  0.5456331E-013  0.5052886E+02  0.7816164E-02  0.1300439E+00
        -11   -1    0    0    0    0  0.00000000000E+00  0.00000000000E+00  0.45593999997E+02  0.45594000000E+02  0.51100000000E-03 0.  1.
         11   -1    0    0    0    0 -0.00000000000E+00 -0.00000000000E+00 -0.45593999997E+02  0.45594000000E+02  0.51100000000E-03 0. -1.
    9900012    2    1    2    0    0  0.36969775103E+02  0.18772135646E+01  0.16818968739E+02  0.50528856977E+02  0.29999991268E+02 0.  0.
         12    1    1    2    0    0 -0.36969775103E+02 -0.18772135646E+01 -0.16818968739E+02  0.40659143023E+02  0.00000000000E+00 0. -1.
         11    1    3    3    0    0  0.13013907113E+02  0.55223537026E+01  0.29150603121E+01  0.14434533094E+02  0.51100000000E-03 0.  1.
        -11    1    3    3    0    0  0.10758246007E+02  0.72161321113E+01 -0.15562580527E+01  0.13047388980E+02  0.51100000000E-03 0. -1.
        -12    1    3    3    0    0  0.13197621983E+02 -0.10861272249E+02  0.15460166479E+02  0.23046934903E+02  0.00000000000E+00 0.  1.
</event>
<event>
 7    1  0.5456331E-013  0.5052886E+02  0.7816164E-02  0.1300439E+00
        -11   -1    0    0    0    0  0.00000000000E+00  0.00000000000E+00  0.45593999997E+02  0.45594000000E+02  0.51100000000E-03 0.  1.
         11   -1    0    0    0    0 -0.00000000000E+00 -0.00000000000E+00 -0.45593999997E+02  0.45594000000E+02  0.51100000000E-03 0. -1.
    9900012    2    1    2    0    0  0.16254668467E+02 -0.37570611173E+01  0.37078779907E+02  0.50528859888E+02  0.30000000117E+02 0.  0.
         12    1    1    2    0    0 -0.16254668467E+02  0.37570611173E+01 -0.37078779907E+02  0.40659140112E+02  0.00000000000E+00 0. -1.
         11    1    3    3    0    0  0.50279962209E+01 -0.11615715379E+02  0.11746669512E+02  0.17268174039E+02  0.51100000000E-03 0. -1.
        -11    1    3    3    0    0 -0.36906317557E+01  0.62473854337E+00  0.10005742625E+02  0.10682974620E+02  0.51100000000E-03 0.  1.
        -12    1    3    3    0    0  0.14917304002E+02  0.72339157185E+01  0.15326367771E+02  0.22577711229E+02  0.00000000000E+00 0.  1.
</event>
<event>
 7    1  0.5456331E-013  0.5052886E+02  0.7816164E-02  0.1300439E+00
        -11   -1    0    0    0    0  0.00000000000E+00  0.00000000000E+00  0.45593999997E+02  0.45594000000E+02  0.51100000000E-03 0.  1.
         11   -1    0    0    0    0 -0.00000000000E+00 -0.00000000000E+00 -0.45593999997E+02  0.45594000000E+02  0.51100000000E-03 0. -1.
    9900012    2    1    2    0    0 -0.35965205378E+02 -0.17608232948E+02  0.70441458662E+01  0.50528857653E+02  0.29999993322E+02 0.  0.
         12    1    1    2    0    0  0.35965205378E+02  0.17608232948E+02 -0.70441458662E+01  0.40659142347E+02  0.00000000000E+00 0. -1.
         11    1    3    3    0    0 -0.58900673284E+01 -0.39345587795E+01 -0.22289457399E+01  0.74257555370E+01  0.51100000000E-03 0. -1.
        -11    1    3    3    0    0 -0.29852752765E+02 -0.11658476914E+02 -0.15556090169E+01  0.32086240840E+02  0.51100000000E-03 0.  1.
        -12    1    3    3    0    0 -0.22238528468E+00 -0.20151972538E+01  0.10828700623E+02  0.11016861276E+02  0.00000000000E+00 0.  1.
</event>
<event>
 7    1  0.5456331E-013  0.5052887E+02  0.7816164E-02  0.1300439E+00
        -11   -1    0    0    0    0  0.00000000000E+00  0.00000000000E+00  0.45593999997E+02  0.45594000000E+02  0.51100000000E-03 0.  1.
         11   -1    0    0    0    0 -0.00000000000E+00 -0.00000000000E+00 -0.45593999997E+02  0.45594000000E+02  0.51100000000E-03 0. -1.
    9900012    2    1    2    0    0 -0.21279376452E+01 -0.37967428247E+02  0.14391362004E+02  0.50528867857E+02  0.30000024339E+02 0.  0.
         12    1    1    2    0    0  0.21279376452E+01  0.37967428247E+02 -0.14391362004E+02  0.40659132143E+02  0.00000000000E+00 0. -1.
         11    1    3    3    0    0 -0.38926925987E+01 -0.10917939906E+02 -0.43633768923E+01  0.12385213992E+02  0.51100000000E-03 0. -1.
        -11    1    3    3    0    0 -0.23312110145E+01 -0.20156487513E+02  0.30612295108E+01  0.20520469294E+02  0.51100000000E-03 0.  1.
         12    1    3    3    0    0  0.40959659680E+01 -0.68930008278E+01  0.15693509385E+02  0.17623184572E+02  0.00000000000E+00 0. -1.
</event>
<event>
 7    1  0.5456331E-013  0.5052887E+02  0.7816164E-02  0.1300439E+00
        -11   -1    0    0    0    0  0.00000000000E+00  0.00000000000E+00  0.45593999997E+02  0.45594000000E+02  0.51100000000E-03 0.  1.
         11   -1    0    0    0    0 -0.00000000000E+00 -0.00000000000E+00 -0.45593999997E+02  0.45594000000E+02  0.51100000000E-03 0. -1.
    9900012    2    1    2    0    0 -0.87991472824E+01  0.26169699112E+02  0.29847727992E+02  0.50528868052E+02  0.30000024930E+02 0.  0.
         12    1    1    2    0    0  0.87991472824E+01 -0.26169699112E+02 -0.29847727992E+02  0.40659131948E+02  0.00000000000E+00 0. -1.
         11    1    3    3    0    0  0.45531077805E+01  0.10994906056E+02  0.20188946398E+01  0.12070405357E+02  0.51100000000E-03 0. -1.
        -11    1    3    3    0    0 -0.11974594092E+00  0.13156365139E+02  0.13558271143E+02  0.18892617590E+02  0.51100000000E-03 0.  1.
         12    1    3    3    0    0 -0.13232509122E+02  0.20184279172E+01  0.14270562209E+02  0.19565845105E+02  0.00000000000E+00 0. -1.
</event>
<event>
 7    1  0.5456331E-013  0.5052886E+02  0.7816164E-02  0.1300439E+00
        -11   -1    0    0    0    0  0.00000000000E+00  0.00000000000E+00  0.45593999997E+02  0.45594000000E+02  0.51100000000E-03 0.  1.
         11   -1    0    0    0    0 -0.00000000000E+00 -0.00000000000E+00 -0.45593999997E+02  0.45594000000E+02  0.51100000000E-03 0. -1.
    9900012    2    1    2    0    0 -0.35537679710E+02 -0.19114708077E+02 -0.49866488738E+01  0.50528863130E+02  0.30000009970E+02 0.  0.
         12    1    1    2    0    0  0.35537679710E+02  0.19114708077E+02  0.49866488738E+01  0.40659136870E+02  0.00000000000E+00 0. -1.
         11    1    3    3    0    0 -0.90940360697E+01  0.13534827266E+01 -0.68217127219E+01  0.11448544547E+02  0.51100000000E-03 0. -1.
        -11    1    3    3    0    0 -0.12910178686E+02 -0.82672257105E+01 -0.91017571511E+01  0.17828676848E+02  0.51100000000E-03 0.  1.
        -12    1    3    3    0    0 -0.13533464954E+02 -0.12200965093E+02  0.10936820999E+02  0.21251641735E+02  0.00000000000E+00 0.  1.
</event>
<event>
 7    1  0.5456331E-013  0.5052886E+02  0.7816164E-02  0.1300439E+00
        -11   -1    0    0    0    0  0.00000000000E+00  0.00000000000E+00  0.45593999997E+02  0.45594000000E+02  0.51100000000E-03 0. -1.
         11   -1    0    0    0    0 -0.00000000000E+00 -0.00000000000E+00 -0.45593999997E+02  0.45594000000E+02  0.51100000000E-03 0.  1.
    9900012    2    1    2    0    0 -0.36301715886E+02 -0.14780143471E+02 -0.10811968111E+02  0.50528857464E+02  0.29999992749E+02 0.  0.
         12    1    1    2    0    0  0.36301715886E+02  0.14780143471E+02  0.10811968111E+02  0.40659142536E+02  0.00000000000E+00 0. -1.
         11    1    3    3    0    0 -0.17666253164E+01 -0.27904493515E+01  0.17871883417E+01  0.37552117146E+01  0.51100000000E-03 0. -1.
        -11    1    3    3    0    0 -0.91756676734E+01 -0.11951460368E+02  0.50340754157E+01  0.15886226667E+02  0.51100000000E-03 0.  1.
         12    1    3    3    0    0 -0.25359422896E+02 -0.38233751473E-01 -0.17633231868E+02  0.30887419082E+02  0.00000000000E+00 0. -1.
</event>
<event>
 7    1  0.5456331E-013  0.5052885E+02  0.7816164E-02  0.1300439E+00
        -11   -1    0    0    0    0  0.00000000000E+00  0.00000000000E+00  0.45593999997E+02  0.45594000000E+02  0.51100000000E-03 0.  1.
         11   -1    0    0    0    0 -0.00000000000E+00 -0.00000000000E+00 -0.45593999997E+02  0.45594000000E+02  0.51100000000E-03 0. -1.
    9900012    2    1    2    0    0 -0.28460461624E+02 -0.26688009627E+02  0.11441962710E+02  0.50528852882E+02  0.29999978820E+02 0.  0.
         12    1    1    2    0    0  0.28460461624E+02  0.26688009627E+02 -0.11441962710E+02  0.40659147118E+02  0.00000000000E+00 0. -1.
         11    1    3    3    0    0 -0.14673563965E+02 -0.25156576492E+02  0.65913901256E+01  0.29859893575E+02  0.51100000000E-03 0. -1.
        -11    1    3    3    0    0 -0.15100842722E+02 -0.51264092954E+01  0.53233392260E+01  0.16812300971E+02  0.51100000000E-03 0.  1.
         12    1    3    3    0    0  0.13139450629E+01  0.35949761603E+01 -0.47276664208E+00  0.38566583359E+01  0.00000000000E+00 0. -1.
</event>
<event>
 7    1  0.5456331E-013  0.5052886E+02  0.7816164E-02  0.1300439E+00
        -11   -1    0    0    0    0  0.00000000000E+00  0.00000000000E+00  0.45593999997E+02  0.45594000000E+02  0.51100000000E-03 0.  1.
         11   -1    0    0    0    0 -0.00000000000E+00 -0.00000000000E+00 -0.45593999997E+02  0.45594000000E+02  0.51100000000E-03 0. -1.
    9900012    2    1    2    0    0 -0.15583850790E+02 -0.67262684116E+01  0.36946804434E+02  0.50528862649E+02  0.30000008509E+02 0.  0.
         12    1    1    2    0    0  0.15583850790E+02  0.67262684116E+01 -0.36946804434E+02  0.40659137351E+02  0.00000000000E+00 0. -1.
         11    1    3    3    0    0 -0.71234510436E+01 -0.74804121768E+01  0.24737615090E+01  0.10621657939E+02  0.51100000000E-03 0. -1.
        -11    1    3    3    0    0 -0.93868584416E+01  0.82454778775E+01  0.22982962933E+02  0.26159464870E+02  0.51100000000E-03 0.  1.
         12    1    3    3    0    0  0.92645869529E+00 -0.74913341123E+01  0.11490079992E+02  0.13747739840E+02  0.00000000000E+00 0. -1.
</event>
<event>
 7    1  0.5456331E-013  0.5052887E+02  0.7816164E-02  0.1300439E+00
        -11   -1    0    0    0    0  0.00000000000E+00  0.00000000000E+00  0.45593999997E+02  0.45594000000E+02  0.51100000000E-03 0.  1.
         11   -1    0    0    0    0 -0.00000000000E+00 -0.00000000000E+00 -0.45593999997E+02  0.45594000000E+02  0.51100000000E-03 0. -1.
    9900012    2    1    2    0    0  0.44302890566E+01  0.20019967450E+02  0.35110378796E+02  0.50528865024E+02  0.30000015726E+02 0.  0.
         12    1    1    2    0    0 -0.44302890566E+01 -0.20019967450E+02 -0.35110378796E+02  0.40659134976E+02  0.00000000000E+00 0. -1.
         11    1    3    3    0    0  0.59441605861E+01  0.11909940617E+02  0.19005688276E+02  0.23203360051E+02  0.51100000000E-03 0.  1.
        -11    1    3    3    0    0 -0.17506306485E+01  0.89091532722E+01 -0.19210340516E+01  0.92805221719E+01  0.51100000000E-03 0. -1.
         12    1    3    3    0    0  0.23675911900E+00 -0.79912643850E+00  0.18025724571E+02  0.18044982800E+02  0.00000000000E+00 0. -1.
</event>
<event>
 7    1  0.5456331E-013  0.5052886E+02  0.7816164E-02  0.1300439E+00
        -11   -1    0    0    0    0  0.00000000000E+00  0.00000000000E+00  0.45593999997E+02  0.45594000000E+02  0.51100000000E-03 0.  1.
         11   -1    0    0    0    0 -0.00000000000E+00 -0.00000000000E+00 -0.45593999997E+02  0.45594000000E+02  0.51100000000E-03 0. -1.
    9900012    2    1    2    0    0 -0.14633147337E+02  0.26428193337E+02  0.27213734681E+02  0.50528858847E+02  0.29999996950E+02 0.  0.
         12    1    1    2    0    0  0.14633147337E+02 -0.26428193337E+02 -0.27213734681E+02  0.40659141153E+02  0.00000000000E+00 0. -1.
         11    1    3    3    0    0 -0.12152512837E+02  0.17792928726E+02  0.17322326003E+01  0.21616487016E+02  0.51100000000E-03 0. -1.
        -11    1    3    3    0    0  0.82640213079E+00  0.21096365994E+01 -0.13691434311E+00  0.22698574541E+01  0.51100000000E-03 0.  1.
        -12    1    3    3    0    0 -0.33070366307E+01  0.65256280124E+01  0.25618416424E+02  0.26642514376E+02  0.00000000000E+00 0.  1.
</event>
<event>
 7    1  0.5456331E-013  0.5052886E+02  0.7816164E-02  0.1300439E+00
        -11   -1    0    0    0    0  0.00000000000E+00  0.00000000000E+00  0.45593999997E+02  0.45594000000E+02  0.51100000000E-03 0. -1.
         11   -1    0    0    0    0 -0.00000000000E+00 -0.00000000000E+00 -0.45593999997E+02  0.45594000000E+02  0.51100000000E-03 0.  1.
    9900012    2    1    2    0    0  0.27459180671E+02  0.12960767791E+02 -0.27040291271E+02  0.50528862566E+02  0.30000008255E+02 0.  0.
         12    1    1    2    0    0 -0.27459180671E+02 -0.12960767791E+02  0.27040291271E+02  0.40659137434E+02  0.00000000000E+00 0. -1.
         11    1    3    3    0    0 -0.21936232694E+01  0.19315868454E+01 -0.55417632836E+01  0.62653133474E+01  0.51100000000E-03 0. -1.
        -11    1    3    3    0    0  0.60132984789E+00  0.83999701008E+01 -0.95722494533E+01  0.12749472740E+02  0.51100000000E-03 0.  1.
        -12    1    3    3    0    0  0.29051474093E+02  0.26292108453E+01 -0.11926278534E+02  0.31514076479E+02  0.00000000000E+00 0.  1.
</event>
<event>
 7    1  0.5456331E-013  0.5052886E+02  0.7816164E-02  0.1300439E+00
        -11   -1    0    0    0    0  0.00000000000E+00  0.00000000000E+00  0.45593999997E+02  0.45594000000E+02  0.51100000000E-03 0.  1.
         11   -1    0    0    0    0 -0.00000000000E+00 -0.00000000000E+00 -0.45593999997E+02  0.45594000000E+02  0.51100000000E-03 0. -1.
    9900012    2    1    2    0    0  0.82632981466E+01 -0.29444237216E+02  0.26794032445E+02  0.50528863559E+02  0.30000011273E+02 0.  0.
         12    1    1    2    0    0 -0.82632981466E+01  0.29444237216E+02 -0.26794032445E+02  0.40659136441E+02  0.00000000000E+00 0. -1.
         11    1    3    3    0    0 -0.21597106304E+01 -0.25884855090E+00  0.59792491670E+00  0.22558517342E+01  0.51100000000E-03 0. -1.
        -11    1    3    3    0    0 -0.12115672259E+01 -0.24456321938E+02  0.25996160687E+02  0.35712462091E+02  0.51100000000E-03 0.  1.
        -12    1    3    3    0    0  0.11634576003E+02 -0.47290667268E+01  0.19994684182E+00  0.12560549734E+02  0.00000000000E+00 0.  1.
</event>
<event>
 7    1  0.5456331E-013  0.5052885E+02  0.7816164E-02  0.1300439E+00
        -11   -1    0    0    0    0  0.00000000000E+00  0.00000000000E+00  0.45593999997E+02  0.45594000000E+02  0.51100000000E-03 0.  1.
         11   -1    0    0    0    0 -0.00000000000E+00 -0.00000000000E+00 -0.45593999997E+02  0.45594000000E+02  0.51100000000E-03 0. -1.
    9900012    2    1    2    0    0  0.30497780353E+02  0.26763224448E+02  0.26042113086E+01  0.50528847207E+02  0.29999961571E+02 0.  0.
         12    1    1    2    0    0 -0.30497780353E+02 -0.26763224448E+02 -0.26042113086E+01  0.40659152793E+02  0.00000000000E+00 0. -1.
         11    1    3    3    0    0  0.52831006777E+01  0.91403137673E+01  0.70273655501E+01  0.12682285101E+02  0.51100000000E-03 0. -1.
        -11    1    3    3    0    0  0.80197881904E+00  0.10484607801E+02  0.36980781179E+01  0.11146566861E+02  0.51100000000E-03 0.  1.
         12    1    3    3    0    0  0.24412700856E+02  0.71383028804E+01 -0.81212323594E+01  0.26699995246E+02  0.00000000000E+00 0. -1.
</event>
<event>
 7    1  0.5456331E-013  0.5052886E+02  0.7816164E-02  0.1300439E+00
        -11   -1    0    0    0    0  0.00000000000E+00  0.00000000000E+00  0.45593999997E+02  0.45594000000E+02  0.51100000000E-03 0.  1.
         11   -1    0    0    0    0 -0.00000000000E+00 -0.00000000000E+00 -0.45593999997E+02  0.45594000000E+02  0.51100000000E-03 0. -1.
    9900012    2    1    2    0    0 -0.30123403699E+02  0.48125514979E+01  0.26880956090E+02  0.50528857084E+02  0.29999991592E+02 0.  0.
         12    1    1    2    0    0  0.30123403699E+02 -0.48125514979E+01 -0.26880956090E+02  0.40659142916E+02  0.00000000000E+00 0. -1.
         11    1    3    3    0    0  0.13156211559E+01  0.39922594323E+01  0.92351176818E+00  0.43037040614E+01  0.51100000000E-03 0. -1.
        -11    1    3    3    0    0 -0.85058039899E+01 -0.58968689007E+01  0.18488612824E+02  0.21188453666E+02  0.51100000000E-03 0.  1.
        -12    1    3    3    0    0 -0.22933220865E+02  0.67171609663E+01  0.74688314980E+01  0.25036699356E+02  0.00000000000E+00 0.  1.
</event>
<event>
 7    1  0.5456331E-013  0.5052892E+02  0.7816164E-02  0.1300439E+00
        -11   -1    0    0    0    0  0.00000000000E+00  0.00000000000E+00  0.45593999997E+02  0.45594000000E+02  0.51100000000E-03 0.  1.
         11   -1    0    0    0    0 -0.00000000000E+00 -0.00000000000E+00 -0.45593999997E+02  0.45594000000E+02  0.51100000000E-03 0. -1.
    9900012    2    1    2    0    0 -0.34536916765E+02  0.18657093763E+02  0.10595998408E+02  0.50528917994E+02  0.30000176733E+02 0.  0.
         12    1    1    2    0    0  0.34536916765E+02 -0.18657093763E+02 -0.10595998408E+02  0.40659082006E+02  0.00000000000E+00 0. -1.
         11    1    3    3    0    0 -0.28728072534E+02  0.14226816756E+02 -0.15315881321E+01  0.32094395601E+02  0.51100000000E-03 0. -1.
        -11    1    3    3    0    0 -0.30540211441E+01 -0.32809078886E+01  0.95572685959E+00  0.45831011131E+01  0.51100000000E-03 0.  1.
        -12    1    3    3    0    0 -0.27548230869E+01  0.77111848958E+01  0.11171859680E+02  0.13851421279E+02  0.00000000000E+00 0.  1.
</event>
<event>
 7    1  0.5456331E-013  0.5052886E+02  0.7816164E-02  0.1300439E+00
        -11   -1    0    0    0    0  0.00000000000E+00  0.00000000000E+00  0.45593999997E+02  0.45594000000E+02  0.51100000000E-03 0. -1.
         11   -1    0    0    0    0 -0.00000000000E+00 -0.00000000000E+00 -0.45593999997E+02  0.45594000000E+02  0.51100000000E-03 0.  1.
    9900012    2    1    2    0    0 -0.27156478297E+02 -0.78315169952E+01 -0.29229418866E+02  0.50528857126E+02  0.29999991721E+02 0.  0.
         12    1    1    2    0    0  0.27156478297E+02  0.78315169952E+01  0.29229418866E+02  0.40659142874E+02  0.00000000000E+00 0. -1.
         11    1    3    3    0    0  0.85889408734E+00 -0.15497574557E+01 -0.54541582945E+01  0.57347441257E+01  0.51100000000E-03 0. -1.
        -11    1    3    3    0    0 -0.30922516348E+02 -0.89171613458E+01 -0.24924239382E+02  0.40705472516E+02  0.51100000000E-03 0.  1.
         12    1    3    3    0    0  0.29071439629E+01  0.26354018063E+01  0.11489788101E+01  0.40886404841E+01  0.00000000000E+00 0. -1.
</event>
<event>
 7    1  0.5456331E-013  0.5052886E+02  0.7816164E-02  0.1300439E+00
        -11   -1    0    0    0    0  0.00000000000E+00  0.00000000000E+00  0.45593999997E+02  0.45594000000E+02  0.51100000000E-03 0.  1.
         11   -1    0    0    0    0 -0.00000000000E+00 -0.00000000000E+00 -0.45593999997E+02  0.45594000000E+02  0.51100000000E-03 0. -1.
    9900012    2    1    2    0    0 -0.23823246812E+02  0.30553290258E+02  0.12333490698E+02  0.50528860473E+02  0.30000001894E+02 0.  0.
         12    1    1    2    0    0  0.23823246812E+02 -0.30553290258E+02 -0.12333490698E+02  0.40659139527E+02  0.00000000000E+00 0. -1.
         11    1    3    3    0    0  0.18170022596E+01  0.17217955080E+01  0.18362550575E+01  0.31044983298E+01  0.51100000000E-03 0. -1.
        -11    1    3    3    0    0 -0.18887123495E+02  0.33139633709E+02  0.75164752760E+01  0.38877450497E+02  0.51100000000E-03 0.  1.
         12    1    3    3    0    0 -0.67531255765E+01 -0.43081389588E+01  0.29807603647E+01  0.85469116464E+01  0.00000000000E+00 0. -1.
</event>
<event>
 7    1  0.5456331E-013  0.5052886E+02  0.7816164E-02  0.1300439E+00
        -11   -1    0    0    0    0  0.00000000000E+00  0.00000000000E+00  0.45593999997E+02  0.45594000000E+02  0.51100000000E-03 0.  1.
         11   -1    0    0    0    0 -0.00000000000E+00 -0.00000000000E+00 -0.45593999997E+02  0.45594000000E+02  0.51100000000E-03 0. -1.
    9900012    2    1    2    0    0 -0.34711545198E+02  0.10756332708E+02  0.18236660370E+02  0.50528857795E+02  0.29999993755E+02 0.  0.
         12    1    1    2    0    0  0.34711545198E+02 -0.10756332708E+02 -0.18236660370E+02  0.40659142205E+02  0.00000000000E+00 0. -1.
         11    1    3    3    0    0 -0.11832261330E+02  0.49153614872E+01  0.18586970868E+02  0.22575178251E+02  0.51100000000E-03 0. -1.
        -11    1    3    3    0    0 -0.25037174450E+01  0.65162927972E+01 -0.25868166321E+01  0.74446150614E+01  0.51100000000E-03 0.  1.
        -12    1    3    3    0    0 -0.20375566423E+02 -0.67532157667E+00  0.22365061340E+01  0.20509064483E+02  0.00000000000E+00 0.  1.
</event>
<event>
 7    1  0.5456331E-013  0.5052886E+02  0.7816164E-02  0.1300439E+00
        -11   -1    0    0    0    0  0.00000000000E+00  0.00000000000E+00  0.45593999997E+02  0.45594000000E+02  0.51100000000E-03 0. -1.
         11   -1    0    0    0    0 -0.00000000000E+00 -0.00000000000E+00 -0.45593999997E+02  0.45594000000E+02  0.51100000000E-03 0.  1.
    9900012    2    1    2    0    0 -0.49817448886E+01  0.21557816112E+02 -0.34111701870E+02  0.50528862993E+02  0.30000009554E+02 0.  0.
         12    1    1    2    0    0  0.49817448886E+01 -0.21557816112E+02  0.34111701870E+02  0.40659137007E+02  0.00000000000E+00 0. -1.
         11    1    3    3    0    0  0.27843325413E+01  0.10788380457E+01  0.19279751399E+01  0.35543617754E+01  0.51100000000E-03 0. -1.
        -11    1    3    3    0    0 -0.12296883560E+02  0.19508772189E+02 -0.20833240542E+02  0.31077796727E+02  0.51100000000E-03 0.  1.
         12    1    3    3    0    0  0.45308061303E+01  0.97020587697E+00 -0.15206436468E+02  0.15896704491E+02  0.00000000000E+00 0. -1.
</event>
<event>
 7    1  0.5456331E-013  0.5052886E+02  0.7816164E-02  0.1300439E+00
        -11   -1    0    0    0    0  0.00000000000E+00  0.00000000000E+00  0.45593999997E+02  0.45594000000E+02  0.51100000000E-03 0.  1.
         11   -1    0    0    0    0 -0.00000000000E+00 -0.00000000000E+00 -0.45593999997E+02  0.45594000000E+02  0.51100000000E-03 0. -1.
    9900012    2    1    2    0    0 -0.11110961429E+02  0.27262817562E+02  0.28043738803E+02  0.50528856239E+02  0.29999989024E+02 0.  0.
         12    1    1    2    0    0  0.11110961429E+02 -0.27262817562E+02 -0.28043738803E+02  0.40659143761E+02  0.00000000000E+00 0. -1.
         11    1    3    3    0    0 -0.12494553552E+02  0.21384132520E+02  0.76441396953E+01  0.25919642437E+02  0.51100000000E-03 0. -1.
        -11    1    3    3    0    0  0.23304938162E-01  0.68885786544E+01  0.36913935857E+01  0.78153340213E+01  0.51100000000E-03 0.  1.
         12    1    3    3    0    0  0.13602871848E+01 -0.10098936122E+01  0.16708205522E+02  0.16793879781E+02  0.00000000000E+00 0. -1.
</event>
<event>
 7    1  0.5456331E-013  0.5052886E+02  0.7816164E-02  0.1300439E+00
        -11   -1    0    0    0    0  0.00000000000E+00  0.00000000000E+00  0.45593999997E+02  0.45594000000E+02  0.51100000000E-03 0.  1.
         11   -1    0    0    0    0 -0.00000000000E+00 -0.00000000000E+00 -0.45593999997E+02  0.45594000000E+02  0.51100000000E-03 0. -1.
    9900012    2    1    2    0    0  0.18599782816E+02 -0.32980109487E+02  0.14816422463E+02  0.50528856906E+02  0.29999991051E+02 0.  0.
         12    1    1    2    0    0 -0.18599782816E+02  0.32980109487E+02 -0.14816422463E+02  0.40659143094E+02  0.00000000000E+00 0. -1.
         11    1    3    3    0    0  0.69799306270E+01 -0.15661132834E+01  0.82591761104E+01  0.10926396142E+02  0.51100000000E-03 0. -1.
        -11    1    3    3    0    0  0.28810280720E+00 -0.33112934473E+01  0.86123914345E+01  0.92315195935E+01  0.51100000000E-03 0.  1.
         12    1    3    3    0    0  0.11331749382E+02 -0.28102702756E+02 -0.20551450816E+01  0.30370941170E+02  0.00000000000E+00 0. -1.
</event>
<event>
 7    1  0.5456331E-013  0.5052886E+02  0.7816164E-02  0.1300439E+00
        -11   -1    0    0    0    0  0.00000000000E+00  0.00000000000E+00  0.45593999997E+02  0.45594000000E+02  0.51100000000E-03 0. -1.
         11   -1    0    0    0    0 -0.00000000000E+00 -0.00000000000E+00 -0.45593999997E+02  0.45594000000E+02  0.51100000000E-03 0.  1.
    9900012    2    1    2    0    0 -0.15949876204E+02  0.11512453622E+01 -0.37382367936E+02  0.50528863888E+02  0.30000012275E+02 0.  0.
         12    1    1    2    0    0  0.15949876204E+02 -0.11512453622E+01  0.37382367936E+02  0.40659136112E+02  0.00000000000E+00 0. -1.
         11    1    3    3    0    0 -0.31335488969E+01  0.48295565204E+00  0.19031902484E+01  0.36979059255E+01  0.51100000000E-03 0. -1.
        -11    1    3    3    0    0  0.44536271845E+01 -0.54256213001E+01 -0.13326183645E+02  0.15061850231E+02  0.51100000000E-03 0.  1.
        -12    1    3    3    0    0 -0.17269954492E+02  0.60939110102E+01 -0.25959374540E+02  0.31769107732E+02  0.00000000000E+00 0.  1.
</event>
<event>
 7    1  0.5456331E-013  0.5052888E+02  0.7816164E-02  0.1300439E+00
        -11   -1    0    0    0    0  0.00000000000E+00  0.00000000000E+00  0.45593999997E+02  0.45594000000E+02  0.51100000000E-03 0.  1.
         11   -1    0    0    0    0 -0.00000000000E+00 -0.00000000000E+00 -0.45593999997E+02  0.45594000000E+02  0.51100000000E-03 0. -1.
    9900012    2    1    2    0    0 -0.17986107407E+02 -0.35091873597E+02  0.99108393603E+01  0.50528875698E+02  0.30000048172E+02 0.  0.
         12    1    1    2    0    0  0.17986107407E+02  0.35091873597E+02 -0.99108393603E+01  0.40659124302E+02  0.00000000000E+00 0. -1.
         11    1    3    3    0    0 -0.96998039204E+01 -0.13753515251E+02  0.12380888893E+02  0.20893343148E+02  0.51100000000E-03 0. -1.
        -11    1    3    3    0    0 -0.14117432920E+02 -0.14214389236E+02 -0.36189322952E+01  0.20357982337E+02  0.51100000000E-03 0.  1.
        -12    1    3    3    0    0  0.58311294341E+01 -0.71239691098E+01  0.11488827624E+01  0.92775502131E+01  0.00000000000E+00 0.  1.
</event>
<event>
 7    1  0.5456331E-013  0.5052883E+02  0.7816164E-02  0.1300439E+00
        -11   -1    0    0    0    0  0.00000000000E+00  0.00000000000E+00  0.45593999997E+02  0.45594000000E+02  0.51100000000E-03 0.  1.
         11   -1    0    0    0    0 -0.00000000000E+00 -0.00000000000E+00 -0.45593999997E+02  0.45594000000E+02  0.51100000000E-03 0. -1.
    9900012    2    1    2    0    0  0.18300336020E+02 -0.36159429345E+02 -0.32804642027E+01  0.50528830377E+02  0.29999910414E+02 0.  0.
         12    1    1    2    0    0 -0.18300336020E+02  0.36159429345E+02  0.32804642027E+01  0.40659169623E+02  0.00000000000E+00 0. -1.
         11    1    3    3    0    0  0.22704546516E+00  0.17918427466E+01 -0.22481769394E+01  0.28838429020E+01  0.51100000000E-03 0. -1.
        -11    1    3    3    0    0 -0.19049043556E+01  0.17876646888E+01 -0.17788803190E+01  0.31605096257E+01  0.51100000000E-03 0.  1.
        -12    1    3    3    0    0  0.19978194910E+02 -0.39738936781E+02  0.74659305576E+00  0.44484477849E+02  0.00000000000E+00 0.  1.
</event>
<event>
 7    1  0.5456331E-013  0.5052887E+02  0.7816164E-02  0.1300439E+00
        -11   -1    0    0    0    0  0.00000000000E+00  0.00000000000E+00  0.45593999997E+02  0.45594000000E+02  0.51100000000E-03 0. -1.
         11   -1    0    0    0    0 -0.00000000000E+00 -0.00000000000E+00 -0.45593999997E+02  0.45594000000E+02  0.51100000000E-03 0.  1.
    9900012    2    1    2    0    0  0.30504026663E+02 -0.68487070367E+01 -0.25995467174E+02  0.50528871328E+02  0.30000034889E+02 0.  0.
         12    1    1    2    0    0 -0.30504026663E+02  0.68487070367E+01  0.25995467174E+02  0.40659128672E+02  0.00000000000E+00 0. -1.
         11    1    3    3    0    0  0.20011941054E+02 -0.13054502314E+02 -0.54398474214E+01  0.24504892484E+02  0.51100000000E-03 0.  1.
        -11    1    3    3    0    0  0.16330314945E+01  0.39481709407E+01 -0.92876939387E+00  0.43723515969E+01  0.51100000000E-03 0. -1.
        -12    1    3    3    0    0  0.88590541149E+01  0.22576243370E+01 -0.19626850359E+02  0.21651627248E+02  0.00000000000E+00 0.  1.
</event>
<event>
 7    1  0.5456331E-013  0.5052887E+02  0.7816164E-02  0.1300439E+00
        -11   -1    0    0    0    0  0.00000000000E+00  0.00000000000E+00  0.45593999997E+02  0.45594000000E+02  0.51100000000E-03 0.  1.
         11   -1    0    0    0    0 -0.00000000000E+00 -0.00000000000E+00 -0.45593999997E+02  0.45594000000E+02  0.51100000000E-03 0. -1.
    9900012    2    1    2    0    0  0.34599206447E+02 -0.20442544585E+02  0.61775284937E+01  0.50528873421E+02  0.30000041250E+02 0.  0.
         12    1    1    2    0    0 -0.34599206447E+02  0.20442544585E+02 -0.61775284937E+01  0.40659126579E+02  0.00000000000E+00 0. -1.
         11    1    3    3    0    0  0.93174301560E+01 -0.10200620095E+02 -0.16945722961E+01  0.13919006091E+02  0.51100000000E-03 0. -1.
        -11    1    3    3    0    0  0.13483158811E+02 -0.14757741487E+02 -0.26552781023E+01  0.20165242557E+02  0.51100000000E-03 0.  1.
        -12    1    3    3    0    0  0.11798617480E+02  0.45158169963E+01  0.10527378892E+02  0.16444624773E+02  0.00000000000E+00 0.  1.
</event>
<event>
 7    1  0.5456331E-013  0.5052885E+02  0.7816164E-02  0.1300439E+00
        -11   -1    0    0    0    0  0.00000000000E+00  0.00000000000E+00  0.45593999997E+02  0.45594000000E+02  0.51100000000E-03 0.  1.
         11   -1    0    0    0    0 -0.00000000000E+00 -0.00000000000E+00 -0.45593999997E+02  0.45594000000E+02  0.51100000000E-03 0. -1.
    9900012    2    1    2    0    0 -0.35802898659E+02  0.17029111750E+01  0.19194246398E+02  0.50528849079E+02  0.29999967261E+02 0.  0.
         12    1    1    2    0    0  0.35802898659E+02 -0.17029111750E+01 -0.19194246398E+02  0.40659150921E+02  0.00000000000E+00 0. -1.
         11    1    3    3    0    0 -0.43080054031E+01  0.72760921960E+01  0.25780995198E+01  0.88400806328E+01  0.51100000000E-03 0. -1.
        -11    1    3    3    0    0 -0.13064936506E+02 -0.76430941495E+01  0.17480145249E+02  0.23122822757E+02  0.51100000000E-03 0.  1.
         12    1    3    3    0    0 -0.18429956749E+02  0.20699131285E+01 -0.86399837108E+00  0.18565945689E+02  0.00000000000E+00 0. -1.
</event>
<event>
 7    1  0.5456331E-013  0.5052886E+02  0.7816164E-02  0.1300439E+00
        -11   -1    0    0    0    0  0.00000000000E+00  0.00000000000E+00  0.45593999997E+02  0.45594000000E+02  0.51100000000E-03 0.  1.
         11   -1    0    0    0    0 -0.00000000000E+00 -0.00000000000E+00 -0.45593999997E+02  0.45594000000E+02  0.51100000000E-03 0. -1.
    9900012    2    1    2    0    0  0.33964908028E+02 -0.60076054377E+01  0.21528112785E+02  0.50528856618E+02  0.29999990176E+02 0.  0.
         12    1    1    2    0    0 -0.33964908028E+02  0.60076054377E+01 -0.21528112785E+02  0.40659143382E+02  0.00000000000E+00 0. -1.
         11    1    3    3    0    0  0.65452614376E+01 -0.88688228648E+01  0.83751836704E+01  0.13843416055E+02  0.51100000000E-03 0. -1.
        -11    1    3    3    0    0  0.12173094426E+02 -0.28313050833E+01  0.15854386394E+02  0.20188166944E+02  0.51100000000E-03 0.  1.
        -12    1    3    3    0    0  0.15246552165E+02  0.56925225104E+01 -0.27014572786E+01  0.16497273619E+02  0.00000000000E+00 0.  1.
</event>
<event>
 7    1  0.5456331E-013  0.5052887E+02  0.7816164E-02  0.1300439E+00
        -11   -1    0    0    0    0  0.00000000000E+00  0.00000000000E+00  0.45593999997E+02  0.45594000000E+02  0.51100000000E-03 0. -1.
         11   -1    0    0    0    0 -0.00000000000E+00 -0.00000000000E+00 -0.45593999997E+02  0.45594000000E+02  0.51100000000E-03 0.  1.
    9900012    2    1    2    0    0 -0.29553229164E+02  0.21306851352E+02 -0.18049646208E+02  0.50528868224E+02  0.30000025454E+02 0.  0.
         12    1    1    2    0    0  0.29553229164E+02 -0.21306851352E+02  0.18049646208E+02  0.40659131776E+02  0.00000000000E+00 0. -1.
         11    1    3    3    0    0 -0.70701262445E+01  0.71259452561E+01 -0.77798198491E+01  0.12700054254E+02  0.51100000000E-03 0. -1.
        -11    1    3    3    0    0 -0.26586702422E+02  0.94442298511E+01 -0.12910899943E+02  0.31028012517E+02  0.51100000000E-03 0.  1.
         12    1    3    3    0    0  0.41035995028E+01  0.47366762450E+01  0.26410735842E+01  0.68008014532E+01  0.00000000000E+00 0. -1.
</event>
<event>
 7    1  0.5456331E-013  0.5052885E+02  0.7816164E-02  0.1300439E+00
        -11   -1    0    0    0    0  0.00000000000E+00  0.00000000000E+00  0.45593999997E+02  0.45594000000E+02  0.51100000000E-03 0.  1.
         11   -1    0    0    0    0 -0.00000000000E+00 -0.00000000000E+00 -0.45593999997E+02  0.45594000000E+02  0.51100000000E-03 0. -1.
    9900012    2    1    2    0    0 -0.20757351914E+02  0.39739537382E+01  0.34734803200E+02  0.50528849491E+02  0.29999968513E+02 0.  0.
         12    1    1    2    0    0  0.20757351914E+02 -0.39739537382E+01 -0.34734803200E+02  0.40659150509E+02  0.00000000000E+00 0. -1.
         11    1    3    3    0    0 -0.23840032842E+01 -0.27710444715E+01 -0.13728599203E+01  0.39047283828E+01  0.51100000000E-03 0. -1.
        -11    1    3    3    0    0 -0.19829101844E+02 -0.18423822900E+01  0.19503948282E+02  0.27874569975E+02  0.51100000000E-03 0.  1.
        -12    1    3    3    0    0  0.14557532149E+01  0.85873804997E+01  0.16603714838E+02  0.18749551133E+02  0.00000000000E+00 0.  1.
</event>
<event>
 7    1  0.5456331E-013  0.5052885E+02  0.7816164E-02  0.1300439E+00
        -11   -1    0    0    0    0  0.00000000000E+00  0.00000000000E+00  0.45593999997E+02  0.45594000000E+02  0.51100000000E-03 0.  1.
         11   -1    0    0    0    0 -0.00000000000E+00 -0.00000000000E+00 -0.45593999997E+02  0.45594000000E+02  0.51100000000E-03 0. -1.
    9900012    2    1    2    0    0 -0.15216636866E+02  0.32536551431E+02  0.19052376640E+02  0.50528852540E+02  0.29999977782E+02 0.  0.
         12    1    1    2    0    0  0.15216636866E+02 -0.32536551431E+02 -0.19052376640E+02  0.40659147460E+02  0.00000000000E+00 0. -1.
         11    1    3    3    0    0 -0.81023604467E+01 -0.78845271998E+00  0.33969800404E+01  0.88209623146E+01  0.51100000000E-03 0. -1.
        -11    1    3    3    0    0 -0.84160100138E+01  0.94872650326E+01  0.12178538061E+02  0.17582781689E+02  0.51100000000E-03 0.  1.
        -12    1    3    3    0    0  0.13017335943E+01  0.23837739118E+02  0.34768585382E+01  0.24125108537E+02  0.00000000000E+00 0.  1.
</event>
<event>
 7    1  0.5456331E-013  0.5052885E+02  0.7816164E-02  0.1300439E+00
        -11   -1    0    0    0    0  0.00000000000E+00  0.00000000000E+00  0.45593999997E+02  0.45594000000E+02  0.51100000000E-03 0. -1.
         11   -1    0    0    0    0 -0.00000000000E+00 -0.00000000000E+00 -0.45593999997E+02  0.45594000000E+02  0.51100000000E-03 0.  1.
    9900012    2    1    2    0    0 -0.74807036705E+01 -0.22475115500E+02 -0.33046550791E+02  0.50528852649E+02  0.29999978111E+02 0.  0.
         12    1    1    2    0    0  0.74807036705E+01  0.22475115500E+02  0.33046550791E+02  0.40659147351E+02  0.00000000000E+00 0. -1.
         11    1    3    3    0    0 -0.84011811611E+01 -0.20764605323E+01 -0.82294602772E+00  0.86930301776E+01  0.51100000000E-03 0. -1.
        -11    1    3    3    0    0  0.12147449126E+01 -0.29822781334E+01  0.17441591316E+01  0.36621959813E+01  0.51100000000E-03 0.  1.
        -12    1    3    3    0    0 -0.29426742211E+00 -0.17416376834E+02 -0.33967763895E+02  0.38173626490E+02  0.00000000000E+00 0.  1.
</event>
<event>
 7    1  0.5456331E-013  0.5052886E+02  0.7816164E-02  0.1300439E+00
        -11   -1    0    0    0    0  0.00000000000E+00  0.00000000000E+00  0.45593999997E+02  0.45594000000E+02  0.51100000000E-03 0.  1.
         11   -1    0    0    0    0 -0.00000000000E+00 -0.00000000000E+00 -0.45593999997E+02  0.45594000000E+02  0.51100000000E-03 0. -1.
    9900012    2    1    2    0    0 -0.24606920189E+02 -0.10905855394E+02  0.30475035079E+02  0.50528856304E+02  0.29999989222E+02 0.  0.
         12    1    1    2    0    0  0.24606920189E+02  0.10905855394E+02 -0.30475035079E+02  0.40659143696E+02  0.00000000000E+00 0. -1.
         11    1    3    3    0    0 -0.82779168926E+01 -0.17352543731E+00 -0.50872339785E+01  0.97177141845E+01  0.51100000000E-03 0. -1.
        -11    1    3    3    0    0 -0.10268191828E+01 -0.22587261805E+01  0.54272899952E+01  0.59675521401E+01  0.51100000000E-03 0.  1.
        -12    1    3    3    0    0 -0.15302184113E+02 -0.84736037764E+01  0.30134979062E+02  0.34843589979E+02  0.00000000000E+00 0.  1.
</event>
<event>
 7    1  0.5456331E-013  0.5052886E+02  0.7816164E-02  0.1300439E+00
        -11   -1    0    0    0    0  0.00000000000E+00  0.00000000000E+00  0.45593999997E+02  0.45594000000E+02  0.51100000000E-03 0.  1.
         11   -1    0    0    0    0 -0.00000000000E+00 -0.00000000000E+00 -0.45593999997E+02  0.45594000000E+02  0.51100000000E-03 0. -1.
    9900012    2    1    2    0    0 -0.25839671458E+02 -0.17813565568E+02  0.25848672998E+02  0.50528860375E+02  0.30000001595E+02 0.  0.
         12    1    1    2    0    0  0.25839671458E+02  0.17813565568E+02 -0.25848672998E+02  0.40659139625E+02  0.00000000000E+00 0. -1.
         11    1    3    3    0    0 -0.24255587516E+00 -0.41722387295E+01 -0.25343737471E+01  0.48876845151E+01  0.51100000000E-03 0. -1.
        -11    1    3    3    0    0 -0.74912201796E+01 -0.15206596947E+02  0.17935310039E+02  0.24678620645E+02  0.51100000000E-03 0.  1.
         12    1    3    3    0    0 -0.18105895403E+02  0.15652701079E+01  0.10447736706E+02  0.20962555215E+02  0.00000000000E+00 0. -1.
</event>
<event>
 7    1  0.5456331E-013  0.5052886E+02  0.7816164E-02  0.1300439E+00
        -11   -1    0    0    0    0  0.00000000000E+00  0.00000000000E+00  0.45593999997E+02  0.45594000000E+02  0.51100000000E-03 0. -1.
         11   -1    0    0    0    0 -0.00000000000E+00 -0.00000000000E+00 -0.45593999997E+02  0.45594000000E+02  0.51100000000E-03 0.  1.
    9900012    2    1    2    0    0 -0.81490541026E+01  0.20384699362E+01 -0.39781944364E+02  0.50528861546E+02  0.30000005155E+02 0.  0.
         12    1    1    2    0    0  0.81490541026E+01 -0.20384699362E+01  0.39781944364E+02  0.40659138454E+02  0.00000000000E+00 0. -1.
         11    1    3    3    0    0  0.68000616537E+01  0.28995701945E+01 -0.16400607009E+02  0.17989670823E+02  0.51100000000E-03 0. -1.
        -11    1    3    3    0    0 -0.73082832346E+01 -0.61520288143E+01 -0.20807266248E+02  0.22895431670E+02  0.51100000000E-03 0.  1.
         12    1    3    3    0    0 -0.76408325216E+01  0.52909285559E+01 -0.25740711073E+01  0.96437590530E+01  0.00000000000E+00 0. -1.
</event>
<event>
 7    1  0.5456331E-013  0.5052885E+02  0.7816164E-02  0.1300439E+00
        -11   -1    0    0    0    0  0.00000000000E+00  0.00000000000E+00  0.45593999997E+02  0.45594000000E+02  0.51100000000E-03 0.  1.
         11   -1    0    0    0    0 -0.00000000000E+00 -0.00000000000E+00 -0.45593999997E+02  0.45594000000E+02  0.51100000000E-03 0. -1.
    9900012    2    1    2    0    0  0.10559362529E+02  0.37647877509E+02 -0.11149143066E+02  0.50528853317E+02  0.29999980141E+02 0.  0.
         12    1    1    2    0    0 -0.10559362529E+02 -0.37647877509E+02  0.11149143066E+02  0.40659146683E+02  0.00000000000E+00 0. -1.
         11    1    3    3    0    0  0.12563644619E+02  0.28084738438E+02 -0.90448578915E+01  0.32068787844E+02  0.51100000000E-03 0. -1.
        -11    1    3    3    0    0  0.12410507402E+01  0.13022845824E+02  0.41610321629E+00  0.13088462952E+02  0.51100000000E-03 0.  1.
         12    1    3    3    0    0 -0.32453328308E+01 -0.34597067533E+01 -0.25203883904E+01  0.53716025206E+01  0.00000000000E+00 0. -1.
</event>
<event>
 7    1  0.5456331E-013  0.5052882E+02  0.7816164E-02  0.1300439E+00
        -11   -1    0    0    0    0  0.00000000000E+00  0.00000000000E+00  0.45593999997E+02  0.45594000000E+02  0.51100000000E-03 0. -1.
         11   -1    0    0    0    0 -0.00000000000E+00 -0.00000000000E+00 -0.45593999997E+02  0.45594000000E+02  0.51100000000E-03 0.  1.
    9900012    2    1    2    0    0  0.33137025697E+02  0.72672246112E+00  0.23549479733E+02  0.50528823997E+02  0.29999891020E+02 0.  0.
         12    1    1    2    0    0 -0.33137025697E+02 -0.72672246112E+00 -0.23549479733E+02  0.40659176003E+02  0.00000000000E+00 0. -1.
         11    1    3    3    0    0  0.36927039645E+01 -0.17257474104E+01  0.68227441855E+01  0.79475848643E+01  0.51100000000E-03 0. -1.
        -11    1    3    3    0    0  0.17186121854E+02 -0.11426317075E+02  0.85391520019E+01  0.22334740282E+02  0.51100000000E-03 0.  1.
        -12    1    3    3    0    0  0.12258199879E+02  0.13878786947E+02  0.81875835453E+01  0.20246498850E+02  0.00000000000E+00 0.  1.
</event>
<event>
 7    1  0.5456331E-013  0.5052887E+02  0.7816164E-02  0.1300439E+00
        -11   -1    0    0    0    0  0.00000000000E+00  0.00000000000E+00  0.45593999997E+02  0.45594000000E+02  0.51100000000E-03 0.  1.
         11   -1    0    0    0    0 -0.00000000000E+00 -0.00000000000E+00 -0.45593999997E+02  0.45594000000E+02  0.51100000000E-03 0. -1.
    9900012    2    1    2    0    0 -0.19524633205E+02 -0.15801321886E+01  0.35629438756E+02  0.50528867870E+02  0.30000024377E+02 0.  0.
         12    1    1    2    0    0  0.19524633205E+02  0.15801321886E+01 -0.35629438756E+02  0.40659132130E+02  0.00000000000E+00 0. -1.
         11    1    3    3    0    0 -0.10295351500E+02 -0.11209558662E+02  0.11815782888E+02  0.19268139335E+02  0.51100000000E-03 0.  1.
        -11    1    3    3    0    0  0.29988262556E+01 -0.18085567749E+01  0.44172989102E+01  0.56370529927E+01  0.51100000000E-03 0. -1.
        -12    1    3    3    0    0 -0.12228107961E+02  0.11437983248E+02  0.19396356957E+02  0.25623675542E+02  0.00000000000E+00 0.  1.
</event>
<event>
 7    1  0.5456331E-013  0.5052883E+02  0.7816164E-02  0.1300439E+00
        -11   -1    0    0    0    0  0.00000000000E+00  0.00000000000E+00  0.45593999997E+02  0.45594000000E+02  0.51100000000E-03 0. -1.
         11   -1    0    0    0    0 -0.00000000000E+00 -0.00000000000E+00 -0.45593999997E+02  0.45594000000E+02  0.51100000000E-03 0.  1.
    9900012    2    1    2    0    0 -0.36850064997E+02 -0.12820979301E+02 -0.11439560077E+02  0.50528827169E+02  0.29999900662E+02 0.  0.
         12    1    1    2    0    0  0.36850064997E+02  0.12820979301E+02  0.11439560077E+02  0.40659172831E+02  0.00000000000E+00 0. -1.
         11    1    3    3    0    0 -0.51315827819E+01  0.84756215696E+00  0.42164955272E+01  0.66955461502E+01  0.51100000000E-03 0. -1.
        -11    1    3    3    0    0 -0.72684029685E+01 -0.10991572470E+02  0.23046304261E+01  0.13377431321E+02  0.51100000000E-03 0.  1.
        -12    1    3    3    0    0 -0.24450079247E+02 -0.26769689884E+01 -0.17960686031E+02  0.30455849698E+02  0.00000000000E+00 0.  1.
</event>
<event>
 7    1  0.5456331E-013  0.5052879E+02  0.7816164E-02  0.1300439E+00
        -11   -1    0    0    0    0  0.00000000000E+00  0.00000000000E+00  0.45593999997E+02  0.45594000000E+02  0.51100000000E-03 0. -1.
         11   -1    0    0    0    0 -0.00000000000E+00 -0.00000000000E+00 -0.45593999997E+02  0.45594000000E+02  0.51100000000E-03 0.  1.
    9900012    2    1    2    0    0 -0.28639092141E+02  0.20583533101E+02 -0.20230970209E+02  0.50528787155E+02  0.29999779035E+02 0.  0.
         12    1    1    2    0    0  0.28639092141E+02 -0.20583533101E+02  0.20230970209E+02  0.40659212845E+02  0.00000000000E+00 0. -1.
         11    1    3    3    0    0 -0.10594518326E+02  0.10047970207E+02  0.25824046547E+01  0.14828160300E+02  0.51100000000E-03 0. -1.
        -11    1    3    3    0    0 -0.12993346133E+02  0.38654319525E+01 -0.25717566363E+01  0.13797917973E+02  0.51100000000E-03 0.  1.
        -12    1    3    3    0    0 -0.50512276816E+01  0.66701309420E+01 -0.20241618228E+02  0.21902708882E+02  0.00000000000E+00 0.  1.
</event>
<event>
 7    1  0.5456331E-013  0.5052888E+02  0.7816164E-02  0.1300439E+00
        -11   -1    0    0    0    0  0.00000000000E+00  0.00000000000E+00  0.45593999997E+02  0.45594000000E+02  0.51100000000E-03 0. -1.
         11   -1    0    0    0    0 -0.00000000000E+00 -0.00000000000E+00 -0.45593999997E+02  0.45594000000E+02  0.51100000000E-03 0.  1.
    9900012    2    1    2    0    0  0.35353257274E+02 -0.11428352983E+02 -0.16513754328E+02  0.50528878837E+02  0.30000057712E+02 0.  0.
         12    1    1    2    0    0 -0.35353257274E+02  0.11428352983E+02  0.16513754328E+02  0.40659121163E+02  0.00000000000E+00 0. -1.
         11    1    3    3    0    0  0.12229252358E+02 -0.53423154089E+01 -0.82349790267E+01  0.15681512267E+02  0.51100000000E-03 0. -1.
        -11    1    3    3    0    0  0.28002193548E+02 -0.40959736266E+01 -0.52906243251E+01  0.28790459347E+02  0.51100000000E-03 0.  1.
         12    1    3    3    0    0 -0.48781886316E+01 -0.19900639471E+01 -0.29881509759E+01  0.60569072218E+01  0.00000000000E+00 0. -1.
</event>
<event>
 7    1  0.5456331E-013  0.5052886E+02  0.7816164E-02  0.1300439E+00
        -11   -1    0    0    0    0  0.00000000000E+00  0.00000000000E+00  0.45593999997E+02  0.45594000000E+02  0.51100000000E-03 0.  1.
         11   -1    0    0    0    0 -0.00000000000E+00 -0.00000000000E+00 -0.45593999997E+02  0.45594000000E+02  0.51100000000E-03 0. -1.
    9900012    2    1    2    0    0 -0.52568753642E+00  0.35042693039E+01  0.40504434652E+02  0.50528862316E+02  0.30000007495E+02 0.  0.
         12    1    1    2    0    0  0.52568753642E+00 -0.35042693039E+01 -0.40504434652E+02  0.40659137684E+02  0.00000000000E+00 0. -1.
         11    1    3    3    0    0  0.25637478296E+01  0.22807803806E+01  0.61630817741E+01  0.70539591220E+01  0.51100000000E-03 0. -1.
        -11    1    3    3    0    0  0.61529790915E+01  0.17827397130E+01 -0.13969623654E+01  0.65565857499E+01  0.51100000000E-03 0.  1.
        -12    1    3    3    0    0 -0.92424144575E+01 -0.55925078967E+00  0.35738315243E+02  0.36918317444E+02  0.00000000000E+00 0.  1.
</event>
<event>
 7    1  0.5456331E-013  0.5052886E+02  0.7816164E-02  0.1300439E+00
        -11   -1    0    0    0    0  0.00000000000E+00  0.00000000000E+00  0.45593999997E+02  0.45594000000E+02  0.51100000000E-03 0.  1.
         11   -1    0    0    0    0 -0.00000000000E+00 -0.00000000000E+00 -0.45593999997E+02  0.45594000000E+02  0.51100000000E-03 0. -1.
    9900012    2    1    2    0    0 -0.33822848109E+02 -0.16399864946E+02 -0.15499199448E+02  0.50528858249E+02  0.29999995133E+02 0.  0.
         12    1    1    2    0    0  0.33822848109E+02  0.16399864946E+02  0.15499199448E+02  0.40659141751E+02  0.00000000000E+00 0. -1.
         11    1    3    3    0    0 -0.25529185174E+02 -0.16106105459E+02 -0.10794415703E+02  0.32057219770E+02  0.51100000000E-03 0. -1.
        -11    1    3    3    0    0 -0.29532900986E+01 -0.45004327129E+01 -0.89591910005E+01  0.10451933824E+02  0.51100000000E-03 0.  1.
        -12    1    3    3    0    0 -0.53403728357E+01  0.42066732266E+01  0.42544072558E+01  0.80197046553E+01  0.00000000000E+00 0.  1.
</event>
<event>
 7    1  0.5456331E-013  0.5052886E+02  0.7816164E-02  0.1300439E+00
        -11   -1    0    0    0    0  0.00000000000E+00  0.00000000000E+00  0.45593999997E+02  0.45594000000E+02  0.51100000000E-03 0.  1.
         11   -1    0    0    0    0 -0.00000000000E+00 -0.00000000000E+00 -0.45593999997E+02  0.45594000000E+02  0.51100000000E-03 0. -1.
    9900012    2    1    2    0    0 -0.20471357021E+02 -0.29408367757E+02  0.19215537898E+02  0.50528862662E+02  0.30000008546E+02 0.  0.
         12    1    1    2    0    0  0.20471357021E+02  0.29408367757E+02 -0.19215537898E+02  0.40659137338E+02  0.00000000000E+00 0. -1.
         11    1    3    3    0    0  0.21126614441E+01  0.33765683672E+00 -0.38870271575E+01  0.44369280929E+01  0.51100000000E-03 0. -1.
        -11    1    3    3    0    0 -0.87174114365E+01 -0.92293785178E+01  0.15811823160E+02  0.20277781976E+02  0.51100000000E-03 0.  1.
        -12    1    3    3    0    0 -0.13866607028E+02 -0.20516646076E+02  0.72907418960E+01  0.25814152593E+02  0.00000000000E+00 0.  1.
</event>
<event>
 7    1  0.5456331E-013  0.5052886E+02  0.7816164E-02  0.1300439E+00
        -11   -1    0    0    0    0  0.00000000000E+00  0.00000000000E+00  0.45593999997E+02  0.45594000000E+02  0.51100000000E-03 0. -1.
         11   -1    0    0    0    0 -0.00000000000E+00 -0.00000000000E+00 -0.45593999997E+02  0.45594000000E+02  0.51100000000E-03 0.  1.
    9900012    2    1    2    0    0 -0.19695489137E+02 -0.96002348768E+01 -0.34250387620E+02  0.50528857680E+02  0.29999993405E+02 0.  0.
         12    1    1    2    0    0  0.19695489137E+02  0.96002348768E+01  0.34250387620E+02  0.40659142320E+02  0.00000000000E+00 0. -1.
         11    1    3    3    0    0 -0.12329091562E+02 -0.31160658744E+01 -0.11663156857E+02  0.17255306239E+02  0.51100000000E-03 0. -1.
        -11    1    3    3    0    0 -0.14887992697E+02 -0.26737999213E+01 -0.10034625664E+02  0.18152003885E+02  0.51100000000E-03 0.  1.
         12    1    3    3    0    0  0.75215951222E+01 -0.38103690811E+01 -0.12552605099E+02  0.15121547556E+02  0.00000000000E+00 0. -1.
</event>
<event>
 7    1  0.5456331E-013  0.5052886E+02  0.7816164E-02  0.1300439E+00
        -11   -1    0    0    0    0  0.00000000000E+00  0.00000000000E+00  0.45593999997E+02  0.45594000000E+02  0.51100000000E-03 0.  1.
         11   -1    0    0    0    0 -0.00000000000E+00 -0.00000000000E+00 -0.45593999997E+02  0.45594000000E+02  0.51100000000E-03 0. -1.
    9900012    2    1    2    0    0  0.77261299292E+00  0.12955536959E+02  0.38532103164E+02  0.50528857818E+02  0.29999993824E+02 0.  0.
         12    1    1    2    0    0 -0.77261299292E+00 -0.12955536959E+02 -0.38532103164E+02  0.40659142182E+02  0.00000000000E+00 0. -1.
         11    1    3    3    0    0  0.70842688498E+01  0.47609154940E+01  0.21155193934E+02  0.22812176839E+02  0.51100000000E-03 0.  1.
        -11    1    3    3    0    0 -0.56034099702E+01 -0.54702674675E+01  0.74817139532E+01  0.10830423510E+02  0.51100000000E-03 0. -1.
         12    1    3    3    0    0 -0.70824588674E+00  0.13664888933E+02  0.98951952765E+01  0.16886257470E+02  0.00000000000E+00 0. -1.
</event>
<event>
 7    1  0.5456331E-013  0.5052887E+02  0.7816164E-02  0.1300439E+00
        -11   -1    0    0    0    0  0.00000000000E+00  0.00000000000E+00  0.45593999997E+02  0.45594000000E+02  0.51100000000E-03 0.  1.
         11   -1    0    0    0    0 -0.00000000000E+00 -0.00000000000E+00 -0.45593999997E+02  0.45594000000E+02  0.51100000000E-03 0. -1.
    9900012    2    1    2    0    0 -0.18926371252E+02  0.15492247185E+02  0.32479956074E+02  0.50528870667E+02  0.30000032878E+02 0.  0.
         12    1    1    2    0    0  0.18926371252E+02 -0.15492247185E+02 -0.32479956074E+02  0.40659129333E+02  0.00000000000E+00 0. -1.
         11    1    3    3    0    0 -0.19507032323E+01 -0.41709819425E-01  0.23262827549E+02  0.23344509604E+02  0.51100000000E-03 0. -1.
        -11    1    3    3    0    0  0.77328015703E+00  0.20631328971E+01 -0.12858252363E+01  0.25510441689E+01  0.51100000000E-03 0.  1.
        -12    1    3    3    0    0 -0.17748948176E+02  0.13470824107E+02  0.10502953761E+02  0.24633316894E+02  0.00000000000E+00 0.  1.
</event>
<event>
 7    1  0.5456331E-013  0.5052885E+02  0.7816164E-02  0.1300439E+00
        -11   -1    0    0    0    0  0.00000000000E+00  0.00000000000E+00  0.45593999997E+02  0.45594000000E+02  0.51100000000E-03 0. -1.
         11   -1    0    0    0    0 -0.00000000000E+00 -0.00000000000E+00 -0.45593999997E+02  0.45594000000E+02  0.51100000000E-03 0.  1.
    9900012    2    1    2    0    0 -0.29318299138E+02  0.26061712002E+02 -0.10695371542E+02  0.50528850116E+02  0.29999970414E+02 0.  0.
         12    1    1    2    0    0  0.29318299138E+02 -0.26061712002E+02  0.10695371542E+02  0.40659149884E+02  0.00000000000E+00 0. -1.
         11    1    3    3    0    0 -0.14526793237E+02  0.10265578810E+02 -0.88669558177E+00  0.17809998859E+02  0.51100000000E-03 0. -1.
        -11    1    3    3    0    0 -0.17113501533E+02  0.15807894673E+02 -0.68817439287E+00  0.23307403394E+02  0.51100000000E-03 0.  1.
        -12    1    3    3    0    0  0.23219956315E+01 -0.11761480593E-01 -0.91205015676E+01  0.94114478636E+01  0.00000000000E+00 0.  1.
</event>
<event>
 7    1  0.5456331E-013  0.5052885E+02  0.7816164E-02  0.1300439E+00
        -11   -1    0    0    0    0  0.00000000000E+00  0.00000000000E+00  0.45593999997E+02  0.45594000000E+02  0.51100000000E-03 0.  1.
         11   -1    0    0    0    0 -0.00000000000E+00 -0.00000000000E+00 -0.45593999997E+02  0.45594000000E+02  0.51100000000E-03 0. -1.
    9900012    2    1    2    0    0 -0.14012580862E+02 -0.17335809247E+02  0.34004168217E+02  0.50528853910E+02  0.29999981944E+02 0.  0.
         12    1    1    2    0    0  0.14012580862E+02  0.17335809247E+02 -0.34004168217E+02  0.40659146090E+02  0.00000000000E+00 0. -1.
         11    1    3    3    0    0 -0.55384663017E+01 -0.70935422074E+01 -0.30788215154E+01  0.95116818811E+01  0.51100000000E-03 0. -1.
        -11    1    3    3    0    0  0.20326316304E+01 -0.47711436840E+01  0.72117758560E+01  0.88828550960E+01  0.51100000000E-03 0.  1.
        -12    1    3    3    0    0 -0.10506746190E+02 -0.54711233553E+01  0.29871213877E+02  0.32134316933E+02  0.00000000000E+00 0.  1.
</event>
<event>
 7    1  0.5456331E-013  0.5052886E+02  0.7816164E-02  0.1300439E+00
        -11   -1    0    0    0    0  0.00000000000E+00  0.00000000000E+00  0.45593999997E+02  0.45594000000E+02  0.51100000000E-03 0. -1.
         11   -1    0    0    0    0 -0.00000000000E+00 -0.00000000000E+00 -0.45593999997E+02  0.45594000000E+02  0.51100000000E-03 0.  1.
    9900012    2    1    2    0    0 -0.32983688309E+02  0.16765608578E+02 -0.16856933246E+02  0.50528861741E+02  0.30000005749E+02 0.  0.
         12    1    1    2    0    0  0.32983688309E+02 -0.16765608578E+02  0.16856933246E+02  0.40659138259E+02  0.00000000000E+00 0. -1.
         11    1    3    3    0    0 -0.28432212319E+02  0.98362816932E+01 -0.83757639569E+01  0.31229738344E+02  0.51100000000E-03 0. -1.
        -11    1    3    3    0    0 -0.98627168497E+01  0.19537357099E+01 -0.51126288254E+01  0.11279593993E+02  0.51100000000E-03 0.  1.
        -12    1    3    3    0    0  0.53112408597E+01  0.49755911752E+01 -0.33685404638E+01  0.80195294044E+01  0.00000000000E+00 0.  1.
</event>
<event>
 7    1  0.5456331E-013  0.5052884E+02  0.7816164E-02  0.1300439E+00
        -11   -1    0    0    0    0  0.00000000000E+00  0.00000000000E+00  0.45593999997E+02  0.45594000000E+02  0.51100000000E-03 0.  1.
         11   -1    0    0    0    0 -0.00000000000E+00 -0.00000000000E+00 -0.45593999997E+02  0.45594000000E+02  0.51100000000E-03 0. -1.
    9900012    2    1    2    0    0  0.31304947158E+02  0.12745325689E+02  0.22599210570E+02  0.50528839140E+02  0.29999937050E+02 0.  0.
         12    1    1    2    0    0 -0.31304947158E+02 -0.12745325689E+02 -0.22599210570E+02  0.40659160860E+02  0.00000000000E+00 0. -1.
         11    1    3    3    0    0  0.57328629684E+01 -0.52994488483E+01  0.64582468634E+01  0.10132069321E+02  0.51100000000E-03 0. -1.
        -11    1    3    3    0    0  0.22926533102E+02  0.10857462067E+02  0.19537035018E+02  0.32018840394E+02  0.51100000000E-03 0.  1.
         12    1    3    3    0    0  0.26455510873E+01  0.71873124699E+01 -0.33960713121E+01  0.83779294252E+01  0.00000000000E+00 0. -1.
</event>
<event>
 7    1  0.5456331E-013  0.5052885E+02  0.7816164E-02  0.1300439E+00
        -11   -1    0    0    0    0  0.00000000000E+00  0.00000000000E+00  0.45593999997E+02  0.45594000000E+02  0.51100000000E-03 0.  1.
         11   -1    0    0    0    0 -0.00000000000E+00 -0.00000000000E+00 -0.45593999997E+02  0.45594000000E+02  0.51100000000E-03 0. -1.
    9900012    2    1    2    0    0 -0.72359928493E+01 -0.75079155749E+01  0.39299337722E+02  0.50528851777E+02  0.29999975462E+02 0.  0.
         12    1    1    2    0    0  0.72359928493E+01  0.75079155749E+01 -0.39299337722E+02  0.40659148223E+02  0.00000000000E+00 0. -1.
         11    1    3    3    0    0  0.56370770618E+01 -0.36628563130E+01  0.30440189313E+02  0.31173679280E+02  0.51100000000E-03 0. -1.
        -11    1    3    3    0    0  0.18598768159E+01 -0.10736426665E+01  0.17164517635E+01  0.27491921110E+01  0.51100000000E-03 0.  1.
         12    1    3    3    0    0 -0.14732946727E+02 -0.27714165955E+01  0.71426966454E+01  0.16605980386E+02  0.00000000000E+00 0. -1.
</event>
<event>
 7    1  0.5456331E-013  0.5052886E+02  0.7816164E-02  0.1300439E+00
        -11   -1    0    0    0    0  0.00000000000E+00  0.00000000000E+00  0.45593999997E+02  0.45594000000E+02  0.51100000000E-03 0.  1.
         11   -1    0    0    0    0 -0.00000000000E+00 -0.00000000000E+00 -0.45593999997E+02  0.45594000000E+02  0.51100000000E-03 0. -1.
    9900012    2    1    2    0    0 -0.23657317082E+02  0.16188361039E+02  0.28834594921E+02  0.50528861434E+02  0.30000004815E+02 0.  0.
         12    1    1    2    0    0  0.23657317082E+02 -0.16188361039E+02 -0.28834594921E+02  0.40659138566E+02  0.00000000000E+00 0. -1.
         11    1    3    3    0    0 -0.13712131388E+02  0.12466985951E+02  0.41191777545E+01  0.18984623029E+02  0.51100000000E-03 0. -1.
        -11    1    3    3    0    0 -0.10989003174E+02  0.82289402616E+01  0.12832009365E+02  0.18791862952E+02  0.51100000000E-03 0.  1.
        -12    1    3    3    0    0  0.10438174802E+01 -0.45075651739E+01  0.11883407801E+02  0.12752375453E+02  0.00000000000E+00 0.  1.
</event>
<event>
 7    1  0.5456331E-013  0.5052886E+02  0.7816164E-02  0.1300439E+00
        -11   -1    0    0    0    0  0.00000000000E+00  0.00000000000E+00  0.45593999997E+02  0.45594000000E+02  0.51100000000E-03 0.  1.
         11   -1    0    0    0    0 -0.00000000000E+00 -0.00000000000E+00 -0.45593999997E+02  0.45594000000E+02  0.51100000000E-03 0. -1.
    9900012    2    1    2    0    0  0.31890841564E+02 -0.60018870970E+01  0.24497298405E+02  0.50528855229E+02  0.29999985953E+02 0.  0.
         12    1    1    2    0    0 -0.31890841564E+02  0.60018870970E+01 -0.24497298405E+02  0.40659144771E+02  0.00000000000E+00 0. -1.
         11    1    3    3    0    0 -0.64724399417E+00 -0.14738871320E+01 -0.85051015328E+00  0.18206141403E+01  0.51100000000E-03 0. -1.
        -11    1    3    3    0    0  0.21824563101E+02 -0.18271954587E+01  0.94565711977E+00  0.21921324445E+02  0.51100000000E-03 0.  1.
        -12    1    3    3    0    0  0.10713522458E+02 -0.27008045063E+01  0.24402151438E+02  0.26786916643E+02  0.00000000000E+00 0.  1.
</event>
<event>
 7    1  0.5456331E-013  0.5052887E+02  0.7816164E-02  0.1300439E+00
        -11   -1    0    0    0    0  0.00000000000E+00  0.00000000000E+00  0.45593999997E+02  0.45594000000E+02  0.51100000000E-03 0.  1.
         11   -1    0    0    0    0 -0.00000000000E+00 -0.00000000000E+00 -0.45593999997E+02  0.45594000000E+02  0.51100000000E-03 0. -1.
    9900012    2    1    2    0    0 -0.34616184049E+01 -0.14338329356E+02  0.37889234073E+02  0.50528873726E+02  0.30000042178E+02 0.  0.
         12    1    1    2    0    0  0.34616184049E+01  0.14338329356E+02 -0.37889234073E+02  0.40659126274E+02  0.00000000000E+00 0. -1.
         11    1    3    3    0    0  0.61695591845E+00 -0.10221875909E+02  0.33068599952E+02  0.34617909885E+02  0.51100000000E-03 0. -1.
        -11    1    3    3    0    0  0.28646217014E+01 -0.22608385571E+01  0.74196802618E+01  0.82685611761E+01  0.51100000000E-03 0.  1.
         12    1    3    3    0    0 -0.69431960248E+01 -0.18556148900E+01 -0.25990461413E+01  0.76424026656E+01  0.00000000000E+00 0. -1.
</event>
<event>
 7    1  0.5456331E-013  0.5052885E+02  0.7816164E-02  0.1300439E+00
        -11   -1    0    0    0    0  0.00000000000E+00  0.00000000000E+00  0.45593999997E+02  0.45594000000E+02  0.51100000000E-03 0.  1.
         11   -1    0    0    0    0 -0.00000000000E+00 -0.00000000000E+00 -0.45593999997E+02  0.45594000000E+02  0.51100000000E-03 0. -1.
    9900012    2    1    2    0    0  0.30114166669E+02 -0.65234618565E+01  0.26528242099E+02  0.50528853211E+02  0.29999979820E+02 0.  0.
         12    1    1    2    0    0 -0.30114166669E+02  0.65234618565E+01 -0.26528242099E+02  0.40659146789E+02  0.00000000000E+00 0. -1.
         11    1    3    3    0    0  0.30615611662E+02 -0.59323712642E+01  0.21400983769E+02  0.37822094241E+02  0.51100000000E-03 0. -1.
        -11    1    3    3    0    0  0.54473654863E+01 -0.90378100846E+00  0.14606536912E+01  0.57117528237E+01  0.51100000000E-03 0.  1.
         12    1    3    3    0    0 -0.59488104788E+01  0.31269041609E+00  0.36666046383E+01  0.69950061460E+01  0.00000000000E+00 0. -1.
</event>
<event>
 7    1  0.5456331E-013  0.5052886E+02  0.7816164E-02  0.1300439E+00
        -11   -1    0    0    0    0  0.00000000000E+00  0.00000000000E+00  0.45593999997E+02  0.45594000000E+02  0.51100000000E-03 0.  1.
         11   -1    0    0    0    0 -0.00000000000E+00 -0.00000000000E+00 -0.45593999997E+02  0.45594000000E+02  0.51100000000E-03 0. -1.
    9900012    2    1    2    0    0  0.20033650992E+02 -0.34076096991E+02 -0.95204226000E+01  0.50528855830E+02  0.29999987780E+02 0.  0.
         12    1    1    2    0    0 -0.20033650992E+02  0.34076096991E+02  0.95204226000E+01  0.40659144170E+02  0.00000000000E+00 0. -1.
         11    1    3    3    0    0  0.40728921785E+01 -0.78638778046E+01 -0.14914698656E+02  0.17345813935E+02  0.51100000000E-03 0. -1.
        -11    1    3    3    0    0  0.30112175880E+01 -0.14592844693E+02 -0.21822974235E+00  0.14901884850E+02  0.51100000000E-03 0.  1.
        -12    1    3    3    0    0  0.12949541225E+02 -0.11619374493E+02  0.56125057983E+01  0.18281157045E+02  0.00000000000E+00 0.  1.
</event>
<event>
 7    1  0.5456331E-013  0.5052886E+02  0.7816164E-02  0.1300439E+00
        -11   -1    0    0    0    0  0.00000000000E+00  0.00000000000E+00  0.45593999997E+02  0.45594000000E+02  0.51100000000E-03 0. -1.
         11   -1    0    0    0    0 -0.00000000000E+00 -0.00000000000E+00 -0.45593999997E+02  0.45594000000E+02  0.51100000000E-03 0.  1.
    9900012    2    1    2    0    0 -0.33484281974E+02 -0.18238299701E+02 -0.14118532871E+02  0.50528859752E+02  0.29999999701E+02 0.  0.
         12    1    1    2    0    0  0.33484281974E+02  0.18238299701E+02  0.14118532871E+02  0.40659140248E+02  0.00000000000E+00 0. -1.
         11    1    3    3    0    0 -0.21397929907E+02  0.69214031844E+00 -0.11587047708E+02  0.24343585138E+02  0.51100000000E-03 0. -1.
        -11    1    3    3    0    0 -0.63618991752E+01 -0.98781398614E+01 -0.79458492909E+01  0.14184073091E+02  0.51100000000E-03 0.  1.
        -12    1    3    3    0    0 -0.57244528922E+01 -0.90523001585E+01  0.54143641286E+01  0.12001201523E+02  0.00000000000E+00 0.  1.
</event>
<event>
 7    1  0.5456331E-013  0.5052886E+02  0.7816164E-02  0.1300439E+00
        -11   -1    0    0    0    0  0.00000000000E+00  0.00000000000E+00  0.45593999997E+02  0.45594000000E+02  0.51100000000E-03 0.  1.
         11   -1    0    0    0    0 -0.00000000000E+00 -0.00000000000E+00 -0.45593999997E+02  0.45594000000E+02  0.51100000000E-03 0. -1.
    9900012    2    1    2    0    0  0.29961372357E+02  0.18517895007E+02  0.20311803499E+02  0.50528860432E+02  0.30000001770E+02 0.  0.
         12    1    1    2    0    0 -0.29961372357E+02 -0.18517895007E+02 -0.20311803499E+02  0.40659139568E+02  0.00000000000E+00 0. -1.
         11    1    3    3    0    0  0.60870653653E+01 -0.20807122782E+01  0.61894571431E+01  0.89269876405E+01  0.51100000000E-03 0. -1.
        -11    1    3    3    0    0  0.11798895843E+02 -0.20122072288E+01  0.10087209010E+02  0.15652945631E+02  0.51100000000E-03 0.  1.
         12    1    3    3    0    0  0.12075411149E+02  0.22610814514E+02  0.40351373457E+01  0.25948927161E+02  0.00000000000E+00 0. -1.
</event>
<event>
 7    1  0.5456331E-013  0.5052885E+02  0.7816164E-02  0.1300439E+00
        -11   -1    0    0    0    0  0.00000000000E+00  0.00000000000E+00  0.45593999997E+02  0.45594000000E+02  0.51100000000E-03 0.  1.
         11   -1    0    0    0    0 -0.00000000000E+00 -0.00000000000E+00 -0.45593999997E+02  0.45594000000E+02  0.51100000000E-03 0. -1.
    9900012    2    1    2    0    0  0.22248583858E+02  0.14834645835E+02  0.30628420587E+02  0.50528851602E+02  0.29999974931E+02 0.  0.
         12    1    1    2    0    0 -0.22248583858E+02 -0.14834645835E+02 -0.30628420587E+02  0.40659148398E+02  0.00000000000E+00 0. -1.
         11    1    3    3    0    0 -0.46715894451E+01  0.23299127576E+01  0.31487077472E+01  0.60964417605E+01  0.51100000000E-03 0. -1.
        -11    1    3    3    0    0  0.13623433771E+02 -0.32685934461E+01  0.84204211871E+01  0.16345798972E+02  0.51100000000E-03 0.  1.
        -12    1    3    3    0    0  0.13296739532E+02  0.15773326524E+02  0.19059291653E+02  0.28086610870E+02  0.00000000000E+00 0.  1.
</event>
<event>
 7    1  0.5456331E-013  0.5052899E+02  0.7816164E-02  0.1300438E+00
        -11   -1    0    0    0    0  0.00000000000E+00  0.00000000000E+00  0.45593999997E+02  0.45594000000E+02  0.51100000000E-03 0.  1.
         11   -1    0    0    0    0 -0.00000000000E+00 -0.00000000000E+00 -0.45593999997E+02  0.45594000000E+02  0.51100000000E-03 0. -1.
    9900012    2    1    2    0    0  0.14382547061E+02  0.20133418625E+02  0.32263641360E+02  0.50528994118E+02  0.30000408118E+02 0.  0.
         12    1    1    2    0    0 -0.14382547061E+02 -0.20133418625E+02 -0.32263641360E+02  0.40659005882E+02  0.00000000000E+00 0. -1.
         11    1    3    3    0    0  0.74373897327E+01  0.67258543168E+01  0.12570056024E+02  0.16079744744E+02  0.51100000000E-03 0.  1.
        -11    1    3    3    0    0  0.38636322190E+01 -0.44920746797E+01 -0.19097184786E+01  0.62252239944E+01  0.51100000000E-03 0. -1.
         12    1    3    3    0    0  0.30815251090E+01  0.17899638988E+02  0.21603303815E+02  0.28224025380E+02  0.00000000000E+00 0. -1.
</event>
<event>
 7    1  0.5456331E-013  0.5052886E+02  0.7816164E-02  0.1300439E+00
        -11   -1    0    0    0    0  0.00000000000E+00  0.00000000000E+00  0.45593999997E+02  0.45594000000E+02  0.51100000000E-03 0.  1.
         11   -1    0    0    0    0 -0.00000000000E+00 -0.00000000000E+00 -0.45593999997E+02  0.45594000000E+02  0.51100000000E-03 0. -1.
    9900012    2    1    2    0    0  0.28975049750E+02 -0.21410387708E+02  0.18846954256E+02  0.50528857184E+02  0.29999991897E+02 0.  0.
         12    1    1    2    0    0 -0.28975049750E+02  0.21410387708E+02 -0.18846954256E+02  0.40659142816E+02  0.00000000000E+00 0. -1.
         11    1    3    3    0    0  0.61265339087E+01  0.34544124942E+01 -0.20290113107E+01  0.73201277704E+01  0.51100000000E-03 0. -1.
        -11    1    3    3    0    0  0.12663324681E+02 -0.58514439580E+01  0.11802747840E+01  0.13999722754E+02  0.51100000000E-03 0.  1.
         12    1    3    3    0    0  0.10185191160E+02 -0.19013356244E+02  0.19695690783E+02  0.29209006659E+02  0.00000000000E+00 0. -1.
</event>
<event>
 7    1  0.5456331E-013  0.5052885E+02  0.7816164E-02  0.1300439E+00
        -11   -1    0    0    0    0  0.00000000000E+00  0.00000000000E+00  0.45593999997E+02  0.45594000000E+02  0.51100000000E-03 0.  1.
         11   -1    0    0    0    0 -0.00000000000E+00 -0.00000000000E+00 -0.45593999997E+02  0.45594000000E+02  0.51100000000E-03 0. -1.
    9900012    2    1    2    0    0  0.21753821684E+02 -0.34160065946E+02  0.36093725470E+01  0.50528850556E+02  0.29999971751E+02 0.  0.
         12    1    1    2    0    0 -0.21753821684E+02  0.34160065946E+02 -0.36093725470E+01  0.40659149444E+02  0.00000000000E+00 0. -1.
         11    1    3    3    0    0  0.54336660130E+01 -0.62253385045E+01 -0.12689241236E+01  0.83600080460E+01  0.51100000000E-03 0. -1.
        -11    1    3    3    0    0  0.34142294313E+01 -0.23499404111E+02 -0.62557039446E+01  0.24556318704E+02  0.51100000000E-03 0.  1.
         12    1    3    3    0    0  0.12905926239E+02 -0.44353233307E+01  0.11134000615E+02  0.17612523807E+02  0.00000000000E+00 0. -1.
</event>
<event>
 7    1  0.5456331E-013  0.5052887E+02  0.7816164E-02  0.1300439E+00
        -11   -1    0    0    0    0  0.00000000000E+00  0.00000000000E+00  0.45593999997E+02  0.45594000000E+02  0.51100000000E-03 0.  1.
         11   -1    0    0    0    0 -0.00000000000E+00 -0.00000000000E+00 -0.45593999997E+02  0.45594000000E+02  0.51100000000E-03 0. -1.
    9900012    2    1    2    0    0 -0.72204229477E+01 -0.34352737230E+02  0.20516338898E+02  0.50528865423E+02  0.30000016941E+02 0.  0.
         12    1    1    2    0    0  0.72204229477E+01  0.34352737230E+02 -0.20516338898E+02  0.40659134577E+02  0.00000000000E+00 0. -1.
         11    1    3    3    0    0 -0.56795709502E+01 -0.77381402559E+01 -0.14492348394E+01  0.97075549280E+01  0.51100000000E-03 0. -1.
        -11    1    3    3    0    0 -0.77582760586E+00 -0.82465394226E+01 -0.38458056816E+01  0.91322254968E+01  0.51100000000E-03 0.  1.
        -12    1    3    3    0    0 -0.76502439160E+00 -0.18368057552E+02  0.25811379419E+02  0.31689084998E+02  0.00000000000E+00 0.  1.
</event>
<event>
 7    1  0.5456331E-013  0.5052886E+02  0.7816164E-02  0.1300439E+00
        -11   -1    0    0    0    0  0.00000000000E+00  0.00000000000E+00  0.45593999997E+02  0.45594000000E+02  0.51100000000E-03 0.  1.
         11   -1    0    0    0    0 -0.00000000000E+00 -0.00000000000E+00 -0.45593999997E+02  0.45594000000E+02  0.51100000000E-03 0. -1.
    9900012    2    1    2    0    0  0.15893559239E+02 -0.15105265445E+02  0.34240204064E+02  0.50528857808E+02  0.29999993792E+02 0.  0.
         12    1    1    2    0    0 -0.15893559239E+02  0.15105265445E+02 -0.34240204064E+02  0.40659142192E+02  0.00000000000E+00 0. -1.
         11    1    3    3    0    0 -0.69152974183E+00  0.39778902482E+00 -0.80746035241E+00  0.11350955792E+01  0.51100000000E-03 0. -1.
        -11    1    3    3    0    0 -0.61211629211E+01 -0.50937695847E+01  0.24608283314E+01  0.83349145422E+01  0.51100000000E-03 0.  1.
        -12    1    3    3    0    0  0.22706251902E+02 -0.10409284886E+02  0.32586836085E+02  0.41058847686E+02  0.00000000000E+00 0.  1.
</event>
<event>
 7    1  0.5456331E-013  0.5052885E+02  0.7816164E-02  0.1300439E+00
        -11   -1    0    0    0    0  0.00000000000E+00  0.00000000000E+00  0.45593999997E+02  0.45594000000E+02  0.51100000000E-03 0. -1.
         11   -1    0    0    0    0 -0.00000000000E+00 -0.00000000000E+00 -0.45593999997E+02  0.45594000000E+02  0.51100000000E-03 0.  1.
    9900012    2    1    2    0    0  0.85444049594E+00 -0.40483581670E+02 -0.36764071659E+01  0.50528850685E+02  0.29999972142E+02 0.  0.
         12    1    1    2    0    0 -0.85444049594E+00  0.40483581670E+02  0.36764071659E+01  0.40659149315E+02  0.00000000000E+00 0. -1.
         11    1    3    3    0    0  0.33677385423E+01 -0.13949814818E+01  0.67269285859E+01  0.76510917315E+01  0.51100000000E-03 0. -1.
        -11    1    3    3    0    0  0.43886520657E+01 -0.79614164041E+01  0.69677643731E+00  0.91175608459E+01  0.51100000000E-03 0.  1.
        -12    1    3    3    0    0 -0.69019501121E+01 -0.31127183784E+02 -0.11100112189E+02  0.33760198108E+02  0.00000000000E+00 0.  1.
</event>
<event>
 7    1  0.5456331E-013  0.5052885E+02  0.7816164E-02  0.1300439E+00
        -11   -1    0    0    0    0  0.00000000000E+00  0.00000000000E+00  0.45593999997E+02  0.45594000000E+02  0.51100000000E-03 0. -1.
         11   -1    0    0    0    0 -0.00000000000E+00 -0.00000000000E+00 -0.45593999997E+02  0.45594000000E+02  0.51100000000E-03 0.  1.
    9900012    2    1    2    0    0 -0.37607153233E+02 -0.15383822451E+02 -0.14855493531E+01  0.50528845750E+02  0.29999957141E+02 0.  0.
         12    1    1    2    0    0  0.37607153233E+02  0.15383822451E+02  0.14855493531E+01  0.40659154250E+02  0.00000000000E+00 0. -1.
         11    1    3    3    0    0 -0.29544762106E+02 -0.13642503292E+01 -0.43413566334E+01  0.29893168526E+02  0.51100000000E-03 0. -1.
        -11    1    3    3    0    0 -0.64154063748E+01 -0.41843498194E+01 -0.38954866767E+01  0.85930808838E+01  0.51100000000E-03 0.  1.
         12    1    3    3    0    0 -0.16469847522E+01 -0.98352223024E+01  0.67512939570E+01  0.12042596340E+02  0.00000000000E+00 0. -1.
</event>
<event>
 7    1  0.5456331E-013  0.5052886E+02  0.7816164E-02  0.1300439E+00
        -11   -1    0    0    0    0  0.00000000000E+00  0.00000000000E+00  0.45593999997E+02  0.45594000000E+02  0.51100000000E-03 0. -1.
         11   -1    0    0    0    0 -0.00000000000E+00 -0.00000000000E+00 -0.45593999997E+02  0.45594000000E+02  0.51100000000E-03 0.  1.
    9900012    2    1    2    0    0  0.30106348417E+02  0.13854810783E+02 -0.23554568838E+02  0.50528859453E+02  0.29999998794E+02 0.  0.
         12    1    1    2    0    0 -0.30106348417E+02 -0.13854810783E+02  0.23554568838E+02  0.40659140547E+02  0.00000000000E+00 0. -1.
         11    1    3    3    0    0  0.16773846760E+02 -0.25364241076E+01 -0.11282773788E+02  0.20373913885E+02  0.51100000000E-03 0. -1.
        -11    1    3    3    0    0  0.14672045230E+02  0.93624269405E+01 -0.18354025620E+01  0.17501218594E+02  0.51100000000E-03 0.  1.
        -12    1    3    3    0    0 -0.13395435722E+01  0.70288079500E+01 -0.10436392488E+02  0.12653726975E+02  0.00000000000E+00 0.  1.
</event>
<event>
 7    1  0.5456331E-013  0.5052885E+02  0.7816164E-02  0.1300439E+00
        -11   -1    0    0    0    0  0.00000000000E+00  0.00000000000E+00  0.45593999997E+02  0.45594000000E+02  0.51100000000E-03 0.  1.
         11   -1    0    0    0    0 -0.00000000000E+00 -0.00000000000E+00 -0.45593999997E+02  0.45594000000E+02  0.51100000000E-03 0. -1.
    9900012    2    1    2    0    0 -0.19608013925E+02 -0.46292332650E+01  0.35316605718E+02  0.50528847892E+02  0.29999963652E+02 0.  0.
         12    1    1    2    0    0  0.19608013925E+02  0.46292332650E+01 -0.35316605718E+02  0.40659152108E+02  0.00000000000E+00 0. -1.
         11    1    3    3    0    0 -0.16559619828E+02  0.71481776705E+01  0.14801701077E+02  0.23332548251E+02  0.51100000000E-03 0. -1.
        -11    1    3    3    0    0 -0.29713806004E+01  0.15174789114E+01  0.90328900681E+01  0.96293794277E+01  0.51100000000E-03 0.  1.
         12    1    3    3    0    0 -0.77013496768E-01 -0.13294889847E+02  0.11482014573E+02  0.17566920213E+02  0.00000000000E+00 0. -1.
</event>
<event>
 7    1  0.5456331E-013  0.5052886E+02  0.7816164E-02  0.1300439E+00
        -11   -1    0    0    0    0  0.00000000000E+00  0.00000000000E+00  0.45593999997E+02  0.45594000000E+02  0.51100000000E-03 0. -1.
         11   -1    0    0    0    0 -0.00000000000E+00 -0.00000000000E+00 -0.45593999997E+02  0.45594000000E+02  0.51100000000E-03 0.  1.
    9900012    2    1    2    0    0  0.26442828762E+02  0.96402177069E+01  0.29342945053E+02  0.50528863084E+02  0.30000009830E+02 0.  0.
         12    1    1    2    0    0 -0.26442828762E+02 -0.96402177069E+01 -0.29342945053E+02  0.40659136916E+02  0.00000000000E+00 0. -1.
         11    1    3    3    0    0  0.86206394958E+01  0.85444389806E+00  0.23738137178E+02  0.25269441162E+02  0.51100000000E-03 0. -1.
        -11    1    3    3    0    0 -0.19367427093E+01 -0.61599330880E+00  0.23989940539E+01  0.31441362582E+01  0.51100000000E-03 0.  1.
        -12    1    3    3    0    0  0.19758931975E+02  0.94017671177E+01  0.32058138217E+01  0.22115285664E+02  0.00000000000E+00 0.  1.
</event>
<event>
 7    1  0.5456331E-013  0.5052886E+02  0.7816164E-02  0.1300439E+00
        -11   -1    0    0    0    0  0.00000000000E+00  0.00000000000E+00  0.45593999997E+02  0.45594000000E+02  0.51100000000E-03 0.  1.
         11   -1    0    0    0    0 -0.00000000000E+00 -0.00000000000E+00 -0.45593999997E+02  0.45594000000E+02  0.51100000000E-03 0. -1.
    9900012    2    1    2    0    0  0.22976818954E+02 -0.60361832934E+01  0.32996913853E+02  0.50528855373E+02  0.29999986391E+02 0.  0.
         12    1    1    2    0    0 -0.22976818954E+02  0.60361832934E+01 -0.32996913853E+02  0.40659144627E+02  0.00000000000E+00 0. -1.
         11    1    3    3    0    0 -0.35673181645E+01 -0.82779068560E+00  0.19098243530E+01  0.41301846964E+01  0.51100000000E-03 0. -1.
        -11    1    3    3    0    0 -0.36130452101E+01  0.10674105783E+00  0.50096251085E+01  0.61775264736E+01  0.51100000000E-03 0.  1.
        -12    1    3    3    0    0  0.30157182328E+02 -0.53151336656E+01  0.26077464392E+02  0.40221144203E+02  0.00000000000E+00 0.  1.
</event>
<event>
 7    1  0.5456331E-013  0.5052886E+02  0.7816164E-02  0.1300439E+00
        -11   -1    0    0    0    0  0.00000000000E+00  0.00000000000E+00  0.45593999997E+02  0.45594000000E+02  0.51100000000E-03 0.  1.
         11   -1    0    0    0    0 -0.00000000000E+00 -0.00000000000E+00 -0.45593999997E+02  0.45594000000E+02  0.51100000000E-03 0. -1.
    9900012    2    1    2    0    0 -0.13074620724E+02 -0.36799333312E+02  0.11314991247E+02  0.50528859992E+02  0.30000000431E+02 0.  0.
         12    1    1    2    0    0  0.13074620724E+02  0.36799333312E+02 -0.11314991247E+02  0.40659140008E+02  0.00000000000E+00 0. -1.
         11    1    3    3    0    0 -0.18101072202E+02 -0.19714993810E+02  0.70921605854E+01  0.27688057676E+02  0.51100000000E-03 0. -1.
        -11    1    3    3    0    0  0.17789567839E+01  0.17725341038E+01 -0.14285986913E+01  0.28891969247E+01  0.51100000000E-03 0.  1.
        -12    1    3    3    0    0  0.32474946943E+01 -0.18856873605E+02  0.56514293530E+01  0.19951605391E+02  0.00000000000E+00 0.  1.
</event>
<event>
 7    1  0.5456331E-013  0.5052892E+02  0.7816164E-02  0.1300439E+00
        -11   -1    0    0    0    0  0.00000000000E+00  0.00000000000E+00  0.45593999997E+02  0.45594000000E+02  0.51100000000E-03 0. -1.
         11   -1    0    0    0    0 -0.00000000000E+00 -0.00000000000E+00 -0.45593999997E+02  0.45594000000E+02  0.51100000000E-03 0.  1.
    9900012    2    1    2    0    0  0.57256320802E+01 -0.28530033676E+02 -0.28397443785E+02  0.50528923549E+02  0.30000193620E+02 0.  0.
         12    1    1    2    0    0 -0.57256320802E+01  0.28530033676E+02  0.28397443785E+02  0.40659076451E+02  0.00000000000E+00 0. -1.
         11    1    3    3    0    0  0.50295911597E+01 -0.12743540575E+02 -0.10419154402E+02  0.17212013024E+02  0.51100000000E-03 0.  1.
        -11    1    3    3    0    0 -0.33777524901E+01 -0.20118492716E+02 -0.84406419999E+01  0.22077305060E+02  0.51100000000E-03 0. -1.
         12    1    3    3    0    0  0.40737934105E+01  0.43319996153E+01 -0.95376473833E+01  0.11239605466E+02  0.00000000000E+00 0. -1.
</event>
<event>
 7    1  0.5456331E-013  0.5052885E+02  0.7816164E-02  0.1300439E+00
        -11   -1    0    0    0    0  0.00000000000E+00  0.00000000000E+00  0.45593999997E+02  0.45594000000E+02  0.51100000000E-03 0.  1.
         11   -1    0    0    0    0 -0.00000000000E+00 -0.00000000000E+00 -0.45593999997E+02  0.45594000000E+02  0.51100000000E-03 0. -1.
    9900012    2    1    2    0    0  0.16881181968E+02 -0.24120100923E+02  0.28043056577E+02  0.50528848566E+02  0.29999965700E+02 0.  0.
         12    1    1    2    0    0 -0.16881181968E+02  0.24120100923E+02 -0.28043056577E+02  0.40659151434E+02  0.00000000000E+00 0. -1.
         11    1    3    3    0    0  0.77499270124E+01 -0.32782939481E+01  0.18012182200E+02  0.19880827140E+02  0.51100000000E-03 0. -1.
        -11    1    3    3    0    0  0.52303641310E+01 -0.62746591114E+01  0.12927347171E+02  0.15291970477E+02  0.51100000000E-03 0.  1.
         12    1    3    3    0    0  0.39008908244E+01 -0.14567147864E+02 -0.28964727939E+01  0.15356050949E+02  0.00000000000E+00 0. -1.
</event>
<event>
 7    1  0.5456331E-013  0.5052886E+02  0.7816164E-02  0.1300439E+00
        -11   -1    0    0    0    0  0.00000000000E+00  0.00000000000E+00  0.45593999997E+02  0.45594000000E+02  0.51100000000E-03 0.  1.
         11   -1    0    0    0    0 -0.00000000000E+00 -0.00000000000E+00 -0.45593999997E+02  0.45594000000E+02  0.51100000000E-03 0. -1.
    9900012    2    1    2    0    0 -0.37265179927E+02  0.15476567810E+02  0.49947941787E+01  0.50528858899E+02  0.29999997109E+02 0.  0.
         12    1    1    2    0    0  0.37265179927E+02 -0.15476567810E+02 -0.49947941787E+01  0.40659141101E+02  0.00000000000E+00 0. -1.
         11    1    3    3    0    0 -0.31133489766E+01  0.82037741460E+01 -0.29179426681E+01  0.92471207283E+01  0.51100000000E-03 0. -1.
        -11    1    3    3    0    0  0.45776941996E+00  0.41729928133E+01 -0.26489923263E+01  0.49639281288E+01  0.51100000000E-03 0.  1.
        -12    1    3    3    0    0 -0.34609600370E+02  0.30998008511E+01  0.10561729173E+02  0.36317810042E+02  0.00000000000E+00 0.  1.
</event>
<event>
 7    1  0.5456331E-013  0.5052886E+02  0.7816164E-02  0.1300439E+00
        -11   -1    0    0    0    0  0.00000000000E+00  0.00000000000E+00  0.45593999997E+02  0.45594000000E+02  0.51100000000E-03 0. -1.
         11   -1    0    0    0    0 -0.00000000000E+00 -0.00000000000E+00 -0.45593999997E+02  0.45594000000E+02  0.51100000000E-03 0.  1.
    9900012    2    1    2    0    0 -0.34194566773E+02 -0.10346418712E+02 -0.19412594654E+02  0.50528860706E+02  0.30000002601E+02 0.  0.
         12    1    1    2    0    0  0.34194566773E+02  0.10346418712E+02  0.19412594654E+02  0.40659139294E+02  0.00000000000E+00 0. -1.
         11    1    3    3    0    0  0.30550044369E+01 -0.52380593651E+01 -0.19973207028E+01  0.63843252010E+01  0.51100000000E-03 0. -1.
        -11    1    3    3    0    0  0.98341383205E+00  0.12707235025E+01 -0.16396456940E+01  0.22957088770E+01  0.51100000000E-03 0.  1.
        -12    1    3    3    0    0 -0.38232985042E+02 -0.63790828499E+01 -0.15775628257E+02  0.41848826628E+02  0.00000000000E+00 0.  1.
</event>
<event>
 7    1  0.5456331E-013  0.5052886E+02  0.7816164E-02  0.1300439E+00
        -11   -1    0    0    0    0  0.00000000000E+00  0.00000000000E+00  0.45593999997E+02  0.45594000000E+02  0.51100000000E-03 0.  1.
         11   -1    0    0    0    0 -0.00000000000E+00 -0.00000000000E+00 -0.45593999997E+02  0.45594000000E+02  0.51100000000E-03 0. -1.
    9900012    2    1    2    0    0  0.34947358171E+02  0.10921641480E+01  0.20752229849E+02  0.50528859461E+02  0.29999998817E+02 0.  0.
         12    1    1    2    0    0 -0.34947358171E+02 -0.10921641480E+01 -0.20752229849E+02  0.40659140539E+02  0.00000000000E+00 0. -1.
         11    1    3    3    0    0  0.77542711723E+01 -0.69276044691E+01  0.49352343515E+01  0.11509863746E+02  0.51100000000E-03 0. -1.
        -11    1    3    3    0    0  0.11581316460E+02 -0.71182779423E+01  0.86930107855E+01  0.16135836160E+02  0.51100000000E-03 0.  1.
         12    1    3    3    0    0  0.15611770539E+02  0.15138046559E+02  0.71239847125E+01  0.22883159554E+02  0.00000000000E+00 0. -1.
</event>
<event>
 7    1  0.5456331E-013  0.5052887E+02  0.7816164E-02  0.1300439E+00
        -11   -1    0    0    0    0  0.00000000000E+00  0.00000000000E+00  0.45593999997E+02  0.45594000000E+02  0.51100000000E-03 0.  1.
         11   -1    0    0    0    0 -0.00000000000E+00 -0.00000000000E+00 -0.45593999997E+02  0.45594000000E+02  0.51100000000E-03 0. -1.
    9900012    2    1    2    0    0  0.11828968192E+02 -0.51364680716E+01  0.38559787247E+02  0.50528868366E+02  0.30000025885E+02 0.  0.
         12    1    1    2    0    0 -0.11828968192E+02  0.51364680716E+01 -0.38559787247E+02  0.40659131634E+02  0.00000000000E+00 0. -1.
         11    1    3    3    0    0 -0.15991591397E+01  0.97814568782E+00  0.36044160631E+00  0.19089257066E+01  0.51100000000E-03 0. -1.
        -11    1    3    3    0    0 -0.73311023439E+01  0.96948331740E+00  0.14815657447E+02  0.16558643221E+02  0.51100000000E-03 0.  1.
        -12    1    3    3    0    0  0.20759229676E+02 -0.70840970768E+01  0.23383688194E+02  0.32061299438E+02  0.00000000000E+00 0.  1.
</event>
<event>
 7    1  0.5456331E-013  0.5052887E+02  0.7816164E-02  0.1300439E+00
        -11   -1    0    0    0    0  0.00000000000E+00  0.00000000000E+00  0.45593999997E+02  0.45594000000E+02  0.51100000000E-03 0.  1.
         11   -1    0    0    0    0 -0.00000000000E+00 -0.00000000000E+00 -0.45593999997E+02  0.45594000000E+02  0.51100000000E-03 0. -1.
    9900012    2    1    2    0    0  0.96019442098E+01  0.19468183731E+02  0.34379611426E+02  0.50528865821E+02  0.30000018148E+02 0.  0.
         12    1    1    2    0    0 -0.96019442098E+01 -0.19468183731E+02 -0.34379611426E+02  0.40659134179E+02  0.00000000000E+00 0. -1.
         11    1    3    3    0    0  0.24835888562E+01 -0.65527646844E+00  0.22850809139E+01  0.34379057435E+01  0.51100000000E-03 0. -1.
        -11    1    3    3    0    0  0.10982634331E+02 -0.17620323967E+01  0.16664129702E+02  0.20035374566E+02  0.51100000000E-03 0.  1.
        -12    1    3    3    0    0 -0.38642789774E+01  0.21885492596E+02  0.15430400811E+02  0.27055585511E+02  0.00000000000E+00 0.  1.
</event>
<event>
 7    1  0.5456331E-013  0.5052884E+02  0.7816164E-02  0.1300439E+00
        -11   -1    0    0    0    0  0.00000000000E+00  0.00000000000E+00  0.45593999997E+02  0.45594000000E+02  0.51100000000E-03 0. -1.
         11   -1    0    0    0    0 -0.00000000000E+00 -0.00000000000E+00 -0.45593999997E+02  0.45594000000E+02  0.51100000000E-03 0.  1.
    9900012    2    1    2    0    0  0.29383575866E+02  0.30331923824E+01 -0.27938721599E+02  0.50528844189E+02  0.29999952396E+02 0.  0.
         12    1    1    2    0    0 -0.29383575866E+02 -0.30331923824E+01  0.27938721599E+02  0.40659155811E+02  0.00000000000E+00 0. -1.
         11    1    3    3    0    0  0.42372837652E+00 -0.54606170862E+01 -0.73249136962E+01  0.91461601570E+01  0.51100000000E-03 0. -1.
        -11    1    3    3    0    0  0.28361987075E+02  0.14356020676E+01 -0.13878266329E+02  0.31608061324E+02  0.51100000000E-03 0.  1.
         12    1    3    3    0    0  0.59786041491E+00  0.70582074009E+01 -0.67355415734E+01  0.97746227076E+01  0.00000000000E+00 0. -1.
</event>
<event>
 7    1  0.5456331E-013  0.5052886E+02  0.7816164E-02  0.1300439E+00
        -11   -1    0    0    0    0  0.00000000000E+00  0.00000000000E+00  0.45593999997E+02  0.45594000000E+02  0.51100000000E-03 0.  1.
         11   -1    0    0    0    0 -0.00000000000E+00 -0.00000000000E+00 -0.45593999997E+02  0.45594000000E+02  0.51100000000E-03 0. -1.
    9900012    2    1    2    0    0  0.47573089963E+01  0.37186965998E+02  0.15737316650E+02  0.50528861244E+02  0.30000004237E+02 0.  0.
         12    1    1    2    0    0 -0.47573089963E+01 -0.37186965998E+02 -0.15737316650E+02  0.40659138756E+02  0.00000000000E+00 0. -1.
         11    1    3    3    0    0 -0.55611884267E+00  0.64464141884E+01  0.73821937705E+01  0.98164305724E+01  0.51100000000E-03 0. -1.
        -11    1    3    3    0    0  0.71097297619E+01  0.16280805536E+02  0.16305248475E+02  0.24113772295E+02  0.51100000000E-03 0.  1.
         12    1    3    3    0    0 -0.17963019229E+01  0.14459746274E+02 -0.79501255964E+01  0.16598658376E+02  0.00000000000E+00 0. -1.
</event>
<event>
 7    1  0.5456331E-013  0.5052886E+02  0.7816164E-02  0.1300439E+00
        -11   -1    0    0    0    0  0.00000000000E+00  0.00000000000E+00  0.45593999997E+02  0.45594000000E+02  0.51100000000E-03 0. -1.
         11   -1    0    0    0    0 -0.00000000000E+00 -0.00000000000E+00 -0.45593999997E+02  0.45594000000E+02  0.51100000000E-03 0.  1.
    9900012    2    1    2    0    0  0.29096743254E+02 -0.28226442031E+02  0.31326554108E+01  0.50528855547E+02  0.29999986922E+02 0.  0.
         12    1    1    2    0    0 -0.29096743254E+02  0.28226442031E+02 -0.31326554108E+01  0.40659144453E+02  0.00000000000E+00 0. -1.
         11    1    3    3    0    0  0.19418927818E+02 -0.11106653370E+02 -0.41754670229E+01  0.22757131450E+02  0.51100000000E-03 0.  1.
        -11    1    3    3    0    0  0.56302194195E+01  0.18374550843E+01 -0.20227292686E+01  0.62583580797E+01  0.51100000000E-03 0. -1.
         12    1    3    3    0    0  0.40475960158E+01 -0.18957243745E+02  0.93308517023E+01  0.21513366018E+02  0.00000000000E+00 0. -1.
</event>
<event>
 7    1  0.5456331E-013  0.5052888E+02  0.7816164E-02  0.1300439E+00
        -11   -1    0    0    0    0  0.00000000000E+00  0.00000000000E+00  0.45593999997E+02  0.45594000000E+02  0.51100000000E-03 0. -1.
         11   -1    0    0    0    0 -0.00000000000E+00 -0.00000000000E+00 -0.45593999997E+02  0.45594000000E+02  0.51100000000E-03 0.  1.
    9900012    2    1    2    0    0  0.36421496839E+02  0.14336106486E+02  0.11005226645E+02  0.50528875628E+02  0.30000047960E+02 0.  0.
         12    1    1    2    0    0 -0.36421496839E+02 -0.14336106486E+02 -0.11005226645E+02  0.40659124372E+02  0.00000000000E+00 0. -1.
         11    1    3    3    0    0  0.15632866544E+02 -0.13737686937E+01 -0.43810488130E+01  0.16293168684E+02  0.51100000000E-03 0. -1.
        -11    1    3    3    0    0  0.10441313075E+02  0.49817268396E+01 -0.15528239473E+01  0.11672612540E+02  0.51100000000E-03 0.  1.
         12    1    3    3    0    0  0.10347317221E+02  0.10728148340E+02  0.16939099405E+02  0.22563094405E+02  0.00000000000E+00 0. -1.
</event>
<event>
 7    1  0.5456331E-013  0.5052886E+02  0.7816164E-02  0.1300439E+00
        -11   -1    0    0    0    0  0.00000000000E+00  0.00000000000E+00  0.45593999997E+02  0.45594000000E+02  0.51100000000E-03 0.  1.
         11   -1    0    0    0    0 -0.00000000000E+00 -0.00000000000E+00 -0.45593999997E+02  0.45594000000E+02  0.51100000000E-03 0. -1.
    9900012    2    1    2    0    0 -0.94354708153E+01  0.12655737707E+02  0.37469589624E+02  0.50528856465E+02  0.29999989711E+02 0.  0.
         12    1    1    2    0    0  0.94354708153E+01 -0.12655737707E+02 -0.37469589624E+02  0.40659143535E+02  0.00000000000E+00 0. -1.
         11    1    3    3    0    0 -0.12414713127E+01 -0.32408539753E+01  0.14535381943E+02  0.14943952422E+02  0.51100000000E-03 0. -1.
        -11    1    3    3    0    0  0.12349468552E+01 -0.40324229866E+01  0.70350586309E+00  0.42755642479E+01  0.51100000000E-03 0.  1.
        -12    1    3    3    0    0 -0.94289463577E+01  0.19929014669E+02  0.22230701818E+02  0.31309339795E+02  0.00000000000E+00 0.  1.
</event>
<event>
 7    1  0.5456331E-013  0.5052886E+02  0.7816164E-02  0.1300439E+00
        -11   -1    0    0    0    0  0.00000000000E+00  0.00000000000E+00  0.45593999997E+02  0.45594000000E+02  0.51100000000E-03 0.  1.
         11   -1    0    0    0    0 -0.00000000000E+00 -0.00000000000E+00 -0.45593999997E+02  0.45594000000E+02  0.51100000000E-03 0. -1.
    9900012    2    1    2    0    0  0.24373793381E+02 -0.68805670936E+00  0.32536289236E+02  0.50528863966E+02  0.30000012511E+02 0.  0.
         12    1    1    2    0    0 -0.24373793381E+02  0.68805670936E+00 -0.32536289236E+02  0.40659136034E+02  0.00000000000E+00 0. -1.
         11    1    3    3    0    0  0.60888295255E+01 -0.49981754739E+01  0.69644592993E+01  0.10514718097E+02  0.51100000000E-03 0. -1.
        -11    1    3    3    0    0 -0.11154500320E+01 -0.71261327852E+01  0.21606324517E+01  0.75295637389E+01  0.51100000000E-03 0.  1.
        -12    1    3    3    0    0  0.19400413887E+02  0.11436251550E+02  0.23411197485E+02  0.32484582130E+02  0.00000000000E+00 0.  1.
</event>
<event>
 7    1  0.5456331E-013  0.5052886E+02  0.7816164E-02  0.1300439E+00
        -11   -1    0    0    0    0  0.00000000000E+00  0.00000000000E+00  0.45593999997E+02  0.45594000000E+02  0.51100000000E-03 0. -1.
         11   -1    0    0    0    0 -0.00000000000E+00 -0.00000000000E+00 -0.45593999997E+02  0.45594000000E+02  0.51100000000E-03 0.  1.
    9900012    2    1    2    0    0  0.52383678210E+01 -0.13255392682E+02 -0.38079127075E+02  0.50528857715E+02  0.29999993509E+02 0.  0.
         12    1    1    2    0    0 -0.52383678210E+01  0.13255392682E+02  0.38079127075E+02  0.40659142285E+02  0.00000000000E+00 0. -1.
         11    1    3    3    0    0 -0.86070779658E+00  0.28500163657E+01 -0.23467230742E+02  0.23655323506E+02  0.51100000000E-03 0. -1.
        -11    1    3    3    0    0  0.40307873816E-01 -0.58466717916E+01 -0.13734223698E+02  0.14926958720E+02  0.51100000000E-03 0.  1.
         12    1    3    3    0    0  0.60587677438E+01 -0.10258737256E+02 -0.87767263483E+00  0.11946575489E+02  0.00000000000E+00 0. -1.
</event>
<event>
 7    1  0.5456331E-013  0.5052886E+02  0.7816164E-02  0.1300439E+00
        -11   -1    0    0    0    0  0.00000000000E+00  0.00000000000E+00  0.45593999997E+02  0.45594000000E+02  0.51100000000E-03 0. -1.
         11   -1    0    0    0    0 -0.00000000000E+00 -0.00000000000E+00 -0.45593999997E+02  0.45594000000E+02  0.51100000000E-03 0.  1.
    9900012    2    1    2    0    0 -0.65972973602E+01  0.33728912618E+02 -0.21725599060E+02  0.50528861625E+02  0.30000005395E+02 0.  0.
         12    1    1    2    0    0  0.65972973602E+01 -0.33728912618E+02  0.21725599060E+02  0.40659138375E+02  0.00000000000E+00 0. -1.
         11    1    3    3    0    0  0.37121250247E+00  0.48594936958E+01 -0.47788423272E+01  0.68256730035E+01  0.51100000000E-03 0. -1.
        -11    1    3    3    0    0 -0.83774405219E+01  0.33804166025E+02 -0.12797215992E+02  0.37103529317E+02  0.51100000000E-03 0.  1.
         12    1    3    3    0    0  0.14089306593E+01 -0.49347471029E+01 -0.41495407412E+01  0.65996593045E+01  0.00000000000E+00 0. -1.
</event>
<event>
 7    1  0.5456331E-013  0.5052885E+02  0.7816164E-02  0.1300439E+00
        -11   -1    0    0    0    0  0.00000000000E+00  0.00000000000E+00  0.45593999997E+02  0.45594000000E+02  0.51100000000E-03 0.  1.
         11   -1    0    0    0    0 -0.00000000000E+00 -0.00000000000E+00 -0.45593999997E+02  0.45594000000E+02  0.51100000000E-03 0. -1.
    9900012    2    1    2    0    0 -0.19930865726E+02  0.77440881375E+01  0.34582600567E+02  0.50528848857E+02  0.29999966587E+02 0.  0.
         12    1    1    2    0    0  0.19930865726E+02 -0.77440881375E+01 -0.34582600567E+02  0.40659151143E+02  0.00000000000E+00 0. -1.
         11    1    3    3    0    0  0.21074798609E+01  0.71695666911E+00 -0.27091159788E+01  0.35063952825E+01  0.51100000000E-03 0. -1.
        -11    1    3    3    0    0 -0.31891381673E+01 -0.66336898484E+00 -0.12060194081E+01  0.34734915768E+01  0.51100000000E-03 0.  1.
        -12    1    3    3    0    0 -0.18849207420E+02  0.76905004532E+01  0.38497735954E+02  0.43548961998E+02  0.00000000000E+00 0.  1.
</event>
<event>
 7    1  0.5456331E-013  0.5052887E+02  0.7816164E-02  0.1300439E+00
        -11   -1    0    0    0    0  0.00000000000E+00  0.00000000000E+00  0.45593999997E+02  0.45594000000E+02  0.51100000000E-03 0.  1.
         11   -1    0    0    0    0 -0.00000000000E+00 -0.00000000000E+00 -0.45593999997E+02  0.45594000000E+02  0.51100000000E-03 0. -1.
    9900012    2    1    2    0    0  0.17370388872E+02  0.24096582319E+02  0.27763090648E+02  0.50528869520E+02  0.30000029394E+02 0.  0.
         12    1    1    2    0    0 -0.17370388872E+02 -0.24096582319E+02 -0.27763090648E+02  0.40659130480E+02  0.00000000000E+00 0. -1.
         11    1    3    3    0    0  0.68493035919E+01 -0.38066348726E+01  0.40003366031E+01  0.87980749001E+01  0.51100000000E-03 0. -1.
        -11    1    3    3    0    0 -0.35141719032E+01  0.11213106840E+02  0.43353690337E+01  0.12525118526E+02  0.51100000000E-03 0.  1.
        -12    1    3    3    0    0  0.14035257183E+02  0.16690110352E+02  0.19427385011E+02  0.29205676095E+02  0.00000000000E+00 0.  1.
</event>
<event>
 7    1  0.5456331E-013  0.5052882E+02  0.7816164E-02  0.1300439E+00
        -11   -1    0    0    0    0  0.00000000000E+00  0.00000000000E+00  0.45593999997E+02  0.45594000000E+02  0.51100000000E-03 0.  1.
         11   -1    0    0    0    0 -0.00000000000E+00 -0.00000000000E+00 -0.45593999997E+02  0.45594000000E+02  0.51100000000E-03 0. -1.
    9900012    2    1    2    0    0  0.13025565068E+02 -0.25630780782E+02  0.28750074139E+02  0.50528818603E+02  0.29999874627E+02 0.  0.
         12    1    1    2    0    0 -0.13025565068E+02  0.25630780782E+02 -0.28750074139E+02  0.40659181397E+02  0.00000000000E+00 0. -1.
         11    1    3    3    0    0 -0.43390494569E+01 -0.29123028326E+01  0.98425460891E+01  0.11143813160E+02  0.51100000000E-03 0. -1.
        -11    1    3    3    0    0 -0.12300344543E+01 -0.12418885415E+02  0.11217473746E+02  0.16780149500E+02  0.51100000000E-03 0.  1.
         12    1    3    3    0    0  0.18594648979E+02 -0.10299592534E+02  0.76900543039E+01  0.22604855943E+02  0.00000000000E+00 0. -1.
</event>
<event>
 7    1  0.5456331E-013  0.5052885E+02  0.7816164E-02  0.1300439E+00
        -11   -1    0    0    0    0  0.00000000000E+00  0.00000000000E+00  0.45593999997E+02  0.45594000000E+02  0.51100000000E-03 0.  1.
         11   -1    0    0    0    0 -0.00000000000E+00 -0.00000000000E+00 -0.45593999997E+02  0.45594000000E+02  0.51100000000E-03 0. -1.
    9900012    2    1    2    0    0  0.25036592086E+02  0.30832237623E+02 -0.87010639492E+01  0.50528851780E+02  0.29999975471E+02 0.  0.
         12    1    1    2    0    0 -0.25036592086E+02 -0.30832237623E+02  0.87010639492E+01  0.40659148220E+02  0.00000000000E+00 0. -1.
         11    1    3    3    0    0 -0.14139695376E+01 -0.14984732767E+01  0.20934994685E+00  0.20708837910E+01  0.51100000000E-03 0. -1.
        -11    1    3    3    0    0 -0.32901731696E+01  0.86959607385E+01  0.53513660663E+00  0.93129664501E+01  0.51100000000E-03 0.  1.
         12    1    3    3    0    0  0.29740734793E+02  0.23634750161E+02 -0.94455505027E+01  0.39145001539E+02  0.00000000000E+00 0. -1.
</event>
<event>
 7    1  0.5456331E-013  0.5052886E+02  0.7816164E-02  0.1300439E+00
        -11   -1    0    0    0    0  0.00000000000E+00  0.00000000000E+00  0.45593999997E+02  0.45594000000E+02  0.51100000000E-03 0.  1.
         11   -1    0    0    0    0 -0.00000000000E+00 -0.00000000000E+00 -0.45593999997E+02  0.45594000000E+02  0.51100000000E-03 0. -1.
    9900012    2    1    2    0    0 -0.10814367060E+02 -0.34067615615E+02  0.19380736937E+02  0.50528856713E+02  0.29999990466E+02 0.  0.
         12    1    1    2    0    0  0.10814367060E+02  0.34067615615E+02 -0.19380736937E+02  0.40659143287E+02  0.00000000000E+00 0. -1.
         11    1    3    3    0    0 -0.11209746311E+02  0.70194941166E+00  0.20133741850E+01  0.11410732720E+02  0.51100000000E-03 0. -1.
        -11    1    3    3    0    0 -0.14482875106E+01 -0.46020587195E+01  0.25699744023E+01  0.54663744713E+01  0.51100000000E-03 0.  1.
         12    1    3    3    0    0  0.18436667625E+01 -0.30167506307E+02  0.14797388349E+02  0.33651749522E+02  0.00000000000E+00 0. -1.
</event>
<event>
 7    1  0.5456331E-013  0.5052886E+02  0.7816164E-02  0.1300439E+00
        -11   -1    0    0    0    0  0.00000000000E+00  0.00000000000E+00  0.45593999997E+02  0.45594000000E+02  0.51100000000E-03 0. -1.
         11   -1    0    0    0    0 -0.00000000000E+00 -0.00000000000E+00 -0.45593999997E+02  0.45594000000E+02  0.51100000000E-03 0.  1.
    9900012    2    1    2    0    0  0.72494433271E+00  0.34540267589E+02 -0.21438514201E+02  0.50528861783E+02  0.30000005875E+02 0.  0.
         12    1    1    2    0    0 -0.72494433271E+00 -0.34540267589E+02  0.21438514201E+02  0.40659138217E+02  0.00000000000E+00 0. -1.
         11    1    3    3    0    0  0.21494440345E+01  0.84781225993E+01  0.29557109674E+01  0.92322749120E+01  0.51100000000E-03 0. -1.
        -11    1    3    3    0    0 -0.10741340151E+02  0.18002306766E+02 -0.14392323307E+02  0.25428299345E+02  0.51100000000E-03 0.  1.
         12    1    3    3    0    0  0.93168404493E+01  0.80598382242E+01 -0.10001901862E+02  0.15868287526E+02  0.00000000000E+00 0. -1.
</event>
<event>
 7    1  0.5456331E-013  0.5052886E+02  0.7816164E-02  0.1300439E+00
        -11   -1    0    0    0    0  0.00000000000E+00  0.00000000000E+00  0.45593999997E+02  0.45594000000E+02  0.51100000000E-03 0.  1.
         11   -1    0    0    0    0 -0.00000000000E+00 -0.00000000000E+00 -0.45593999997E+02  0.45594000000E+02  0.51100000000E-03 0. -1.
    9900012    2    1    2    0    0  0.28418757186E+02  0.33008646214E+01  0.28890210754E+02  0.50528859027E+02  0.29999997497E+02 0.  0.
         12    1    1    2    0    0 -0.28418757186E+02 -0.33008646214E+01 -0.28890210754E+02  0.40659140973E+02  0.00000000000E+00 0. -1.
         11    1    3    3    0    0  0.16702191571E+02 -0.17348100824E+00  0.47671413895E+01  0.17370058613E+02  0.51100000000E-03 0. -1.
        -11    1    3    3    0    0  0.50093980401E+01 -0.45374506485E+01 -0.11995753561E+00  0.67599494956E+01  0.51100000000E-03 0.  1.
         12    1    3    3    0    0  0.67071675751E+01  0.80117962782E+01  0.24243026901E+02  0.26398850918E+02  0.00000000000E+00 0. -1.
</event>
<event>
 7    1  0.5456331E-013  0.5052887E+02  0.7816164E-02  0.1300439E+00
        -11   -1    0    0    0    0  0.00000000000E+00  0.00000000000E+00  0.45593999997E+02  0.45594000000E+02  0.51100000000E-03 0.  1.
         11   -1    0    0    0    0 -0.00000000000E+00 -0.00000000000E+00 -0.45593999997E+02  0.45594000000E+02  0.51100000000E-03 0. -1.
    9900012    2    1    2    0    0 -0.53157167986E+01 -0.12221690807E+02  0.38412734718E+02  0.50528871139E+02  0.30000034314E+02 0.  0.
         12    1    1    2    0    0  0.53157167986E+01  0.12221690807E+02 -0.38412734718E+02  0.40659128861E+02  0.00000000000E+00 0. -1.
         11    1    3    3    0    0 -0.40238469655E+01  0.20320757447E+01  0.19872218517E+01  0.49264314856E+01  0.51100000000E-03 0. -1.
        -11    1    3    3    0    0  0.58224207663E+01 -0.12222811846E+02  0.69613860316E+01  0.15223620093E+02  0.51100000000E-03 0.  1.
         12    1    3    3    0    0 -0.71142905995E+01 -0.20309547053E+01  0.29464126834E+02  0.30378819560E+02  0.00000000000E+00 0. -1.
</event>
<event>
 7    1  0.5456331E-013  0.5052886E+02  0.7816164E-02  0.1300439E+00
        -11   -1    0    0    0    0  0.00000000000E+00  0.00000000000E+00  0.45593999997E+02  0.45594000000E+02  0.51100000000E-03 0. -1.
         11   -1    0    0    0    0 -0.00000000000E+00 -0.00000000000E+00 -0.45593999997E+02  0.45594000000E+02  0.51100000000E-03 0.  1.
    9900012    2    1    2    0    0 -0.38586229117E+01 -0.26053383839E+02 -0.30975756913E+02  0.50528864538E+02  0.30000014249E+02 0.  0.
         12    1    1    2    0    0  0.38586229117E+01  0.26053383839E+02  0.30975756913E+02  0.40659135462E+02  0.00000000000E+00 0. -1.
         11    1    3    3    0    0  0.28611011613E+01 -0.93172696824E+01 -0.99371945636E+00  0.97971880051E+01  0.51100000000E-03 0. -1.
        -11    1    3    3    0    0  0.23728000904E+01 -0.39890200495E+01  0.20527954265E+01  0.50750793638E+01  0.51100000000E-03 0.  1.
        -12    1    3    3    0    0 -0.90925241634E+01 -0.12747094107E+02 -0.32034832883E+02  0.35656597169E+02  0.00000000000E+00 0.  1.
</event>
<event>
 7    1  0.5456331E-013  0.5052886E+02  0.7816164E-02  0.1300439E+00
        -11   -1    0    0    0    0  0.00000000000E+00  0.00000000000E+00  0.45593999997E+02  0.45594000000E+02  0.51100000000E-03 0. -1.
         11   -1    0    0    0    0 -0.00000000000E+00 -0.00000000000E+00 -0.45593999997E+02  0.45594000000E+02  0.51100000000E-03 0.  1.
    9900012    2    1    2    0    0  0.36585480790E+02 -0.13161104850E+02  0.11893420960E+02  0.50528861450E+02  0.30000004862E+02 0.  0.
         12    1    1    2    0    0 -0.36585480790E+02  0.13161104850E+02 -0.11893420960E+02  0.40659138550E+02  0.00000000000E+00 0. -1.
         11    1    3    3    0    0  0.35401789071E+01  0.65123643455E+00 -0.26887018176E+01  0.44928936459E+01  0.51100000000E-03 0. -1.
        -11    1    3    3    0    0  0.11984453768E+02  0.13494933727E+01 -0.54680663654E+01  0.13241903735E+02  0.51100000000E-03 0.  1.
        -12    1    3    3    0    0  0.21060848115E+02 -0.15161834657E+02  0.20050189143E+02  0.32794064069E+02  0.00000000000E+00 0.  1.
</event>
<event>
 7    1  0.5456331E-013  0.5052886E+02  0.7816164E-02  0.1300439E+00
        -11   -1    0    0    0    0  0.00000000000E+00  0.00000000000E+00  0.45593999997E+02  0.45594000000E+02  0.51100000000E-03 0. -1.
         11   -1    0    0    0    0 -0.00000000000E+00 -0.00000000000E+00 -0.45593999997E+02  0.45594000000E+02  0.51100000000E-03 0.  1.
    9900012    2    1    2    0    0 -0.31013269462E+01  0.40086186517E+02 -0.60534875151E+01  0.50528864625E+02  0.30000014515E+02 0.  0.
         12    1    1    2    0    0  0.31013269462E+01 -0.40086186517E+02  0.60534875151E+01  0.40659135375E+02  0.00000000000E+00 0. -1.
         11    1    3    3    0    0 -0.17568934771E+01  0.14094145164E+02  0.52247298498E+01  0.15133717483E+02  0.51100000000E-03 0. -1.
        -11    1    3    3    0    0  0.31451568419E+01  0.23781461079E+02 -0.10537122280E+01  0.24011668254E+02  0.51100000000E-03 0.  1.
         12    1    3    3    0    0 -0.44895903110E+01  0.22105802746E+01 -0.10224505137E+02  0.11383478889E+02  0.00000000000E+00 0. -1.
</event>
<event>
 7    1  0.5456331E-013  0.5052886E+02  0.7816164E-02  0.1300439E+00
        -11   -1    0    0    0    0  0.00000000000E+00  0.00000000000E+00  0.45593999997E+02  0.45594000000E+02  0.51100000000E-03 0. -1.
         11   -1    0    0    0    0 -0.00000000000E+00 -0.00000000000E+00 -0.45593999997E+02  0.45594000000E+02  0.51100000000E-03 0.  1.
    9900012    2    1    2    0    0  0.58545555616E+01  0.38884864075E+01 -0.40047086968E+02  0.50528864225E+02  0.30000013299E+02 0.  0.
         12    1    1    2    0    0 -0.58545555616E+01 -0.38884864075E+01  0.40047086968E+02  0.40659135775E+02  0.00000000000E+00 0. -1.
         11    1    3    3    0    0  0.84740985851E+01 -0.33157405553E+01 -0.75140586717E+01  0.11801083011E+02  0.51100000000E-03 0. -1.
        -11    1    3    3    0    0  0.16377281748E+01  0.10592271340E+01 -0.31044082929E+02  0.31105292168E+02  0.51100000000E-03 0.  1.
        -12    1    3    3    0    0 -0.42572711983E+01  0.61449998288E+01 -0.14889453672E+01  0.76224890461E+01  0.00000000000E+00 0.  1.
</event>
<event>
 7    1  0.5456331E-013  0.5052886E+02  0.7816164E-02  0.1300439E+00
        -11   -1    0    0    0    0  0.00000000000E+00  0.00000000000E+00  0.45593999997E+02  0.45594000000E+02  0.51100000000E-03 0.  1.
         11   -1    0    0    0    0 -0.00000000000E+00 -0.00000000000E+00 -0.45593999997E+02  0.45594000000E+02  0.51100000000E-03 0. -1.
    9900012    2    1    2    0    0 -0.26104036146E+02 -0.12192073878E+01  0.31148977719E+02  0.50528856100E+02  0.29999988601E+02 0.  0.
         12    1    1    2    0    0  0.26104036146E+02  0.12192073878E+01 -0.31148977719E+02  0.40659143900E+02  0.00000000000E+00 0. -1.
         11    1    3    3    0    0 -0.23628405713E+02  0.80916251769E+00  0.36917177147E+02  0.43838730243E+02  0.51100000000E-03 0.  1.
        -11    1    3    3    0    0 -0.18736494220E+01 -0.15493788290E+01 -0.32611837998E+01  0.40677336380E+01  0.51100000000E-03 0. -1.
        -12    1    3    3    0    0 -0.60198101116E+00 -0.47899107655E+00 -0.25070156284E+01  0.26223922190E+01  0.00000000000E+00 0.  1.
</event>
<event>
 7    1  0.5456331E-013  0.5052882E+02  0.7816164E-02  0.1300439E+00
        -11   -1    0    0    0    0  0.00000000000E+00  0.00000000000E+00  0.45593999997E+02  0.45594000000E+02  0.51100000000E-03 0. -1.
         11   -1    0    0    0    0 -0.00000000000E+00 -0.00000000000E+00 -0.45593999997E+02  0.45594000000E+02  0.51100000000E-03 0.  1.
    9900012    2    1    2    0    0  0.18950963893E+02  0.15608973531E+02 -0.32409720698E+02  0.50528817976E+02  0.29999872718E+02 0.  0.
         12    1    1    2    0    0 -0.18950963893E+02 -0.15608973531E+02  0.32409720698E+02  0.40659182024E+02  0.00000000000E+00 0. -1.
         11    1    3    3    0    0  0.22248633702E+02  0.10486259874E+02 -0.15378704190E+02  0.29008065957E+02  0.51100000000E-03 0. -1.
        -11    1    3    3    0    0  0.43989932671E+01  0.18718650089E+01 -0.56272498413E+01  0.73838310797E+01  0.51100000000E-03 0.  1.
         12    1    3    3    0    0 -0.76966630762E+01  0.32508486483E+01 -0.11403766667E+02  0.14136920939E+02  0.00000000000E+00 0. -1.
</event>
<event>
 7    1  0.5456331E-013  0.5052887E+02  0.7816164E-02  0.1300439E+00
        -11   -1    0    0    0    0  0.00000000000E+00  0.00000000000E+00  0.45593999997E+02  0.45594000000E+02  0.51100000000E-03 0. -1.
         11   -1    0    0    0    0 -0.00000000000E+00 -0.00000000000E+00 -0.45593999997E+02  0.45594000000E+02  0.51100000000E-03 0.  1.
    9900012    2    1    2    0    0 -0.25234851709E+02 -0.24395866577E+02 -0.20523379852E+02  0.50528866126E+02  0.30000019078E+02 0.  0.
         12    1    1    2    0    0  0.25234851709E+02  0.24395866577E+02  0.20523379852E+02  0.40659133874E+02  0.00000000000E+00 0. -1.
         11    1    3    3    0    0 -0.16133633778E+02 -0.12284835691E+02 -0.14444510632E+02  0.24896891663E+02  0.51100000000E-03 0.  1.
        -11    1    3    3    0    0 -0.51514841566E+01 -0.15876054797E+01 -0.11834099905E+02  0.13004007113E+02  0.51100000000E-03 0. -1.
        -12    1    3    3    0    0 -0.39497337742E+01 -0.10523425407E+02  0.57552306847E+01  0.12627967351E+02  0.00000000000E+00 0.  1.
</event>
<event>
 7    1  0.5456331E-013  0.5052887E+02  0.7816164E-02  0.1300439E+00
        -11   -1    0    0    0    0  0.00000000000E+00  0.00000000000E+00  0.45593999997E+02  0.45594000000E+02  0.51100000000E-03 0. -1.
         11   -1    0    0    0    0 -0.00000000000E+00 -0.00000000000E+00 -0.45593999997E+02  0.45594000000E+02  0.51100000000E-03 0.  1.
    9900012    2    1    2    0    0 -0.26797388532E+02 -0.30377610170E+02  0.35022794204E+01  0.50528865812E+02  0.30000018123E+02 0.  0.
         12    1    1    2    0    0  0.26797388532E+02  0.30377610170E+02 -0.35022794204E+01  0.40659134188E+02  0.00000000000E+00 0. -1.
         11    1    3    3    0    0 -0.27469500569E+02 -0.21572160621E+02  0.10494990191E+02  0.36470212431E+02  0.51100000000E-03 0. -1.
        -11    1    3    3    0    0 -0.38760771596E+01 -0.38347748375E+01 -0.33521772293E+01  0.64005128419E+01  0.51100000000E-03 0.  1.
        -12    1    3    3    0    0  0.45481891970E+01 -0.49706747108E+01 -0.36405335415E+01  0.76581405392E+01  0.00000000000E+00 0.  1.
</event>
<event>
 7    1  0.5456331E-013  0.5052886E+02  0.7816164E-02  0.1300439E+00
        -11   -1    0    0    0    0  0.00000000000E+00  0.00000000000E+00  0.45593999997E+02  0.45594000000E+02  0.51100000000E-03 0. -1.
         11   -1    0    0    0    0 -0.00000000000E+00 -0.00000000000E+00 -0.45593999997E+02  0.45594000000E+02  0.51100000000E-03 0.  1.
    9900012    2    1    2    0    0  0.19422507692E+02 -0.29230412218E+02 -0.20530821933E+02  0.50528862617E+02  0.30000008411E+02 0.  0.
         12    1    1    2    0    0 -0.19422507692E+02  0.29230412218E+02  0.20530821933E+02  0.40659137383E+02  0.00000000000E+00 0. -1.
         11    1    3    3    0    0 -0.39489921526E+01 -0.26435689321E+01 -0.14973378195E+01  0.49824709259E+01  0.51100000000E-03 0. -1.
        -11    1    3    3    0    0  0.51545653449E+01 -0.81155599138E+01  0.44125397460E+01  0.10578391365E+02  0.51100000000E-03 0.  1.
        -12    1    3    3    0    0  0.18216934499E+02 -0.18471283373E+02 -0.23446023859E+02  0.34968000326E+02  0.00000000000E+00 0.  1.
</event>
<event>
 7    1  0.5456331E-013  0.5052887E+02  0.7816164E-02  0.1300439E+00
        -11   -1    0    0    0    0  0.00000000000E+00  0.00000000000E+00  0.45593999997E+02  0.45594000000E+02  0.51100000000E-03 0. -1.
         11   -1    0    0    0    0 -0.00000000000E+00 -0.00000000000E+00 -0.45593999997E+02  0.45594000000E+02  0.51100000000E-03 0.  1.
    9900012    2    1    2    0    0  0.13231691762E+02  0.10905704327E+02 -0.36866689914E+02  0.50528869673E+02  0.30000029857E+02 0.  0.
         12    1    1    2    0    0 -0.13231691762E+02 -0.10905704327E+02  0.36866689914E+02  0.40659130327E+02  0.00000000000E+00 0. -1.
         11    1    3    3    0    0  0.13805759176E+02  0.24389032789E+01 -0.68702952620E+01  0.15612437122E+02  0.51100000000E-03 0. -1.
        -11    1    3    3    0    0  0.14373537581E+01  0.38997527985E+01  0.34208421071E+00  0.41702613328E+01  0.51100000000E-03 0.  1.
        -12    1    3    3    0    0 -0.20114211722E+01  0.45670482497E+01 -0.30338478863E+02  0.30746171218E+02  0.00000000000E+00 0.  1.
</event>
<event>
 7    1  0.5456331E-013  0.5052886E+02  0.7816164E-02  0.1300439E+00
        -11   -1    0    0    0    0  0.00000000000E+00  0.00000000000E+00  0.45593999997E+02  0.45594000000E+02  0.51100000000E-03 0. -1.
         11   -1    0    0    0    0 -0.00000000000E+00 -0.00000000000E+00 -0.45593999997E+02  0.45594000000E+02  0.51100000000E-03 0.  1.
    9900012    2    1    2    0    0  0.36250713648E+02  0.91475678767E+01  0.15980418326E+02  0.50528855790E+02  0.29999987659E+02 0.  0.
         12    1    1    2    0    0 -0.36250713648E+02 -0.91475678767E+01 -0.15980418326E+02  0.40659144210E+02  0.00000000000E+00 0. -1.
         11    1    3    3    0    0 -0.19044980200E+01 -0.43313328851E+01 -0.71567549834E+00  0.47853682146E+01  0.51100000000E-03 0. -1.
        -11    1    3    3    0    0  0.27865602117E+02  0.67152963948E+01  0.56783516410E+01  0.29220380980E+02  0.51100000000E-03 0.  1.
        -12    1    3    3    0    0  0.10289609550E+02  0.67636043669E+01  0.11017742183E+02  0.16523106595E+02  0.00000000000E+00 0.  1.
</event>
<event>
 7    1  0.5456331E-013  0.5052875E+02  0.7816164E-02  0.1300439E+00
        -11   -1    0    0    0    0  0.00000000000E+00  0.00000000000E+00  0.45593999997E+02  0.45594000000E+02  0.51100000000E-03 0. -1.
         11   -1    0    0    0    0 -0.00000000000E+00 -0.00000000000E+00 -0.45593999997E+02  0.45594000000E+02  0.51100000000E-03 0.  1.
    9900012    2    1    2    0    0  0.15580432982E+02  0.23450741199E+02 -0.29334065940E+02  0.50528750385E+02  0.29999667268E+02 0.  0.
         12    1    1    2    0    0 -0.15580432982E+02 -0.23450741199E+02  0.29334065940E+02  0.40659249615E+02  0.00000000000E+00 0. -1.
         11    1    3    3    0    0 -0.39856001272E+01  0.26915771785E+01  0.50295948448E+00  0.48355521490E+01  0.51100000000E-03 0. -1.
        -11    1    3    3    0    0 -0.16243824293E+01  0.87009984548E+01 -0.14186349506E+02  0.16721199268E+02  0.51100000000E-03 0.  1.
        -12    1    3    3    0    0  0.21190415538E+02  0.12058165566E+02 -0.15650675918E+02  0.28971998968E+02  0.00000000000E+00 0.  1.
</event>
<event>
 7    1  0.5456331E-013  0.5052885E+02  0.7816164E-02  0.1300439E+00
        -11   -1    0    0    0    0  0.00000000000E+00  0.00000000000E+00  0.45593999997E+02  0.45594000000E+02  0.51100000000E-03 0.  1.
         11   -1    0    0    0    0 -0.00000000000E+00 -0.00000000000E+00 -0.45593999997E+02  0.45594000000E+02  0.51100000000E-03 0. -1.
    9900012    2    1    2    0    0  0.36457417320E+02  0.59013278037E+01  0.17005807304E+02  0.50528850605E+02  0.29999971898E+02 0.  0.
         12    1    1    2    0    0 -0.36457417320E+02 -0.59013278037E+01 -0.17005807304E+02  0.40659149395E+02  0.00000000000E+00 0. -1.
         11    1    3    3    0    0  0.25524237035E+02  0.56467005697E+01  0.68158814169E+01  0.27015331634E+02  0.51100000000E-03 0. -1.
        -11    1    3    3    0    0  0.73103800531E+01  0.59698810980E+01 -0.19290282933E+01  0.96333943791E+01  0.51100000000E-03 0.  1.
         12    1    3    3    0    0  0.36228002321E+01 -0.57152538641E+01  0.12118954180E+02  0.13880124591E+02  0.00000000000E+00 0. -1.
</event>
<event>
 7    1  0.5456331E-013  0.5052894E+02  0.7816164E-02  0.1300439E+00
        -11   -1    0    0    0    0  0.00000000000E+00  0.00000000000E+00  0.45593999997E+02  0.45594000000E+02  0.51100000000E-03 0.  1.
         11   -1    0    0    0    0 -0.00000000000E+00 -0.00000000000E+00 -0.45593999997E+02  0.45594000000E+02  0.51100000000E-03 0. -1.
    9900012    2    1    2    0    0 -0.16198883115E+02 -0.36980456009E+02  0.48167810385E+01  0.50528938029E+02  0.30000237633E+02 0.  0.
         12    1    1    2    0    0  0.16198883115E+02  0.36980456009E+02 -0.48167810385E+01  0.40659061971E+02  0.00000000000E+00 0. -1.
         11    1    3    3    0    0 -0.94255424687E+01 -0.13141954915E+02 -0.98250794229E+01  0.18923107983E+02  0.51100000000E-03 0. -1.
        -11    1    3    3    0    0  0.27511638509E+01 -0.95734861899E+01  0.16686240689E+01  0.10099744893E+02  0.51100000000E-03 0.  1.
        -12    1    3    3    0    0 -0.95245044970E+01 -0.14265014904E+02  0.12973236392E+02  0.21506085153E+02  0.00000000000E+00 0.  1.
</event>
<event>
 7    1  0.5456331E-013  0.5052887E+02  0.7816164E-02  0.1300439E+00
        -11   -1    0    0    0    0  0.00000000000E+00  0.00000000000E+00  0.45593999997E+02  0.45594000000E+02  0.51100000000E-03 0. -1.
         11   -1    0    0    0    0 -0.00000000000E+00 -0.00000000000E+00 -0.45593999997E+02  0.45594000000E+02  0.51100000000E-03 0.  1.
    9900012    2    1    2    0    0 -0.20042215616E+02  0.32361079694E+02 -0.14291071027E+02  0.50528873142E+02  0.30000040402E+02 0.  0.
         12    1    1    2    0    0  0.20042215616E+02 -0.32361079694E+02  0.14291071027E+02  0.40659126858E+02  0.00000000000E+00 0. -1.
         11    1    3    3    0    0  0.20454349658E+00  0.12518102410E+02 -0.12399236572E+01  0.12581022888E+02  0.51100000000E-03 0. -1.
        -11    1    3    3    0    0 -0.70482282956E+01  0.19751176839E+02 -0.26390192710E+01  0.21136483426E+02  0.51100000000E-03 0.  1.
        -12    1    3    3    0    0 -0.13198530817E+02  0.91800445047E-01 -0.10412128099E+02  0.16811366827E+02  0.00000000000E+00 0.  1.
</event>
<event>
 7    1  0.5456331E-013  0.5052886E+02  0.7816164E-02  0.1300439E+00
        -11   -1    0    0    0    0  0.00000000000E+00  0.00000000000E+00  0.45593999997E+02  0.45594000000E+02  0.51100000000E-03 0.  1.
         11   -1    0    0    0    0 -0.00000000000E+00 -0.00000000000E+00 -0.45593999997E+02  0.45594000000E+02  0.51100000000E-03 0. -1.
    9900012    2    1    2    0    0  0.31060388976E+01  0.17501804788E+02  0.36567810932E+02  0.50528862715E+02  0.30000008708E+02 0.  0.
         12    1    1    2    0    0 -0.31060388976E+01 -0.17501804788E+02 -0.36567810932E+02  0.40659137285E+02  0.00000000000E+00 0. -1.
         11    1    3    3    0    0 -0.82945131204E+01  0.14421753847E+02  0.97236801307E+01  0.19270077516E+02  0.51100000000E-03 0. -1.
        -11    1    3    3    0    0  0.55775769531E+01  0.59804614899E+01  0.20914804154E+02  0.22456720984E+02  0.51100000000E-03 0.  1.
        -12    1    3    3    0    0  0.58229750648E+01 -0.29004105487E+01  0.59293266469E+01  0.88020642148E+01  0.00000000000E+00 0.  1.
</event>
<event>
 7    1  0.5456331E-013  0.5052887E+02  0.7816164E-02  0.1300439E+00
        -11   -1    0    0    0    0  0.00000000000E+00  0.00000000000E+00  0.45593999997E+02  0.45594000000E+02  0.51100000000E-03 0. -1.
         11   -1    0    0    0    0 -0.00000000000E+00 -0.00000000000E+00 -0.45593999997E+02  0.45594000000E+02  0.51100000000E-03 0.  1.
    9900012    2    1    2    0    0 -0.56677555681E+01 -0.30698125808E+02 -0.26051232979E+02  0.50528866696E+02  0.30000020808E+02 0.  0.
         12    1    1    2    0    0  0.56677555681E+01  0.30698125808E+02  0.26051232979E+02  0.40659133304E+02  0.00000000000E+00 0. -1.
         11    1    3    3    0    0 -0.10691017848E+01 -0.53501028194E+01 -0.15298463179E+02  0.16242215204E+02  0.51100000000E-03 0. -1.
        -11    1    3    3    0    0  0.68658655588E+01 -0.16751453476E+02 -0.74787490685E+01  0.19587827632E+02  0.51100000000E-03 0.  1.
         12    1    3    3    0    0 -0.11464519342E+02 -0.85965695128E+01 -0.32740207310E+01  0.14698823860E+02  0.00000000000E+00 0. -1.
</event>
<event>
 7    1  0.5456331E-013  0.5052886E+02  0.7816164E-02  0.1300439E+00
        -11   -1    0    0    0    0  0.00000000000E+00  0.00000000000E+00  0.45593999997E+02  0.45594000000E+02  0.51100000000E-03 0. -1.
         11   -1    0    0    0    0 -0.00000000000E+00 -0.00000000000E+00 -0.45593999997E+02  0.45594000000E+02  0.51100000000E-03 0.  1.
    9900012    2    1    2    0    0 -0.15494535181E+02 -0.24674035477E+01 -0.37509961123E+02  0.50528857311E+02  0.29999992284E+02 0.  0.
         12    1    1    2    0    0  0.15494535181E+02  0.24674035477E+01  0.37509961123E+02  0.40659142689E+02  0.00000000000E+00 0. -1.
         11    1    3    3    0    0 -0.11482129285E+02 -0.64814912863E+01 -0.11234416799E+02  0.17322273040E+02  0.51100000000E-03 0. -1.
        -11    1    3    3    0    0 -0.56251176705E-01 -0.78177149568E+01 -0.10655214165E+02  0.13215650589E+02  0.51100000000E-03 0.  1.
        -12    1    3    3    0    0 -0.39561547193E+01  0.11831802695E+02 -0.15620330159E+02  0.19990933682E+02  0.00000000000E+00 0.  1.
</event>
<event>
 7    1  0.5456331E-013  0.5052886E+02  0.7816164E-02  0.1300439E+00
        -11   -1    0    0    0    0  0.00000000000E+00  0.00000000000E+00  0.45593999997E+02  0.45594000000E+02  0.51100000000E-03 0.  1.
         11   -1    0    0    0    0 -0.00000000000E+00 -0.00000000000E+00 -0.45593999997E+02  0.45594000000E+02  0.51100000000E-03 0. -1.
    9900012    2    1    2    0    0  0.25260737738E+02  0.26467902193E+02  0.17734456403E+02  0.50528860050E+02  0.30000000607E+02 0.  0.
         12    1    1    2    0    0 -0.25260737738E+02 -0.26467902193E+02 -0.17734456403E+02  0.40659139950E+02  0.00000000000E+00 0. -1.
         11    1    3    3    0    0  0.14042825837E+02 -0.15544601732E+01  0.12822364356E+02  0.19079578922E+02  0.51100000000E-03 0. -1.
        -11    1    3    3    0    0 -0.16603961220E-01  0.81269382777E+00 -0.11357973612E+01  0.13967042837E+01  0.51100000000E-03 0.  1.
        -12    1    3    3    0    0  0.11234515863E+02  0.27209668539E+02  0.60478894079E+01  0.30052576844E+02  0.00000000000E+00 0.  1.
</event>
<event>
 7    1  0.5456331E-013  0.5052886E+02  0.7816164E-02  0.1300439E+00
        -11   -1    0    0    0    0  0.00000000000E+00  0.00000000000E+00  0.45593999997E+02  0.45594000000E+02  0.51100000000E-03 0.  1.
         11   -1    0    0    0    0 -0.00000000000E+00 -0.00000000000E+00 -0.45593999997E+02  0.45594000000E+02  0.51100000000E-03 0. -1.
    9900012    2    1    2    0    0 -0.98536671232E+01  0.28201104981E+02  0.27582031888E+02  0.50528861286E+02  0.30000004363E+02 0.  0.
         12    1    1    2    0    0  0.98536671232E+01 -0.28201104981E+02 -0.27582031888E+02  0.40659138714E+02  0.00000000000E+00 0. -1.
         11    1    3    3    0    0 -0.10793761209E+02  0.16647690386E+01  0.64182872021E+01  0.12667720705E+02  0.51100000000E-03 0. -1.
        -11    1    3    3    0    0 -0.75878958238E+01  0.85807619988E+01  0.88872126738E+01  0.14497868426E+02  0.51100000000E-03 0.  1.
         12    1    3    3    0    0  0.85279899096E+01  0.17955573944E+02  0.12276532012E+02  0.23363272155E+02  0.00000000000E+00 0. -1.
</event>
<event>
 7    1  0.5456331E-013  0.5052886E+02  0.7816164E-02  0.1300439E+00
        -11   -1    0    0    0    0  0.00000000000E+00  0.00000000000E+00  0.45593999997E+02  0.45594000000E+02  0.51100000000E-03 0. -1.
         11   -1    0    0    0    0 -0.00000000000E+00 -0.00000000000E+00 -0.45593999997E+02  0.45594000000E+02  0.51100000000E-03 0.  1.
    9900012    2    1    2    0    0 -0.35800971807E+02  0.19175313349E+02 -0.19400353632E+01  0.50528856360E+02  0.29999989391E+02 0.  0.
         12    1    1    2    0    0  0.35800971807E+02 -0.19175313349E+02  0.19400353632E+01  0.40659143640E+02  0.00000000000E+00 0. -1.
         11    1    3    3    0    0 -0.39361952008E+01  0.24294375591E+01 -0.47999755544E+01  0.66660006823E+01  0.51100000000E-03 0. -1.
        -11    1    3    3    0    0 -0.11839178747E+02 -0.54616537740E+01  0.48075398841E+01  0.13896339638E+02  0.51100000000E-03 0.  1.
         12    1    3    3    0    0 -0.20025597859E+02  0.22207529564E+02 -0.19475996929E+01  0.29966516039E+02  0.00000000000E+00 0. -1.
</event>
<event>
 7    1  0.5456331E-013  0.5052886E+02  0.7816164E-02  0.1300439E+00
        -11   -1    0    0    0    0  0.00000000000E+00  0.00000000000E+00  0.45593999997E+02  0.45594000000E+02  0.51100000000E-03 0.  1.
         11   -1    0    0    0    0 -0.00000000000E+00 -0.00000000000E+00 -0.45593999997E+02  0.45594000000E+02  0.51100000000E-03 0. -1.
    9900012    2    1    2    0    0  0.35114248529E+02 -0.90645678595E+01  0.18384474387E+02  0.50528859100E+02  0.29999997721E+02 0.  0.
         12    1    1    2    0    0 -0.35114248529E+02  0.90645678595E+01 -0.18384474387E+02  0.40659140900E+02  0.00000000000E+00 0. -1.
         11    1    3    3    0    0  0.49919556428E+01  0.65261578449E+01  0.86429720594E+00  0.82618016968E+01  0.51100000000E-03 0. -1.
        -11    1    3    3    0    0 -0.40432593853E+00  0.25876126301E+01 -0.74085143778E-01  0.26200586744E+01  0.51100000000E-03 0.  1.
        -12    1    3    3    0    0  0.30526618824E+02 -0.18178338335E+02  0.17594262325E+02  0.39646998729E+02  0.00000000000E+00 0.  1.
</event>
<event>
 7    1  0.5456331E-013  0.5052886E+02  0.7816164E-02  0.1300439E+00
        -11   -1    0    0    0    0  0.00000000000E+00  0.00000000000E+00  0.45593999997E+02  0.45594000000E+02  0.51100000000E-03 0.  1.
         11   -1    0    0    0    0 -0.00000000000E+00 -0.00000000000E+00 -0.45593999997E+02  0.45594000000E+02  0.51100000000E-03 0. -1.
    9900012    2    1    2    0    0 -0.93202492436E+01 -0.32215249616E+02  0.22988617833E+02  0.50528857072E+02  0.29999991556E+02 0.  0.
         12    1    1    2    0    0  0.93202492436E+01  0.32215249616E+02 -0.22988617833E+02  0.40659142928E+02  0.00000000000E+00 0. -1.
         11    1    3    3    0    0 -0.89896727031E+00 -0.10600876640E+01 -0.33306990748E+01  0.36090836228E+01  0.51100000000E-03 0. -1.
        -11    1    3    3    0    0  0.26689809542E+01 -0.68238214613E+01 -0.23703653238E+01  0.77010798398E+01  0.51100000000E-03 0.  1.
        -12    1    3    3    0    0 -0.11090262927E+02 -0.24331340491E+02  0.28689682231E+02  0.39218693609E+02  0.00000000000E+00 0.  1.
</event>
<event>
 7    1  0.5456331E-013  0.5052887E+02  0.7816164E-02  0.1300439E+00
        -11   -1    0    0    0    0  0.00000000000E+00  0.00000000000E+00  0.45593999997E+02  0.45594000000E+02  0.51100000000E-03 0.  1.
         11   -1    0    0    0    0 -0.00000000000E+00 -0.00000000000E+00 -0.45593999997E+02  0.45594000000E+02  0.51100000000E-03 0. -1.
    9900012    2    1    2    0    0  0.23857877061E+02 -0.32549978230E+02  0.49462608434E+01  0.50528869697E+02  0.30000029932E+02 0.  0.
         12    1    1    2    0    0 -0.23857877061E+02  0.32549978230E+02 -0.49462608434E+01  0.40659130303E+02  0.00000000000E+00 0. -1.
         11    1    3    3    0    0 -0.10025333991E+01 -0.26173690766E+01  0.49032104967E+01  0.56477577441E+01  0.51100000000E-03 0. -1.
        -11    1    3    3    0    0 -0.42096053950E+01 -0.44113877898E+01  0.10362256807E+01  0.61850532525E+01  0.51100000000E-03 0.  1.
        -12    1    3    3    0    0  0.29070015855E+02 -0.25521221364E+02 -0.99317533398E+00  0.38696058701E+02  0.00000000000E+00 0.  1.
</event>
<event>
 7    1  0.5456331E-013  0.5052886E+02  0.7816164E-02  0.1300439E+00
        -11   -1    0    0    0    0  0.00000000000E+00  0.00000000000E+00  0.45593999997E+02  0.45594000000E+02  0.51100000000E-03 0.  1.
         11   -1    0    0    0    0 -0.00000000000E+00 -0.00000000000E+00 -0.45593999997E+02  0.45594000000E+02  0.51100000000E-03 0. -1.
    9900012    2    1    2    0    0  0.11567916079E+02  0.12163165047E+02  0.37032502411E+02  0.50528862021E+02  0.30000006599E+02 0.  0.
         12    1    1    2    0    0 -0.11567916079E+02 -0.12163165047E+02 -0.37032502411E+02  0.40659137979E+02  0.00000000000E+00 0. -1.
         11    1    3    3    0    0  0.47449637011E+00  0.83052838765E+01 -0.10366419299E+01  0.83831684837E+01  0.51100000000E-03 0. -1.
        -11    1    3    3    0    0  0.20642260405E+01  0.51514227890E+01  0.39074238673E+01  0.67872046851E+01  0.51100000000E-03 0.  1.
        -12    1    3    3    0    0  0.90291936685E+01 -0.12935416180E+01  0.34161720473E+02  0.35358488852E+02  0.00000000000E+00 0.  1.
</event>
<event>
 7    1  0.5456331E-013  0.5052884E+02  0.7816164E-02  0.1300439E+00
        -11   -1    0    0    0    0  0.00000000000E+00  0.00000000000E+00  0.45593999997E+02  0.45594000000E+02  0.51100000000E-03 0.  1.
         11   -1    0    0    0    0 -0.00000000000E+00 -0.00000000000E+00 -0.45593999997E+02  0.45594000000E+02  0.51100000000E-03 0. -1.
    9900012    2    1    2    0    0 -0.25045214996E+02 -0.39894550441E+01  0.31780324427E+02  0.50528836625E+02  0.29999929404E+02 0.  0.
         12    1    1    2    0    0  0.25045214996E+02  0.39894550441E+01 -0.31780324427E+02  0.40659163375E+02  0.00000000000E+00 0. -1.
         11    1    3    3    0    0 -0.74329520838E+01 -0.14325020700E+01  0.46944557495E+01  0.89072304285E+01  0.51100000000E-03 0.  1.
        -11    1    3    3    0    0 -0.10113160708E+02 -0.43819513077E+01 -0.22829132070E+01  0.11255630135E+02  0.51100000000E-03 0. -1.
        -12    1    3    3    0    0 -0.74991022038E+01  0.18249983335E+01  0.29368781884E+02  0.30365976061E+02  0.00000000000E+00 0.  1.
</event>
<event>
 7    1  0.5456331E-013  0.5052886E+02  0.7816164E-02  0.1300439E+00
        -11   -1    0    0    0    0  0.00000000000E+00  0.00000000000E+00  0.45593999997E+02  0.45594000000E+02  0.51100000000E-03 0.  1.
         11   -1    0    0    0    0 -0.00000000000E+00 -0.00000000000E+00 -0.45593999997E+02  0.45594000000E+02  0.51100000000E-03 0. -1.
    9900012    2    1    2    0    0  0.28671889610E+02  0.16483601922E+02  0.23651202230E+02  0.50528858924E+02  0.29999997185E+02 0.  0.
         12    1    1    2    0    0 -0.28671889610E+02 -0.16483601922E+02 -0.23651202230E+02  0.40659141076E+02  0.00000000000E+00 0. -1.
         11    1    3    3    0    0  0.14681759194E+02  0.10515000083E+02 -0.28846585096E+01  0.18287715405E+02  0.51100000000E-03 0. -1.
        -11    1    3    3    0    0 -0.66940809387E+00  0.25469720956E+01  0.15073103778E+01  0.30343300559E+01  0.51100000000E-03 0.  1.
        -12    1    3    3    0    0  0.14659538510E+02  0.34216297433E+01  0.25028550362E+02  0.29206813463E+02  0.00000000000E+00 0.  1.
</event>
<event>
 7    1  0.5456331E-013  0.5052885E+02  0.7816164E-02  0.1300439E+00
        -11   -1    0    0    0    0  0.00000000000E+00  0.00000000000E+00  0.45593999997E+02  0.45594000000E+02  0.51100000000E-03 0.  1.
         11   -1    0    0    0    0 -0.00000000000E+00 -0.00000000000E+00 -0.45593999997E+02  0.45594000000E+02  0.51100000000E-03 0. -1.
    9900012    2    1    2    0    0 -0.12661161602E+02 -0.12160089792E+02  0.36674156386E+02  0.50528849203E+02  0.29999967639E+02 0.  0.
         12    1    1    2    0    0  0.12661161602E+02  0.12160089792E+02 -0.36674156386E+02  0.40659150797E+02  0.00000000000E+00 0. -1.
         11    1    3    3    0    0 -0.17517906567E+01 -0.15795480336E+02  0.23739160354E+02  0.28567703865E+02  0.51100000000E-03 0. -1.
        -11    1    3    3    0    0 -0.91799649569E+01 -0.33197872957E+01  0.10630928263E+02  0.14432926948E+02  0.51100000000E-03 0.  1.
        -12    1    3    3    0    0 -0.17294059886E+01  0.69551778392E+01  0.23040677691E+01  0.75282183904E+01  0.00000000000E+00 0.  1.
</event>
<event>
 7    1  0.5456331E-013  0.5052886E+02  0.7816164E-02  0.1300439E+00
        -11   -1    0    0    0    0  0.00000000000E+00  0.00000000000E+00  0.45593999997E+02  0.45594000000E+02  0.51100000000E-03 0. -1.
         11   -1    0    0    0    0 -0.00000000000E+00 -0.00000000000E+00 -0.45593999997E+02  0.45594000000E+02  0.51100000000E-03 0.  1.
    9900012    2    1    2    0    0  0.94606950492E+01 -0.39385542865E+02 -0.35270273935E+01  0.50528860070E+02  0.30000000669E+02 0.  0.
         12    1    1    2    0    0 -0.94606950492E+01  0.39385542865E+02  0.35270273935E+01  0.40659139930E+02  0.00000000000E+00 0. -1.
         11    1    3    3    0    0  0.21559254578E+01 -0.14577157673E+02  0.23303211221E+01  0.14918845035E+02  0.51100000000E-03 0. -1.
        -11    1    3    3    0    0  0.86134365438E+01 -0.29132727214E+02 -0.64402880527E+01  0.31054539032E+02  0.51100000000E-03 0.  1.
         12    1    3    3    0    0 -0.13086669524E+01  0.43243420213E+01  0.58293953709E+00  0.45554760030E+01  0.00000000000E+00 0. -1.
</event>
<event>
 7    1  0.5456331E-013  0.5052886E+02  0.7816164E-02  0.1300439E+00
        -11   -1    0    0    0    0  0.00000000000E+00  0.00000000000E+00  0.45593999997E+02  0.45594000000E+02  0.51100000000E-03 0. -1.
         11   -1    0    0    0    0 -0.00000000000E+00 -0.00000000000E+00 -0.45593999997E+02  0.45594000000E+02  0.51100000000E-03 0.  1.
    9900012    2    1    2    0    0  0.21624748674E+02 -0.90024220354E+01 -0.33233900181E+02  0.50528862295E+02  0.30000007431E+02 0.  0.
         12    1    1    2    0    0 -0.21624748674E+02  0.90024220354E+01  0.33233900181E+02  0.40659137705E+02  0.00000000000E+00 0. -1.
         11    1    3    3    0    0  0.24776773821E+01 -0.54529607347E+01 -0.70093950292E+01  0.92198310679E+01  0.51100000000E-03 0. -1.
        -11    1    3    3    0    0  0.59113250681E+01 -0.99699823181E+01 -0.23700977001E+02  0.26383339867E+02  0.51100000000E-03 0.  1.
         12    1    3    3    0    0  0.13235746223E+02  0.64205210175E+01 -0.25235281505E+01  0.14925691359E+02  0.00000000000E+00 0. -1.
</event>
<event>
 7    1  0.5456331E-013  0.5052886E+02  0.7816164E-02  0.1300439E+00
        -11   -1    0    0    0    0  0.00000000000E+00  0.00000000000E+00  0.45593999997E+02  0.45594000000E+02  0.51100000000E-03 0.  1.
         11   -1    0    0    0    0 -0.00000000000E+00 -0.00000000000E+00 -0.45593999997E+02  0.45594000000E+02  0.51100000000E-03 0. -1.
    9900012    2    1    2    0    0 -0.26320132016E+02  0.13800843966E+02  0.27748029500E+02  0.50528858535E+02  0.29999996003E+02 0.  0.
         12    1    1    2    0    0  0.26320132016E+02 -0.13800843966E+02 -0.27748029500E+02  0.40659141465E+02  0.00000000000E+00 0. -1.
         11    1    3    3    0    0 -0.12484062978E+02  0.43936886884E+01 -0.60390327857E+00  0.13248434932E+02  0.51100000000E-03 0. -1.
        -11    1    3    3    0    0 -0.13691820384E+02  0.52043869174E+01  0.83898357172E+01  0.16880193490E+02  0.51100000000E-03 0.  1.
        -12    1    3    3    0    0 -0.14424865368E+00  0.42027683601E+01  0.19962097062E+02  0.20400230113E+02  0.00000000000E+00 0.  1.
</event>
<event>
 7    1  0.5456331E-013  0.5052885E+02  0.7816164E-02  0.1300439E+00
        -11   -1    0    0    0    0  0.00000000000E+00  0.00000000000E+00  0.45593999997E+02  0.45594000000E+02  0.51100000000E-03 0. -1.
         11   -1    0    0    0    0 -0.00000000000E+00 -0.00000000000E+00 -0.45593999997E+02  0.45594000000E+02  0.51100000000E-03 0.  1.
    9900012    2    1    2    0    0  0.36886380297E+02 -0.67666365325E+00 -0.17091043643E+02  0.50528847304E+02  0.29999961866E+02 0.  0.
         12    1    1    2    0    0 -0.36886380297E+02  0.67666365325E+00  0.17091043643E+02  0.40659152696E+02  0.00000000000E+00 0. -1.
         11    1    3    3    0    0  0.22751717031E+02  0.24748155317E+01  0.25320183170E+00  0.22887320752E+02  0.51100000000E-03 0.  1.
        -11    1    3    3    0    0  0.11748512031E+02  0.40419420647E+01 -0.15456720020E+02  0.19831162967E+02  0.51100000000E-03 0. -1.
         12    1    3    3    0    0  0.23861512354E+01 -0.71934212496E+01 -0.18875254549E+01  0.78103635854E+01  0.00000000000E+00 0. -1.
</event>
<event>
 7    1  0.5456331E-013  0.5052886E+02  0.7816164E-02  0.1300439E+00
        -11   -1    0    0    0    0  0.00000000000E+00  0.00000000000E+00  0.45593999997E+02  0.45594000000E+02  0.51100000000E-03 0.  1.
         11   -1    0    0    0    0 -0.00000000000E+00 -0.00000000000E+00 -0.45593999997E+02  0.45594000000E+02  0.51100000000E-03 0. -1.
    9900012    2    1    2    0    0  0.38743371351E+02  0.11120766185E+02 -0.53334551230E+01  0.50528855792E+02  0.29999987665E+02 0.  0.
         12    1    1    2    0    0 -0.38743371351E+02 -0.11120766185E+02  0.53334551230E+01  0.40659144208E+02  0.00000000000E+00 0. -1.
         11    1    3    3    0    0  0.19196103730E+02  0.17256590759E+02 -0.55729154514E+01  0.26407152628E+02  0.51100000000E-03 0.  1.
        -11    1    3    3    0    0  0.11029289112E+02  0.31418335472E+01 -0.71781901278E+00  0.11490500457E+02  0.51100000000E-03 0. -1.
        -12    1    3    3    0    0  0.85179785094E+01 -0.92776581209E+01  0.95727934113E+00  0.12631202707E+02  0.00000000000E+00 0.  1.
</event>
<event>
 7    1  0.5456331E-013  0.5052886E+02  0.7816164E-02  0.1300439E+00
        -11   -1    0    0    0    0  0.00000000000E+00  0.00000000000E+00  0.45593999997E+02  0.45594000000E+02  0.51100000000E-03 0.  1.
         11   -1    0    0    0    0 -0.00000000000E+00 -0.00000000000E+00 -0.45593999997E+02  0.45594000000E+02  0.51100000000E-03 0. -1.
    9900012    2    1    2    0    0  0.27802444851E+02 -0.22954343489E+02  0.18795952557E+02  0.50528860102E+02  0.30000000766E+02 0.  0.
         12    1    1    2    0    0 -0.27802444851E+02  0.22954343489E+02 -0.18795952557E+02  0.40659139898E+02  0.00000000000E+00 0. -1.
         11    1    3    3    0    0  0.31072601501E+01  0.14062019351E+01 -0.31115779463E+01  0.46167507080E+01  0.51100000000E-03 0. -1.
        -11    1    3    3    0    0  0.56746647821E+01 -0.64454509270E+01 -0.36782658597E+01  0.93421249209E+01  0.51100000000E-03 0.  1.
        -12    1    3    3    0    0  0.19020519919E+02 -0.17915094497E+02  0.25585796363E+02  0.36569984473E+02  0.00000000000E+00 0.  1.
</event>
<event>
 7    1  0.5456331E-013  0.5052888E+02  0.7816164E-02  0.1300439E+00
        -11   -1    0    0    0    0  0.00000000000E+00  0.00000000000E+00  0.45593999997E+02  0.45594000000E+02  0.51100000000E-03 0.  1.
         11   -1    0    0    0    0 -0.00000000000E+00 -0.00000000000E+00 -0.45593999997E+02  0.45594000000E+02  0.51100000000E-03 0. -1.
    9900012    2    1    2    0    0  0.16372831818E+02 -0.36374454143E+02  0.78735744123E+01  0.50528884049E+02  0.30000073554E+02 0.  0.
         12    1    1    2    0    0 -0.16372831818E+02  0.36374454143E+02 -0.78735744123E+01  0.40659115951E+02  0.00000000000E+00 0. -1.
         11    1    3    3    0    0  0.12507696711E+02 -0.15760858052E+02 -0.98611016222E+01  0.22407330252E+02  0.51100000000E-03 0. -1.
        -11    1    3    3    0    0  0.22392852572E+01 -0.45967704986E+01  0.16717761637E+01  0.53795476838E+01  0.51100000000E-03 0.  1.
         12    1    3    3    0    0  0.16258498500E+01 -0.16016825592E+02  0.16062899871E+02  0.22742006113E+02  0.00000000000E+00 0. -1.
</event>
<event>
 7    1  0.5456331E-013  0.5052886E+02  0.7816164E-02  0.1300439E+00
        -11   -1    0    0    0    0  0.00000000000E+00  0.00000000000E+00  0.45593999997E+02  0.45594000000E+02  0.51100000000E-03 0.  1.
         11   -1    0    0    0    0 -0.00000000000E+00 -0.00000000000E+00 -0.45593999997E+02  0.45594000000E+02  0.51100000000E-03 0. -1.
    9900012    2    1    2    0    0 -0.38807408189E+02  0.86116658078E+01 -0.85434027272E+01  0.50528862669E+02  0.30000008568E+02 0.  0.
         12    1    1    2    0    0  0.38807408189E+02 -0.86116658078E+01  0.85434027272E+01  0.40659137331E+02  0.00000000000E+00 0. -1.
         11    1    3    3    0    0  0.28938240377E+01  0.35535366280E+01  0.87570008269E+00  0.46656929843E+01  0.51100000000E-03 0. -1.
        -11    1    3    3    0    0  0.10878167468E+01  0.15426679838E+01  0.88910601123E-01  0.18897288533E+01  0.51100000000E-03 0.  1.
        -12    1    3    3    0    0 -0.42789048974E+02  0.35154611960E+01 -0.95080134110E+01  0.43973440831E+02  0.00000000000E+00 0.  1.
</event>
<event>
 7    1  0.5456331E-013  0.5052886E+02  0.7816164E-02  0.1300439E+00
        -11   -1    0    0    0    0  0.00000000000E+00  0.00000000000E+00  0.45593999997E+02  0.45594000000E+02  0.51100000000E-03 0. -1.
         11   -1    0    0    0    0 -0.00000000000E+00 -0.00000000000E+00 -0.45593999997E+02  0.45594000000E+02  0.51100000000E-03 0.  1.
    9900012    2    1    2    0    0 -0.19189977459E+01 -0.29393912143E+02  0.28026430180E+02  0.50528863117E+02  0.30000009931E+02 0.  0.
         12    1    1    2    0    0  0.19189977459E+01  0.29393912143E+02 -0.28026430180E+02  0.40659136883E+02  0.00000000000E+00 0. -1.
         11    1    3    3    0    0  0.26951846250E+01 -0.11493697381E+02  0.66844369741E+01  0.13566532261E+02  0.51100000000E-03 0. -1.
        -11    1    3    3    0    0  0.32147905029E+01 -0.14968517421E+02  0.14419170293E+01  0.15377597886E+02  0.51100000000E-03 0.  1.
         12    1    3    3    0    0 -0.78289728738E+01 -0.29316973402E+01  0.19900076177E+02  0.21584732970E+02  0.00000000000E+00 0. -1.
</event>
<event>
 7    1  0.5456331E-013  0.5052885E+02  0.7816164E-02  0.1300439E+00
        -11   -1    0    0    0    0  0.00000000000E+00  0.00000000000E+00  0.45593999997E+02  0.45594000000E+02  0.51100000000E-03 0. -1.
         11   -1    0    0    0    0 -0.00000000000E+00 -0.00000000000E+00 -0.45593999997E+02  0.45594000000E+02  0.51100000000E-03 0.  1.
    9900012    2    1    2    0    0  0.14556306856E+02 -0.35122394004E+02 -0.14411712835E+02  0.50528854698E+02  0.29999984340E+02 0.  0.
         12    1    1    2    0    0 -0.14556306856E+02  0.35122394004E+02  0.14411712835E+02  0.40659145302E+02  0.00000000000E+00 0. -1.
         11    1    3    3    0    0  0.86688825398E+00  0.11307621727E+01 -0.60263190631E+01  0.61924663945E+01  0.51100000000E-03 0. -1.
        -11    1    3    3    0    0  0.87537378398E+01 -0.91008836935E+01 -0.10823923586E+02  0.16631636486E+02  0.51100000000E-03 0.  1.
         12    1    3    3    0    0  0.49356807625E+01 -0.27152272483E+02  0.24385298136E+01  0.27704751817E+02  0.00000000000E+00 0. -1.
</event>
<event>
 7    1  0.5456331E-013  0.5052885E+02  0.7816164E-02  0.1300439E+00
        -11   -1    0    0    0    0  0.00000000000E+00  0.00000000000E+00  0.45593999997E+02  0.45594000000E+02  0.51100000000E-03 0.  1.
         11   -1    0    0    0    0 -0.00000000000E+00 -0.00000000000E+00 -0.45593999997E+02  0.45594000000E+02  0.51100000000E-03 0. -1.
    9900012    2    1    2    0    0 -0.10762636886E+02  0.29720558398E+02  0.25573826434E+02  0.50528849213E+02  0.29999967667E+02 0.  0.
         12    1    1    2    0    0  0.10762636886E+02 -0.29720558398E+02 -0.25573826434E+02  0.40659150787E+02  0.00000000000E+00 0. -1.
         11    1    3    3    0    0  0.27903064552E+01  0.22941647695E+01  0.26349940174E+01  0.44712633379E+01  0.51100000000E-03 0. -1.
        -11    1    3    3    0    0  0.16437426250E+01  0.19969945668E+02  0.20989531940E+02  0.29018288563E+02  0.51100000000E-03 0.  1.
         12    1    3    3    0    0 -0.15196685966E+02  0.74564479606E+01  0.19493004770E+01  0.17039297312E+02  0.00000000000E+00 0. -1.
</event>
<event>
 7    1  0.5456331E-013  0.5052886E+02  0.7816164E-02  0.1300439E+00
        -11   -1    0    0    0    0  0.00000000000E+00  0.00000000000E+00  0.45593999997E+02  0.45594000000E+02  0.51100000000E-03 0. -1.
         11   -1    0    0    0    0 -0.00000000000E+00 -0.00000000000E+00 -0.45593999997E+02  0.45594000000E+02  0.51100000000E-03 0.  1.
    9900012    2    1    2    0    0  0.16809971023E+02 -0.36324219823E+02 -0.71513321919E+01  0.50528860515E+02  0.30000002021E+02 0.  0.
         12    1    1    2    0    0 -0.16809971023E+02  0.36324219823E+02  0.71513321919E+01  0.40659139485E+02  0.00000000000E+00 0. -1.
         11    1    3    3    0    0  0.99998792981E+00 -0.16437986909E-01 -0.25743350694E+01  0.27617833691E+01  0.51100000000E-03 0.  1.
        -11    1    3    3    0    0 -0.71154858126E+00 -0.27025242381E+01  0.78335831303E+01  0.83171487639E+01  0.51100000000E-03 0. -1.
        -12    1    3    3    0    0  0.16521531675E+02 -0.33605257598E+02 -0.12410580253E+02  0.39449928382E+02  0.00000000000E+00 0.  1.
</event>
<event>
 7    1  0.5456331E-013  0.5052888E+02  0.7816164E-02  0.1300439E+00
        -11   -1    0    0    0    0  0.00000000000E+00  0.00000000000E+00  0.45593999997E+02  0.45594000000E+02  0.51100000000E-03 0.  1.
         11   -1    0    0    0    0 -0.00000000000E+00 -0.00000000000E+00 -0.45593999997E+02  0.45594000000E+02  0.51100000000E-03 0. -1.
    9900012    2    1    2    0    0  0.90185643294E+01  0.34370142529E+02  0.19761647423E+02  0.50528881602E+02  0.30000066118E+02 0.  0.
         12    1    1    2    0    0 -0.90185643294E+01 -0.34370142529E+02 -0.19761647423E+02  0.40659118398E+02  0.00000000000E+00 0. -1.
         11    1    3    3    0    0 -0.15595288839E+01 -0.95668830082E+00 -0.32979499183E+00  0.18590717691E+01  0.51100000000E-03 0. -1.
        -11    1    3    3    0    0  0.50522523122E+01  0.10079528845E+02 -0.52825654738E+01  0.12451010136E+02  0.51100000000E-03 0.  1.
        -12    1    3    3    0    0  0.55258409012E+01  0.25247301985E+02  0.25374007889E+02  0.36218799697E+02  0.00000000000E+00 0.  1.
</event>
<event>
 7    1  0.5456331E-013  0.5052889E+02  0.7816164E-02  0.1300439E+00
        -11   -1    0    0    0    0  0.00000000000E+00  0.00000000000E+00  0.45593999997E+02  0.45594000000E+02  0.51100000000E-03 0.  1.
         11   -1    0    0    0    0 -0.00000000000E+00 -0.00000000000E+00 -0.45593999997E+02  0.45594000000E+02  0.51100000000E-03 0. -1.
    9900012    2    1    2    0    0 -0.22679005392E+02 -0.16111015914E+02  0.29652342543E+02  0.50528886168E+02  0.30000079996E+02 0.  0.
         12    1    1    2    0    0  0.22679005392E+02  0.16111015914E+02 -0.29652342543E+02  0.40659113832E+02  0.00000000000E+00 0. -1.
         11    1    3    3    0    0 -0.85936164628E+01 -0.83447402788E+01 -0.37571092126E+00  0.11984410423E+02  0.51100000000E-03 0. -1.
        -11    1    3    3    0    0 -0.34247180752E+01 -0.22815520181E+01 -0.18311878955E+01  0.45041561779E+01  0.51100000000E-03 0.  1.
        -12    1    3    3    0    0 -0.10660670854E+02 -0.54847236172E+01  0.31859241359E+02  0.34040319567E+02  0.00000000000E+00 0.  1.
</event>
<event>
 7    1  0.5456331E-013  0.5052886E+02  0.7816164E-02  0.1300439E+00
        -11   -1    0    0    0    0  0.00000000000E+00  0.00000000000E+00  0.45593999997E+02  0.45594000000E+02  0.51100000000E-03 0.  1.
         11   -1    0    0    0    0 -0.00000000000E+00 -0.00000000000E+00 -0.45593999997E+02  0.45594000000E+02  0.51100000000E-03 0. -1.
    9900012    2    1    2    0    0 -0.19128618305E+02 -0.25689885643E+02  0.25045784872E+02  0.50528860776E+02  0.30000002815E+02 0.  0.
         12    1    1    2    0    0  0.19128618305E+02  0.25689885643E+02 -0.25045784872E+02  0.40659139224E+02  0.00000000000E+00 0. -1.
         11    1    3    3    0    0 -0.12652314444E+02 -0.16164290797E+02  0.33329354862E+01  0.20796004832E+02  0.51100000000E-03 0. -1.
        -11    1    3    3    0    0 -0.11403910150E+02 -0.86794732679E+01  0.19657997815E+02  0.24327336502E+02  0.51100000000E-03 0.  1.
         12    1    3    3    0    0  0.49276062889E+01 -0.84612157740E+00  0.20548515703E+01  0.54055194420E+01  0.00000000000E+00 0. -1.
</event>
<event>
 7    1  0.5456331E-013  0.5052886E+02  0.7816164E-02  0.1300439E+00
        -11   -1    0    0    0    0  0.00000000000E+00  0.00000000000E+00  0.45593999997E+02  0.45594000000E+02  0.51100000000E-03 0.  1.
         11   -1    0    0    0    0 -0.00000000000E+00 -0.00000000000E+00 -0.45593999997E+02  0.45594000000E+02  0.51100000000E-03 0. -1.
    9900012    2    1    2    0    0 -0.40060019663E+02 -0.65082309563E+01  0.24501259923E+01  0.50528863721E+02  0.30000011766E+02 0.  0.
         12    1    1    2    0    0  0.40060019663E+02  0.65082309563E+01 -0.24501259923E+01  0.40659136279E+02  0.00000000000E+00 0. -1.
         11    1    3    3    0    0 -0.12715936606E+02  0.14869851241E+01 -0.38186589319E+01  0.13359952277E+02  0.51100000000E-03 0. -1.
        -11    1    3    3    0    0 -0.75403998166E+01  0.76344797484E+01 -0.13503031390E+01  0.10815092660E+02  0.51100000000E-03 0.  1.
         12    1    3    3    0    0 -0.19803683240E+02 -0.15629695829E+02  0.76190880631E+01  0.26353818784E+02  0.00000000000E+00 0. -1.
</event>
<event>
 7    1  0.5456331E-013  0.5052887E+02  0.7816164E-02  0.1300439E+00
        -11   -1    0    0    0    0  0.00000000000E+00  0.00000000000E+00  0.45593999997E+02  0.45594000000E+02  0.51100000000E-03 0.  1.
         11   -1    0    0    0    0 -0.00000000000E+00 -0.00000000000E+00 -0.45593999997E+02  0.45594000000E+02  0.51100000000E-03 0. -1.
    9900012    2    1    2    0    0 -0.40334444084E+02 -0.16139888478E+01  0.48674621729E+01  0.50528873994E+02  0.30000042991E+02 0.  0.
         12    1    1    2    0    0  0.40334444084E+02  0.16139888478E+01 -0.48674621729E+01  0.40659126006E+02  0.00000000000E+00 0. -1.
         11    1    3    3    0    0 -0.95390506855E+01  0.25313105480E+01 -0.28166986676E+01  0.10263274951E+02  0.51100000000E-03 0. -1.
        -11    1    3    3    0    0 -0.27535087594E+02 -0.43787647627E+01 -0.39694803808E+01  0.28162233654E+02  0.51100000000E-03 0.  1.
         12    1    3    3    0    0 -0.32603058052E+01  0.23346536686E+00  0.11653641221E+02  0.12103365389E+02  0.00000000000E+00 0. -1.
</event>
<event>
 7    1  0.5456331E-013  0.5052887E+02  0.7816164E-02  0.1300439E+00
        -11   -1    0    0    0    0  0.00000000000E+00  0.00000000000E+00  0.45593999997E+02  0.45594000000E+02  0.51100000000E-03 0.  1.
         11   -1    0    0    0    0 -0.00000000000E+00 -0.00000000000E+00 -0.45593999997E+02  0.45594000000E+02  0.51100000000E-03 0. -1.
    9900012    2    1    2    0    0 -0.32365495604E+02  0.98684282587E+01  0.22544474601E+02  0.50528874124E+02  0.30000043386E+02 0.  0.
         12    1    1    2    0    0  0.32365495604E+02 -0.98684282587E+01 -0.22544474601E+02  0.40659125876E+02  0.00000000000E+00 0. -1.
         11    1    3    3    0    0 -0.40331008398E+01 -0.41407256398E+00 -0.14095098891E+01  0.42923276740E+01  0.51100000000E-03 0. -1.
        -11    1    3    3    0    0 -0.15620961790E+02 -0.24111959579E+01 -0.59454021843E+00  0.15817136009E+02  0.51100000000E-03 0.  1.
        -12    1    3    3    0    0 -0.12711432975E+02  0.12693696781E+02  0.24548524708E+02  0.30419410441E+02  0.00000000000E+00 0.  1.
</event>
<event>
 7    1  0.5456331E-013  0.5052888E+02  0.7816164E-02  0.1300439E+00
        -11   -1    0    0    0    0  0.00000000000E+00  0.00000000000E+00  0.45593999997E+02  0.45594000000E+02  0.51100000000E-03 0.  1.
         11   -1    0    0    0    0 -0.00000000000E+00 -0.00000000000E+00 -0.45593999997E+02  0.45594000000E+02  0.51100000000E-03 0. -1.
    9900012    2    1    2    0    0 -0.11678594580E+02 -0.41182875619E+01  0.38727435360E+02  0.50528879088E+02  0.30000058475E+02 0.  0.
         12    1    1    2    0    0  0.11678594580E+02  0.41182875619E+01 -0.38727435360E+02  0.40659120912E+02  0.00000000000E+00 0. -1.
         11    1    3    3    0    0  0.16280880420E+01 -0.13090873330E+01  0.15575026458E+02  0.15714510166E+02  0.51100000000E-03 0. -1.
        -11    1    3    3    0    0 -0.18737531589E+02 -0.60002897912E+01  0.18197036544E+02  0.26799826620E+02  0.51100000000E-03 0.  1.
         12    1    3    3    0    0  0.54308489672E+01  0.31910895623E+01  0.49553723576E+01  0.80145423014E+01  0.00000000000E+00 0. -1.
</event>
<event>
 7    1  0.5456331E-013  0.5052886E+02  0.7816164E-02  0.1300439E+00
        -11   -1    0    0    0    0  0.00000000000E+00  0.00000000000E+00  0.45593999997E+02  0.45594000000E+02  0.51100000000E-03 0. -1.
         11   -1    0    0    0    0 -0.00000000000E+00 -0.00000000000E+00 -0.45593999997E+02  0.45594000000E+02  0.51100000000E-03 0.  1.
    9900012    2    1    2    0    0 -0.23885299145E+02  0.32685398185E+02  0.37845941451E+01  0.50528856839E+02  0.29999990847E+02 0.  0.
         12    1    1    2    0    0  0.23885299145E+02 -0.32685398185E+02 -0.37845941451E+01  0.40659143161E+02  0.00000000000E+00 0. -1.
         11    1    3    3    0    0 -0.74072846705E+01  0.23915015254E+01 -0.17512947170E+01  0.79783569225E+01  0.51100000000E-03 0. -1.
        -11    1    3    3    0    0 -0.33428978327E+01 -0.25677133775E+01  0.57878286256E+01  0.71601032373E+01  0.51100000000E-03 0.  1.
        -12    1    3    3    0    0 -0.13135116641E+02  0.32861610038E+02 -0.25193976352E+00  0.35390396679E+02  0.00000000000E+00 0.  1.
</event>
<event>
 7    1  0.5456331E-013  0.5052886E+02  0.7816164E-02  0.1300439E+00
        -11   -1    0    0    0    0  0.00000000000E+00  0.00000000000E+00  0.45593999997E+02  0.45594000000E+02  0.51100000000E-03 0. -1.
         11   -1    0    0    0    0 -0.00000000000E+00 -0.00000000000E+00 -0.45593999997E+02  0.45594000000E+02  0.51100000000E-03 0.  1.
    9900012    2    1    2    0    0  0.39011261683E+02 -0.78413977264E+01 -0.83546318607E+01  0.50528856749E+02  0.29999990573E+02 0.  0.
         12    1    1    2    0    0 -0.39011261683E+02  0.78413977264E+01  0.83546318607E+01  0.40659143251E+02  0.00000000000E+00 0. -1.
         11    1    3    3    0    0  0.18081853427E+02  0.92890893242E+01 -0.53818341282E+01  0.21028664786E+02  0.51100000000E-03 0. -1.
        -11    1    3    3    0    0 -0.12788448787E+00  0.11246325539E+01  0.78773691893E+00  0.13790150609E+01  0.51100000000E-03 0.  1.
        -12    1    3    3    0    0  0.21057292744E+02 -0.18255119604E+02 -0.37605346514E+01  0.28121176902E+02  0.00000000000E+00 0.  1.
</event>
<event>
 7    1  0.5456331E-013  0.5052886E+02  0.7816164E-02  0.1300439E+00
        -11   -1    0    0    0    0  0.00000000000E+00  0.00000000000E+00  0.45593999997E+02  0.45594000000E+02  0.51100000000E-03 0.  1.
         11   -1    0    0    0    0 -0.00000000000E+00 -0.00000000000E+00 -0.45593999997E+02  0.45594000000E+02  0.51100000000E-03 0. -1.
    9900012    2    1    2    0    0 -0.31605423111E+02  0.23823133739E+02  0.93124136577E+01  0.50528861799E+02  0.30000005923E+02 0.  0.
         12    1    1    2    0    0  0.31605423111E+02 -0.23823133739E+02 -0.93124136577E+01  0.40659138201E+02  0.00000000000E+00 0. -1.
         11    1    3    3    0    0 -0.67438834663E+01  0.11433498228E+02  0.83770575167E+01  0.15696494476E+02  0.51100000000E-03 0. -1.
        -11    1    3    3    0    0 -0.61464091920E+01  0.68269776284E+01  0.97628472219E+01  0.13405191369E+02  0.51100000000E-03 0.  1.
         12    1    3    3    0    0 -0.18715130452E+02  0.55626578826E+01 -0.88274910809E+01  0.21427175954E+02  0.00000000000E+00 0. -1.
</event>
<event>
 7    1  0.5730059E-013  0.5052887E+02  0.7816164E-02  0.1300439E+00
        -11   -1    0    0    0    0  0.00000000000E+00  0.00000000000E+00  0.45593999997E+02  0.45594000000E+02  0.51100000000E-03 0. -1.
         11   -1    0    0    0    0 -0.00000000000E+00 -0.00000000000E+00 -0.45593999997E+02  0.45594000000E+02  0.51100000000E-03 0.  1.
    9900012    2    1    2    0    0 -0.21506959098E+02  0.20565335156E+01 -0.34443962235E+02  0.50528866288E+02  0.30000019570E+02 0.  0.
         12    1    1    2    0    0  0.21506959098E+02 -0.20565335156E+01  0.34443962235E+02  0.40659133712E+02  0.00000000000E+00 0. -1.
         11    1    3    3    0    0 -0.63401319519E+01 -0.84420021047E+01 -0.52264458615E+01  0.11780509722E+02  0.51100000000E-03 0. -1.
        -11    1    3    3    0    0 -0.10065770057E+02  0.29855169398E+01 -0.27593155775E+02  0.29523131340E+02  0.51100000000E-03 0.  1.
         12    1    3    3    0    0 -0.51010570892E+01  0.75130186806E+01 -0.16243605981E+01  0.92252252262E+01  0.00000000000E+00 0. -1.
</event>
<event>
 7    1  0.5456331E-013  0.5052886E+02  0.7816164E-02  0.1300439E+00
        -11   -1    0    0    0    0  0.00000000000E+00  0.00000000000E+00  0.45593999997E+02  0.45594000000E+02  0.51100000000E-03 0.  1.
         11   -1    0    0    0    0 -0.00000000000E+00 -0.00000000000E+00 -0.45593999997E+02  0.45594000000E+02  0.51100000000E-03 0. -1.
    9900012    2    1    2    0    0 -0.16732834921E+01  0.20279960309E+02  0.35200697102E+02  0.50528859032E+02  0.29999997513E+02 0.  0.
         12    1    1    2    0    0  0.16732834921E+01 -0.20279960309E+02 -0.35200697102E+02  0.40659140968E+02  0.00000000000E+00 0. -1.
         11    1    3    3    0    0  0.27343798829E+01  0.73766594766E+01  0.72783634237E+00  0.79007394832E+01  0.51100000000E-03 0. -1.
        -11    1    3    3    0    0  0.73834907350E+01  0.68117346836E+01  0.73993799475E+01  0.12476637716E+02  0.51100000000E-03 0.  1.
        -12    1    3    3    0    0 -0.11791154110E+02  0.60915661485E+01  0.27073480813E+02  0.30151481832E+02  0.00000000000E+00 0.  1.
</event>
<event>
 7    1  0.5456331E-013  0.5052886E+02  0.7816164E-02  0.1300439E+00
        -11   -1    0    0    0    0  0.00000000000E+00  0.00000000000E+00  0.45593999997E+02  0.45594000000E+02  0.51100000000E-03 0.  1.
         11   -1    0    0    0    0 -0.00000000000E+00 -0.00000000000E+00 -0.45593999997E+02  0.45594000000E+02  0.51100000000E-03 0. -1.
    9900012    2    1    2    0    0  0.22777800953E+02 -0.33623517431E+02  0.19483667484E+01  0.50528864819E+02  0.30000015105E+02 0.  0.
         12    1    1    2    0    0 -0.22777800953E+02  0.33623517431E+02 -0.19483667484E+01  0.40659135181E+02  0.00000000000E+00 0. -1.
         11    1    3    3    0    0  0.36225704089E+01 -0.65201815329E+01 -0.33987428796E+01  0.81967821132E+01  0.51100000000E-03 0.  1.
        -11    1    3    3    0    0 -0.48032017838E+01 -0.93486438980E+01 -0.37435653226E+01  0.11157157868E+02  0.51100000000E-03 0. -1.
        -12    1    3    3    0    0  0.23958432328E+02 -0.17754692000E+02  0.90906749506E+01  0.31174924838E+02  0.00000000000E+00 0.  1.
</event>
<event>
 7    1  0.5456331E-013  0.5052886E+02  0.7816164E-02  0.1300439E+00
        -11   -1    0    0    0    0  0.00000000000E+00  0.00000000000E+00  0.45593999997E+02  0.45594000000E+02  0.51100000000E-03 0.  1.
         11   -1    0    0    0    0 -0.00000000000E+00 -0.00000000000E+00 -0.45593999997E+02  0.45594000000E+02  0.51100000000E-03 0. -1.
    9900012    2    1    2    0    0  0.32878157012E+02  0.18205470517E+01  0.23851165428E+02  0.50528859670E+02  0.29999999454E+02 0.  0.
         12    1    1    2    0    0 -0.32878157012E+02 -0.18205470517E+01 -0.23851165428E+02  0.40659140330E+02  0.00000000000E+00 0. -1.
         11    1    3    3    0    0 -0.11947993449E+01 -0.10476455624E+01  0.46270177001E+01  0.48922796074E+01  0.51100000000E-03 0.  1.
        -11    1    3    3    0    0 -0.27910247832E+01 -0.21010761219E+01  0.43411658437E+01  0.55722581917E+01  0.51100000000E-03 0. -1.
        -12    1    3    3    0    0  0.36863981140E+02  0.49692687360E+01  0.14882981884E+02  0.40064321871E+02  0.00000000000E+00 0.  1.
</event>
<event>
 7    1  0.5456331E-013  0.5052887E+02  0.7816164E-02  0.1300439E+00
        -11   -1    0    0    0    0  0.00000000000E+00  0.00000000000E+00  0.45593999997E+02  0.45594000000E+02  0.51100000000E-03 0.  1.
         11   -1    0    0    0    0 -0.00000000000E+00 -0.00000000000E+00 -0.45593999997E+02  0.45594000000E+02  0.51100000000E-03 0. -1.
    9900012    2    1    2    0    0 -0.14382794976E+02 -0.33521308846E+02 -0.17961682184E+02  0.50528868615E+02  0.30000026642E+02 0.  0.
         12    1    1    2    0    0  0.14382794976E+02  0.33521308846E+02  0.17961682184E+02  0.40659131385E+02  0.00000000000E+00 0. -1.
         11    1    3    3    0    0  0.14381286928E+01 -0.41083719169E+01 -0.18359198856E+01  0.47241439470E+01  0.51100000000E-03 0. -1.
        -11    1    3    3    0    0 -0.19525052432E+02 -0.92457227471E+01 -0.12569454232E+02  0.24994044121E+02  0.51100000000E-03 0.  1.
        -12    1    3    3    0    0  0.37041287628E+01 -0.20167214182E+02 -0.35563080668E+01  0.20810680547E+02  0.00000000000E+00 0.  1.
</event>
<event>
 7    1  0.5456331E-013  0.5052886E+02  0.7816164E-02  0.1300439E+00
        -11   -1    0    0    0    0  0.00000000000E+00  0.00000000000E+00  0.45593999997E+02  0.45594000000E+02  0.51100000000E-03 0.  1.
         11   -1    0    0    0    0 -0.00000000000E+00 -0.00000000000E+00 -0.45593999997E+02  0.45594000000E+02  0.51100000000E-03 0. -1.
    9900012    2    1    2    0    0 -0.16322410073E+02 -0.31786151437E+02  0.19400651110E+02  0.50528858872E+02  0.29999997028E+02 0.  0.
         12    1    1    2    0    0  0.16322410073E+02  0.31786151437E+02 -0.19400651110E+02  0.40659141128E+02  0.00000000000E+00 0. -1.
         11    1    3    3    0    0 -0.11884468500E+02 -0.14664533410E+01 -0.11358361636E+01  0.12028349886E+02  0.51100000000E-03 0. -1.
        -11    1    3    3    0    0 -0.32172444567E+01 -0.12328766894E+01  0.24424577095E+01  0.42232980890E+01  0.51100000000E-03 0.  1.
         12    1    3    3    0    0 -0.12206971158E+01 -0.29086821406E+02  0.18094029564E+02  0.34277210897E+02  0.00000000000E+00 0. -1.
</event>
<event>
 7    1  0.5456331E-013  0.5052886E+02  0.7816164E-02  0.1300439E+00
        -11   -1    0    0    0    0  0.00000000000E+00  0.00000000000E+00  0.45593999997E+02  0.45594000000E+02  0.51100000000E-03 0.  1.
         11   -1    0    0    0    0 -0.00000000000E+00 -0.00000000000E+00 -0.45593999997E+02  0.45594000000E+02  0.51100000000E-03 0. -1.
    9900012    2    1    2    0    0 -0.17441778012E+02 -0.22894478323E+02  0.28719206335E+02  0.50528861170E+02  0.30000004011E+02 0.  0.
         12    1    1    2    0    0  0.17441778012E+02  0.22894478323E+02 -0.28719206335E+02  0.40659138830E+02  0.00000000000E+00 0. -1.
         11    1    3    3    0    0 -0.12530792085E+02 -0.46268945466E+00  0.48339377840E+01  0.13438816413E+02  0.51100000000E-03 0. -1.
        -11    1    3    3    0    0  0.38448725594E+01  0.34811954355E+00  0.44555990015E+01  0.58954724101E+01  0.51100000000E-03 0.  1.
        -12    1    3    3    0    0 -0.87558584868E+01 -0.22779908412E+02  0.19429669549E+02  0.31194572347E+02  0.00000000000E+00 0.  1.
</event>
<event>
 7    1  0.5456331E-013  0.5052886E+02  0.7816164E-02  0.1300439E+00
        -11   -1    0    0    0    0  0.00000000000E+00  0.00000000000E+00  0.45593999997E+02  0.45594000000E+02  0.51100000000E-03 0.  1.
         11   -1    0    0    0    0 -0.00000000000E+00 -0.00000000000E+00 -0.45593999997E+02  0.45594000000E+02  0.51100000000E-03 0. -1.
    9900012    2    1    2    0    0  0.69093733061E+01  0.13257016601E+02  0.37811078104E+02  0.50528861347E+02  0.30000004550E+02 0.  0.
         12    1    1    2    0    0 -0.69093733061E+01 -0.13257016601E+02 -0.37811078104E+02  0.40659138653E+02  0.00000000000E+00 0. -1.
         11    1    3    3    0    0  0.88598379638E+01  0.10170172484E+02  0.82471096795E+01  0.15809615917E+02  0.51100000000E-03 0. -1.
        -11    1    3    3    0    0  0.24103616621E+01 -0.64559405935E+01  0.69369850672E+01  0.97780762102E+01  0.51100000000E-03 0.  1.
        -12    1    3    3    0    0 -0.43608263198E+01  0.95427847098E+01  0.22626983357E+02  0.24941169220E+02  0.00000000000E+00 0.  1.
</event>
<event>
 7    1  0.5456331E-013  0.5052887E+02  0.7816164E-02  0.1300439E+00
        -11   -1    0    0    0    0  0.00000000000E+00  0.00000000000E+00  0.45593999997E+02  0.45594000000E+02  0.51100000000E-03 0.  1.
         11   -1    0    0    0    0 -0.00000000000E+00 -0.00000000000E+00 -0.45593999997E+02  0.45594000000E+02  0.51100000000E-03 0. -1.
    9900012    2    1    2    0    0  0.47307966003E+01  0.20953183156E+02  0.34521716815E+02  0.50528865077E+02  0.30000015887E+02 0.  0.
         12    1    1    2    0    0 -0.47307966003E+01 -0.20953183156E+02 -0.34521716815E+02  0.40659134923E+02  0.00000000000E+00 0. -1.
         11    1    3    3    0    0 -0.43159996221E+01  0.13268240811E+02  0.18829493265E+02  0.23435526106E+02  0.51100000000E-03 0.  1.
        -11    1    3    3    0    0  0.12196302449E+02  0.11733243005E+02  0.12657722434E+02  0.21133781544E+02  0.51100000000E-03 0. -1.
        -12    1    3    3    0    0 -0.31495062269E+01 -0.40483006604E+01  0.30345011160E+01  0.59595574276E+01  0.00000000000E+00 0.  1.
</event>
<event>
 7    1  0.5456331E-013  0.5052886E+02  0.7816164E-02  0.1300439E+00
        -11   -1    0    0    0    0  0.00000000000E+00  0.00000000000E+00  0.45593999997E+02  0.45594000000E+02  0.51100000000E-03 0.  1.
         11   -1    0    0    0    0 -0.00000000000E+00 -0.00000000000E+00 -0.45593999997E+02  0.45594000000E+02  0.51100000000E-03 0. -1.
    9900012    2    1    2    0    0  0.26537048262E+02 -0.16007559535E+02  0.26319361038E+02  0.50528860090E+02  0.30000000730E+02 0.  0.
         12    1    1    2    0    0 -0.26537048262E+02  0.16007559535E+02 -0.26319361038E+02  0.40659139910E+02  0.00000000000E+00 0. -1.
         11    1    3    3    0    0  0.44929544119E+01 -0.47882583948E+00 -0.40269436370E+01  0.60524531265E+01  0.51100000000E-03 0. -1.
        -11    1    3    3    0    0  0.52459683100E+01 -0.93570747699E+01  0.19377185423E+01  0.10900907539E+02  0.51100000000E-03 0.  1.
         12    1    3    3    0    0  0.16798125540E+02 -0.61716589258E+01  0.28408586133E+02  0.33575499425E+02  0.00000000000E+00 0. -1.
</event>
<event>
 7    1  0.5456331E-013  0.5052886E+02  0.7816164E-02  0.1300439E+00
        -11   -1    0    0    0    0  0.00000000000E+00  0.00000000000E+00  0.45593999997E+02  0.45594000000E+02  0.51100000000E-03 0.  1.
         11   -1    0    0    0    0 -0.00000000000E+00 -0.00000000000E+00 -0.45593999997E+02  0.45594000000E+02  0.51100000000E-03 0. -1.
    9900012    2    1    2    0    0 -0.17203711105E+02 -0.20820615830E+02  0.30392433088E+02  0.50528859474E+02  0.29999998856E+02 0.  0.
         12    1    1    2    0    0  0.17203711105E+02  0.20820615830E+02 -0.30392433088E+02  0.40659140526E+02  0.00000000000E+00 0. -1.
         11    1    3    3    0    0 -0.82124595381E+01 -0.14269457231E+01  0.10136139805E+02  0.13123337844E+02  0.51100000000E-03 0. -1.
        -11    1    3    3    0    0 -0.15265460557E+01  0.40844591901E+01  0.96379182951E+01  0.10578403427E+02  0.51100000000E-03 0.  1.
         12    1    3    3    0    0 -0.74647055108E+01 -0.23478129297E+02  0.10618374988E+02  0.26827118203E+02  0.00000000000E+00 0. -1.
</event>
<event>
 7    1  0.5456331E-013  0.5052886E+02  0.7816164E-02  0.1300439E+00
        -11   -1    0    0    0    0  0.00000000000E+00  0.00000000000E+00  0.45593999997E+02  0.45594000000E+02  0.51100000000E-03 0.  1.
         11   -1    0    0    0    0 -0.00000000000E+00 -0.00000000000E+00 -0.45593999997E+02  0.45594000000E+02  0.51100000000E-03 0. -1.
    9900012    2    1    2    0    0  0.12364968716E+02 -0.87974695242E+01  0.37721049343E+02  0.50528862222E+02  0.30000007209E+02 0.  0.
         12    1    1    2    0    0 -0.12364968716E+02  0.87974695242E+01 -0.37721049343E+02  0.40659137778E+02  0.00000000000E+00 0. -1.
         11    1    3    3    0    0 -0.35915721352E+00  0.44364756015E+01  0.10877842875E+01  0.45819847865E+01  0.51100000000E-03 0. -1.
        -11    1    3    3    0    0  0.90559374350E+01 -0.90726122942E+01  0.48857100183E+01  0.13718325675E+02  0.51100000000E-03 0.  1.
        -12    1    3    3    0    0  0.36681884943E+01 -0.41613328315E+01  0.31747555037E+02  0.32228551761E+02  0.00000000000E+00 0.  1.
</event>
<event>
 7    1  0.5456331E-013  0.5052885E+02  0.7816164E-02  0.1300439E+00
        -11   -1    0    0    0    0  0.00000000000E+00  0.00000000000E+00  0.45593999997E+02  0.45594000000E+02  0.51100000000E-03 0. -1.
         11   -1    0    0    0    0 -0.00000000000E+00 -0.00000000000E+00 -0.45593999997E+02  0.45594000000E+02  0.51100000000E-03 0.  1.
    9900012    2    1    2    0    0  0.50543823536E+01  0.14170050277E+02 -0.37773393256E+02  0.50528851658E+02  0.29999975101E+02 0.  0.
         12    1    1    2    0    0 -0.50543823536E+01 -0.14170050277E+02  0.37773393256E+02  0.40659148342E+02  0.00000000000E+00 0. -1.
         11    1    3    3    0    0  0.10600867110E+01  0.65582011531E+01 -0.13053086309E+02  0.14646393708E+02  0.51100000000E-03 0. -1.
        -11    1    3    3    0    0 -0.40605163548E+01  0.13060194902E+01 -0.25280292164E+02  0.25637602309E+02  0.51100000000E-03 0.  1.
         12    1    3    3    0    0  0.80548119974E+01  0.63058296334E+01  0.55998521716E+00  0.10244855642E+02  0.00000000000E+00 0. -1.
</event>
<event>
 7    1  0.5456331E-013  0.5052886E+02  0.7816164E-02  0.1300439E+00
        -11   -1    0    0    0    0  0.00000000000E+00  0.00000000000E+00  0.45593999997E+02  0.45594000000E+02  0.51100000000E-03 0. -1.
         11   -1    0    0    0    0 -0.00000000000E+00 -0.00000000000E+00 -0.45593999997E+02  0.45594000000E+02  0.51100000000E-03 0.  1.
    9900012    2    1    2    0    0 -0.25772911378E+02 -0.14053921816E+01 -0.31415720208E+02  0.50528861246E+02  0.30000004242E+02 0.  0.
         12    1    1    2    0    0  0.25772911378E+02  0.14053921816E+01  0.31415720208E+02  0.40659138754E+02  0.00000000000E+00 0. -1.
         11    1    3    3    0    0 -0.40641754615E+01 -0.12828475002E+02 -0.15240445708E+02  0.20331219312E+02  0.51100000000E-03 0. -1.
        -11    1    3    3    0    0 -0.70434644931E+01  0.32315745646E+01 -0.91477178557E+01  0.11988920237E+02  0.51100000000E-03 0.  1.
        -12    1    3    3    0    0 -0.14665271423E+02  0.81915082559E+01 -0.70275566438E+01  0.18208721696E+02  0.00000000000E+00 0.  1.
</event>
<event>
 7    1  0.5456331E-013  0.5052882E+02  0.7816164E-02  0.1300439E+00
        -11   -1    0    0    0    0  0.00000000000E+00  0.00000000000E+00  0.45593999997E+02  0.45594000000E+02  0.51100000000E-03 0.  1.
         11   -1    0    0    0    0 -0.00000000000E+00 -0.00000000000E+00 -0.45593999997E+02  0.45594000000E+02  0.51100000000E-03 0. -1.
    9900012    2    1    2    0    0  0.62436904439E+01  0.38099779693E+02  0.12751165945E+02  0.50528817569E+02  0.29999871483E+02 0.  0.
         12    1    1    2    0    0 -0.62436904439E+01 -0.38099779693E+02 -0.12751165945E+02  0.40659182431E+02  0.00000000000E+00 0. -1.
         11    1    3    3    0    0  0.71478001788E+01  0.63920710681E+01  0.25404349149E+01  0.99198502888E+01  0.51100000000E-03 0. -1.
        -11    1    3    3    0    0  0.50325744204E+01  0.17827433251E+02  0.15963376197E+02  0.24453497940E+02  0.51100000000E-03 0.  1.
         12    1    3    3    0    0 -0.59366841554E+01  0.13880275373E+02 -0.57526451664E+01  0.16155469340E+02  0.00000000000E+00 0. -1.
</event>
<event>
 7    1  0.5456331E-013  0.5052884E+02  0.7816164E-02  0.1300439E+00
        -11   -1    0    0    0    0  0.00000000000E+00  0.00000000000E+00  0.45593999997E+02  0.45594000000E+02  0.51100000000E-03 0.  1.
         11   -1    0    0    0    0 -0.00000000000E+00 -0.00000000000E+00 -0.45593999997E+02  0.45594000000E+02  0.51100000000E-03 0. -1.
    9900012    2    1    2    0    0  0.29983333731E+02 -0.16538933533E+02  0.21923288530E+02  0.50528841081E+02  0.29999942949E+02 0.  0.
         12    1    1    2    0    0 -0.29983333731E+02  0.16538933533E+02 -0.21923288530E+02  0.40659158919E+02  0.00000000000E+00 0. -1.
         11    1    3    3    0    0  0.32026559719E+01  0.43172188164E+01  0.66684790894E+01  0.85652785833E+01  0.51100000000E-03 0. -1.
        -11    1    3    3    0    0 -0.22765456642E+01  0.38831779235E+00  0.33144184633E+01  0.40396560349E+01  0.51100000000E-03 0.  1.
        -12    1    3    3    0    0  0.29057223424E+02 -0.21244470141E+02  0.11940390978E+02  0.37923906462E+02  0.00000000000E+00 0.  1.
</event>
<event>
 7    1  0.5456331E-013  0.5052881E+02  0.7816164E-02  0.1300439E+00
        -11   -1    0    0    0    0  0.00000000000E+00  0.00000000000E+00  0.45593999997E+02  0.45594000000E+02  0.51100000000E-03 0. -1.
         11   -1    0    0    0    0 -0.00000000000E+00 -0.00000000000E+00 -0.45593999997E+02  0.45594000000E+02  0.51100000000E-03 0.  1.
    9900012    2    1    2    0    0 -0.33974849740E+02 -0.13607654716E+02 -0.17711879816E+02  0.50528814466E+02  0.29999862049E+02 0.  0.
         12    1    1    2    0    0  0.33974849740E+02  0.13607654716E+02  0.17711879816E+02  0.40659185534E+02  0.00000000000E+00 0. -1.
         11    1    3    3    0    0 -0.64334796943E+01 -0.37949824195E+00 -0.98454626661E+01  0.11767192327E+02  0.51100000000E-03 0. -1.
        -11    1    3    3    0    0 -0.16254965243E+02 -0.11758530727E+02 -0.15245268353E+02  0.25197324210E+02  0.51100000000E-03 0.  1.
         12    1    3    3    0    0 -0.11286404803E+02 -0.14696257465E+01  0.73788512038E+01  0.13564297928E+02  0.00000000000E+00 0. -1.
</event>
<event>
 7    1  0.5456331E-013  0.5052886E+02  0.7816164E-02  0.1300439E+00
        -11   -1    0    0    0    0  0.00000000000E+00  0.00000000000E+00  0.45593999997E+02  0.45594000000E+02  0.51100000000E-03 0. -1.
         11   -1    0    0    0    0 -0.00000000000E+00 -0.00000000000E+00 -0.45593999997E+02  0.45594000000E+02  0.51100000000E-03 0.  1.
    9900012    2    1    2    0    0  0.26073563540E+02  0.11329512979E+02  0.29068492294E+02  0.50528858048E+02  0.29999994523E+02 0.  0.
         12    1    1    2    0    0 -0.26073563540E+02 -0.11329512979E+02 -0.29068492294E+02  0.40659141952E+02  0.00000000000E+00 0. -1.
         11    1    3    3    0    0  0.14384832582E+02  0.11659095595E+02  0.13030234881E+02  0.22641663804E+02  0.51100000000E-03 0. -1.
        -11    1    3    3    0    0  0.16560516751E+02  0.30848163435E+01  0.12349451766E+02  0.20887215375E+02  0.51100000000E-03 0.  1.
         12    1    3    3    0    0 -0.48717857932E+01 -0.34143989589E+01  0.36888056469E+01  0.69999788690E+01  0.00000000000E+00 0. -1.
</event>
<event>
 7    1  0.5456331E-013  0.5052887E+02  0.7816164E-02  0.1300439E+00
        -11   -1    0    0    0    0  0.00000000000E+00  0.00000000000E+00  0.45593999997E+02  0.45594000000E+02  0.51100000000E-03 0.  1.
         11   -1    0    0    0    0 -0.00000000000E+00 -0.00000000000E+00 -0.45593999997E+02  0.45594000000E+02  0.51100000000E-03 0. -1.
    9900012    2    1    2    0    0 -0.24931884225E+01  0.40240667711E+02 -0.52571114782E+01  0.50528873750E+02  0.30000042250E+02 0.  0.
         12    1    1    2    0    0  0.24931884225E+01 -0.40240667711E+02  0.52571114782E+01  0.40659126250E+02  0.00000000000E+00 0. -1.
         11    1    3    3    0    0 -0.36970808375E+01  0.15570431259E+02 -0.52320929506E+01  0.16836909847E+02  0.51100000000E-03 0.  1.
        -11    1    3    3    0    0 -0.45038568986E+01  0.12058904789E+02 -0.10272437957E+02  0.16468906871E+02  0.51100000000E-03 0. -1.
        -12    1    3    3    0    0  0.57077493136E+01  0.12611331663E+02  0.10247419430E+02  0.17223057032E+02  0.00000000000E+00 0.  1.
</event>
<event>
 7    1  0.5456331E-013  0.5052887E+02  0.7816164E-02  0.1300439E+00
        -11   -1    0    0    0    0  0.00000000000E+00  0.00000000000E+00  0.45593999997E+02  0.45594000000E+02  0.51100000000E-03 0. -1.
         11   -1    0    0    0    0 -0.00000000000E+00 -0.00000000000E+00 -0.45593999997E+02  0.45594000000E+02  0.51100000000E-03 0.  1.
    9900012    2    1    2    0    0 -0.87883302635E+01  0.80259733925E+00 -0.39689875073E+02  0.50528867021E+02  0.30000021796E+02 0.  0.
         12    1    1    2    0    0  0.87883302635E+01 -0.80259733925E+00  0.39689875073E+02  0.40659132979E+02  0.00000000000E+00 0. -1.
         11    1    3    3    0    0  0.83691457521E+01  0.31660480783E+00 -0.17933555930E+02  0.19792808486E+02  0.51100000000E-03 0. -1.
        -11    1    3    3    0    0 -0.57188035694E+01 -0.50612791376E+00 -0.17620588895E+02  0.18532297024E+02  0.51100000000E-03 0.  1.
         12    1    3    3    0    0 -0.11438672446E+02  0.99212044518E+00 -0.41357302480E+01  0.12203761510E+02  0.00000000000E+00 0. -1.
</event>
<event>
 7    1  0.5456331E-013  0.5052886E+02  0.7816164E-02  0.1300439E+00
        -11   -1    0    0    0    0  0.00000000000E+00  0.00000000000E+00  0.45593999997E+02  0.45594000000E+02  0.51100000000E-03 0.  1.
         11   -1    0    0    0    0 -0.00000000000E+00 -0.00000000000E+00 -0.45593999997E+02  0.45594000000E+02  0.51100000000E-03 0. -1.
    9900012    2    1    2    0    0 -0.31547909698E+02 -0.16451510252E+02  0.19678480377E+02  0.50528863439E+02  0.30000010910E+02 0.  0.
         12    1    1    2    0    0  0.31547909698E+02  0.16451510252E+02 -0.19678480377E+02  0.40659136561E+02  0.00000000000E+00 0. -1.
         11    1    3    3    0    0 -0.20214755390E+02 -0.16571012130E+02  0.12892529175E+01  0.26170535948E+02  0.51100000000E-03 0. -1.
        -11    1    3    3    0    0 -0.57972719554E+00 -0.40653449666E+01  0.28297299390E+01  0.49870316930E+01  0.51100000000E-03 0.  1.
         12    1    3    3    0    0 -0.10753427113E+02  0.41848468449E+01  0.15559497521E+02  0.19371295798E+02  0.00000000000E+00 0. -1.
</event>
<event>
 7    1  0.5456331E-013  0.5052887E+02  0.7816164E-02  0.1300439E+00
        -11   -1    0    0    0    0  0.00000000000E+00  0.00000000000E+00  0.45593999997E+02  0.45594000000E+02  0.51100000000E-03 0.  1.
         11   -1    0    0    0    0 -0.00000000000E+00 -0.00000000000E+00 -0.45593999997E+02  0.45594000000E+02  0.51100000000E-03 0. -1.
    9900012    2    1    2    0    0  0.38124148931E+02 -0.13458246879E+02 -0.43116227250E+01  0.50528865340E+02  0.30000016687E+02 0.  0.
         12    1    1    2    0    0 -0.38124148931E+02  0.13458246879E+02  0.43116227250E+01  0.40659134660E+02  0.00000000000E+00 0. -1.
         11    1    3    3    0    0  0.10892420588E+02 -0.45428155476E+01  0.13680175433E+01  0.11880802651E+02  0.51100000000E-03 0. -1.
        -11    1    3    3    0    0  0.31463717163E+02 -0.10420875966E+02 -0.71781446243E+01  0.33912916627E+02  0.51100000000E-03 0.  1.
         12    1    3    3    0    0 -0.42319888204E+01  0.15054446348E+01  0.14985043560E+01  0.47351460621E+01  0.00000000000E+00 0. -1.
</event>
<event>
 7    1  0.5456331E-013  0.5052886E+02  0.7816164E-02  0.1300439E+00
        -11   -1    0    0    0    0  0.00000000000E+00  0.00000000000E+00  0.45593999997E+02  0.45594000000E+02  0.51100000000E-03 0. -1.
         11   -1    0    0    0    0 -0.00000000000E+00 -0.00000000000E+00 -0.45593999997E+02  0.45594000000E+02  0.51100000000E-03 0.  1.
    9900012    2    1    2    0    0  0.94449908362E+00 -0.13303980571E+02 -0.38409347510E+02  0.50528856456E+02  0.29999989684E+02 0.  0.
         12    1    1    2    0    0 -0.94449908362E+00  0.13303980571E+02  0.38409347510E+02  0.40659143544E+02  0.00000000000E+00 0. -1.
         11    1    3    3    0    0  0.78785456290E+01  0.12003523763E+01 -0.11721968137E+02  0.14174514606E+02  0.51100000000E-03 0.  1.
        -11    1    3    3    0    0  0.50249204981E+01 -0.32568698447E+01 -0.13101126269E+01  0.61297163518E+01  0.51100000000E-03 0. -1.
        -12    1    3    3    0    0 -0.11958967044E+02 -0.11247463102E+02 -0.25377266747E+02  0.30224625498E+02  0.00000000000E+00 0.  1.
</event>
<event>
 7    1  0.5456331E-013  0.5052889E+02  0.7816164E-02  0.1300439E+00
        -11   -1    0    0    0    0  0.00000000000E+00  0.00000000000E+00  0.45593999997E+02  0.45594000000E+02  0.51100000000E-03 0. -1.
         11   -1    0    0    0    0 -0.00000000000E+00 -0.00000000000E+00 -0.45593999997E+02  0.45594000000E+02  0.51100000000E-03 0.  1.
    9900012    2    1    2    0    0 -0.41659391158E+01  0.34535150170E+02 -0.21050688148E+02  0.50528891334E+02  0.30000095700E+02 0.  0.
         12    1    1    2    0    0  0.41659391158E+01 -0.34535150170E+02  0.21050688148E+02  0.40659108666E+02  0.00000000000E+00 0. -1.
         11    1    3    3    0    0  0.39719790924E+01  0.32809781814E+01 -0.29960905116E+01  0.59596975051E+01  0.51100000000E-03 0. -1.
        -11    1    3    3    0    0  0.54715897196E+01 -0.10346273761E+01 -0.12451383440E+01  0.57060597284E+01  0.51100000000E-03 0.  1.
        -12    1    3    3    0    0 -0.13609507928E+02  0.32288799364E+02 -0.16809459293E+02  0.38863134101E+02  0.00000000000E+00 0.  1.
</event>
<event>
 7    1  0.5456331E-013  0.5052886E+02  0.7816164E-02  0.1300439E+00
        -11   -1    0    0    0    0  0.00000000000E+00  0.00000000000E+00  0.45593999997E+02  0.45594000000E+02  0.51100000000E-03 0.  1.
         11   -1    0    0    0    0 -0.00000000000E+00 -0.00000000000E+00 -0.45593999997E+02  0.45594000000E+02  0.51100000000E-03 0. -1.
    9900012    2    1    2    0    0 -0.39775297294E+02 -0.72841050661E+01  0.42465986219E+01  0.50528855133E+02  0.29999985663E+02 0.  0.
         12    1    1    2    0    0  0.39775297294E+02  0.72841050661E+01 -0.42465986219E+01  0.40659144867E+02  0.00000000000E+00 0. -1.
         11    1    3    3    0    0 -0.30005155413E+02 -0.91237522836E+01 -0.30769744746E+00  0.31363145331E+02  0.51100000000E-03 0. -1.
        -11    1    3    3    0    0 -0.80648926467E+01 -0.54272189483E+00 -0.47743369745E+01  0.93878290496E+01  0.51100000000E-03 0.  1.
         12    1    3    3    0    0 -0.17052492340E+01  0.23823691123E+01  0.93286330439E+01  0.97778807523E+01  0.00000000000E+00 0. -1.
</event>
<event>
 7    1  0.5456331E-013  0.5052886E+02  0.7816164E-02  0.1300439E+00
        -11   -1    0    0    0    0  0.00000000000E+00  0.00000000000E+00  0.45593999997E+02  0.45594000000E+02  0.51100000000E-03 0. -1.
         11   -1    0    0    0    0 -0.00000000000E+00 -0.00000000000E+00 -0.45593999997E+02  0.45594000000E+02  0.51100000000E-03 0.  1.
    9900012    2    1    2    0    0  0.10026888159E+02  0.37826166356E+02 -0.11036682650E+02  0.50528859437E+02  0.29999998746E+02 0.  0.
         12    1    1    2    0    0 -0.10026888159E+02 -0.37826166356E+02  0.11036682650E+02  0.40659140563E+02  0.00000000000E+00 0. -1.
         11    1    3    3    0    0 -0.15574716887E+01  0.65929815020E+01 -0.35979039238E+01  0.76705955475E+01  0.51100000000E-03 0. -1.
        -11    1    3    3    0    0 -0.33591492823E+01  0.21323697662E+02 -0.11521197481E+02  0.24468795588E+02  0.51100000000E-03 0.  1.
        -12    1    3    3    0    0  0.14943509130E+02  0.99094871921E+01  0.40824187544E+01  0.18389468302E+02  0.00000000000E+00 0.  1.
</event>
<event>
 7    1  0.5456331E-013  0.5052884E+02  0.7816164E-02  0.1300439E+00
        -11   -1    0    0    0    0  0.00000000000E+00  0.00000000000E+00  0.45593999997E+02  0.45594000000E+02  0.51100000000E-03 0. -1.
         11   -1    0    0    0    0 -0.00000000000E+00 -0.00000000000E+00 -0.45593999997E+02  0.45594000000E+02  0.51100000000E-03 0.  1.
    9900012    2    1    2    0    0  0.14377773310E+02  0.29516654978E+02  0.23983621172E+02  0.50528839028E+02  0.29999936710E+02 0.  0.
         12    1    1    2    0    0 -0.14377773310E+02 -0.29516654978E+02 -0.23983621172E+02  0.40659160972E+02  0.00000000000E+00 0. -1.
         11    1    3    3    0    0  0.24850958059E+01  0.51082835958E+01  0.10211066178E+02  0.11684867788E+02  0.51100000000E-03 0. -1.
        -11    1    3    3    0    0 -0.10371511489E+01 -0.95327215155E+00  0.10033675908E+02  0.10132080872E+02  0.51100000000E-03 0.  1.
        -12    1    3    3    0    0  0.12929828653E+02  0.25361643533E+02  0.37388790854E+01  0.28711890368E+02  0.00000000000E+00 0.  1.
</event>
<event>
 7    1  0.5456331E-013  0.5052887E+02  0.7816164E-02  0.1300439E+00
        -11   -1    0    0    0    0  0.00000000000E+00  0.00000000000E+00  0.45593999997E+02  0.45594000000E+02  0.51100000000E-03 0.  1.
         11   -1    0    0    0    0 -0.00000000000E+00 -0.00000000000E+00 -0.45593999997E+02  0.45594000000E+02  0.51100000000E-03 0. -1.
    9900012    2    1    2    0    0 -0.24976842828E+02  0.31477304787E+02 -0.62049673664E+01  0.50528868008E+02  0.30000024796E+02 0.  0.
         12    1    1    2    0    0  0.24976842828E+02 -0.31477304787E+02  0.62049673664E+01  0.40659131992E+02  0.00000000000E+00 0. -1.
         11    1    3    3    0    0 -0.11585730260E+01 -0.40774117787E+00 -0.81827188790E+01  0.82743841365E+01  0.51100000000E-03 0.  1.
        -11    1    3    3    0    0 -0.55063893953E+01  0.82446281486E+01  0.67207467331E+01  0.11977589674E+02  0.51100000000E-03 0. -1.
        -12    1    3    3    0    0 -0.18311880407E+02  0.23640417817E+02 -0.47429952205E+01  0.30276894197E+02  0.00000000000E+00 0.  1.
</event>
<event>
 7    1  0.5456331E-013  0.5052883E+02  0.7816164E-02  0.1300439E+00
        -11   -1    0    0    0    0  0.00000000000E+00  0.00000000000E+00  0.45593999997E+02  0.45594000000E+02  0.51100000000E-03 0. -1.
         11   -1    0    0    0    0 -0.00000000000E+00 -0.00000000000E+00 -0.45593999997E+02  0.45594000000E+02  0.51100000000E-03 0.  1.
    9900012    2    1    2    0    0  0.38349280590E+02  0.27650131885E+00  0.13506440307E+02  0.50528834926E+02  0.29999924242E+02 0.  0.
         12    1    1    2    0    0 -0.38349280590E+02 -0.27650131885E+00 -0.13506440307E+02  0.40659165074E+02  0.00000000000E+00 0. -1.
         11    1    3    3    0    0  0.43607036986E+01 -0.23548764996E+01 -0.62044467752E+01  0.79408022342E+01  0.51100000000E-03 0. -1.
        -11    1    3    3    0    0  0.16506448766E+02  0.79473623285E+01  0.46303839102E+01  0.18896133845E+02  0.51100000000E-03 0.  1.
        -12    1    3    3    0    0  0.17482128125E+02 -0.53159845101E+01  0.15080503172E+02  0.23691898848E+02  0.00000000000E+00 0.  1.
</event>
<event>
 7    1  0.5456331E-013  0.5052886E+02  0.7816164E-02  0.1300439E+00
        -11   -1    0    0    0    0  0.00000000000E+00  0.00000000000E+00  0.45593999997E+02  0.45594000000E+02  0.51100000000E-03 0. -1.
         11   -1    0    0    0    0 -0.00000000000E+00 -0.00000000000E+00 -0.45593999997E+02  0.45594000000E+02  0.51100000000E-03 0.  1.
    9900012    2    1    2    0    0 -0.10661679523E+02 -0.30514685571E+02 -0.24664710960E+02  0.50528863112E+02  0.30000009914E+02 0.  0.
         12    1    1    2    0    0  0.10661679523E+02  0.30514685571E+02  0.24664710960E+02  0.40659136888E+02  0.00000000000E+00 0. -1.
         11    1    3    3    0    0 -0.70812221748E+01 -0.22366562935E+02 -0.23636298669E+01  0.23579516352E+02  0.51100000000E-03 0. -1.
        -11    1    3    3    0    0  0.40186321896E+01 -0.38054929839E+01 -0.45766935759E+01  0.71817341830E+01  0.51100000000E-03 0.  1.
        -12    1    3    3    0    0 -0.75990895381E+01 -0.43426296523E+01 -0.17724387517E+02  0.19767612576E+02  0.00000000000E+00 0.  1.
</event>
<event>
 7    1  0.5456331E-013  0.5052887E+02  0.7816164E-02  0.1300439E+00
        -11   -1    0    0    0    0  0.00000000000E+00  0.00000000000E+00  0.45593999997E+02  0.45594000000E+02  0.51100000000E-03 0.  1.
         11   -1    0    0    0    0 -0.00000000000E+00 -0.00000000000E+00 -0.45593999997E+02  0.45594000000E+02  0.51100000000E-03 0. -1.
    9900012    2    1    2    0    0  0.26773623908E+02 -0.14758433714E+02  0.26805341384E+02  0.50528872740E+02  0.30000039181E+02 0.  0.
         12    1    1    2    0    0 -0.26773623908E+02  0.14758433714E+02 -0.26805341384E+02  0.40659127260E+02  0.00000000000E+00 0. -1.
         11    1    3    3    0    0  0.12145338825E+02 -0.90556950428E+01  0.96748428349E+00  0.15180609144E+02  0.51100000000E-03 0. -1.
        -11    1    3    3    0    0  0.17262852668E+02 -0.93394293947E+01  0.21295198637E+02  0.28960602702E+02  0.51100000000E-03 0.  1.
         12    1    3    3    0    0 -0.26345675853E+01  0.36366907232E+01  0.45426584634E+01  0.63876608937E+01  0.00000000000E+00 0. -1.
</event>
<event>
 7    1  0.5456331E-013  0.5052882E+02  0.7816164E-02  0.1300439E+00
        -11   -1    0    0    0    0  0.00000000000E+00  0.00000000000E+00  0.45593999997E+02  0.45594000000E+02  0.51100000000E-03 0.  1.
         11   -1    0    0    0    0 -0.00000000000E+00 -0.00000000000E+00 -0.45593999997E+02  0.45594000000E+02  0.51100000000E-03 0. -1.
    9900012    2    1    2    0    0  0.32142461950E+01  0.33875999468E+02  0.22254300956E+02  0.50528823550E+02  0.29999889661E+02 0.  0.
         12    1    1    2    0    0 -0.32142461950E+01 -0.33875999468E+02 -0.22254300956E+02  0.40659176450E+02  0.00000000000E+00 0. -1.
         11    1    3    3    0    0 -0.68134460287E+01  0.21899691189E+02  0.96322301792E+01  0.24875678472E+02  0.51100000000E-03 0. -1.
        -11    1    3    3    0    0  0.30849338620E+01  0.42250895814E+01  0.14195630720E+02  0.15128917036E+02  0.51100000000E-03 0.  1.
        -12    1    3    3    0    0  0.69427583617E+01  0.77512186974E+01 -0.15735599425E+01  0.10524228041E+02  0.00000000000E+00 0.  1.
</event>
<event>
 7    1  0.5456331E-013  0.5052887E+02  0.7816164E-02  0.1300439E+00
        -11   -1    0    0    0    0  0.00000000000E+00  0.00000000000E+00  0.45593999997E+02  0.45594000000E+02  0.51100000000E-03 0. -1.
         11   -1    0    0    0    0 -0.00000000000E+00 -0.00000000000E+00 -0.45593999997E+02  0.45594000000E+02  0.51100000000E-03 0.  1.
    9900012    2    1    2    0    0 -0.13288053523E+02  0.26093406257E+02 -0.28208623010E+02  0.50528872752E+02  0.30000039216E+02 0.  0.
         12    1    1    2    0    0  0.13288053523E+02 -0.26093406257E+02  0.28208623010E+02  0.40659127248E+02  0.00000000000E+00 0. -1.
         11    1    3    3    0    0 -0.15053647591E+02  0.19812826644E+02 -0.19571690309E+02  0.31657723658E+02  0.51100000000E-03 0. -1.
        -11    1    3    3    0    0 -0.51088260535E+01  0.45039108644E+01 -0.95314951297E+01  0.11714722207E+02  0.51100000000E-03 0.  1.
         12    1    3    3    0    0  0.68744201214E+01  0.17766687487E+01  0.89456242864E+00  0.71564268869E+01  0.00000000000E+00 0. -1.
</event>
<event>
 7    1  0.5456331E-013  0.5052887E+02  0.7816164E-02  0.1300439E+00
        -11   -1    0    0    0    0  0.00000000000E+00  0.00000000000E+00  0.45593999997E+02  0.45594000000E+02  0.51100000000E-03 0.  1.
         11   -1    0    0    0    0 -0.00000000000E+00 -0.00000000000E+00 -0.45593999997E+02  0.45594000000E+02  0.51100000000E-03 0. -1.
    9900012    2    1    2    0    0 -0.21722160952E+01 -0.40600776792E+02 -0.15340896079E+00  0.50528866546E+02  0.30000020353E+02 0.  0.
         12    1    1    2    0    0  0.21722160952E+01  0.40600776792E+02  0.15340896079E+00  0.40659133454E+02  0.00000000000E+00 0. -1.
         11    1    3    3    0    0 -0.10060169213E+02 -0.15392936914E+02  0.22979350856E+01  0.18531864918E+02  0.51100000000E-03 0. -1.
        -11    1    3    3    0    0  0.17664910097E+01 -0.23458648164E+02  0.28700093603E+01  0.23699485610E+02  0.51100000000E-03 0.  1.
         12    1    3    3    0    0  0.61214621079E+01 -0.17491917144E+01 -0.53213534067E+01  0.82975160182E+01  0.00000000000E+00 0. -1.
</event>
<event>
 7    1  0.5456331E-013  0.5052885E+02  0.7816164E-02  0.1300439E+00
        -11   -1    0    0    0    0  0.00000000000E+00  0.00000000000E+00  0.45593999997E+02  0.45594000000E+02  0.51100000000E-03 0. -1.
         11   -1    0    0    0    0 -0.00000000000E+00 -0.00000000000E+00 -0.45593999997E+02  0.45594000000E+02  0.51100000000E-03 0.  1.
    9900012    2    1    2    0    0 -0.29805510892E+02 -0.27618757880E+02  0.14149436268E+01  0.50528851806E+02  0.29999975550E+02 0.  0.
         12    1    1    2    0    0  0.29805510892E+02  0.27618757880E+02 -0.14149436268E+01  0.40659148194E+02  0.00000000000E+00 0. -1.
         11    1    3    3    0    0 -0.12255898550E+02 -0.16404963023E+02 -0.48986003507E+01  0.21055311603E+02  0.51100000000E-03 0.  1.
        -11    1    3    3    0    0  0.41682817329E+01  0.24242835943E+00  0.25631059981E+00  0.41831853293E+01  0.51100000000E-03 0. -1.
         12    1    3    3    0    0 -0.21717894075E+02 -0.11456223216E+02  0.60572333776E+01  0.25290354874E+02  0.00000000000E+00 0. -1.
</event>
<event>
 7    1  0.5456331E-013  0.5052886E+02  0.7816164E-02  0.1300439E+00
        -11   -1    0    0    0    0  0.00000000000E+00  0.00000000000E+00  0.45593999997E+02  0.45594000000E+02  0.51100000000E-03 0.  1.
         11   -1    0    0    0    0 -0.00000000000E+00 -0.00000000000E+00 -0.45593999997E+02  0.45594000000E+02  0.51100000000E-03 0. -1.
    9900012    2    1    2    0    0 -0.22907850781E+02  0.32844003495E+02 -0.70474890891E+01  0.50528864551E+02  0.30000014288E+02 0.  0.
         12    1    1    2    0    0  0.22907850781E+02 -0.32844003495E+02  0.70474890891E+01  0.40659135449E+02  0.00000000000E+00 0. -1.
         11    1    3    3    0    0  0.30697533247E+01  0.81371996533E+01 -0.14882576979E+01  0.88233958830E+01  0.51100000000E-03 0. -1.
        -11    1    3    3    0    0 -0.16943755285E+02  0.93913384054E+01  0.62550330121E+01  0.20357149075E+02  0.51100000000E-03 0.  1.
         12    1    3    3    0    0 -0.90338488212E+01  0.15315465437E+02 -0.11814264403E+02  0.21348319593E+02  0.00000000000E+00 0. -1.
</event>
<event>
 7    1  0.5456331E-013  0.5052887E+02  0.7816164E-02  0.1300439E+00
        -11   -1    0    0    0    0  0.00000000000E+00  0.00000000000E+00  0.45593999997E+02  0.45594000000E+02  0.51100000000E-03 0.  1.
         11   -1    0    0    0    0 -0.00000000000E+00 -0.00000000000E+00 -0.45593999997E+02  0.45594000000E+02  0.51100000000E-03 0. -1.
    9900012    2    1    2    0    0  0.27840475060E+02 -0.11172516915E+02  0.27445364469E+02  0.50528865520E+02  0.30000017236E+02 0.  0.
         12    1    1    2    0    0 -0.27840475060E+02  0.11172516915E+02 -0.27445364469E+02  0.40659134480E+02  0.00000000000E+00 0. -1.
         11    1    3    3    0    0  0.47191965615E+00 -0.12249698442E+02  0.82718157722E+01  0.14788534630E+02  0.51100000000E-03 0. -1.
        -11    1    3    3    0    0  0.99605615600E+00 -0.35730725409E+00  0.62455358797E+01  0.63345493151E+01  0.51100000000E-03 0.  1.
         12    1    3    3    0    0  0.26372499248E+02  0.14344887808E+01  0.12928012817E+02  0.29405781575E+02  0.00000000000E+00 0. -1.
</event>
<event>
 7    1  0.5456331E-013  0.5052886E+02  0.7816164E-02  0.1300439E+00
        -11   -1    0    0    0    0  0.00000000000E+00  0.00000000000E+00  0.45593999997E+02  0.45594000000E+02  0.51100000000E-03 0.  1.
         11   -1    0    0    0    0 -0.00000000000E+00 -0.00000000000E+00 -0.45593999997E+02  0.45594000000E+02  0.51100000000E-03 0. -1.
    9900012    2    1    2    0    0 -0.16305724776E+02 -0.72917475339E+01  0.36525595934E+02  0.50528863254E+02  0.30000010348E+02 0.  0.
         12    1    1    2    0    0  0.16305724776E+02  0.72917475339E+01 -0.36525595934E+02  0.40659136746E+02  0.00000000000E+00 0. -1.
         11    1    3    3    0    0 -0.15778440904E+02 -0.61259861407E+01  0.11133506255E+02  0.20259364881E+02  0.51100000000E-03 0. -1.
        -11    1    3    3    0    0 -0.70572937651E+01 -0.26204366183E+01  0.56149760175E+01  0.93914875976E+01  0.51100000000E-03 0.  1.
        -12    1    3    3    0    0  0.65300098930E+01  0.14546752251E+01  0.19777113661E+02  0.20878010776E+02  0.00000000000E+00 0.  1.
</event>
<event>
 7    1  0.5456331E-013  0.5052885E+02  0.7816164E-02  0.1300439E+00
        -11   -1    0    0    0    0  0.00000000000E+00  0.00000000000E+00  0.45593999997E+02  0.45594000000E+02  0.51100000000E-03 0.  1.
         11   -1    0    0    0    0 -0.00000000000E+00 -0.00000000000E+00 -0.45593999997E+02  0.45594000000E+02  0.51100000000E-03 0. -1.
    9900012    2    1    2    0    0 -0.11978233560E+02 -0.12917395859E+02  0.36644632130E+02  0.50528852703E+02  0.29999978275E+02 0.  0.
         12    1    1    2    0    0  0.11978233560E+02  0.12917395859E+02 -0.36644632130E+02  0.40659147297E+02  0.00000000000E+00 0. -1.
         11    1    3    3    0    0  0.17130670898E+01  0.38845926553E+01 -0.27785531081E+00  0.42546283958E+01  0.51100000000E-03 0. -1.
        -11    1    3    3    0    0 -0.11124099070E+01  0.23842489273E+01  0.12468574454E+02  0.12743133363E+02  0.51100000000E-03 0.  1.
        -12    1    3    3    0    0 -0.12578890743E+02 -0.19186237442E+02  0.24453912987E+02  0.33531090944E+02  0.00000000000E+00 0.  1.
</event>
<event>
 7    1  0.5456331E-013  0.5052886E+02  0.7816164E-02  0.1300439E+00
        -11   -1    0    0    0    0  0.00000000000E+00  0.00000000000E+00  0.45593999997E+02  0.45594000000E+02  0.51100000000E-03 0.  1.
         11   -1    0    0    0    0 -0.00000000000E+00 -0.00000000000E+00 -0.45593999997E+02  0.45594000000E+02  0.51100000000E-03 0. -1.
    9900012    2    1    2    0    0  0.30971903532E+02  0.19138024985E+01  0.26272494596E+02  0.50528863011E+02  0.30000009607E+02 0.  0.
         12    1    1    2    0    0 -0.30971903532E+02 -0.19138024985E+01 -0.26272494596E+02  0.40659136989E+02  0.00000000000E+00 0. -1.
         11    1    3    3    0    0  0.42411715807E+01 -0.52007067838E+01  0.74838778703E+01  0.10052030425E+02  0.51100000000E-03 0. -1.
        -11    1    3    3    0    0  0.20730571162E+02 -0.53214523230E+01  0.76239747525E+01  0.22720022598E+02  0.51100000000E-03 0.  1.
        -12    1    3    3    0    0  0.60001607891E+01  0.12435961605E+02  0.11164641973E+02  0.17756809988E+02  0.00000000000E+00 0.  1.
</event>
<event>
 7    1  0.5456331E-013  0.5052885E+02  0.7816164E-02  0.1300439E+00
        -11   -1    0    0    0    0  0.00000000000E+00  0.00000000000E+00  0.45593999997E+02  0.45594000000E+02  0.51100000000E-03 0.  1.
         11   -1    0    0    0    0 -0.00000000000E+00 -0.00000000000E+00 -0.45593999997E+02  0.45594000000E+02  0.51100000000E-03 0. -1.
    9900012    2    1    2    0    0  0.36218471618E+02  0.46771072617E+01  0.17874933837E+02  0.50528852464E+02  0.29999977550E+02 0.  0.
         12    1    1    2    0    0 -0.36218471618E+02 -0.46771072617E+01 -0.17874933837E+02  0.40659147536E+02  0.00000000000E+00 0. -1.
         11    1    3    3    0    0  0.13172345144E+02  0.94930030348E+01 -0.37138374931E+01  0.16655941054E+02  0.51100000000E-03 0. -1.
        -11    1    3    3    0    0  0.42625161177E+01 -0.10356784580E+01 -0.74196639709E+00  0.44488411882E+01  0.51100000000E-03 0.  1.
        -12    1    3    3    0    0  0.18783610356E+02 -0.37802173151E+01  0.22330737728E+02  0.29424070222E+02  0.00000000000E+00 0.  1.
</event>
<event>
 7    1  0.5456331E-013  0.5052885E+02  0.7816164E-02  0.1300439E+00
        -11   -1    0    0    0    0  0.00000000000E+00  0.00000000000E+00  0.45593999997E+02  0.45594000000E+02  0.51100000000E-03 0.  1.
         11   -1    0    0    0    0 -0.00000000000E+00 -0.00000000000E+00 -0.45593999997E+02  0.45594000000E+02  0.51100000000E-03 0. -1.
    9900012    2    1    2    0    0  0.11954243337E+02 -0.17803868410E+02  0.34543950386E+02  0.50528853767E+02  0.29999981511E+02 0.  0.
         12    1    1    2    0    0 -0.11954243337E+02  0.17803868410E+02 -0.34543950386E+02  0.40659146233E+02  0.00000000000E+00 0. -1.
         11    1    3    3    0    0  0.87221781405E+01 -0.10945879780E+02  0.20276955296E+02  0.24638254646E+02  0.51100000000E-03 0. -1.
        -11    1    3    3    0    0  0.78216390139E+01 -0.11351383587E+02  0.13712236009E+02  0.19443697252E+02  0.51100000000E-03 0.  1.
        -12    1    3    3    0    0 -0.45895738177E+01  0.44933949575E+01  0.55475908176E+00  0.64469018692E+01  0.00000000000E+00 0.  1.
</event>
<event>
 7    1  0.5456331E-013  0.5052893E+02  0.7816164E-02  0.1300439E+00
        -11   -1    0    0    0    0  0.00000000000E+00  0.00000000000E+00  0.45593999997E+02  0.45594000000E+02  0.51100000000E-03 0. -1.
         11   -1    0    0    0    0 -0.00000000000E+00 -0.00000000000E+00 -0.45593999997E+02  0.45594000000E+02  0.51100000000E-03 0.  1.
    9900012    2    1    2    0    0  0.32595075364E+02  0.22611653461E+02 -0.89125721412E+01  0.50528932716E+02  0.30000221483E+02 0.  0.
         12    1    1    2    0    0 -0.32595075364E+02 -0.22611653461E+02  0.89125721412E+01  0.40659067284E+02  0.00000000000E+00 0. -1.
         11    1    3    3    0    0  0.58160026124E+01 -0.16331346978E+01  0.47929068984E+01  0.77113534562E+01  0.51100000000E-03 0. -1.
        -11    1    3    3    0    0  0.21632336377E+02  0.21027940744E+02 -0.18228865973E+02  0.35248032910E+02  0.51100000000E-03 0.  1.
         12    1    3    3    0    0  0.51467363742E+01  0.32168474152E+01  0.45233869334E+01  0.75695463502E+01  0.00000000000E+00 0. -1.
</event>
<event>
 7    1  0.5456331E-013  0.5052886E+02  0.7816164E-02  0.1300439E+00
        -11   -1    0    0    0    0  0.00000000000E+00  0.00000000000E+00  0.45593999997E+02  0.45594000000E+02  0.51100000000E-03 0.  1.
         11   -1    0    0    0    0 -0.00000000000E+00 -0.00000000000E+00 -0.45593999997E+02  0.45594000000E+02  0.51100000000E-03 0. -1.
    9900012    2    1    2    0    0 -0.24521494133E+02 -0.30065326149E+02 -0.12162990513E+02  0.50528857742E+02  0.29999993591E+02 0.  0.
         12    1    1    2    0    0  0.24521494133E+02  0.30065326149E+02  0.12162990513E+02  0.40659142258E+02  0.00000000000E+00 0. -1.
         11    1    3    3    0    0  0.11639010684E+01 -0.17273484085E+02  0.36676869433E+00  0.17316536538E+02  0.51100000000E-03 0. -1.
        -11    1    3    3    0    0 -0.86182716740E+01 -0.10285312655E+02 -0.42326930794E+01  0.14070463888E+02  0.51100000000E-03 0.  1.
         12    1    3    3    0    0 -0.17067123527E+02 -0.25065294098E+01 -0.82970661284E+01  0.19141857316E+02  0.00000000000E+00 0. -1.
</event>
<event>
 7    1  0.5456331E-013  0.5052888E+02  0.7816164E-02  0.1300439E+00
        -11   -1    0    0    0    0  0.00000000000E+00  0.00000000000E+00  0.45593999997E+02  0.45594000000E+02  0.51100000000E-03 0.  1.
         11   -1    0    0    0    0 -0.00000000000E+00 -0.00000000000E+00 -0.45593999997E+02  0.45594000000E+02  0.51100000000E-03 0. -1.
    9900012    2    1    2    0    0  0.40352708526E+02 -0.21621236951E+01 -0.44886837318E+01  0.50528878688E+02  0.30000057259E+02 0.  0.
         12    1    1    2    0    0 -0.40352708526E+02  0.21621236951E+01  0.44886837318E+01  0.40659121312E+02  0.00000000000E+00 0. -1.
         11    1    3    3    0    0  0.47866794619E+01  0.37051490124E+01  0.87900948581E+01  0.10672684637E+02  0.51100000000E-03 0.  1.
        -11    1    3    3    0    0  0.81101961974E+00 -0.22680371062E+01  0.17411572829E+00  0.24149661874E+01  0.51100000000E-03 0. -1.
        -12    1    3    3    0    0  0.34755009444E+02 -0.35992356013E+01 -0.13452894318E+02  0.37441227864E+02  0.00000000000E+00 0.  1.
</event>
<event>
 7    1  0.5456331E-013  0.5052885E+02  0.7816164E-02  0.1300439E+00
        -11   -1    0    0    0    0  0.00000000000E+00  0.00000000000E+00  0.45593999997E+02  0.45594000000E+02  0.51100000000E-03 0. -1.
         11   -1    0    0    0    0 -0.00000000000E+00 -0.00000000000E+00 -0.45593999997E+02  0.45594000000E+02  0.51100000000E-03 0.  1.
    9900012    2    1    2    0    0  0.38308803645E+02 -0.52029006277E+01 -0.12590955667E+02  0.50528846341E+02  0.29999958938E+02 0.  0.
         12    1    1    2    0    0 -0.38308803645E+02  0.52029006277E+01  0.12590955667E+02  0.40659153659E+02  0.00000000000E+00 0. -1.
         11    1    3    3    0    0  0.85809150326E+01  0.26529521264E+01  0.80698607164E+01  0.12074473489E+02  0.51100000000E-03 0. -1.
        -11    1    3    3    0    0  0.10273515594E+02  0.21092795351E+01 -0.54031972032E+01  0.11797827050E+02  0.51100000000E-03 0.  1.
        -12    1    3    3    0    0  0.19454373019E+02 -0.99651322892E+01 -0.15257619180E+02  0.26656545803E+02  0.00000000000E+00 0.  1.
</event>
<event>
 7    1  0.5456331E-013  0.5052887E+02  0.7816164E-02  0.1300439E+00
        -11   -1    0    0    0    0  0.00000000000E+00  0.00000000000E+00  0.45593999997E+02  0.45594000000E+02  0.51100000000E-03 0. -1.
         11   -1    0    0    0    0 -0.00000000000E+00 -0.00000000000E+00 -0.45593999997E+02  0.45594000000E+02  0.51100000000E-03 0.  1.
    9900012    2    1    2    0    0 -0.33615573239E+02 -0.21780514812E+02 -0.69833312496E+01  0.50528874271E+02  0.30000043835E+02 0.  0.
         12    1    1    2    0    0  0.33615573239E+02  0.21780514812E+02  0.69833312496E+01  0.40659125729E+02  0.00000000000E+00 0. -1.
         11    1    3    3    0    0 -0.53314912690E+01 -0.55864381366E+01 -0.68960760923E+01  0.10353209934E+02  0.51100000000E-03 0. -1.
        -11    1    3    3    0    0 -0.26397382587E+02 -0.17850630232E+02 -0.71682873882E+01  0.32662687450E+02  0.51100000000E-03 0.  1.
         12    1    3    3    0    0 -0.18866993829E+01  0.16565535562E+01  0.70810322309E+01  0.75129768868E+01  0.00000000000E+00 0. -1.
</event>
<event>
 7    1  0.5456331E-013  0.5052886E+02  0.7816164E-02  0.1300439E+00
        -11   -1    0    0    0    0  0.00000000000E+00  0.00000000000E+00  0.45593999997E+02  0.45594000000E+02  0.51100000000E-03 0. -1.
         11   -1    0    0    0    0 -0.00000000000E+00 -0.00000000000E+00 -0.45593999997E+02  0.45594000000E+02  0.51100000000E-03 0.  1.
    9900012    2    1    2    0    0  0.18488920105E+02 -0.30135680640E+02 -0.20079002745E+02  0.50528858770E+02  0.29999996718E+02 0.  0.
         12    1    1    2    0    0 -0.18488920105E+02  0.30135680640E+02  0.20079002745E+02  0.40659141230E+02  0.00000000000E+00 0. -1.
         11    1    3    3    0    0  0.97195334741E+01 -0.20723796082E+01 -0.12824924264E+02  0.16224757959E+02  0.51100000000E-03 0. -1.
        -11    1    3    3    0    0  0.46741994929E+01 -0.22070302240E+01 -0.62441250048E+01  0.81060607354E+01  0.51100000000E-03 0.  1.
         12    1    3    3    0    0  0.40951871380E+01 -0.25856270808E+02 -0.10099534768E+01  0.26198040076E+02  0.00000000000E+00 0. -1.
</event>
<event>
 7    1  0.5456331E-013  0.5052886E+02  0.7816164E-02  0.1300439E+00
        -11   -1    0    0    0    0  0.00000000000E+00  0.00000000000E+00  0.45593999997E+02  0.45594000000E+02  0.51100000000E-03 0. -1.
         11   -1    0    0    0    0 -0.00000000000E+00 -0.00000000000E+00 -0.45593999997E+02  0.45594000000E+02  0.51100000000E-03 0.  1.
    9900012    2    1    2    0    0  0.26349631304E+02 -0.15025157276E+02 -0.27075954438E+02  0.50528859210E+02  0.29999998055E+02 0.  0.
         12    1    1    2    0    0 -0.26349631304E+02  0.15025157276E+02  0.27075954438E+02  0.40659140790E+02  0.00000000000E+00 0. -1.
         11    1    3    3    0    0  0.79709681535E+01 -0.51072665506E+01  0.40756050192E+01  0.10306845369E+02  0.51100000000E-03 0. -1.
        -11    1    3    3    0    0  0.34212159930E+01  0.36761164636E+01 -0.84229845706E+01  0.98063867180E+01  0.51100000000E-03 0.  1.
        -12    1    3    3    0    0  0.14957447158E+02 -0.13594007189E+02 -0.22728574886E+02  0.30415627123E+02  0.00000000000E+00 0.  1.
</event>
<event>
 7    1  0.5456331E-013  0.5052886E+02  0.7816164E-02  0.1300439E+00
        -11   -1    0    0    0    0  0.00000000000E+00  0.00000000000E+00  0.45593999997E+02  0.45594000000E+02  0.51100000000E-03 0. -1.
         11   -1    0    0    0    0 -0.00000000000E+00 -0.00000000000E+00 -0.45593999997E+02  0.45594000000E+02  0.51100000000E-03 0.  1.
    9900012    2    1    2    0    0 -0.16429225587E+02 -0.11793517682E+02 -0.35272643210E+02  0.50528857464E+02  0.29999992749E+02 0.  0.
         12    1    1    2    0    0  0.16429225587E+02  0.11793517682E+02  0.35272643210E+02  0.40659142536E+02  0.00000000000E+00 0. -1.
         11    1    3    3    0    0 -0.60680670236E+01  0.25143670787E+01  0.16167908096E+01  0.67644284305E+01  0.51100000000E-03 0. -1.
        -11    1    3    3    0    0 -0.13920503034E+02 -0.10731117060E+02 -0.22732308555E+02  0.28734911355E+02  0.51100000000E-03 0.  1.
        -12    1    3    3    0    0  0.35593444705E+01 -0.35767677003E+01 -0.14157125465E+02  0.15029517679E+02  0.00000000000E+00 0.  1.
</event>
<event>
 7    1  0.5456331E-013  0.5052886E+02  0.7816164E-02  0.1300439E+00
        -11   -1    0    0    0    0  0.00000000000E+00  0.00000000000E+00  0.45593999997E+02  0.45594000000E+02  0.51100000000E-03 0.  1.
         11   -1    0    0    0    0 -0.00000000000E+00 -0.00000000000E+00 -0.45593999997E+02  0.45594000000E+02  0.51100000000E-03 0. -1.
    9900012    2    1    2    0    0 -0.18346172530E+02 -0.11379049146E+02  0.34454332142E+02  0.50528858232E+02  0.29999995081E+02 0.  0.
         12    1    1    2    0    0  0.18346172530E+02  0.11379049146E+02 -0.34454332142E+02  0.40659141768E+02  0.00000000000E+00 0. -1.
         11    1    3    3    0    0  0.35115736409E+01  0.58404205012E+01  0.90450015672E+01  0.11324915659E+02  0.51100000000E-03 0. -1.
        -11    1    3    3    0    0 -0.15166773526E+01  0.14512139192E+01  0.29033433175E+01  0.35826993610E+01  0.51100000000E-03 0.  1.
        -12    1    3    3    0    0 -0.20341068819E+02 -0.18670683567E+02  0.22505987257E+02  0.35621243212E+02  0.00000000000E+00 0.  1.
</event>
<event>
 7    1  0.5456331E-013  0.5052888E+02  0.7816164E-02  0.1300439E+00
        -11   -1    0    0    0    0  0.00000000000E+00  0.00000000000E+00  0.45593999997E+02  0.45594000000E+02  0.51100000000E-03 0.  1.
         11   -1    0    0    0    0 -0.00000000000E+00 -0.00000000000E+00 -0.45593999997E+02  0.45594000000E+02  0.51100000000E-03 0. -1.
    9900012    2    1    2    0    0  0.77291851322E+01 -0.38907976264E+02 -0.89215108038E+01  0.50528877102E+02  0.30000052441E+02 0.  0.
         12    1    1    2    0    0 -0.77291851322E+01  0.38907976264E+02  0.89215108038E+01  0.40659122898E+02  0.00000000000E+00 0. -1.
         11    1    3    3    0    0 -0.67380808928E+00 -0.27403999435E+01  0.23355445835E+01  0.36631377198E+01  0.51100000000E-03 0. -1.
        -11    1    3    3    0    0 -0.71145474058E+00  0.35299424471E+01  0.18890773868E+01  0.40663589564E+01  0.51100000000E-03 0.  1.
         12    1    3    3    0    0  0.91144479621E+01 -0.39697518768E+02 -0.13146132774E+02  0.42799380426E+02  0.00000000000E+00 0. -1.
</event>
<event>
 7    1  0.5456331E-013  0.5052887E+02  0.7816164E-02  0.1300439E+00
        -11   -1    0    0    0    0  0.00000000000E+00  0.00000000000E+00  0.45593999997E+02  0.45594000000E+02  0.51100000000E-03 0.  1.
         11   -1    0    0    0    0 -0.00000000000E+00 -0.00000000000E+00 -0.45593999997E+02  0.45594000000E+02  0.51100000000E-03 0. -1.
    9900012    2    1    2    0    0  0.37276455687E+02  0.14141701418E+02  0.79776567950E+01  0.50528869716E+02  0.30000029987E+02 0.  0.
         12    1    1    2    0    0 -0.37276455687E+02 -0.14141701418E+02 -0.79776567950E+01  0.40659130284E+02  0.00000000000E+00 0. -1.
         11    1    3    3    0    0  0.58422065648E+01  0.11672811922E+02  0.21104684454E+01  0.13222707478E+02  0.51100000000E-03 0. -1.
        -11    1    3    3    0    0 -0.47300519056E+00  0.23894164977E+01 -0.33059489933E+01  0.41063784673E+01  0.51100000000E-03 0.  1.
        -12    1    3    3    0    0  0.31907254312E+02  0.79472998159E-01  0.91731373429E+01  0.33199783771E+02  0.00000000000E+00 0.  1.
</event>
<event>
 7    1  0.5456331E-013  0.5052887E+02  0.7816164E-02  0.1300439E+00
        -11   -1    0    0    0    0  0.00000000000E+00  0.00000000000E+00  0.45593999997E+02  0.45594000000E+02  0.51100000000E-03 0. -1.
         11   -1    0    0    0    0 -0.00000000000E+00 -0.00000000000E+00 -0.45593999997E+02  0.45594000000E+02  0.51100000000E-03 0.  1.
    9900012    2    1    2    0    0  0.15273060141E+01 -0.17116803332E+02 -0.36848979188E+02  0.50528869571E+02  0.30000029549E+02 0.  0.
         12    1    1    2    0    0 -0.15273060141E+01  0.17116803332E+02  0.36848979188E+02  0.40659130429E+02  0.00000000000E+00 0. -1.
         11    1    3    3    0    0 -0.72999420143E+01  0.76421397343E-02 -0.17139992330E+01  0.74984668730E+01  0.51100000000E-03 0. -1.
        -11    1    3    3    0    0 -0.42630779275E+01 -0.37545392405E+01 -0.11992719514E+02  0.13270106251E+02  0.51100000000E-03 0.  1.
         12    1    3    3    0    0  0.13090325956E+02 -0.13369906231E+02 -0.23142260442E+02  0.29760296447E+02  0.00000000000E+00 0. -1.
</event>
<event>
 7    1  0.5456331E-013  0.5052886E+02  0.7816164E-02  0.1300439E+00
        -11   -1    0    0    0    0  0.00000000000E+00  0.00000000000E+00  0.45593999997E+02  0.45594000000E+02  0.51100000000E-03 0. -1.
         11   -1    0    0    0    0 -0.00000000000E+00 -0.00000000000E+00 -0.45593999997E+02  0.45594000000E+02  0.51100000000E-03 0.  1.
    9900012    2    1    2    0    0  0.11972038314E+02 -0.15894357285E+01 -0.38824088082E+02  0.50528858067E+02  0.29999994580E+02 0.  0.
         12    1    1    2    0    0 -0.11972038314E+02  0.15894357285E+01  0.38824088082E+02  0.40659141933E+02  0.00000000000E+00 0. -1.
         11    1    3    3    0    0  0.22378814596E+00  0.98645070925E+01 -0.45762059857E+01  0.10876591506E+02  0.51100000000E-03 0. -1.
        -11    1    3    3    0    0  0.12136359249E+02 -0.60050573677E+01 -0.18093519967E+02  0.22599278636E+02  0.51100000000E-03 0.  1.
        -12    1    3    3    0    0 -0.38810908104E+00 -0.54488854533E+01 -0.16154362129E+02  0.17052987924E+02  0.00000000000E+00 0.  1.
</event>
<event>
 7    1  0.5456331E-013  0.5052886E+02  0.7816164E-02  0.1300439E+00
        -11   -1    0    0    0    0  0.00000000000E+00  0.00000000000E+00  0.45593999997E+02  0.45594000000E+02  0.51100000000E-03 0. -1.
         11   -1    0    0    0    0 -0.00000000000E+00 -0.00000000000E+00 -0.45593999997E+02  0.45594000000E+02  0.51100000000E-03 0.  1.
    9900012    2    1    2    0    0 -0.64855205847E-01  0.20329700582E+02 -0.35211714645E+02  0.50528858590E+02  0.29999996171E+02 0.  0.
         12    1    1    2    0    0  0.64855205847E-01 -0.20329700582E+02  0.35211714645E+02  0.40659141410E+02  0.00000000000E+00 0. -1.
         11    1    3    3    0    0 -0.51541749446E+01  0.26216611942E+02 -0.27025333118E+02  0.38003222120E+02  0.51100000000E-03 0. -1.
        -11    1    3    3    0    0 -0.58202519094E+00 -0.37449667582E+00 -0.29742682043E+01  0.30537309468E+01  0.51100000000E-03 0.  1.
        -12    1    3    3    0    0  0.56713449297E+01 -0.55124146840E+01 -0.52121133219E+01  0.94719055232E+01  0.00000000000E+00 0.  1.
</event>
<event>
 7    1  0.5456331E-013  0.5052887E+02  0.7816164E-02  0.1300439E+00
        -11   -1    0    0    0    0  0.00000000000E+00  0.00000000000E+00  0.45593999997E+02  0.45594000000E+02  0.51100000000E-03 0. -1.
         11   -1    0    0    0    0 -0.00000000000E+00 -0.00000000000E+00 -0.45593999997E+02  0.45594000000E+02  0.51100000000E-03 0.  1.
    9900012    2    1    2    0    0  0.20833435603E+02 -0.33454460462E+01 -0.34755445386E+02  0.50528867787E+02  0.30000024126E+02 0.  0.
         12    1    1    2    0    0 -0.20833435603E+02  0.33454460462E+01  0.34755445386E+02  0.40659132213E+02  0.00000000000E+00 0. -1.
         11    1    3    3    0    0 -0.56332530098E+00 -0.24586659631E+01  0.15523070645E+01  0.29617615022E+01  0.51100000000E-03 0. -1.
        -11    1    3    3    0    0  0.97113479362E+01 -0.31339725079E+01 -0.93592690446E+00  0.10247342185E+02  0.51100000000E-03 0.  1.
        -12    1    3    3    0    0  0.11685412968E+02  0.22471924248E+01 -0.35371825546E+02  0.37319764100E+02  0.00000000000E+00 0.  1.
</event>
<event>
 7    1  0.5456331E-013  0.5052882E+02  0.7816164E-02  0.1300439E+00
        -11   -1    0    0    0    0  0.00000000000E+00  0.00000000000E+00  0.45593999997E+02  0.45594000000E+02  0.51100000000E-03 0. -1.
         11   -1    0    0    0    0 -0.00000000000E+00 -0.00000000000E+00 -0.45593999997E+02  0.45594000000E+02  0.51100000000E-03 0.  1.
    9900012    2    1    2    0    0 -0.15456133186E+02 -0.36038646882E+02 -0.10746742245E+02  0.50528824024E+02  0.29999891103E+02 0.  0.
         12    1    1    2    0    0  0.15456133186E+02  0.36038646882E+02  0.10746742245E+02  0.40659175976E+02  0.00000000000E+00 0. -1.
         11    1    3    3    0    0 -0.44649891057E+01 -0.19619332512E+02 -0.92054106278E+01  0.22126769331E+02  0.51100000000E-03 0. -1.
        -11    1    3    3    0    0 -0.14050988368E+01 -0.63673487638E+01 -0.10147512820E+02  0.12061900751E+02  0.51100000000E-03 0.  1.
         12    1    3    3    0    0 -0.95860452432E+01 -0.10051965606E+02  0.86061812031E+01  0.16340153942E+02  0.00000000000E+00 0. -1.
</event>
<event>
 7    1  0.5456331E-013  0.5052885E+02  0.7816164E-02  0.1300439E+00
        -11   -1    0    0    0    0  0.00000000000E+00  0.00000000000E+00  0.45593999997E+02  0.45594000000E+02  0.51100000000E-03 0.  1.
         11   -1    0    0    0    0 -0.00000000000E+00 -0.00000000000E+00 -0.45593999997E+02  0.45594000000E+02  0.51100000000E-03 0. -1.
    9900012    2    1    2    0    0  0.18005049887E+02  0.31377732008E+02  0.18558624814E+02  0.50528850447E+02  0.29999971417E+02 0.  0.
         12    1    1    2    0    0 -0.18005049887E+02 -0.31377732008E+02 -0.18558624814E+02  0.40659149553E+02  0.00000000000E+00 0. -1.
         11    1    3    3    0    0  0.14626209783E+02  0.25685698670E+02  0.33599833179E+01  0.29748455707E+02  0.51100000000E-03 0. -1.
        -11    1    3    3    0    0 -0.17051208363E+01  0.80057534918E+01  0.65435114883E+01  0.10479363955E+02  0.51100000000E-03 0.  1.
         12    1    3    3    0    0  0.50839609399E+01 -0.23137201531E+01  0.86551300077E+01  0.10301030785E+02  0.00000000000E+00 0. -1.
</event>
<event>
 7    1  0.5456331E-013  0.5052886E+02  0.7816164E-02  0.1300439E+00
        -11   -1    0    0    0    0  0.00000000000E+00  0.00000000000E+00  0.45593999997E+02  0.45594000000E+02  0.51100000000E-03 0. -1.
         11   -1    0    0    0    0 -0.00000000000E+00 -0.00000000000E+00 -0.45593999997E+02  0.45594000000E+02  0.51100000000E-03 0.  1.
    9900012    2    1    2    0    0  0.30832783952E+02 -0.76542778718E+01 -0.25375522415E+02  0.50528859899E+02  0.30000000148E+02 0.  0.
         12    1    1    2    0    0 -0.30832783952E+02  0.76542778718E+01  0.25375522415E+02  0.40659140101E+02  0.00000000000E+00 0. -1.
         11    1    3    3    0    0  0.14091439083E+02 -0.38765748852E+01 -0.64795318379E+01  0.15986895301E+02  0.51100000000E-03 0. -1.
        -11    1    3    3    0    0  0.50748994448E+01  0.61607371970E+01 -0.17399985789E+02  0.19143374648E+02  0.51100000000E-03 0.  1.
         12    1    3    3    0    0  0.11666445424E+02 -0.99384401836E+01 -0.14960047880E+01  0.15398589949E+02  0.00000000000E+00 0. -1.
</event>
<event>
 7    1  0.5456331E-013  0.5052885E+02  0.7816164E-02  0.1300439E+00
        -11   -1    0    0    0    0  0.00000000000E+00  0.00000000000E+00  0.45593999997E+02  0.45594000000E+02  0.51100000000E-03 0. -1.
         11   -1    0    0    0    0 -0.00000000000E+00 -0.00000000000E+00 -0.45593999997E+02  0.45594000000E+02  0.51100000000E-03 0.  1.
    9900012    2    1    2    0    0 -0.21309439878E+02 -0.31665439976E+02 -0.14013342911E+02  0.50528854703E+02  0.29999984355E+02 0.  0.
         12    1    1    2    0    0  0.21309439878E+02  0.31665439976E+02  0.14013342911E+02  0.40659145297E+02  0.00000000000E+00 0. -1.
         11    1    3    3    0    0 -0.12606833921E+02 -0.18886244994E+02 -0.15219006524E+02  0.27335703235E+02  0.51100000000E-03 0. -1.
        -11    1    3    3    0    0 -0.35032285329E+01 -0.32768142230E+01 -0.77661960813E+01  0.91281938761E+01  0.51100000000E-03 0.  1.
         12    1    3    3    0    0 -0.51993774240E+01 -0.95023807589E+01  0.89718596951E+01  0.14064957592E+02  0.00000000000E+00 0. -1.
</event>
<event>
 7    1  0.5456331E-013  0.5052888E+02  0.7816164E-02  0.1300439E+00
        -11   -1    0    0    0    0  0.00000000000E+00  0.00000000000E+00  0.45593999997E+02  0.45594000000E+02  0.51100000000E-03 0.  1.
         11   -1    0    0    0    0 -0.00000000000E+00 -0.00000000000E+00 -0.45593999997E+02  0.45594000000E+02  0.51100000000E-03 0. -1.
    9900012    2    1    2    0    0  0.40423818234E+02 -0.41267301236E+01  0.14314415862E+01  0.50528880394E+02  0.30000062447E+02 0.  0.
         12    1    1    2    0    0 -0.40423818234E+02  0.41267301236E+01 -0.14314415862E+01  0.40659119606E+02  0.00000000000E+00 0. -1.
         11    1    3    3    0    0  0.24112773068E+02  0.74372301266E+01 -0.72728602238E+01  0.26260858955E+02  0.51100000000E-03 0. -1.
        -11    1    3    3    0    0  0.63223632746E+01  0.11768898237E+01  0.18915496452E+01  0.67033802931E+01  0.51100000000E-03 0.  1.
        -12    1    3    3    0    0  0.99886818914E+01 -0.12740850074E+02  0.68127521649E+01  0.17564641146E+02  0.00000000000E+00 0.  1.
</event>
<event>
 7    1  0.5456331E-013  0.5052886E+02  0.7816164E-02  0.1300439E+00
        -11   -1    0    0    0    0  0.00000000000E+00  0.00000000000E+00  0.45593999997E+02  0.45594000000E+02  0.51100000000E-03 0. -1.
         11   -1    0    0    0    0 -0.00000000000E+00 -0.00000000000E+00 -0.45593999997E+02  0.45594000000E+02  0.51100000000E-03 0.  1.
    9900012    2    1    2    0    0  0.67387178104E+01 -0.25616422420E+02 -0.30847272018E+02  0.50528860729E+02  0.30000002672E+02 0.  0.
         12    1    1    2    0    0 -0.67387178104E+01  0.25616422420E+02  0.30847272018E+02  0.40659139271E+02  0.00000000000E+00 0. -1.
         11    1    3    3    0    0 -0.51827760428E+00 -0.82997106155E+00  0.25423637025E+00  0.10109896296E+01  0.51100000000E-03 0. -1.
        -11    1    3    3    0    0  0.15967929785E+02 -0.15981303493E+02 -0.29305281392E+02  0.37002383176E+02  0.51100000000E-03 0.  1.
        -12    1    3    3    0    0 -0.87109343706E+01 -0.88051478653E+01 -0.17962269959E+01  0.12515487923E+02  0.00000000000E+00 0.  1.
</event>
<event>
 7    1  0.5456331E-013  0.5052887E+02  0.7816164E-02  0.1300439E+00
        -11   -1    0    0    0    0  0.00000000000E+00  0.00000000000E+00  0.45593999997E+02  0.45594000000E+02  0.51100000000E-03 0. -1.
         11   -1    0    0    0    0 -0.00000000000E+00 -0.00000000000E+00 -0.45593999997E+02  0.45594000000E+02  0.51100000000E-03 0.  1.
    9900012    2    1    2    0    0  0.38911185632E+02 -0.27154151051E+00 -0.11790268856E+02  0.50528873819E+02  0.30000042461E+02 0.  0.
         12    1    1    2    0    0 -0.38911185632E+02  0.27154151051E+00  0.11790268856E+02  0.40659126181E+02  0.00000000000E+00 0. -1.
         11    1    3    3    0    0  0.96700934282E+01 -0.25574654628E+01 -0.11815637748E+01  0.10072111483E+02  0.51100000000E-03 0. -1.
        -11    1    3    3    0    0  0.30575987177E+02  0.83240885452E+01 -0.12384481095E+02  0.34022886624E+02  0.51100000000E-03 0.  1.
        -12    1    3    3    0    0 -0.13348949735E+01 -0.60381645929E+01  0.17757760130E+01  0.64338757130E+01  0.00000000000E+00 0.  1.
</event>
<event>
 7    1  0.5456331E-013  0.5052886E+02  0.7816164E-02  0.1300439E+00
        -11   -1    0    0    0    0  0.00000000000E+00  0.00000000000E+00  0.45593999997E+02  0.45594000000E+02  0.51100000000E-03 0.  1.
         11   -1    0    0    0    0 -0.00000000000E+00 -0.00000000000E+00 -0.45593999997E+02  0.45594000000E+02  0.51100000000E-03 0. -1.
    9900012    2    1    2    0    0 -0.69444947395E+01 -0.70363539922E+01  0.39438933498E+02  0.50528858836E+02  0.29999996919E+02 0.  0.
         12    1    1    2    0    0  0.69444947395E+01  0.70363539922E+01 -0.39438933498E+02  0.40659141164E+02  0.00000000000E+00 0. -1.
         11    1    3    3    0    0  0.11821042830E+01 -0.64633331016E+01  0.33783886211E+02  0.34416900109E+02  0.51100000000E-03 0. -1.
        -11    1    3    3    0    0  0.16547933029E+01 -0.23807970688E+01  0.54378681787E+01  0.61625438050E+01  0.51100000000E-03 0.  1.
         12    1    3    3    0    0 -0.97813923253E+01  0.18077761782E+01  0.21717910823E+00  0.99494149223E+01  0.00000000000E+00 0. -1.
</event>
<event>
 7    1  0.5456331E-013  0.5052888E+02  0.7816164E-02  0.1300439E+00
        -11   -1    0    0    0    0  0.00000000000E+00  0.00000000000E+00  0.45593999997E+02  0.45594000000E+02  0.51100000000E-03 0.  1.
         11   -1    0    0    0    0 -0.00000000000E+00 -0.00000000000E+00 -0.45593999997E+02  0.45594000000E+02  0.51100000000E-03 0. -1.
    9900012    2    1    2    0    0 -0.31836862010E+02  0.24364172483E+02  0.67798046403E+01  0.50528875140E+02  0.30000046475E+02 0.  0.
         12    1    1    2    0    0  0.31836862010E+02 -0.24364172483E+02 -0.67798046403E+01  0.40659124860E+02  0.00000000000E+00 0. -1.
         11    1    3    3    0    0 -0.12286971470E+02  0.17410185432E+02 -0.48583513271E+01  0.21856070153E+02  0.51100000000E-03 0. -1.
        -11    1    3    3    0    0  0.10212728231E+00  0.64181716462E+01  0.16796957936E+01  0.66351138259E+01  0.51100000000E-03 0.  1.
        -12    1    3    3    0    0 -0.19652017823E+02  0.53581540521E+00  0.99584601738E+01  0.22037691160E+02  0.00000000000E+00 0.  1.
</event>
<event>
 7    1  0.5456331E-013  0.5052886E+02  0.7816164E-02  0.1300439E+00
        -11   -1    0    0    0    0  0.00000000000E+00  0.00000000000E+00  0.45593999997E+02  0.45594000000E+02  0.51100000000E-03 0.  1.
         11   -1    0    0    0    0 -0.00000000000E+00 -0.00000000000E+00 -0.45593999997E+02  0.45594000000E+02  0.51100000000E-03 0. -1.
    9900012    2    1    2    0    0  0.53880168674E+01 -0.11333661630E+02  0.38674063992E+02  0.50528857887E+02  0.29999994035E+02 0.  0.
         12    1    1    2    0    0 -0.53880168674E+01  0.11333661630E+02 -0.38674063992E+02  0.40659142113E+02  0.00000000000E+00 0. -1.
         11    1    3    3    0    0  0.12068105808E+02 -0.63923618225E+00  0.18798699726E+02  0.22348129952E+02  0.51100000000E-03 0. -1.
        -11    1    3    3    0    0  0.34946571327E+01  0.13982117581E+01  0.18044678814E+01  0.41741740730E+01  0.51100000000E-03 0.  1.
         12    1    3    3    0    0 -0.10174746073E+02 -0.12092637206E+02  0.18070896384E+02  0.24006553863E+02  0.00000000000E+00 0. -1.
</event>
<event>
 7    1  0.5456331E-013  0.5052886E+02  0.7816164E-02  0.1300439E+00
        -11   -1    0    0    0    0  0.00000000000E+00  0.00000000000E+00  0.45593999997E+02  0.45594000000E+02  0.51100000000E-03 0.  1.
         11   -1    0    0    0    0 -0.00000000000E+00 -0.00000000000E+00 -0.45593999997E+02  0.45594000000E+02  0.51100000000E-03 0. -1.
    9900012    2    1    2    0    0 -0.21700942087E+02  0.33153377362E+02 -0.91152944357E+01  0.50528856986E+02  0.29999991295E+02 0.  0.
         12    1    1    2    0    0  0.21700942087E+02 -0.33153377362E+02  0.91152944357E+01  0.40659143014E+02  0.00000000000E+00 0. -1.
         11    1    3    3    0    0  0.12106239495E+01  0.10992910988E+02 -0.10744787323E+02  0.15419473312E+02  0.51100000000E-03 0. -1.
        -11    1    3    3    0    0 -0.49440119019E+01  0.29369601510E+01 -0.53841022364E+01  0.78776611864E+01  0.51100000000E-03 0.  1.
        -12    1    3    3    0    0 -0.17967554134E+02  0.19223506224E+02  0.70135951242E+01  0.27231722488E+02  0.00000000000E+00 0.  1.
</event>
<event>
 7    1  0.5456331E-013  0.5052886E+02  0.7816164E-02  0.1300439E+00
        -11   -1    0    0    0    0  0.00000000000E+00  0.00000000000E+00  0.45593999997E+02  0.45594000000E+02  0.51100000000E-03 0. -1.
         11   -1    0    0    0    0 -0.00000000000E+00 -0.00000000000E+00 -0.45593999997E+02  0.45594000000E+02  0.51100000000E-03 0.  1.
    9900012    2    1    2    0    0  0.25094852844E+02 -0.10498923876E+02 -0.30218972874E+02  0.50528863715E+02  0.30000011749E+02 0.  0.
         12    1    1    2    0    0 -0.25094852844E+02  0.10498923876E+02  0.30218972874E+02  0.40659136285E+02  0.00000000000E+00 0. -1.
         11    1    3    3    0    0 -0.84269220335E+00  0.50745881123E+01  0.16934182274E+01  0.54156477187E+01  0.51100000000E-03 0. -1.
        -11    1    3    3    0    0 -0.36224321844E+00 -0.20650877677E+01 -0.95034496559E+00  0.23019477519E+01  0.51100000000E-03 0.  1.
        -12    1    3    3    0    0  0.26299788266E+02 -0.13508424221E+02 -0.30962046136E+02  0.42811268245E+02  0.00000000000E+00 0.  1.
</event>
<event>
 7    1  0.5456331E-013  0.5052886E+02  0.7816164E-02  0.1300439E+00
        -11   -1    0    0    0    0  0.00000000000E+00  0.00000000000E+00  0.45593999997E+02  0.45594000000E+02  0.51100000000E-03 0.  1.
         11   -1    0    0    0    0 -0.00000000000E+00 -0.00000000000E+00 -0.45593999997E+02  0.45594000000E+02  0.51100000000E-03 0. -1.
    9900012    2    1    2    0    0  0.17891720483E+02  0.60376840529E+01  0.36008311129E+02  0.50528858827E+02  0.29999996891E+02 0.  0.
         12    1    1    2    0    0 -0.17891720483E+02 -0.60376840529E+01 -0.36008311129E+02  0.40659141173E+02  0.00000000000E+00 0. -1.
         11    1    3    3    0    0 -0.19567160818E+01 -0.61825753627E+01  0.10298385427E+02  0.12170033632E+02  0.51100000000E-03 0.  1.
        -11    1    3    3    0    0 -0.71808440901E+00 -0.26557943754E+01  0.45313580980E+01  0.53011409580E+01  0.51100000000E-03 0. -1.
        -12    1    3    3    0    0  0.20566520974E+02  0.14876053791E+02  0.21178567603E+02  0.33057684237E+02  0.00000000000E+00 0.  1.
</event>
<event>
 7    1  0.5456331E-013  0.5052884E+02  0.7816164E-02  0.1300439E+00
        -11   -1    0    0    0    0  0.00000000000E+00  0.00000000000E+00  0.45593999997E+02  0.45594000000E+02  0.51100000000E-03 0. -1.
         11   -1    0    0    0    0 -0.00000000000E+00 -0.00000000000E+00 -0.45593999997E+02  0.45594000000E+02  0.51100000000E-03 0.  1.
    9900012    2    1    2    0    0  0.36322872653E+02 -0.13960602832E+02 -0.11786341712E+02  0.50528839161E+02  0.29999937113E+02 0.  0.
         12    1    1    2    0    0 -0.36322872653E+02  0.13960602832E+02  0.11786341712E+02  0.40659160839E+02  0.00000000000E+00 0. -1.
         11    1    3    3    0    0 -0.17345753527E+01 -0.11748308426E+01 -0.27894506563E+00  0.21134781223E+01  0.51100000000E-03 0.  1.
        -11    1    3    3    0    0  0.32621092148E+00 -0.80844073340E+01 -0.58259252504E+01  0.99702287231E+01  0.51100000000E-03 0. -1.
        -12    1    3    3    0    0  0.37731237084E+02 -0.47013646550E+01 -0.56814713960E+01  0.38445132315E+02  0.00000000000E+00 0.  1.
</event>
<event>
 7    1  0.5456331E-013  0.5052885E+02  0.7816164E-02  0.1300439E+00
        -11   -1    0    0    0    0  0.00000000000E+00  0.00000000000E+00  0.45593999997E+02  0.45594000000E+02  0.51100000000E-03 0.  1.
         11   -1    0    0    0    0 -0.00000000000E+00 -0.00000000000E+00 -0.45593999997E+02  0.45594000000E+02  0.51100000000E-03 0. -1.
    9900012    2    1    2    0    0 -0.72178054014E+01  0.31177764901E+02  0.25080201295E+02  0.50528852984E+02  0.29999979130E+02 0.  0.
         12    1    1    2    0    0  0.72178054014E+01 -0.31177764901E+02 -0.25080201295E+02  0.40659147016E+02  0.00000000000E+00 0. -1.
         11    1    3    3    0    0 -0.12321598574E+02  0.11134970799E+02  0.53582408206E+01  0.17450504608E+02  0.51100000000E-03 0. -1.
        -11    1    3    3    0    0 -0.55396055249E+01  0.11567407163E+02  0.11174081887E+02  0.17010356967E+02  0.51100000000E-03 0.  1.
         12    1    3    3    0    0  0.10643398697E+02  0.84753869386E+01  0.85478785878E+01  0.16067991410E+02  0.00000000000E+00 0. -1.
</event>
<event>
 7    1  0.5456331E-013  0.5052886E+02  0.7816164E-02  0.1300439E+00
        -11   -1    0    0    0    0  0.00000000000E+00  0.00000000000E+00  0.45593999997E+02  0.45594000000E+02  0.51100000000E-03 0.  1.
         11   -1    0    0    0    0 -0.00000000000E+00 -0.00000000000E+00 -0.45593999997E+02  0.45594000000E+02  0.51100000000E-03 0. -1.
    9900012    2    1    2    0    0  0.12558692233E+02 -0.33639603585E+02 -0.19074119782E+02  0.50528859264E+02  0.29999998219E+02 0.  0.
         12    1    1    2    0    0 -0.12558692233E+02  0.33639603585E+02  0.19074119782E+02  0.40659140736E+02  0.00000000000E+00 0. -1.
         11    1    3    3    0    0 -0.16011281422E+01 -0.24352219411E+02 -0.42912080403E+01  0.24779198298E+02  0.51100000000E-03 0.  1.
        -11    1    3    3    0    0 -0.20727319139E+01 -0.12900510496E+00 -0.20328333315E+00  0.20866682244E+01  0.51100000000E-03 0. -1.
         12    1    3    3    0    0  0.16232552289E+02 -0.91583790690E+01 -0.14579628409E+02  0.23662992742E+02  0.00000000000E+00 0. -1.
</event>
<event>
 7    1  0.5456331E-013  0.5052886E+02  0.7816164E-02  0.1300439E+00
        -11   -1    0    0    0    0  0.00000000000E+00  0.00000000000E+00  0.45593999997E+02  0.45594000000E+02  0.51100000000E-03 0.  1.
         11   -1    0    0    0    0 -0.00000000000E+00 -0.00000000000E+00 -0.45593999997E+02  0.45594000000E+02  0.51100000000E-03 0. -1.
    9900012    2    1    2    0    0 -0.21626942282E+02 -0.21946495323E+02  0.26529080613E+02  0.50528863172E+02  0.30000010099E+02 0.  0.
         12    1    1    2    0    0  0.21626942282E+02  0.21946495323E+02 -0.26529080613E+02  0.40659136828E+02  0.00000000000E+00 0. -1.
         11    1    3    3    0    0 -0.21058556718E+02 -0.78381230571E+01  0.98044430814E+01  0.24515833425E+02  0.51100000000E-03 0. -1.
        -11    1    3    3    0    0 -0.59888792000E+01 -0.24306252491E+01  0.87158376561E+01  0.10850826673E+02  0.51100000000E-03 0.  1.
        -12    1    3    3    0    0  0.54204936364E+01 -0.11677747017E+02  0.80087998751E+01  0.15162203075E+02  0.00000000000E+00 0.  1.
</event>
<event>
 7    1  0.5456331E-013  0.5052886E+02  0.7816164E-02  0.1300439E+00
        -11   -1    0    0    0    0  0.00000000000E+00  0.00000000000E+00  0.45593999997E+02  0.45594000000E+02  0.51100000000E-03 0.  1.
         11   -1    0    0    0    0 -0.00000000000E+00 -0.00000000000E+00 -0.45593999997E+02  0.45594000000E+02  0.51100000000E-03 0. -1.
    9900012    2    1    2    0    0 -0.70346837495E+01 -0.26680724289E+02  0.29863323669E+02  0.50528856814E+02  0.29999990771E+02 0.  0.
         12    1    1    2    0    0  0.70346837495E+01  0.26680724289E+02 -0.29863323669E+02  0.40659143186E+02  0.00000000000E+00 0. -1.
         11    1    3    3    0    0  0.19372442596E+01  0.21201913125E+01  0.12421076008E+02  0.12748774686E+02  0.51100000000E-03 0. -1.
        -11    1    3    3    0    0  0.27250960360E+01 -0.11982146421E+02  0.10457921696E+02  0.16135864021E+02  0.51100000000E-03 0.  1.
        -12    1    3    3    0    0 -0.11697024045E+02 -0.16818769181E+02  0.69843259657E+01  0.21644218107E+02  0.00000000000E+00 0.  1.
</event>
<event>
 7    1  0.5456331E-013  0.5052886E+02  0.7816164E-02  0.1300439E+00
        -11   -1    0    0    0    0  0.00000000000E+00  0.00000000000E+00  0.45593999997E+02  0.45594000000E+02  0.51100000000E-03 0. -1.
         11   -1    0    0    0    0 -0.00000000000E+00 -0.00000000000E+00 -0.45593999997E+02  0.45594000000E+02  0.51100000000E-03 0.  1.
    9900012    2    1    2    0    0 -0.24800278786E+02  0.79304866183E+01 -0.31228498608E+02  0.50528861160E+02  0.30000003982E+02 0.  0.
         12    1    1    2    0    0  0.24800278786E+02 -0.79304866183E+01  0.31228498608E+02  0.40659138840E+02  0.00000000000E+00 0. -1.
         11    1    3    3    0    0 -0.78404090875E+01 -0.17199411856E+01 -0.74900920040E+01  0.10978692583E+02  0.51100000000E-03 0. -1.
        -11    1    3    3    0    0 -0.18587478118E+02 -0.71684886216E+00 -0.71647194519E+01  0.19933424697E+02  0.51100000000E-03 0.  1.
         12    1    3    3    0    0  0.16276084191E+01  0.10367276666E+02 -0.16573687152E+02  0.19616743880E+02  0.00000000000E+00 0. -1.
</event>
<event>
 7    1  0.5456331E-013  0.5052886E+02  0.7816164E-02  0.1300439E+00
        -11   -1    0    0    0    0  0.00000000000E+00  0.00000000000E+00  0.45593999997E+02  0.45594000000E+02  0.51100000000E-03 0.  1.
         11   -1    0    0    0    0 -0.00000000000E+00 -0.00000000000E+00 -0.45593999997E+02  0.45594000000E+02  0.51100000000E-03 0. -1.
    9900012    2    1    2    0    0  0.36980386362E+02  0.16603955319E+02  0.31504730107E+01  0.50528858495E+02  0.29999995881E+02 0.  0.
         12    1    1    2    0    0 -0.36980386362E+02 -0.16603955319E+02 -0.31504730107E+01  0.40659141505E+02  0.00000000000E+00 0. -1.
         11    1    3    3    0    0  0.23951402661E+02  0.10711919398E+02 -0.81187194201E+01  0.27465041633E+02  0.51100000000E-03 0. -1.
        -11    1    3    3    0    0 -0.26981189380E+01  0.86607739332E-01 -0.26848602759E+00  0.27128272544E+01  0.51100000000E-03 0.  1.
        -12    1    3    3    0    0  0.15727102639E+02  0.58054281816E+01  0.11537678458E+02  0.20350989608E+02  0.00000000000E+00 0.  1.
</event>
<event>
 7    1  0.5456331E-013  0.5052886E+02  0.7816164E-02  0.1300439E+00
        -11   -1    0    0    0    0  0.00000000000E+00  0.00000000000E+00  0.45593999997E+02  0.45594000000E+02  0.51100000000E-03 0.  1.
         11   -1    0    0    0    0 -0.00000000000E+00 -0.00000000000E+00 -0.45593999997E+02  0.45594000000E+02  0.51100000000E-03 0. -1.
    9900012    2    1    2    0    0  0.24540105368E+02  0.28436975749E+02 -0.15565591623E+02  0.50528855840E+02  0.29999987812E+02 0.  0.
         12    1    1    2    0    0 -0.24540105368E+02 -0.28436975749E+02  0.15565591623E+02  0.40659144160E+02  0.00000000000E+00 0. -1.
         11    1    3    3    0    0  0.34651920431E+01  0.11059412279E+02 -0.12816458842E+02  0.17279461026E+02  0.51100000000E-03 0. -1.
        -11    1    3    3    0    0  0.10519371663E+02  0.12322729944E+02 -0.10413160796E+02  0.19259822727E+02  0.51100000000E-03 0.  1.
        -12    1    3    3    0    0  0.10555541662E+02  0.50548335253E+01  0.76640280148E+01  0.13989572086E+02  0.00000000000E+00 0.  1.
</event>
<event>
 7    1  0.5456331E-013  0.5052887E+02  0.7816164E-02  0.1300439E+00
        -11   -1    0    0    0    0  0.00000000000E+00  0.00000000000E+00  0.45593999997E+02  0.45594000000E+02  0.51100000000E-03 0. -1.
         11   -1    0    0    0    0 -0.00000000000E+00 -0.00000000000E+00 -0.45593999997E+02  0.45594000000E+02  0.51100000000E-03 0.  1.
    9900012    2    1    2    0    0 -0.22820681478E+02 -0.25129317414E+02 -0.22380773232E+02  0.50528866865E+02  0.30000021323E+02 0.  0.
         12    1    1    2    0    0  0.22820681478E+02  0.25129317414E+02  0.22380773232E+02  0.40659133135E+02  0.00000000000E+00 0. -1.
         11    1    3    3    0    0 -0.82389317742E+01 -0.14956396783E+02 -0.28331278688E+01  0.17308969215E+02  0.51100000000E-03 0. -1.
        -11    1    3    3    0    0 -0.14000667123E+01 -0.13220330205E+02 -0.88260245884E+01  0.15957318942E+02  0.51100000000E-03 0.  1.
         12    1    3    3    0    0 -0.13181682992E+02  0.30474095741E+01 -0.10721620775E+02  0.17262578708E+02  0.00000000000E+00 0. -1.
</event>
<event>
 7    1  0.5456331E-013  0.5052886E+02  0.7816164E-02  0.1300439E+00
        -11   -1    0    0    0    0  0.00000000000E+00  0.00000000000E+00  0.45593999997E+02  0.45594000000E+02  0.51100000000E-03 0. -1.
         11   -1    0    0    0    0 -0.00000000000E+00 -0.00000000000E+00 -0.45593999997E+02  0.45594000000E+02  0.51100000000E-03 0.  1.
    9900012    2    1    2    0    0 -0.15075622005E+02  0.26248216386E+02 -0.27146307896E+02  0.50528864807E+02  0.30000015067E+02 0.  0.
         12    1    1    2    0    0  0.15075622005E+02 -0.26248216386E+02  0.27146307896E+02  0.40659135193E+02  0.00000000000E+00 0. -1.
         11    1    3    3    0    0  0.46047493502E+01 -0.12259402423E+01 -0.68325716347E+00  0.48138847793E+01  0.51100000000E-03 0. -1.
        -11    1    3    3    0    0 -0.13671725957E+02  0.68388757328E+01 -0.14729339243E+02  0.21228277055E+02  0.51100000000E-03 0.  1.
        -12    1    3    3    0    0 -0.60086453981E+01  0.20635280895E+02 -0.11733711489E+02  0.24486702972E+02  0.00000000000E+00 0.  1.
</event>
<event>
 7    1  0.5456331E-013  0.5052887E+02  0.7816164E-02  0.1300439E+00
        -11   -1    0    0    0    0  0.00000000000E+00  0.00000000000E+00  0.45593999997E+02  0.45594000000E+02  0.51100000000E-03 0.  1.
         11   -1    0    0    0    0 -0.00000000000E+00 -0.00000000000E+00 -0.45593999997E+02  0.45594000000E+02  0.51100000000E-03 0. -1.
    9900012    2    1    2    0    0  0.64535328602E+01  0.26195937114E+02  0.30418570582E+02  0.50528872563E+02  0.30000038643E+02 0.  0.
         12    1    1    2    0    0 -0.64535328602E+01 -0.26195937114E+02 -0.30418570582E+02  0.40659127437E+02  0.00000000000E+00 0. -1.
         11    1    3    3    0    0  0.10968930379E+02  0.28232660410E+02  0.19065757539E+02  0.35789714420E+02  0.51100000000E-03 0. -1.
        -11    1    3    3    0    0 -0.52804892218E+01  0.13114957825E+01  0.44493569232E+01  0.70285393148E+01  0.51100000000E-03 0.  1.
        -12    1    3    3    0    0  0.76509170327E+00 -0.33482190785E+01  0.69034561199E+01  0.77106188281E+01  0.00000000000E+00 0.  1.
</event>
<event>
 7    1  0.5456331E-013  0.5052885E+02  0.7816164E-02  0.1300439E+00
        -11   -1    0    0    0    0  0.00000000000E+00  0.00000000000E+00  0.45593999997E+02  0.45594000000E+02  0.51100000000E-03 0. -1.
         11   -1    0    0    0    0 -0.00000000000E+00 -0.00000000000E+00 -0.45593999997E+02  0.45594000000E+02  0.51100000000E-03 0.  1.
    9900012    2    1    2    0    0  0.39833505869E+02 -0.63517975791E+01 -0.51100563612E+01  0.50528853449E+02  0.29999980542E+02 0.  0.
         12    1    1    2    0    0 -0.39833505869E+02  0.63517975791E+01  0.51100563612E+01  0.40659146551E+02  0.00000000000E+00 0. -1.
         11    1    3    3    0    0  0.54560721820E+01  0.34637549754E+01  0.56624919082E+01  0.85924465117E+01  0.51100000000E-03 0. -1.
        -11    1    3    3    0    0  0.87768231082E+01  0.32078484174E+01  0.33531136457E+01  0.99280555359E+01  0.51100000000E-03 0.  1.
        -12    1    3    3    0    0  0.25600610578E+02 -0.13023400972E+02 -0.14125661915E+02  0.32008351401E+02  0.00000000000E+00 0.  1.
</event>
<event>
 7    1  0.5456331E-013  0.5052886E+02  0.7816164E-02  0.1300439E+00
        -11   -1    0    0    0    0  0.00000000000E+00  0.00000000000E+00  0.45593999997E+02  0.45594000000E+02  0.51100000000E-03 0.  1.
         11   -1    0    0    0    0 -0.00000000000E+00 -0.00000000000E+00 -0.45593999997E+02  0.45594000000E+02  0.51100000000E-03 0. -1.
    9900012    2    1    2    0    0 -0.90815100381E+01 -0.26210277792E+02  0.29727313564E+02  0.50528860090E+02  0.30000000729E+02 0.  0.
         12    1    1    2    0    0  0.90815100381E+01  0.26210277792E+02 -0.29727313564E+02  0.40659139910E+02  0.00000000000E+00 0. -1.
         11    1    3    3    0    0 -0.76851679270E+01 -0.29216879809E+01  0.67209028565E+00  0.82492285904E+01  0.51100000000E-03 0. -1.
        -11    1    3    3    0    0  0.21391144387E+01 -0.17651058682E+01 -0.26237204146E+01  0.38177635316E+01  0.51100000000E-03 0.  1.
        -12    1    3    3    0    0 -0.35354565498E+01 -0.21523483943E+02  0.31678943693E+02  0.38461867968E+02  0.00000000000E+00 0.  1.
</event>
<event>
 7    1  0.5456331E-013  0.5052886E+02  0.7816164E-02  0.1300439E+00
        -11   -1    0    0    0    0  0.00000000000E+00  0.00000000000E+00  0.45593999997E+02  0.45594000000E+02  0.51100000000E-03 0. -1.
         11   -1    0    0    0    0 -0.00000000000E+00 -0.00000000000E+00 -0.45593999997E+02  0.45594000000E+02  0.51100000000E-03 0.  1.
    9900012    2    1    2    0    0 -0.14208682677E+02  0.78815248316E+01 -0.37271443276E+02  0.50528861040E+02  0.30000003617E+02 0.  0.
         12    1    1    2    0    0  0.14208682677E+02 -0.78815248316E+01  0.37271443276E+02  0.40659138960E+02  0.00000000000E+00 0. -1.
         11    1    3    3    0    0 -0.13330773872E+02  0.43506979416E+00 -0.37044876256E+01  0.13842761522E+02  0.51100000000E-03 0. -1.
        -11    1    3    3    0    0 -0.67715228864E+01  0.30278929949E+01 -0.17779088533E+02  0.19264414019E+02  0.51100000000E-03 0.  1.
         12    1    3    3    0    0  0.58936140811E+01  0.44185620426E+01 -0.15787867118E+02  0.17421685498E+02  0.00000000000E+00 0. -1.
</event>
<event>
 7    1  0.5456331E-013  0.5052886E+02  0.7816164E-02  0.1300439E+00
        -11   -1    0    0    0    0  0.00000000000E+00  0.00000000000E+00  0.45593999997E+02  0.45594000000E+02  0.51100000000E-03 0.  1.
         11   -1    0    0    0    0 -0.00000000000E+00 -0.00000000000E+00 -0.45593999997E+02  0.45594000000E+02  0.51100000000E-03 0. -1.
    9900012    2    1    2    0    0 -0.11850177089E+02  0.96159353334E+01  0.37686503681E+02  0.50528862416E+02  0.30000007800E+02 0.  0.
         12    1    1    2    0    0  0.11850177089E+02 -0.96159353334E+01 -0.37686503681E+02  0.40659137584E+02  0.00000000000E+00 0. -1.
         11    1    3    3    0    0 -0.10813181567E+02  0.29889116914E+01  0.14120794374E+02  0.18034836366E+02  0.51100000000E-03 0. -1.
        -11    1    3    3    0    0  0.49670579071E+01 -0.70900153306E+00  0.22385707161E+02  0.22941103565E+02  0.51100000000E-03 0.  1.
         12    1    3    3    0    0 -0.60040534287E+01  0.73360251751E+01  0.11800021451E+01  0.95529224851E+01  0.00000000000E+00 0. -1.
</event>
<event>
 7    1  0.5456331E-013  0.5052886E+02  0.7816164E-02  0.1300439E+00
        -11   -1    0    0    0    0  0.00000000000E+00  0.00000000000E+00  0.45593999997E+02  0.45594000000E+02  0.51100000000E-03 0.  1.
         11   -1    0    0    0    0 -0.00000000000E+00 -0.00000000000E+00 -0.45593999997E+02  0.45594000000E+02  0.51100000000E-03 0. -1.
    9900012    2    1    2    0    0  0.50948204056E+01  0.11699834239E+02  0.38604693178E+02  0.50528860172E+02  0.30000000979E+02 0.  0.
         12    1    1    2    0    0 -0.50948204056E+01 -0.11699834239E+02 -0.38604693178E+02  0.40659139828E+02  0.00000000000E+00 0. -1.
         11    1    3    3    0    0  0.82816980247E+01  0.17336259457E+01  0.45662416436E+00  0.84735168013E+01  0.51100000000E-03 0. -1.
        -11    1    3    3    0    0 -0.18668350956E+01  0.10016845847E+02  0.11460506290E+02  0.15335106086E+02  0.51100000000E-03 0.  1.
         12    1    3    3    0    0 -0.13200425235E+01 -0.50637553975E-01  0.26687562724E+02  0.26720237285E+02  0.00000000000E+00 0. -1.
</event>
<event>
 7    1  0.5456331E-013  0.5052886E+02  0.7816164E-02  0.1300439E+00
        -11   -1    0    0    0    0  0.00000000000E+00  0.00000000000E+00  0.45593999997E+02  0.45594000000E+02  0.51100000000E-03 0.  1.
         11   -1    0    0    0    0 -0.00000000000E+00 -0.00000000000E+00 -0.45593999997E+02  0.45594000000E+02  0.51100000000E-03 0. -1.
    9900012    2    1    2    0    0 -0.78566958071E+01  0.15558907628E+01  0.39862481214E+02  0.50528857441E+02  0.29999992678E+02 0.  0.
         12    1    1    2    0    0  0.78566958071E+01 -0.15558907628E+01 -0.39862481214E+02  0.40659142559E+02  0.00000000000E+00 0. -1.
         11    1    3    3    0    0  0.74094011808E+01  0.52374726847E+01  0.52545728676E+01  0.10485269775E+02  0.51100000000E-03 0. -1.
        -11    1    3    3    0    0  0.59333860952E+00 -0.21074980217E+01  0.29389379411E+00  0.22090659656E+01  0.51100000000E-03 0.  1.
        -12    1    3    3    0    0 -0.15859435597E+02 -0.15740839002E+01  0.34314014552E+02  0.37834521700E+02  0.00000000000E+00 0.  1.
</event>
<event>
 7    1  0.5456331E-013  0.5052888E+02  0.7816164E-02  0.1300439E+00
        -11   -1    0    0    0    0  0.00000000000E+00  0.00000000000E+00  0.45593999997E+02  0.45594000000E+02  0.51100000000E-03 0.  1.
         11   -1    0    0    0    0 -0.00000000000E+00 -0.00000000000E+00 -0.45593999997E+02  0.45594000000E+02  0.51100000000E-03 0. -1.
    9900012    2    1    2    0    0 -0.27325584145E+02 -0.44038867035E+01  0.29783921219E+02  0.50528883801E+02  0.30000072800E+02 0.  0.
         12    1    1    2    0    0  0.27325584145E+02  0.44038867035E+01 -0.29783921219E+02  0.40659116199E+02  0.00000000000E+00 0. -1.
         11    1    3    3    0    0 -0.22452308140E+01  0.46851312816E+01 -0.16210339018E+01  0.54423586528E+01  0.51100000000E-03 0. -1.
        -11    1    3    3    0    0 -0.47735044432E+01 -0.10326210307E+02  0.71823669914E+01  0.13453748914E+02  0.51100000000E-03 0.  1.
         12    1    3    3    0    0 -0.20306848888E+02  0.12371923221E+01  0.24222588129E+02  0.31632776234E+02  0.00000000000E+00 0. -1.
</event>
<event>
 7    1  0.5456331E-013  0.5052887E+02  0.7816164E-02  0.1300439E+00
        -11   -1    0    0    0    0  0.00000000000E+00  0.00000000000E+00  0.45593999997E+02  0.45594000000E+02  0.51100000000E-03 0. -1.
         11   -1    0    0    0    0 -0.00000000000E+00 -0.00000000000E+00 -0.45593999997E+02  0.45594000000E+02  0.51100000000E-03 0.  1.
    9900012    2    1    2    0    0  0.10231598054E+02  0.13687403762E+02 -0.36893551619E+02  0.50528870994E+02  0.30000033873E+02 0.  0.
         12    1    1    2    0    0 -0.10231598054E+02 -0.13687403762E+02  0.36893551619E+02  0.40659129006E+02  0.00000000000E+00 0. -1.
         11    1    3    3    0    0 -0.71220212449E+00  0.37407848793E+01  0.60063881403E+00  0.38550577979E+01  0.51100000000E-03 0. -1.
        -11    1    3    3    0    0 -0.51917313671E+01  0.74537762626E+01 -0.51490322132E+01  0.10441522310E+02  0.51100000000E-03 0.  1.
         12    1    3    3    0    0  0.16135531545E+02  0.24928426206E+01 -0.32345158220E+02  0.36232290886E+02  0.00000000000E+00 0. -1.
</event>
<event>
 7    1  0.5456331E-013  0.5052886E+02  0.7816164E-02  0.1300439E+00
        -11   -1    0    0    0    0  0.00000000000E+00  0.00000000000E+00  0.45593999997E+02  0.45594000000E+02  0.51100000000E-03 0. -1.
         11   -1    0    0    0    0 -0.00000000000E+00 -0.00000000000E+00 -0.45593999997E+02  0.45594000000E+02  0.51100000000E-03 0.  1.
    9900012    2    1    2    0    0  0.61446055608E+01  0.29171585455E+02 -0.27648294823E+02  0.50528858567E+02  0.29999996099E+02 0.  0.
         12    1    1    2    0    0 -0.61446055608E+01 -0.29171585455E+02  0.27648294823E+02  0.40659141433E+02  0.00000000000E+00 0. -1.
         11    1    3    3    0    0  0.41365858753E+01 -0.20762734770E+01 -0.10902234486E+02  0.11844026820E+02  0.51100000000E-03 0. -1.
        -11    1    3    3    0    0  0.52710577051E+01  0.35354866429E+01 -0.43136989046E+00  0.63615874886E+01  0.51100000000E-03 0.  1.
        -12    1    3    3    0    0 -0.32630380196E+01  0.27712372289E+02 -0.16314690446E+02  0.32323244258E+02  0.00000000000E+00 0.  1.
</event>
<event>
 7    1  0.5456331E-013  0.5052884E+02  0.7816164E-02  0.1300439E+00
        -11   -1    0    0    0    0  0.00000000000E+00  0.00000000000E+00  0.45593999997E+02  0.45594000000E+02  0.51100000000E-03 0.  1.
         11   -1    0    0    0    0 -0.00000000000E+00 -0.00000000000E+00 -0.45593999997E+02  0.45594000000E+02  0.51100000000E-03 0. -1.
    9900012    2    1    2    0    0  0.17581057762E+02 -0.14574428950E+02  0.33640150094E+02  0.50528840274E+02  0.29999940497E+02 0.  0.
         12    1    1    2    0    0 -0.17581057762E+02  0.14574428950E+02 -0.33640150094E+02  0.40659159726E+02  0.00000000000E+00 0. -1.
         11    1    3    3    0    0  0.70382473865E+01 -0.37151944718E+01  0.54536758013E+01  0.96479104600E+01  0.51100000000E-03 0. -1.
        -11    1    3    3    0    0  0.16790941102E+02 -0.14462595838E+02  0.18923939900E+02  0.29141343192E+02  0.51100000000E-03 0.  1.
         12    1    3    3    0    0 -0.62481307264E+01  0.36033613600E+01  0.92625343932E+01  0.11739586622E+02  0.00000000000E+00 0. -1.
</event>
<event>
 7    1  0.5456331E-013  0.5052886E+02  0.7816164E-02  0.1300439E+00
        -11   -1    0    0    0    0  0.00000000000E+00  0.00000000000E+00  0.45593999997E+02  0.45594000000E+02  0.51100000000E-03 0.  1.
         11   -1    0    0    0    0 -0.00000000000E+00 -0.00000000000E+00 -0.45593999997E+02  0.45594000000E+02  0.51100000000E-03 0. -1.
    9900012    2    1    2    0    0 -0.35752194089E+02 -0.13542412658E+01  0.19316110009E+02  0.50528862559E+02  0.30000008235E+02 0.  0.
         12    1    1    2    0    0  0.35752194089E+02  0.13542412658E+01 -0.19316110009E+02  0.40659137441E+02  0.00000000000E+00 0. -1.
         11    1    3    3    0    0 -0.88956357744E+01  0.11991495594E+02  0.27881726080E+01  0.15188884395E+02  0.51100000000E-03 0. -1.
        -11    1    3    3    0    0 -0.48355337870E+01 -0.23398017863E+01  0.72682000554E+01  0.90379085916E+01  0.51100000000E-03 0.  1.
        -12    1    3    3    0    0 -0.22021024527E+02 -0.11005935074E+02  0.92597373459E+01  0.26302069572E+02  0.00000000000E+00 0.  1.
</event>
<event>
 7    1  0.5456331E-013  0.5052886E+02  0.7816164E-02  0.1300439E+00
        -11   -1    0    0    0    0  0.00000000000E+00  0.00000000000E+00  0.45593999997E+02  0.45594000000E+02  0.51100000000E-03 0. -1.
         11   -1    0    0    0    0 -0.00000000000E+00 -0.00000000000E+00 -0.45593999997E+02  0.45594000000E+02  0.51100000000E-03 0.  1.
    9900012    2    1    2    0    0  0.90057889161E+01  0.12273705044E+02 -0.37701689750E+02  0.50528862288E+02  0.30000007410E+02 0.  0.
         12    1    1    2    0    0 -0.90057889161E+01 -0.12273705044E+02  0.37701689750E+02  0.40659137712E+02  0.00000000000E+00 0. -1.
         11    1    3    3    0    0 -0.56162849431E+01 -0.22562606336E+01 -0.19821104076E+01  0.63688405960E+01  0.51100000000E-03 0. -1.
        -11    1    3    3    0    0  0.19280999105E+01 -0.10987463246E+01  0.88035817828E+00  0.23874345089E+01  0.51100000000E-03 0.  1.
         12    1    3    3    0    0  0.12693973949E+02  0.15628712002E+02 -0.36599937521E+02  0.41772587183E+02  0.00000000000E+00 0. -1.
</event>
<event>
 7    1  0.5456331E-013  0.5052884E+02  0.7816164E-02  0.1300439E+00
        -11   -1    0    0    0    0  0.00000000000E+00  0.00000000000E+00  0.45593999997E+02  0.45594000000E+02  0.51100000000E-03 0.  1.
         11   -1    0    0    0    0 -0.00000000000E+00 -0.00000000000E+00 -0.45593999997E+02  0.45594000000E+02  0.51100000000E-03 0. -1.
    9900012    2    1    2    0    0 -0.25567979390E+02  0.31507337868E+02  0.25948039294E+01  0.50528844610E+02  0.29999953676E+02 0.  0.
         12    1    1    2    0    0  0.25567979390E+02 -0.31507337868E+02 -0.25948039294E+01  0.40659155390E+02  0.00000000000E+00 0. -1.
         11    1    3    3    0    0 -0.15351998253E+01  0.10672256722E+02  0.48454419819E+00  0.10792992420E+02  0.51100000000E-03 0. -1.
        -11    1    3    3    0    0 -0.95675105342E+01  0.15012883708E+02 -0.96087963636E+01  0.20230000071E+02  0.51100000000E-03 0.  1.
         12    1    3    3    0    0 -0.14465269030E+02  0.58221974383E+01  0.11719056095E+02  0.19505852119E+02  0.00000000000E+00 0. -1.
</event>
<event>
 7    1  0.5456331E-013  0.5052890E+02  0.7816164E-02  0.1300439E+00
        -11   -1    0    0    0    0  0.00000000000E+00  0.00000000000E+00  0.45593999997E+02  0.45594000000E+02  0.51100000000E-03 0.  1.
         11   -1    0    0    0    0 -0.00000000000E+00 -0.00000000000E+00 -0.45593999997E+02  0.45594000000E+02  0.51100000000E-03 0. -1.
    9900012    2    1    2    0    0 -0.80764002836E+01 -0.39617770560E+02  0.42855642609E+01  0.50528904502E+02  0.30000135725E+02 0.  0.
         12    1    1    2    0    0  0.80764002836E+01  0.39617770560E+02 -0.42855642609E+01  0.40659095498E+02  0.00000000000E+00 0. -1.
         11    1    3    3    0    0 -0.14982359624E+02 -0.25244044590E+02  0.30968618632E+01  0.29518188305E+02  0.51100000000E-03 0. -1.
        -11    1    3    3    0    0 -0.38075371138E+01 -0.68008563695E+01  0.12318799962E+01  0.78909134337E+01  0.51100000000E-03 0.  1.
         12    1    3    3    0    0  0.10713496454E+02 -0.75728696006E+01 -0.43177598468E-01  0.13119802764E+02  0.00000000000E+00 0. -1.
</event>
<event>
 7    1  0.5456331E-013  0.5052886E+02  0.7816164E-02  0.1300439E+00
        -11   -1    0    0    0    0  0.00000000000E+00  0.00000000000E+00  0.45593999997E+02  0.45594000000E+02  0.51100000000E-03 0.  1.
         11   -1    0    0    0    0 -0.00000000000E+00 -0.00000000000E+00 -0.45593999997E+02  0.45594000000E+02  0.51100000000E-03 0. -1.
    9900012    2    1    2    0    0  0.73221970333E+01  0.38764615837E+02  0.98415109979E+01  0.50528863891E+02  0.30000012283E+02 0.  0.
         12    1    1    2    0    0 -0.73221970333E+01 -0.38764615837E+02 -0.98415109979E+01  0.40659136109E+02  0.00000000000E+00 0. -1.
         11    1    3    3    0    0  0.45715502060E+01  0.20058407928E+02  0.51970499012E+01  0.21219051058E+02  0.51100000000E-03 0. -1.
        -11    1    3    3    0    0  0.85887621376E+01  0.20168899996E+02  0.67442423809E+01  0.22935478361E+02  0.51100000000E-03 0.  1.
         12    1    3    3    0    0 -0.58381153103E+01 -0.14626920861E+01 -0.20997812842E+01  0.63743344717E+01  0.00000000000E+00 0. -1.
</event>
<event>
 7    1  0.5456331E-013  0.5052885E+02  0.7816164E-02  0.1300439E+00
        -11   -1    0    0    0    0  0.00000000000E+00  0.00000000000E+00  0.45593999997E+02  0.45594000000E+02  0.51100000000E-03 0. -1.
         11   -1    0    0    0    0 -0.00000000000E+00 -0.00000000000E+00 -0.45593999997E+02  0.45594000000E+02  0.51100000000E-03 0.  1.
    9900012    2    1    2    0    0  0.33361559537E+02 -0.19888960217E+02  0.12025048624E+02  0.50528853579E+02  0.29999980940E+02 0.  0.
         12    1    1    2    0    0 -0.33361559537E+02  0.19888960217E+02 -0.12025048624E+02  0.40659146421E+02  0.00000000000E+00 0. -1.
         11    1    3    3    0    0 -0.44241893007E+01 -0.10269117272E+01  0.36296282970E+01  0.58139659871E+01  0.51100000000E-03 0. -1.
        -11    1    3    3    0    0  0.14299327794E+02 -0.27554105364E+01 -0.13260855799E+01  0.14622638811E+02  0.51100000000E-03 0.  1.
        -12    1    3    3    0    0  0.23486421044E+02 -0.16106637953E+02  0.97215059069E+01  0.30092248781E+02  0.00000000000E+00 0.  1.
</event>
<event>
 7    1  0.5456331E-013  0.5052886E+02  0.7816164E-02  0.1300439E+00
        -11   -1    0    0    0    0  0.00000000000E+00  0.00000000000E+00  0.45593999997E+02  0.45594000000E+02  0.51100000000E-03 0.  1.
         11   -1    0    0    0    0 -0.00000000000E+00 -0.00000000000E+00 -0.45593999997E+02  0.45594000000E+02  0.51100000000E-03 0. -1.
    9900012    2    1    2    0    0  0.19667179301E+02 -0.34118673731E+02  0.10113544342E+02  0.50528860584E+02  0.30000002233E+02 0.  0.
         12    1    1    2    0    0 -0.19667179301E+02  0.34118673731E+02 -0.10113544342E+02  0.40659139416E+02  0.00000000000E+00 0. -1.
         11    1    3    3    0    0  0.22884466824E+01 -0.17106122733E+02  0.90994920474E+01  0.19510437693E+02  0.51100000000E-03 0. -1.
        -11    1    3    3    0    0  0.16604917096E+02 -0.12773242616E+02  0.83160473264E+01  0.22539646006E+02  0.51100000000E-03 0.  1.
         12    1    3    3    0    0  0.77381552282E+00 -0.42393083818E+01 -0.73019950320E+01  0.84787768851E+01  0.00000000000E+00 0. -1.
</event>
<event>
 7    1  0.5456331E-013  0.5052887E+02  0.7816164E-02  0.1300439E+00
        -11   -1    0    0    0    0  0.00000000000E+00  0.00000000000E+00  0.45593999997E+02  0.45594000000E+02  0.51100000000E-03 0.  1.
         11   -1    0    0    0    0 -0.00000000000E+00 -0.00000000000E+00 -0.45593999997E+02  0.45594000000E+02  0.51100000000E-03 0. -1.
    9900012    2    1    2    0    0  0.27434857836E+02 -0.42109931438E+01  0.29711289879E+02  0.50528872685E+02  0.30000039014E+02 0.  0.
         12    1    1    2    0    0 -0.27434857836E+02  0.42109931438E+01 -0.29711289879E+02  0.40659127315E+02  0.00000000000E+00 0. -1.
         11    1    3    3    0    0  0.46882353209E+01 -0.56535679499E+01  0.43441261755E+01  0.85331010469E+01  0.51100000000E-03 0. -1.
        -11    1    3    3    0    0  0.14509873384E+02 -0.11215417767E+02  0.14758507157E+02  0.23540084007E+02  0.51100000000E-03 0.  1.
        -12    1    3    3    0    0  0.82367491312E+01  0.12657992573E+02  0.10608656547E+02  0.18455687631E+02  0.00000000000E+00 0.  1.
</event>
<event>
 7    1  0.5456331E-013  0.5052885E+02  0.7816164E-02  0.1300439E+00
        -11   -1    0    0    0    0  0.00000000000E+00  0.00000000000E+00  0.45593999997E+02  0.45594000000E+02  0.51100000000E-03 0. -1.
         11   -1    0    0    0    0 -0.00000000000E+00 -0.00000000000E+00 -0.45593999997E+02  0.45594000000E+02  0.51100000000E-03 0.  1.
    9900012    2    1    2    0    0 -0.18076532429E+02  0.21287105363E+02 -0.29551054879E+02  0.50528846986E+02  0.29999960898E+02 0.  0.
         12    1    1    2    0    0  0.18076532429E+02 -0.21287105363E+02  0.29551054879E+02  0.40659153014E+02  0.00000000000E+00 0. -1.
         11    1    3    3    0    0 -0.51750760558E+01 -0.33602686659E+01 -0.11808653126E+02  0.13323554578E+02  0.51100000000E-03 0. -1.
        -11    1    3    3    0    0  0.19025283622E+01  0.15833473718E+01 -0.75826350438E+01  0.79764000362E+01  0.51100000000E-03 0.  1.
         12    1    3    3    0    0 -0.14803984735E+02  0.23064026657E+02 -0.10159766709E+02  0.29228892372E+02  0.00000000000E+00 0. -1.
</event>
<event>
 7    1  0.5456331E-013  0.5052885E+02  0.7816164E-02  0.1300439E+00
        -11   -1    0    0    0    0  0.00000000000E+00  0.00000000000E+00  0.45593999997E+02  0.45594000000E+02  0.51100000000E-03 0.  1.
         11   -1    0    0    0    0 -0.00000000000E+00 -0.00000000000E+00 -0.45593999997E+02  0.45594000000E+02  0.51100000000E-03 0. -1.
    9900012    2    1    2    0    0 -0.14402348260E+02  0.31657332402E+02 -0.21060681008E+02  0.50528848327E+02  0.29999964976E+02 0.  0.
         12    1    1    2    0    0  0.14402348260E+02 -0.31657332402E+02  0.21060681008E+02  0.40659151673E+02  0.00000000000E+00 0. -1.
         11    1    3    3    0    0 -0.11003795458E+02  0.22489824043E+02 -0.60365487006E+01  0.25754914491E+02  0.51100000000E-03 0. -1.
        -11    1    3    3    0    0 -0.88872932325E+01  0.70546960260E+01 -0.35652324502E+01  0.11893847136E+02  0.51100000000E-03 0.  1.
         12    1    3    3    0    0  0.54887404306E+01  0.21128123336E+01 -0.11458899857E+02  0.12880086700E+02  0.00000000000E+00 0. -1.
</event>
<event>
 7    1  0.5456331E-013  0.5052886E+02  0.7816164E-02  0.1300439E+00
        -11   -1    0    0    0    0  0.00000000000E+00  0.00000000000E+00  0.45593999997E+02  0.45594000000E+02  0.51100000000E-03 0.  1.
         11   -1    0    0    0    0 -0.00000000000E+00 -0.00000000000E+00 -0.45593999997E+02  0.45594000000E+02  0.51100000000E-03 0. -1.
    9900012    2    1    2    0    0  0.30356155577E+02  0.55348342071E+01  0.26477070765E+02  0.50528857763E+02  0.29999993657E+02 0.  0.
         12    1    1    2    0    0 -0.30356155577E+02 -0.55348342071E+01 -0.26477070765E+02  0.40659142237E+02  0.00000000000E+00 0. -1.
         11    1    3    3    0    0  0.13829382407E+02  0.39179939363E+00  0.78697709638E+01  0.15916614584E+02  0.51100000000E-03 0. -1.
        -11    1    3    3    0    0  0.19450408723E+02  0.11004900332E+02  0.16325210911E+02  0.27675598320E+02  0.51100000000E-03 0.  1.
         12    1    3    3    0    0 -0.29236355530E+01 -0.58618655183E+01  0.22820888906E+01  0.69366448594E+01  0.00000000000E+00 0. -1.
</event>
<event>
 7    1  0.5456331E-013  0.5052885E+02  0.7816164E-02  0.1300439E+00
        -11   -1    0    0    0    0  0.00000000000E+00  0.00000000000E+00  0.45593999997E+02  0.45594000000E+02  0.51100000000E-03 0.  1.
         11   -1    0    0    0    0 -0.00000000000E+00 -0.00000000000E+00 -0.45593999997E+02  0.45594000000E+02  0.51100000000E-03 0. -1.
    9900012    2    1    2    0    0  0.37985354602E+02 -0.13573968889E+02  0.51016604968E+01  0.50528846843E+02  0.29999960463E+02 0.  0.
         12    1    1    2    0    0 -0.37985354602E+02  0.13573968889E+02 -0.51016604968E+01  0.40659153157E+02  0.00000000000E+00 0. -1.
         11    1    3    3    0    0  0.16118982227E+02 -0.78564723997E+01 -0.10293099127E+02  0.20675919242E+02  0.51100000000E-03 0. -1.
        -11    1    3    3    0    0  0.11124124272E+02 -0.24255688269E+01  0.77112768154E+00  0.11411580220E+02  0.51100000000E-03 0.  1.
         12    1    3    3    0    0  0.10742248104E+02 -0.32919276625E+01  0.14623631942E+02  0.18441347381E+02  0.00000000000E+00 0. -1.
</event>
<event>
 7    1  0.5456331E-013  0.5052887E+02  0.7816164E-02  0.1300439E+00
        -11   -1    0    0    0    0  0.00000000000E+00  0.00000000000E+00  0.45593999997E+02  0.45594000000E+02  0.51100000000E-03 0.  1.
         11   -1    0    0    0    0 -0.00000000000E+00 -0.00000000000E+00 -0.45593999997E+02  0.45594000000E+02  0.51100000000E-03 0. -1.
    9900012    2    1    2    0    0  0.87175676685E+01 -0.37001003790E+02  0.14425480803E+02  0.50528871087E+02  0.30000034157E+02 0.  0.
         12    1    1    2    0    0 -0.87175676685E+01  0.37001003790E+02 -0.14425480803E+02  0.40659128913E+02  0.00000000000E+00 0. -1.
         11    1    3    3    0    0 -0.47993412531E+00 -0.16897079098E+02  0.75617988404E+01  0.18518164617E+02  0.51100000000E-03 0. -1.
        -11    1    3    3    0    0  0.43005263349E+01 -0.22766008188E+02  0.10414764637E+02  0.25401830215E+02  0.51100000000E-03 0.  1.
         12    1    3    3    0    0  0.48969754589E+01  0.26620834962E+01 -0.35510826750E+01  0.66088762547E+01  0.00000000000E+00 0. -1.
</event>
<event>
 7    1  0.5456331E-013  0.5052885E+02  0.7816164E-02  0.1300439E+00
        -11   -1    0    0    0    0  0.00000000000E+00  0.00000000000E+00  0.45593999997E+02  0.45594000000E+02  0.51100000000E-03 0. -1.
         11   -1    0    0    0    0 -0.00000000000E+00 -0.00000000000E+00 -0.45593999997E+02  0.45594000000E+02  0.51100000000E-03 0.  1.
    9900012    2    1    2    0    0 -0.27137882017E+02  0.21597492604E+02 -0.21219092711E+02  0.50528853149E+02  0.29999979633E+02 0.  0.
         12    1    1    2    0    0  0.27137882017E+02 -0.21597492604E+02  0.21219092711E+02  0.40659146851E+02  0.00000000000E+00 0. -1.
         11    1    3    3    0    0 -0.65503773503E+01 -0.89636988327E+00 -0.93930930013E+01  0.11486562532E+02  0.51100000000E-03 0. -1.
        -11    1    3    3    0    0  0.31937839167E+01 -0.73937409035E+00 -0.34452620722E+01  0.47557082290E+01  0.51100000000E-03 0.  1.
        -12    1    3    3    0    0 -0.23781288584E+02  0.23233236577E+02 -0.83807376376E+01  0.34286582389E+02  0.00000000000E+00 0.  1.
</event>
<event>
 7    1  0.5456331E-013  0.5052885E+02  0.7816164E-02  0.1300439E+00
        -11   -1    0    0    0    0  0.00000000000E+00  0.00000000000E+00  0.45593999997E+02  0.45594000000E+02  0.51100000000E-03 0. -1.
         11   -1    0    0    0    0 -0.00000000000E+00 -0.00000000000E+00 -0.45593999997E+02  0.45594000000E+02  0.51100000000E-03 0.  1.
    9900012    2    1    2    0    0 -0.44778497436E+01 -0.40356926741E+02  0.21056085680E+01  0.50528852668E+02  0.29999978169E+02 0.  0.
         12    1    1    2    0    0  0.44778497436E+01  0.40356926741E+02 -0.21056085680E+01  0.40659147332E+02  0.00000000000E+00 0. -1.
         11    1    3    3    0    0  0.81540428363E+01 -0.26159871169E+02  0.15902926230E+01  0.27447336939E+02  0.51100000000E-03 0. -1.
        -11    1    3    3    0    0 -0.33260576708E+01 -0.44547784020E+01 -0.59455454790E+01  0.81398539019E+01  0.51100000000E-03 0.  1.
        -12    1    3    3    0    0 -0.93058349091E+01 -0.97422771707E+01  0.64608614240E+01  0.14941661827E+02  0.00000000000E+00 0.  1.
</event>
<event>
 7    1  0.5456331E-013  0.5052886E+02  0.7816164E-02  0.1300439E+00
        -11   -1    0    0    0    0  0.00000000000E+00  0.00000000000E+00  0.45593999997E+02  0.45594000000E+02  0.51100000000E-03 0.  1.
         11   -1    0    0    0    0 -0.00000000000E+00 -0.00000000000E+00 -0.45593999997E+02  0.45594000000E+02  0.51100000000E-03 0. -1.
    9900012    2    1    2    0    0  0.13219988930E+02  0.37596479735E+02  0.80561961440E+01  0.50528859673E+02  0.29999999463E+02 0.  0.
         12    1    1    2    0    0 -0.13219988930E+02 -0.37596479735E+02 -0.80561961440E+01  0.40659140327E+02  0.00000000000E+00 0. -1.
         11    1    3    3    0    0 -0.54532511205E+01  0.49432462397E+01 -0.42850596088E+01  0.85167697680E+01  0.51100000000E-03 0. -1.
        -11    1    3    3    0    0 -0.15465963807E+00 -0.48540604019E+00 -0.14055343148E+01  0.14950135781E+01  0.51100000000E-03 0.  1.
        -12    1    3    3    0    0  0.18827899688E+02  0.33138639536E+02  0.13746790068E+02  0.40517076327E+02  0.00000000000E+00 0.  1.
</event>
<event>
 7    1  0.5456331E-013  0.5052887E+02  0.7816164E-02  0.1300439E+00
        -11   -1    0    0    0    0  0.00000000000E+00  0.00000000000E+00  0.45593999997E+02  0.45594000000E+02  0.51100000000E-03 0.  1.
         11   -1    0    0    0    0 -0.00000000000E+00 -0.00000000000E+00 -0.45593999997E+02  0.45594000000E+02  0.51100000000E-03 0. -1.
    9900012    2    1    2    0    0  0.24399025158E+01 -0.29296617079E+02  0.28087724655E+02  0.50528866059E+02  0.30000018871E+02 0.  0.
         12    1    1    2    0    0 -0.24399025158E+01  0.29296617079E+02 -0.28087724655E+02  0.40659133941E+02  0.00000000000E+00 0. -1.
         11    1    3    3    0    0  0.62960660640E+01 -0.46085827493E+01  0.42019654486E+01  0.88620537536E+01  0.51100000000E-03 0. -1.
        -11    1    3    3    0    0  0.86119545463E+01 -0.32716710917E+01  0.48014929195E+01  0.10388644154E+02  0.51100000000E-03 0.  1.
        -12    1    3    3    0    0 -0.12468118094E+02 -0.21416363238E+02  0.19084266287E+02  0.31278168151E+02  0.00000000000E+00 0.  1.
</event>
<event>
 7    1  0.5456331E-013  0.5052885E+02  0.7816164E-02  0.1300439E+00
        -11   -1    0    0    0    0  0.00000000000E+00  0.00000000000E+00  0.45593999997E+02  0.45594000000E+02  0.51100000000E-03 0.  1.
         11   -1    0    0    0    0 -0.00000000000E+00 -0.00000000000E+00 -0.45593999997E+02  0.45594000000E+02  0.51100000000E-03 0. -1.
    9900012    2    1    2    0    0 -0.32616874282E+02 -0.40063031661E+00  0.24272312250E+02  0.50528854232E+02  0.29999982924E+02 0.  0.
         12    1    1    2    0    0  0.32616874282E+02  0.40063031661E+00 -0.24272312250E+02  0.40659145768E+02  0.00000000000E+00 0. -1.
         11    1    3    3    0    0 -0.47823577659E+01  0.90605153453E+01  0.11560968175E+02  0.15447325643E+02  0.51100000000E-03 0. -1.
        -11    1    3    3    0    0 -0.63864497520E+01  0.31896131093E+01  0.33066267579E-01  0.71387299893E+01  0.51100000000E-03 0.  1.
         12    1    3    3    0    0 -0.21448066764E+02 -0.12650758771E+02  0.12678277808E+02  0.27942798600E+02  0.00000000000E+00 0. -1.
</event>
<event>
 7    1  0.5456331E-013  0.5052888E+02  0.7816164E-02  0.1300439E+00
        -11   -1    0    0    0    0  0.00000000000E+00  0.00000000000E+00  0.45593999997E+02  0.45594000000E+02  0.51100000000E-03 0. -1.
         11   -1    0    0    0    0 -0.00000000000E+00 -0.00000000000E+00 -0.45593999997E+02  0.45594000000E+02  0.51100000000E-03 0.  1.
    9900012    2    1    2    0    0  0.39847828909E+01 -0.16545753287E+02 -0.36925925793E+02  0.50528875044E+02  0.30000046183E+02 0.  0.
         12    1    1    2    0    0 -0.39847828909E+01  0.16545753287E+02  0.36925925793E+02  0.40659124956E+02  0.00000000000E+00 0. -1.
         11    1    3    3    0    0 -0.18646122179E+00 -0.15856945095E+01  0.24693382620E+01  0.29405486865E+01  0.51100000000E-03 0. -1.
        -11    1    3    3    0    0  0.78870817245E+01  0.28027428765E+01 -0.15085403332E+02  0.17251980168E+02  0.51100000000E-03 0.  1.
         12    1    3    3    0    0 -0.37158376118E+01 -0.17762801654E+02 -0.24309860723E+02  0.30336346190E+02  0.00000000000E+00 0. -1.
</event>
<event>
 7    1  0.5456331E-013  0.5052886E+02  0.7816164E-02  0.1300439E+00
        -11   -1    0    0    0    0  0.00000000000E+00  0.00000000000E+00  0.45593999997E+02  0.45594000000E+02  0.51100000000E-03 0.  1.
         11   -1    0    0    0    0 -0.00000000000E+00 -0.00000000000E+00 -0.45593999997E+02  0.45594000000E+02  0.51100000000E-03 0. -1.
    9900012    2    1    2    0    0 -0.81793753684E+01 -0.19367816429E+02  0.34801601519E+02  0.50528856342E+02  0.29999989339E+02 0.  0.
         12    1    1    2    0    0  0.81793753684E+01  0.19367816429E+02 -0.34801601519E+02  0.40659143658E+02  0.00000000000E+00 0. -1.
         11    1    3    3    0    0 -0.75778318670E+00 -0.19003996385E+02  0.80703743982E+01  0.20660519286E+02  0.51100000000E-03 0. -1.
        -11    1    3    3    0    0 -0.18373329379E+01 -0.52291490555E+01  0.15037493714E+02  0.16026415995E+02  0.51100000000E-03 0.  1.
        -12    1    3    3    0    0 -0.55842592438E+01  0.48653290117E+01  0.11693733407E+02  0.13841921062E+02  0.00000000000E+00 0.  1.
</event>
<event>
 7    1  0.5456331E-013  0.5052887E+02  0.7816164E-02  0.1300439E+00
        -11   -1    0    0    0    0  0.00000000000E+00  0.00000000000E+00  0.45593999997E+02  0.45594000000E+02  0.51100000000E-03 0.  1.
         11   -1    0    0    0    0 -0.00000000000E+00 -0.00000000000E+00 -0.45593999997E+02  0.45594000000E+02  0.51100000000E-03 0. -1.
    9900012    2    1    2    0    0  0.27192044154E+02  0.15936399988E+02  0.25686355249E+02  0.50528868728E+02  0.30000026984E+02 0.  0.
         12    1    1    2    0    0 -0.27192044154E+02 -0.15936399988E+02 -0.25686355249E+02  0.40659131272E+02  0.00000000000E+00 0. -1.
         11    1    3    3    0    0  0.98906706825E+01  0.25317882443E+01  0.78721957580E+01  0.12892121027E+02  0.51100000000E-03 0. -1.
        -11    1    3    3    0    0  0.21926416305E+02  0.15074976836E+02  0.18853094563E+02  0.32610762540E+02  0.51100000000E-03 0.  1.
         12    1    3    3    0    0 -0.46250428339E+01 -0.16703650919E+01 -0.10389350711E+01  0.50259851609E+01  0.00000000000E+00 0. -1.
</event>
<event>
 7    1  0.5456331E-013  0.5052886E+02  0.7816164E-02  0.1300439E+00
        -11   -1    0    0    0    0  0.00000000000E+00  0.00000000000E+00  0.45593999997E+02  0.45594000000E+02  0.51100000000E-03 0.  1.
         11   -1    0    0    0    0 -0.00000000000E+00 -0.00000000000E+00 -0.45593999997E+02  0.45594000000E+02  0.51100000000E-03 0. -1.
    9900012    2    1    2    0    0 -0.20744345782E+02 -0.31925432412E+02  0.14269015466E+02  0.50528856883E+02  0.29999990982E+02 0.  0.
         12    1    1    2    0    0  0.20744345782E+02  0.31925432412E+02 -0.14269015466E+02  0.40659143117E+02  0.00000000000E+00 0. -1.
         11    1    3    3    0    0 -0.46220560705E-01  0.66703198899E+00  0.27583149970E+01  0.28381983543E+01  0.51100000000E-03 0. -1.
        -11    1    3    3    0    0 -0.96175610694E+01 -0.27684810083E+01  0.12309707534E+02  0.15864768131E+02  0.51100000000E-03 0.  1.
         12    1    3    3    0    0 -0.11080564152E+02 -0.29823983393E+02 -0.79900706472E+00  0.31825890398E+02  0.00000000000E+00 0. -1.
</event>
<event>
 7    1  0.5456331E-013  0.5052886E+02  0.7816164E-02  0.1300439E+00
        -11   -1    0    0    0    0  0.00000000000E+00  0.00000000000E+00  0.45593999997E+02  0.45594000000E+02  0.51100000000E-03 0.  1.
         11   -1    0    0    0    0 -0.00000000000E+00 -0.00000000000E+00 -0.45593999997E+02  0.45594000000E+02  0.51100000000E-03 0. -1.
    9900012    2    1    2    0    0  0.14917692512E+02 -0.10722575462E+02  0.36271953959E+02  0.50528858120E+02  0.29999994740E+02 0.  0.
         12    1    1    2    0    0 -0.14917692512E+02  0.10722575462E+02 -0.36271953959E+02  0.40659141880E+02  0.00000000000E+00 0. -1.
         11    1    3    3    0    0  0.13897859206E+02 -0.23375343758E+01  0.11568106160E+02  0.18232817606E+02  0.51100000000E-03 0.  1.
        -11    1    3    3    0    0  0.88060927336E+01  0.22176370873E+00  0.76470879746E+01  0.11665093361E+02  0.51100000000E-03 0. -1.
        -12    1    3    3    0    0 -0.77862594280E+01 -0.86068047954E+01  0.17056759825E+02  0.20630947152E+02  0.00000000000E+00 0.  1.
</event>
<event>
 7    1  0.5456331E-013  0.5052887E+02  0.7816164E-02  0.1300439E+00
        -11   -1    0    0    0    0  0.00000000000E+00  0.00000000000E+00  0.45593999997E+02  0.45594000000E+02  0.51100000000E-03 0.  1.
         11   -1    0    0    0    0 -0.00000000000E+00 -0.00000000000E+00 -0.45593999997E+02  0.45594000000E+02  0.51100000000E-03 0. -1.
    9900012    2    1    2    0    0 -0.36307523229E+02  0.15673888890E+02  0.94476551143E+01  0.50528865440E+02  0.30000016992E+02 0.  0.
         12    1    1    2    0    0  0.36307523229E+02 -0.15673888890E+02 -0.94476551143E+01  0.40659134560E+02  0.00000000000E+00 0. -1.
         11    1    3    3    0    0 -0.12287836303E+02  0.10099915349E+01 -0.48271318457E+01  0.13240551576E+02  0.51100000000E-03 0. -1.
        -11    1    3    3    0    0 -0.15746709088E+02 -0.15749055347E+01  0.38277393171E+01  0.16281608124E+02  0.51100000000E-03 0.  1.
        -12    1    3    3    0    0 -0.82729778376E+01  0.16238802890E+02  0.10447047643E+02  0.21006705740E+02  0.00000000000E+00 0.  1.
</event>
<event>
 7    1  0.5456331E-013  0.5052886E+02  0.7816164E-02  0.1300439E+00
        -11   -1    0    0    0    0  0.00000000000E+00  0.00000000000E+00  0.45593999997E+02  0.45594000000E+02  0.51100000000E-03 0.  1.
         11   -1    0    0    0    0 -0.00000000000E+00 -0.00000000000E+00 -0.45593999997E+02  0.45594000000E+02  0.51100000000E-03 0. -1.
    9900012    2    1    2    0    0 -0.26847910937E+01 -0.14947774478E+02  0.37716330525E+02  0.50528860151E+02  0.30000000914E+02 0.  0.
         12    1    1    2    0    0  0.26847910937E+01  0.14947774478E+02 -0.37716330525E+02  0.40659139849E+02  0.00000000000E+00 0. -1.
         11    1    3    3    0    0  0.50558895291E+01 -0.34315183283E+01  0.13683867941E+02  0.14986179602E+02  0.51100000000E-03 0. -1.
        -11    1    3    3    0    0  0.25352514873E+01 -0.44102568253E+00  0.19641566245E+02  0.19809420198E+02  0.51100000000E-03 0.  1.
         12    1    3    3    0    0 -0.10275932110E+02 -0.11075230467E+02  0.43908963387E+01  0.15733260351E+02  0.00000000000E+00 0. -1.
</event>
<event>
 7    1  0.5456331E-013  0.5052886E+02  0.7816164E-02  0.1300439E+00
        -11   -1    0    0    0    0  0.00000000000E+00  0.00000000000E+00  0.45593999997E+02  0.45594000000E+02  0.51100000000E-03 0.  1.
         11   -1    0    0    0    0 -0.00000000000E+00 -0.00000000000E+00 -0.45593999997E+02  0.45594000000E+02  0.51100000000E-03 0. -1.
    9900012    2    1    2    0    0 -0.29806079120E+02 -0.21969250834E+02 -0.16796295841E+02  0.50528857256E+02  0.29999992115E+02 0.  0.
         12    1    1    2    0    0  0.29806079120E+02  0.21969250834E+02  0.16796295841E+02  0.40659142744E+02  0.00000000000E+00 0. -1.
         11    1    3    3    0    0  0.88362833821E+00  0.23209411075E+01  0.57892168014E+00  0.25500425952E+01  0.51100000000E-03 0.  1.
        -11    1    3    3    0    0  0.22634326630E+01 -0.22438851859E+01  0.20891161325E+01  0.38108469694E+01  0.51100000000E-03 0. -1.
        -12    1    3    3    0    0 -0.32953140121E+02 -0.22046306755E+02 -0.19464333654E+02  0.44167967691E+02  0.00000000000E+00 0.  1.
</event>
<event>
 7    1  0.5456331E-013  0.5052886E+02  0.7816164E-02  0.1300439E+00
        -11   -1    0    0    0    0  0.00000000000E+00  0.00000000000E+00  0.45593999997E+02  0.45594000000E+02  0.51100000000E-03 0. -1.
         11   -1    0    0    0    0 -0.00000000000E+00 -0.00000000000E+00 -0.45593999997E+02  0.45594000000E+02  0.51100000000E-03 0.  1.
    9900012    2    1    2    0    0  0.14600449007E+02  0.26219709555E+02 -0.27432082657E+02  0.50528862783E+02  0.30000008915E+02 0.  0.
         12    1    1    2    0    0 -0.14600449007E+02 -0.26219709555E+02  0.27432082657E+02  0.40659137217E+02  0.00000000000E+00 0. -1.
         11    1    3    3    0    0  0.51405752333E+01  0.55882860302E+01  0.43375068416E+01  0.87446223673E+01  0.51100000000E-03 0. -1.
        -11    1    3    3    0    0  0.35367151848E+01  0.11301968273E+02 -0.50587613441E+01  0.12877651484E+02  0.51100000000E-03 0.  1.
        -12    1    3    3    0    0  0.59231585884E+01  0.93294552514E+01 -0.26710828155E+02  0.28906588932E+02  0.00000000000E+00 0.  1.
</event>
<event>
 7    1  0.5456331E-013  0.5052886E+02  0.7816164E-02  0.1300439E+00
        -11   -1    0    0    0    0  0.00000000000E+00  0.00000000000E+00  0.45593999997E+02  0.45594000000E+02  0.51100000000E-03 0. -1.
         11   -1    0    0    0    0 -0.00000000000E+00 -0.00000000000E+00 -0.45593999997E+02  0.45594000000E+02  0.51100000000E-03 0.  1.
    9900012    2    1    2    0    0  0.38916503116E+02 -0.13643040787E+01  0.11696586622E+02  0.50528859834E+02  0.29999999952E+02 0.  0.
         12    1    1    2    0    0 -0.38916503116E+02  0.13643040787E+01 -0.11696586622E+02  0.40659140166E+02  0.00000000000E+00 0. -1.
         11    1    3    3    0    0  0.13239530864E+02  0.16673472975E+01 -0.39580353545E+01  0.13918738040E+02  0.51100000000E-03 0. -1.
        -11    1    3    3    0    0  0.19581114659E+02 -0.11359908166E+02  0.91912072514E+01  0.24432475434E+02  0.51100000000E-03 0.  1.
         12    1    3    3    0    0  0.60958575938E+01  0.83282567900E+01  0.64634147249E+01  0.12177646360E+02  0.00000000000E+00 0. -1.
</event>
<event>
 7    1  0.5456331E-013  0.5052886E+02  0.7816164E-02  0.1300439E+00
        -11   -1    0    0    0    0  0.00000000000E+00  0.00000000000E+00  0.45593999997E+02  0.45594000000E+02  0.51100000000E-03 0.  1.
         11   -1    0    0    0    0 -0.00000000000E+00 -0.00000000000E+00 -0.45593999997E+02  0.45594000000E+02  0.51100000000E-03 0. -1.
    9900012    2    1    2    0    0  0.19170201020E+02  0.57499370146E+01  0.35392196935E+02  0.50528856050E+02  0.29999988450E+02 0.  0.
         12    1    1    2    0    0 -0.19170201020E+02 -0.57499370146E+01 -0.35392196935E+02  0.40659143950E+02  0.00000000000E+00 0. -1.
         11    1    3    3    0    0 -0.18126089479E+01  0.38972825419E+01  0.92493602346E+00  0.43965747256E+01  0.51100000000E-03 0. -1.
        -11    1    3    3    0    0  0.14998175180E+01  0.11955044156E+00  0.23809933424E+02  0.23857423893E+02  0.51100000000E-03 0.  1.
        -12    1    3    3    0    0  0.19482992450E+02  0.17331040312E+01  0.10657327487E+02  0.22274857431E+02  0.00000000000E+00 0.  1.
</event>
<event>
 7    1  0.5456331E-013  0.5052886E+02  0.7816164E-02  0.1300439E+00
        -11   -1    0    0    0    0  0.00000000000E+00  0.00000000000E+00  0.45593999997E+02  0.45594000000E+02  0.51100000000E-03 0.  1.
         11   -1    0    0    0    0 -0.00000000000E+00 -0.00000000000E+00 -0.45593999997E+02  0.45594000000E+02  0.51100000000E-03 0. -1.
    9900012    2    1    2    0    0 -0.34433884387E+02  0.56262534012E+01  0.20876261061E+02  0.50528863300E+02  0.30000010487E+02 0.  0.
         12    1    1    2    0    0  0.34433884387E+02 -0.56262534012E+01 -0.20876261061E+02  0.40659136700E+02  0.00000000000E+00 0. -1.
         11    1    3    3    0    0 -0.92745667732E+01 -0.35348767105E+01  0.88687423317E+01  0.13310429482E+02  0.51100000000E-03 0. -1.
        -11    1    3    3    0    0 -0.25862406001E+02  0.53791712424E+01  0.16622334523E+02  0.31210599684E+02  0.51100000000E-03 0.  1.
         12    1    3    3    0    0  0.70308838758E+00  0.37819588692E+01 -0.46148157936E+01  0.60078341336E+01  0.00000000000E+00 0. -1.
</event>
<event>
 7    1  0.5456331E-013  0.5052886E+02  0.7816164E-02  0.1300439E+00
        -11   -1    0    0    0    0  0.00000000000E+00  0.00000000000E+00  0.45593999997E+02  0.45594000000E+02  0.51100000000E-03 0.  1.
         11   -1    0    0    0    0 -0.00000000000E+00 -0.00000000000E+00 -0.45593999997E+02  0.45594000000E+02  0.51100000000E-03 0. -1.
    9900012    2    1    2    0    0  0.25756963815E+02  0.88757526991E+01  0.30182209051E+02  0.50528856943E+02  0.29999991163E+02 0.  0.
         12    1    1    2    0    0 -0.25756963815E+02 -0.88757526991E+01 -0.30182209051E+02  0.40659143057E+02  0.00000000000E+00 0. -1.
         11    1    3    3    0    0  0.10819146820E+02  0.77291123340E+01 -0.89352823561E+00  0.13326346399E+02  0.51100000000E-03 0. -1.
        -11    1    3    3    0    0  0.30804606598E+01 -0.33165517424E+01  0.10984110973E+01  0.46578171429E+01  0.51100000000E-03 0.  1.
        -12    1    3    3    0    0  0.11857356335E+02  0.44631921075E+01  0.29977326190E+02  0.32544693400E+02  0.00000000000E+00 0.  1.
</event>
<event>
 7    1  0.5456331E-013  0.5052889E+02  0.7816164E-02  0.1300439E+00
        -11   -1    0    0    0    0  0.00000000000E+00  0.00000000000E+00  0.45593999997E+02  0.45594000000E+02  0.51100000000E-03 0.  1.
         11   -1    0    0    0    0 -0.00000000000E+00 -0.00000000000E+00 -0.45593999997E+02  0.45594000000E+02  0.51100000000E-03 0. -1.
    9900012    2    1    2    0    0 -0.14451481994E+02 -0.37853821315E+02 -0.33772413967E+01  0.50528894262E+02  0.30000104599E+02 0.  0.
         12    1    1    2    0    0  0.14451481994E+02  0.37853821315E+02  0.33772413967E+01  0.40659105738E+02  0.00000000000E+00 0. -1.
         11    1    3    3    0    0 -0.26172788610E+01 -0.17951570671E+02 -0.11716545814E+02  0.21595983059E+02  0.51100000000E-03 0. -1.
        -11    1    3    3    0    0 -0.29481525647E+01 -0.18301215847E+02  0.69516730619E+01  0.19797774209E+02  0.51100000000E-03 0.  1.
        -12    1    3    3    0    0 -0.88860505684E+01 -0.16010347966E+01  0.13876313556E+01  0.91351369942E+01  0.00000000000E+00 0.  1.
</event>
<event>
 7    1  0.5456331E-013  0.5052886E+02  0.7816164E-02  0.1300439E+00
        -11   -1    0    0    0    0  0.00000000000E+00  0.00000000000E+00  0.45593999997E+02  0.45594000000E+02  0.51100000000E-03 0.  1.
         11   -1    0    0    0    0 -0.00000000000E+00 -0.00000000000E+00 -0.45593999997E+02  0.45594000000E+02  0.51100000000E-03 0. -1.
    9900012    2    1    2    0    0  0.34420751578E+02 -0.88400366102E+01 -0.19754277972E+02  0.50528857305E+02  0.29999992264E+02 0.  0.
         12    1    1    2    0    0 -0.34420751578E+02  0.88400366102E+01  0.19754277972E+02  0.40659142695E+02  0.00000000000E+00 0. -1.
         11    1    3    3    0    0  0.74206778380E+01 -0.23870338377E+01  0.52205884356E+01  0.93818406505E+01  0.51100000000E-03 0.  1.
        -11    1    3    3    0    0  0.16818302780E+01  0.41876283928E+01 -0.84950909020E+00  0.45919985405E+01  0.51100000000E-03 0. -1.
        -12    1    3    3    0    0  0.25318243462E+02 -0.10640631165E+02 -0.24125357317E+02  0.36555018114E+02  0.00000000000E+00 0.  1.
</event>
<event>
 7    1  0.5456331E-013  0.5052883E+02  0.7816164E-02  0.1300439E+00
        -11   -1    0    0    0    0  0.00000000000E+00  0.00000000000E+00  0.45593999997E+02  0.45594000000E+02  0.51100000000E-03 0.  1.
         11   -1    0    0    0    0 -0.00000000000E+00 -0.00000000000E+00 -0.45593999997E+02  0.45594000000E+02  0.51100000000E-03 0. -1.
    9900012    2    1    2    0    0  0.36831837885E+02 -0.88707871065E+01  0.14761207833E+02  0.50528826342E+02  0.29999898149E+02 0.  0.
         12    1    1    2    0    0 -0.36831837885E+02  0.88707871065E+01 -0.14761207833E+02  0.40659173658E+02  0.00000000000E+00 0. -1.
         11    1    3    3    0    0  0.23021098258E+02 -0.70461315962E+01  0.46360845026E+01  0.24517589916E+02  0.51100000000E-03 0. -1.
        -11    1    3    3    0    0  0.13208757884E+02  0.63484982627E+01  0.25978378673E+01  0.14883664766E+02  0.51100000000E-03 0.  1.
         12    1    3    3    0    0  0.60198174297E+00 -0.81731537730E+01  0.75272854629E+01  0.11127571660E+02  0.00000000000E+00 0. -1.
</event>
<event>
 7    1  0.5456331E-013  0.5052886E+02  0.7816164E-02  0.1300439E+00
        -11   -1    0    0    0    0  0.00000000000E+00  0.00000000000E+00  0.45593999997E+02  0.45594000000E+02  0.51100000000E-03 0.  1.
         11   -1    0    0    0    0 -0.00000000000E+00 -0.00000000000E+00 -0.45593999997E+02  0.45594000000E+02  0.51100000000E-03 0. -1.
    9900012    2    1    2    0    0 -0.36188135878E+01 -0.17464117224E+02  0.36538672600E+02  0.50528858376E+02  0.29999995520E+02 0.  0.
         12    1    1    2    0    0  0.36188135878E+01  0.17464117224E+02 -0.36538672600E+02  0.40659141624E+02  0.00000000000E+00 0. -1.
         11    1    3    3    0    0  0.59150764338E+01  0.25134777253E+01  0.18710472060E+02  0.19783514967E+02  0.51100000000E-03 0. -1.
        -11    1    3    3    0    0  0.10752255804E+01 -0.51898470959E+01  0.91690223101E+01  0.10590637059E+02  0.51100000000E-03 0.  1.
         12    1    3    3    0    0 -0.10609115602E+02 -0.14787747853E+02  0.86591782306E+01  0.20154706350E+02  0.00000000000E+00 0. -1.
</event>
<event>
 7    1  0.5456331E-013  0.5052884E+02  0.7816164E-02  0.1300439E+00
        -11   -1    0    0    0    0  0.00000000000E+00  0.00000000000E+00  0.45593999997E+02  0.45594000000E+02  0.51100000000E-03 0. -1.
         11   -1    0    0    0    0 -0.00000000000E+00 -0.00000000000E+00 -0.45593999997E+02  0.45594000000E+02  0.51100000000E-03 0.  1.
    9900012    2    1    2    0    0  0.37132307428E+02  0.10359054792E+02  0.12924758886E+02  0.50528835432E+02  0.29999925779E+02 0.  0.
         12    1    1    2    0    0 -0.37132307428E+02 -0.10359054792E+02 -0.12924758886E+02  0.40659164568E+02  0.00000000000E+00 0. -1.
         11    1    3    3    0    0  0.22344031786E+02 -0.34014744785E+01  0.10877654017E+02  0.25082845577E+02  0.51100000000E-03 0. -1.
        -11    1    3    3    0    0  0.14676324284E+02  0.34827367194E+01  0.10952884505E+01  0.15123610898E+02  0.51100000000E-03 0.  1.
         12    1    3    3    0    0  0.11195135830E+00  0.10277792551E+02  0.95181641825E+00  0.10322378957E+02  0.00000000000E+00 0. -1.
</event>
<event>
 7    1  0.5456331E-013  0.5052886E+02  0.7816164E-02  0.1300439E+00
        -11   -1    0    0    0    0  0.00000000000E+00  0.00000000000E+00  0.45593999997E+02  0.45594000000E+02  0.51100000000E-03 0.  1.
         11   -1    0    0    0    0 -0.00000000000E+00 -0.00000000000E+00 -0.45593999997E+02  0.45594000000E+02  0.51100000000E-03 0. -1.
    9900012    2    1    2    0    0 -0.22937380836E+02  0.31160537421E+02  0.12492520513E+02  0.50528860797E+02  0.30000002878E+02 0.  0.
         12    1    1    2    0    0  0.22937380836E+02 -0.31160537421E+02 -0.12492520513E+02  0.40659139203E+02  0.00000000000E+00 0. -1.
         11    1    3    3    0    0 -0.32918923133E-01 -0.27155882156E+01  0.12697981915E+01  0.29979811074E+01  0.51100000000E-03 0. -1.
        -11    1    3    3    0    0 -0.13641288054E+02  0.34619483960E+01  0.60512171597E+01  0.15319499204E+02  0.51100000000E-03 0.  1.
         12    1    3    3    0    0 -0.92631738587E+01  0.30414177241E+02  0.51715051617E+01  0.32211380486E+02  0.00000000000E+00 0. -1.
</event>
<event>
 7    1  0.5456331E-013  0.5052886E+02  0.7816164E-02  0.1300439E+00
        -11   -1    0    0    0    0  0.00000000000E+00  0.00000000000E+00  0.45593999997E+02  0.45594000000E+02  0.51100000000E-03 0. -1.
         11   -1    0    0    0    0 -0.00000000000E+00 -0.00000000000E+00 -0.45593999997E+02  0.45594000000E+02  0.51100000000E-03 0.  1.
    9900012    2    1    2    0    0  0.24719795952E+02  0.32272288744E+02  0.77254098982E+00  0.50528858933E+02  0.29999997214E+02 0.  0.
         12    1    1    2    0    0 -0.24719795952E+02 -0.32272288744E+02 -0.77254098982E+00  0.40659141067E+02  0.00000000000E+00 0. -1.
         11    1    3    3    0    0  0.14151237342E+02  0.82078399977E+01 -0.54678417298E+01  0.17248868055E+02  0.51100000000E-03 0. -1.
        -11    1    3    3    0    0  0.13494813065E+02  0.81974238593E+01 -0.49196331513E+00  0.15797144228E+02  0.51100000000E-03 0.  1.
         12    1    3    3    0    0 -0.29262544541E+01  0.15867024887E+02  0.67323460347E+01  0.17482846651E+02  0.00000000000E+00 0. -1.
</event>
<event>
 7    1  0.5456331E-013  0.5052886E+02  0.7816164E-02  0.1300439E+00
        -11   -1    0    0    0    0  0.00000000000E+00  0.00000000000E+00  0.45593999997E+02  0.45594000000E+02  0.51100000000E-03 0.  1.
         11   -1    0    0    0    0 -0.00000000000E+00 -0.00000000000E+00 -0.45593999997E+02  0.45594000000E+02  0.51100000000E-03 0. -1.
    9900012    2    1    2    0    0  0.34413507030E+02  0.42261070771E+01  0.21237145366E+02  0.50528858464E+02  0.29999995788E+02 0.  0.
         12    1    1    2    0    0 -0.34413507030E+02 -0.42261070771E+01 -0.21237145366E+02  0.40659141536E+02  0.00000000000E+00 0. -1.
         11    1    3    3    0    0  0.99817495490E+01 -0.68139942473E+01  0.71785627362E+00  0.12107070643E+02  0.51100000000E-03 0. -1.
        -11    1    3    3    0    0  0.10488875673E+02 -0.45783639864E+01  0.58121632475E+01  0.12835854921E+02  0.51100000000E-03 0.  1.
        -12    1    3    3    0    0  0.13942881807E+02  0.15618465311E+02  0.14707125845E+02  0.25585932900E+02  0.00000000000E+00 0.  1.
</event>
<event>
 7    1  0.5456331E-013  0.5052886E+02  0.7816164E-02  0.1300439E+00
        -11   -1    0    0    0    0  0.00000000000E+00  0.00000000000E+00  0.45593999997E+02  0.45594000000E+02  0.51100000000E-03 0.  1.
         11   -1    0    0    0    0 -0.00000000000E+00 -0.00000000000E+00 -0.45593999997E+02  0.45594000000E+02  0.51100000000E-03 0. -1.
    9900012    2    1    2    0    0 -0.88804212101E+01  0.34818075632E+02  0.19026441376E+02  0.50528859047E+02  0.29999997560E+02 0.  0.
         12    1    1    2    0    0  0.88804212101E+01 -0.34818075632E+02 -0.19026441376E+02  0.40659140953E+02  0.00000000000E+00 0. -1.
         11    1    3    3    0    0 -0.65091785618E+01  0.12205913695E+02  0.51097940017E+01  0.14746651473E+02  0.51100000000E-03 0. -1.
        -11    1    3    3    0    0 -0.38569373888E+01  0.27073411088E+02  0.14649303380E+02  0.31023340306E+02  0.51100000000E-03 0.  1.
         12    1    3    3    0    0  0.14856947405E+01 -0.44612491513E+01 -0.73265600546E+00  0.47588672680E+01  0.00000000000E+00 0. -1.
</event>
<event>
 7    1  0.5456331E-013  0.5052887E+02  0.7816164E-02  0.1300439E+00
        -11   -1    0    0    0    0  0.00000000000E+00  0.00000000000E+00  0.45593999997E+02  0.45594000000E+02  0.51100000000E-03 0.  1.
         11   -1    0    0    0    0 -0.00000000000E+00 -0.00000000000E+00 -0.45593999997E+02  0.45594000000E+02  0.51100000000E-03 0. -1.
    9900012    2    1    2    0    0  0.97233803982E+01 -0.26737770895E+02  0.29046730840E+02  0.50528867061E+02  0.30000021920E+02 0.  0.
         12    1    1    2    0    0 -0.97233803982E+01  0.26737770895E+02 -0.29046730840E+02  0.40659132939E+02  0.00000000000E+00 0. -1.
         11    1    3    3    0    0 -0.61890234587E+01 -0.28827107886E+01  0.11493755281E+02  0.13368636564E+02  0.51100000000E-03 0. -1.
        -11    1    3    3    0    0 -0.23294933294E+01 -0.31349570142E+01 -0.83093618515E+00  0.39931128030E+01  0.51100000000E-03 0.  1.
        -12    1    3    3    0    0  0.18241897186E+02 -0.20720103092E+02  0.18383911744E+02  0.33167117694E+02  0.00000000000E+00 0.  1.
</event>
<event>
 7    1  0.5456331E-013  0.5052888E+02  0.7816164E-02  0.1300439E+00
        -11   -1    0    0    0    0  0.00000000000E+00  0.00000000000E+00  0.45593999997E+02  0.45594000000E+02  0.51100000000E-03 0.  1.
         11   -1    0    0    0    0 -0.00000000000E+00 -0.00000000000E+00 -0.45593999997E+02  0.45594000000E+02  0.51100000000E-03 0. -1.
    9900012    2    1    2    0    0 -0.63800019331E+01 -0.25097400038E+02  0.31346130764E+02  0.50528882607E+02  0.30000069172E+02 0.  0.
         12    1    1    2    0    0  0.63800019331E+01  0.25097400038E+02 -0.31346130764E+02  0.40659117393E+02  0.00000000000E+00 0. -1.
         11    1    3    3    0    0 -0.55809348046E+01 -0.46658007375E+01 -0.25921852506E+01  0.77224319000E+01  0.51100000000E-03 0. -1.
        -11    1    3    3    0    0 -0.73540026073E+01 -0.52356233290E+01  0.16209290347E+02  0.18553549521E+02  0.51100000000E-03 0.  1.
        -12    1    3    3    0    0  0.65549354789E+01 -0.15195975971E+02  0.17729025667E+02  0.24252901186E+02  0.00000000000E+00 0.  1.
</event>
<event>
 7    1  0.5456331E-013  0.5052886E+02  0.7816164E-02  0.1300439E+00
        -11   -1    0    0    0    0  0.00000000000E+00  0.00000000000E+00  0.45593999997E+02  0.45594000000E+02  0.51100000000E-03 0.  1.
         11   -1    0    0    0    0 -0.00000000000E+00 -0.00000000000E+00 -0.45593999997E+02  0.45594000000E+02  0.51100000000E-03 0. -1.
    9900012    2    1    2    0    0  0.33940608760E+01 -0.24462717698E+02  0.32298943469E+02  0.50528856433E+02  0.29999989613E+02 0.  0.
         12    1    1    2    0    0 -0.33940608760E+01  0.24462717698E+02 -0.32298943469E+02  0.40659143567E+02  0.00000000000E+00 0. -1.
         11    1    3    3    0    0 -0.12018084409E+01  0.31717201616E+01  0.38809563531E+01  0.51542191249E+01  0.51100000000E-03 0. -1.
        -11    1    3    3    0    0  0.36013745903E+01  0.93462685666E+00 -0.14848748713E+01  0.40060304474E+01  0.51100000000E-03 0.  1.
        -12    1    3    3    0    0  0.99449472664E+00 -0.28569064717E+02  0.29902861987E+02  0.41368606860E+02  0.00000000000E+00 0.  1.
</event>
<event>
 7    1  0.5456331E-013  0.5052884E+02  0.7816164E-02  0.1300439E+00
        -11   -1    0    0    0    0  0.00000000000E+00  0.00000000000E+00  0.45593999997E+02  0.45594000000E+02  0.51100000000E-03 0.  1.
         11   -1    0    0    0    0 -0.00000000000E+00 -0.00000000000E+00 -0.45593999997E+02  0.45594000000E+02  0.51100000000E-03 0. -1.
    9900012    2    1    2    0    0  0.29139146858E+02 -0.13286432588E+02  0.25050913379E+02  0.50528838282E+02  0.29999934442E+02 0.  0.
         12    1    1    2    0    0 -0.29139146858E+02  0.13286432588E+02 -0.25050913379E+02  0.40659161718E+02  0.00000000000E+00 0. -1.
         11    1    3    3    0    0  0.60683014064E+01 -0.10627729727E+02  0.47821884996E+01  0.13139339718E+02  0.51100000000E-03 0. -1.
        -11    1    3    3    0    0  0.22022072701E+01 -0.79544083673E+01  0.11469941397E+02  0.14130884093E+02  0.51100000000E-03 0.  1.
        -12    1    3    3    0    0  0.20868638181E+02  0.52957055069E+01  0.87987834818E+01  0.23258614471E+02  0.00000000000E+00 0.  1.
</event>
<event>
 7    1  0.5456331E-013  0.5052890E+02  0.7816164E-02  0.1300439E+00
        -11   -1    0    0    0    0  0.00000000000E+00  0.00000000000E+00  0.45593999997E+02  0.45594000000E+02  0.51100000000E-03 0.  1.
         11   -1    0    0    0    0 -0.00000000000E+00 -0.00000000000E+00 -0.45593999997E+02  0.45594000000E+02  0.51100000000E-03 0. -1.
    9900012    2    1    2    0    0 -0.61463305945E+01  0.12384727836E+02  0.38236158548E+02  0.50528896667E+02  0.30000111909E+02 0.  0.
         12    1    1    2    0    0  0.61463305945E+01 -0.12384727836E+02 -0.38236158548E+02  0.40659103333E+02  0.00000000000E+00 0. -1.
         11    1    3    3    0    0 -0.51356569376E+01  0.32772617854E+01  0.25903326571E+02  0.26610106063E+02  0.51100000000E-03 0. -1.
        -11    1    3    3    0    0 -0.72631003845E+01  0.32576227397E+01  0.13092870880E+02  0.15322793520E+02  0.51100000000E-03 0.  1.
         12    1    3    3    0    0  0.62524267277E+01  0.58498433105E+01 -0.76003890288E+00  0.85959970845E+01  0.00000000000E+00 0. -1.
</event>
<event>
 7    1  0.5456331E-013  0.5052886E+02  0.7816164E-02  0.1300439E+00
        -11   -1    0    0    0    0  0.00000000000E+00  0.00000000000E+00  0.45593999997E+02  0.45594000000E+02  0.51100000000E-03 0.  1.
         11   -1    0    0    0    0 -0.00000000000E+00 -0.00000000000E+00 -0.45593999997E+02  0.45594000000E+02  0.51100000000E-03 0. -1.
    9900012    2    1    2    0    0  0.18701542675E+02 -0.35842947754E+02  0.43244455552E+01  0.50528862879E+02  0.30000009207E+02 0.  0.
         12    1    1    2    0    0 -0.18701542675E+02  0.35842947754E+02 -0.43244455552E+01  0.40659137121E+02  0.00000000000E+00 0. -1.
         11    1    3    3    0    0 -0.85505781708E+00 -0.83081724370E+01  0.10076182613E+02  0.13087639566E+02  0.51100000000E-03 0.  1.
        -11    1    3    3    0    0  0.41993096318E+01 -0.40269766957E+00  0.28602351990E+01  0.50967943309E+01  0.51100000000E-03 0. -1.
         12    1    3    3    0    0  0.15357290860E+02 -0.27132077647E+02 -0.86119722566E+01  0.32344428982E+02  0.00000000000E+00 0. -1.
</event>
<event>
 7    1  0.5456331E-013  0.5052886E+02  0.7816164E-02  0.1300439E+00
        -11   -1    0    0    0    0  0.00000000000E+00  0.00000000000E+00  0.45593999997E+02  0.45594000000E+02  0.51100000000E-03 0. -1.
         11   -1    0    0    0    0 -0.00000000000E+00 -0.00000000000E+00 -0.45593999997E+02  0.45594000000E+02  0.51100000000E-03 0.  1.
    9900012    2    1    2    0    0  0.25563454514E+02  0.27305437103E+02 -0.15940161549E+02  0.50528857704E+02  0.29999993476E+02 0.  0.
         12    1    1    2    0    0 -0.25563454514E+02 -0.27305437103E+02  0.15940161549E+02  0.40659142296E+02  0.00000000000E+00 0. -1.
         11    1    3    3    0    0  0.53015297907E+01  0.11368244962E+02 -0.13508751984E+02  0.18434467501E+02  0.51100000000E-03 0. -1.
        -11    1    3    3    0    0  0.78836408063E+00  0.15038757385E+01 -0.71940328837E+01  0.73917027506E+01  0.51100000000E-03 0.  1.
         12    1    3    3    0    0  0.19473560643E+02  0.14433316403E+02  0.47626233181E+01  0.24702687452E+02  0.00000000000E+00 0. -1.
</event>
<event>
 7    1  0.5456331E-013  0.5052886E+02  0.7816164E-02  0.1300439E+00
        -11   -1    0    0    0    0  0.00000000000E+00  0.00000000000E+00  0.45593999997E+02  0.45594000000E+02  0.51100000000E-03 0.  1.
         11   -1    0    0    0    0 -0.00000000000E+00 -0.00000000000E+00 -0.45593999997E+02  0.45594000000E+02  0.51100000000E-03 0. -1.
    9900012    2    1    2    0    0  0.18992692695E+02 -0.99725427606E+01  0.34539716803E+02  0.50528855620E+02  0.29999987143E+02 0.  0.
         12    1    1    2    0    0 -0.18992692695E+02  0.99725427606E+01 -0.34539716803E+02  0.40659144380E+02  0.00000000000E+00 0. -1.
         11    1    3    3    0    0 -0.37320286056E+01  0.26031489835E+01  0.10011918440E+01  0.46590565046E+01  0.51100000000E-03 0. -1.
        -11    1    3    3    0    0  0.36306817846E+01  0.43468865688E+01  0.46537960588E+01  0.73304222990E+01  0.51100000000E-03 0.  1.
        -12    1    3    3    0    0  0.19094039516E+02 -0.16922578313E+02  0.28884728900E+02  0.38539376817E+02  0.00000000000E+00 0.  1.
</event>
<event>
 7    1  0.5456331E-013  0.5052886E+02  0.7816164E-02  0.1300439E+00
        -11   -1    0    0    0    0  0.00000000000E+00  0.00000000000E+00  0.45593999997E+02  0.45594000000E+02  0.51100000000E-03 0. -1.
         11   -1    0    0    0    0 -0.00000000000E+00 -0.00000000000E+00 -0.45593999997E+02  0.45594000000E+02  0.51100000000E-03 0.  1.
    9900012    2    1    2    0    0 -0.27535911458E+02 -0.29734102366E+02  0.32897327133E+01  0.50528860749E+02  0.30000002731E+02 0.  0.
         12    1    1    2    0    0  0.27535911458E+02  0.29734102366E+02 -0.32897327133E+01  0.40659139251E+02  0.00000000000E+00 0. -1.
         11    1    3    3    0    0 -0.27484153989E+01 -0.82264764289E+01 -0.53813432044E+01  0.10207230603E+02  0.51100000000E-03 0. -1.
        -11    1    3    3    0    0 -0.20225760783E+02 -0.62894426193E+01 -0.18575648340E+01  0.21262385452E+02  0.51100000000E-03 0.  1.
         12    1    3    3    0    0 -0.45617352759E+01 -0.15218183318E+02  0.10528640752E+02  0.19059244694E+02  0.00000000000E+00 0. -1.
</event>
<event>
 7    1  0.5456331E-013  0.5052886E+02  0.7816164E-02  0.1300439E+00
        -11   -1    0    0    0    0  0.00000000000E+00  0.00000000000E+00  0.45593999997E+02  0.45594000000E+02  0.51100000000E-03 0.  1.
         11   -1    0    0    0    0 -0.00000000000E+00 -0.00000000000E+00 -0.45593999997E+02  0.45594000000E+02  0.51100000000E-03 0. -1.
    9900012    2    1    2    0    0  0.23359761224E+02 -0.16719524090E+02 -0.28774033412E+02  0.50528856760E+02  0.29999990607E+02 0.  0.
         12    1    1    2    0    0 -0.23359761224E+02  0.16719524090E+02  0.28774033412E+02  0.40659143240E+02  0.00000000000E+00 0. -1.
         11    1    3    3    0    0 -0.41029681463E+01 -0.53627369887E+01 -0.48463072611E+01  0.83114372974E+01  0.51100000000E-03 0. -1.
        -11    1    3    3    0    0  0.86035651676E+00 -0.72003042342E+01 -0.20814403187E+01  0.75443348589E+01  0.51100000000E-03 0.  1.
         12    1    3    3    0    0  0.26602372853E+02 -0.41564828671E+01 -0.21846285832E+02  0.34673084603E+02  0.00000000000E+00 0. -1.
</event>
<event>
 7    1  0.5456331E-013  0.5052886E+02  0.7816164E-02  0.1300439E+00
        -11   -1    0    0    0    0  0.00000000000E+00  0.00000000000E+00  0.45593999997E+02  0.45594000000E+02  0.51100000000E-03 0. -1.
         11   -1    0    0    0    0 -0.00000000000E+00 -0.00000000000E+00 -0.45593999997E+02  0.45594000000E+02  0.51100000000E-03 0.  1.
    9900012    2    1    2    0    0  0.12302800173E+01  0.37520188889E+02 -0.15616889910E+02  0.50528863098E+02  0.30000009872E+02 0.  0.
         12    1    1    2    0    0 -0.12302800173E+01 -0.37520188889E+02  0.15616889910E+02  0.40659136902E+02  0.00000000000E+00 0. -1.
         11    1    3    3    0    0 -0.27497042474E+01  0.22170301790E+01  0.23158045261E+01  0.42236296152E+01  0.51100000000E-03 0. -1.
        -11    1    3    3    0    0  0.60360610525E+01  0.23614053776E+01  0.30822187132E+01  0.71770704918E+01  0.51100000000E-03 0.  1.
         12    1    3    3    0    0 -0.20560767879E+01  0.32941753332E+02 -0.21014913149E+02  0.39128162991E+02  0.00000000000E+00 0. -1.
</event>
<event>
 7    1  0.5456331E-013  0.5052886E+02  0.7816164E-02  0.1300439E+00
        -11   -1    0    0    0    0  0.00000000000E+00  0.00000000000E+00  0.45593999997E+02  0.45594000000E+02  0.51100000000E-03 0.  1.
         11   -1    0    0    0    0 -0.00000000000E+00 -0.00000000000E+00 -0.45593999997E+02  0.45594000000E+02  0.51100000000E-03 0. -1.
    9900012    2    1    2    0    0 -0.28990369209E+02 -0.15620018799E+02  0.23848253596E+02  0.50528859654E+02  0.29999999403E+02 0.  0.
         12    1    1    2    0    0  0.28990369209E+02  0.15620018799E+02 -0.23848253596E+02  0.40659140346E+02  0.00000000000E+00 0. -1.
         11    1    3    3    0    0  0.49816783474E+01 -0.76230066053E+00  0.16196526333E+01  0.52935334483E+01  0.51100000000E-03 0. -1.
        -11    1    3    3    0    0 -0.17316441541E+02 -0.10186842528E+01  0.13090193805E+02  0.21731314718E+02  0.51100000000E-03 0.  1.
        -12    1    3    3    0    0 -0.16655606015E+02 -0.13839033886E+02  0.91384071576E+01  0.23504011488E+02  0.00000000000E+00 0.  1.
</event>
<event>
 7    1  0.5456331E-013  0.5052892E+02  0.7816164E-02  0.1300439E+00
        -11   -1    0    0    0    0  0.00000000000E+00  0.00000000000E+00  0.45593999997E+02  0.45594000000E+02  0.51100000000E-03 0.  1.
         11   -1    0    0    0    0 -0.00000000000E+00 -0.00000000000E+00 -0.45593999997E+02  0.45594000000E+02  0.51100000000E-03 0. -1.
    9900012    2    1    2    0    0 -0.65429087466E+01 -0.16154142669E+01  0.40096653672E+02  0.50528919171E+02  0.30000180313E+02 0.  0.
         12    1    1    2    0    0  0.65429087466E+01  0.16154142669E+01 -0.40096653672E+02  0.40659080829E+02  0.00000000000E+00 0. -1.
         11    1    3    3    0    0 -0.47404047882E+01 -0.59554201711E+01  0.20109163844E+01  0.78728807902E+01  0.51100000000E-03 0. -1.
        -11    1    3    3    0    0  0.77220785031E+00 -0.67352902587E+01  0.79591753759E+01  0.10455090280E+02  0.51100000000E-03 0.  1.
        -12    1    3    3    0    0 -0.25747118087E+01  0.11075296163E+02  0.30126561912E+02  0.32200948101E+02  0.00000000000E+00 0.  1.
</event>
<event>
 7    1  0.5456331E-013  0.5052887E+02  0.7816164E-02  0.1300439E+00
        -11   -1    0    0    0    0  0.00000000000E+00  0.00000000000E+00  0.45593999997E+02  0.45594000000E+02  0.51100000000E-03 0.  1.
         11   -1    0    0    0    0 -0.00000000000E+00 -0.00000000000E+00 -0.45593999997E+02  0.45594000000E+02  0.51100000000E-03 0. -1.
    9900012    2    1    2    0    0  0.74051065031E+01  0.15657003584E+02  0.36785692651E+02  0.50528873750E+02  0.30000042251E+02 0.  0.
         12    1    1    2    0    0 -0.74051065031E+01 -0.15657003584E+02 -0.36785692651E+02  0.40659126250E+02  0.00000000000E+00 0. -1.
         11    1    3    3    0    0 -0.95910216220E+01  0.32418431758E+01  0.15845232855E+02  0.18803421163E+02  0.51100000000E-03 0. -1.
        -11    1    3    3    0    0  0.52103973594E+00  0.31849921654E+01  0.85504359443E+01  0.91392347929E+01  0.51100000000E-03 0.  1.
         12    1    3    3    0    0  0.16475088389E+02  0.92301682424E+01  0.12390023852E+02  0.22586217795E+02  0.00000000000E+00 0. -1.
</event>
<event>
 7    1  0.5456331E-013  0.5052886E+02  0.7816164E-02  0.1300439E+00
        -11   -1    0    0    0    0  0.00000000000E+00  0.00000000000E+00  0.45593999997E+02  0.45594000000E+02  0.51100000000E-03 0. -1.
         11   -1    0    0    0    0 -0.00000000000E+00 -0.00000000000E+00 -0.45593999997E+02  0.45594000000E+02  0.51100000000E-03 0.  1.
    9900012    2    1    2    0    0  0.21131021295E+02 -0.15587058217E+02 -0.31043345487E+02  0.50528859037E+02  0.29999997528E+02 0.  0.
         12    1    1    2    0    0 -0.21131021295E+02  0.15587058217E+02  0.31043345487E+02  0.40659140963E+02  0.00000000000E+00 0. -1.
         11    1    3    3    0    0  0.42373247069E+01  0.70125860329E+01 -0.92736281532E+00  0.82456828458E+01  0.51100000000E-03 0. -1.
        -11    1    3    3    0    0  0.34762906774E+01 -0.72633892092E+00 -0.15232134301E+01  0.38642391898E+01  0.51100000000E-03 0.  1.
        -12    1    3    3    0    0  0.13417405911E+02 -0.21873305329E+02 -0.28592769242E+02  0.38418937001E+02  0.00000000000E+00 0.  1.
</event>
<event>
 7    1  0.5456331E-013  0.5052886E+02  0.7816164E-02  0.1300439E+00
        -11   -1    0    0    0    0  0.00000000000E+00  0.00000000000E+00  0.45593999997E+02  0.45594000000E+02  0.51100000000E-03 0. -1.
         11   -1    0    0    0    0 -0.00000000000E+00 -0.00000000000E+00 -0.45593999997E+02  0.45594000000E+02  0.51100000000E-03 0.  1.
    9900012    2    1    2    0    0 -0.25300485496E+02  0.21610256137E+02  0.23367661941E+02  0.50528863742E+02  0.30000011831E+02 0.  0.
         12    1    1    2    0    0  0.25300485496E+02 -0.21610256137E+02 -0.23367661941E+02  0.40659136258E+02  0.00000000000E+00 0. -1.
         11    1    3    3    0    0 -0.15154921519E+02  0.16301277685E+02  0.13310378157E+02  0.25933944307E+02  0.51100000000E-03 0. -1.
        -11    1    3    3    0    0 -0.10375020215E+02  0.11927765658E+02  0.74707486231E+01  0.17484985653E+02  0.51100000000E-03 0.  1.
         12    1    3    3    0    0  0.22945623757E+00 -0.66187872058E+01  0.25865351610E+01  0.71099337817E+01  0.00000000000E+00 0. -1.
</event>
<event>
 7    1  0.5456331E-013  0.5052885E+02  0.7816164E-02  0.1300439E+00
        -11   -1    0    0    0    0  0.00000000000E+00  0.00000000000E+00  0.45593999997E+02  0.45594000000E+02  0.51100000000E-03 0.  1.
         11   -1    0    0    0    0 -0.00000000000E+00 -0.00000000000E+00 -0.45593999997E+02  0.45594000000E+02  0.51100000000E-03 0. -1.
    9900012    2    1    2    0    0 -0.34800865457E+01 -0.40492905662E+02  0.11746624485E+01  0.50528852897E+02  0.29999978864E+02 0.  0.
         12    1    1    2    0    0  0.34800865457E+01  0.40492905662E+02 -0.11746624485E+01  0.40659147103E+02  0.00000000000E+00 0. -1.
         11    1    3    3    0    0  0.69251205942E+01 -0.87833278054E+01 -0.70418369525E+00  0.11207141362E+02  0.51100000000E-03 0.  1.
        -11    1    3    3    0    0  0.16348447365E+01  0.72018636215E-01  0.49345774759E+01  0.51988420945E+01  0.51100000000E-03 0. -1.
        -12    1    3    3    0    0 -0.12040051876E+02 -0.31781596493E+02 -0.30557313322E+01  0.34122869440E+02  0.00000000000E+00 0.  1.
</event>
<event>
 7    1  0.5456331E-013  0.5052886E+02  0.7816164E-02  0.1300439E+00
        -11   -1    0    0    0    0  0.00000000000E+00  0.00000000000E+00  0.45593999997E+02  0.45594000000E+02  0.51100000000E-03 0. -1.
         11   -1    0    0    0    0 -0.00000000000E+00 -0.00000000000E+00 -0.45593999997E+02  0.45594000000E+02  0.51100000000E-03 0.  1.
    9900012    2    1    2    0    0 -0.17134648014E+02 -0.12410195950E+02 -0.34721129012E+02  0.50528856798E+02  0.29999990723E+02 0.  0.
         12    1    1    2    0    0  0.17134648014E+02  0.12410195950E+02  0.34721129012E+02  0.40659143202E+02  0.00000000000E+00 0. -1.
         11    1    3    3    0    0 -0.74481544640E+01 -0.86828722944E+01 -0.24184115115E+02  0.26753293262E+02  0.51100000000E-03 0. -1.
        -11    1    3    3    0    0 -0.11574719412E+02 -0.77116397389E+01 -0.12726953276E+02  0.18852555712E+02  0.51100000000E-03 0.  1.
         12    1    3    3    0    0  0.18882258622E+01  0.39843160831E+01  0.21899393789E+01  0.49230078245E+01  0.00000000000E+00 0. -1.
</event>
<event>
 7    1  0.5456331E-013  0.5052888E+02  0.7816164E-02  0.1300439E+00
        -11   -1    0    0    0    0  0.00000000000E+00  0.00000000000E+00  0.45593999997E+02  0.45594000000E+02  0.51100000000E-03 0. -1.
         11   -1    0    0    0    0 -0.00000000000E+00 -0.00000000000E+00 -0.45593999997E+02  0.45594000000E+02  0.51100000000E-03 0.  1.
    9900012    2    1    2    0    0  0.19365592643E+02 -0.35701963234E+02  0.18729746449E+01  0.50528875671E+02  0.30000048090E+02 0.  0.
         12    1    1    2    0    0 -0.19365592643E+02  0.35701963234E+02 -0.18729746449E+01  0.40659124329E+02  0.00000000000E+00 0. -1.
         11    1    3    3    0    0  0.27429681429E+01 -0.20758852900E+02  0.11268842304E+02  0.23778996091E+02  0.51100000000E-03 0. -1.
        -11    1    3    3    0    0  0.10598602025E+02 -0.13366450370E+02 -0.21460382346E+01  0.17192959046E+02  0.51100000000E-03 0.  1.
        -12    1    3    3    0    0  0.60240224749E+01 -0.15766599643E+01 -0.72498294246E+01  0.95569205347E+01  0.00000000000E+00 0.  1.
</event>
<event>
 7    1  0.5456331E-013  0.5052885E+02  0.7816164E-02  0.1300439E+00
        -11   -1    0    0    0    0  0.00000000000E+00  0.00000000000E+00  0.45593999997E+02  0.45594000000E+02  0.51100000000E-03 0.  1.
         11   -1    0    0    0    0 -0.00000000000E+00 -0.00000000000E+00 -0.45593999997E+02  0.45594000000E+02  0.51100000000E-03 0. -1.
    9900012    2    1    2    0    0  0.27182875837E+01 -0.37703942591E+02  0.14972977798E+02  0.50528850496E+02  0.29999971566E+02 0.  0.
         12    1    1    2    0    0 -0.27182875837E+01  0.37703942591E+02 -0.14972977798E+02  0.40659149504E+02  0.00000000000E+00 0. -1.
         11    1    3    3    0    0  0.36673450436E+01 -0.56675272885E+00  0.36262454724E+01  0.51884761551E+01  0.51100000000E-03 0. -1.
        -11    1    3    3    0    0  0.10763996405E+02 -0.14897036747E+02  0.18564947408E+01  0.18472463167E+02  0.51100000000E-03 0.  1.
         12    1    3    3    0    0 -0.11713053865E+02 -0.22240153115E+02  0.94902375843E+01  0.26867911174E+02  0.00000000000E+00 0. -1.
</event>
<event>
 7    1  0.5456331E-013  0.5052886E+02  0.7816164E-02  0.1300439E+00
        -11   -1    0    0    0    0  0.00000000000E+00  0.00000000000E+00  0.45593999997E+02  0.45594000000E+02  0.51100000000E-03 0. -1.
         11   -1    0    0    0    0 -0.00000000000E+00 -0.00000000000E+00 -0.45593999997E+02  0.45594000000E+02  0.51100000000E-03 0.  1.
    9900012    2    1    2    0    0  0.21387596402E+02  0.15349825717E+02 -0.30985786193E+02  0.50528863569E+02  0.30000011303E+02 0.  0.
         12    1    1    2    0    0 -0.21387596402E+02 -0.15349825717E+02  0.30985786193E+02  0.40659136431E+02  0.00000000000E+00 0. -1.
         11    1    3    3    0    0  0.10279482096E+01  0.16231007795E+02 -0.88512842418E+01  0.18516142270E+02  0.51100000000E-03 0. -1.
        -11    1    3    3    0    0  0.48348318014E+01  0.40523492333E+01 -0.33293425767E+01  0.71331378165E+01  0.51100000000E-03 0.  1.
        -12    1    3    3    0    0  0.15524816391E+02 -0.49335313113E+01 -0.18805159374E+02  0.24879583482E+02  0.00000000000E+00 0.  1.
</event>
<event>
 7    1  0.5456331E-013  0.5052881E+02  0.7816164E-02  0.1300439E+00
        -11   -1    0    0    0    0  0.00000000000E+00  0.00000000000E+00  0.45593999997E+02  0.45594000000E+02  0.51100000000E-03 0. -1.
         11   -1    0    0    0    0 -0.00000000000E+00 -0.00000000000E+00 -0.45593999997E+02  0.45594000000E+02  0.51100000000E-03 0.  1.
    9900012    2    1    2    0    0 -0.38910232420E+02 -0.11000687632E+02 -0.42601154294E+01  0.50528807942E+02  0.29999842220E+02 0.  0.
         12    1    1    2    0    0  0.38910232420E+02  0.11000687632E+02  0.42601154294E+01  0.40659192058E+02  0.00000000000E+00 0. -1.
         11    1    3    3    0    0  0.19388066890E+01 -0.57715024348E+00  0.20586009453E+01  0.28861586744E+01  0.51100000000E-03 0. -1.
        -11    1    3    3    0    0 -0.16119342694E+01  0.24227125232E+01 -0.56446998825E+01  0.63506302902E+01  0.51100000000E-03 0.  1.
        -12    1    3    3    0    0 -0.39237104840E+02 -0.12846249911E+02 -0.67401649214E+00  0.41292018977E+02  0.00000000000E+00 0.  1.
</event>
<event>
 7    1  0.5456331E-013  0.5052886E+02  0.7816164E-02  0.1300439E+00
        -11   -1    0    0    0    0  0.00000000000E+00  0.00000000000E+00  0.45593999997E+02  0.45594000000E+02  0.51100000000E-03 0.  1.
         11   -1    0    0    0    0 -0.00000000000E+00 -0.00000000000E+00 -0.45593999997E+02  0.45594000000E+02  0.51100000000E-03 0. -1.
    9900012    2    1    2    0    0  0.36626659156E+02 -0.12636835260E+02 -0.12327367771E+02  0.50528858808E+02  0.29999996833E+02 0.  0.
         12    1    1    2    0    0 -0.36626659156E+02  0.12636835260E+02  0.12327367771E+02  0.40659141192E+02  0.00000000000E+00 0. -1.
         11    1    3    3    0    0 -0.10785644003E+01 -0.73521440844E+00 -0.98765333392E+00  0.16368569764E+01  0.51100000000E-03 0.  1.
        -11    1    3    3    0    0 -0.31746897463E+01  0.18326577008E+01  0.14004988666E+01  0.39241160240E+01  0.51100000000E-03 0. -1.
        -12    1    3    3    0    0  0.40879913303E+02 -0.13734278553E+02 -0.12740213303E+02  0.44967885808E+02  0.00000000000E+00 0.  1.
</event>
<event>
 7    1  0.5456331E-013  0.5052888E+02  0.7816164E-02  0.1300439E+00
        -11   -1    0    0    0    0  0.00000000000E+00  0.00000000000E+00  0.45593999997E+02  0.45594000000E+02  0.51100000000E-03 0.  1.
         11   -1    0    0    0    0 -0.00000000000E+00 -0.00000000000E+00 -0.45593999997E+02  0.45594000000E+02  0.51100000000E-03 0. -1.
    9900012    2    1    2    0    0  0.24826984252E+02 -0.81298225333E+01  0.31155911894E+02  0.50528880390E+02  0.30000062434E+02 0.  0.
         12    1    1    2    0    0 -0.24826984252E+02  0.81298225333E+01 -0.31155911894E+02  0.40659119610E+02  0.00000000000E+00 0. -1.
         11    1    3    3    0    0  0.41573862232E+00  0.40425060332E+01  0.38004424235E+01  0.55639964510E+01  0.51100000000E-03 0. -1.
        -11    1    3    3    0    0  0.20426793343E+02 -0.46989049956E+01  0.29537809529E+02  0.36218997591E+02  0.51100000000E-03 0.  1.
         12    1    3    3    0    0  0.39844522868E+01 -0.74734235709E+01 -0.21823400583E+01  0.87458863488E+01  0.00000000000E+00 0. -1.
</event>
<event>
 7    1  0.5456331E-013  0.5052886E+02  0.7816164E-02  0.1300439E+00
        -11   -1    0    0    0    0  0.00000000000E+00  0.00000000000E+00  0.45593999997E+02  0.45594000000E+02  0.51100000000E-03 0.  1.
         11   -1    0    0    0    0 -0.00000000000E+00 -0.00000000000E+00 -0.45593999997E+02  0.45594000000E+02  0.51100000000E-03 0. -1.
    9900012    2    1    2    0    0 -0.72981291909E+00 -0.19192974902E+02  0.35836615577E+02  0.50528856767E+02  0.29999990628E+02 0.  0.
         12    1    1    2    0    0  0.72981291909E+00  0.19192974902E+02 -0.35836615577E+02  0.40659143233E+02  0.00000000000E+00 0. -1.
         11    1    3    3    0    0 -0.36635516766E+01 -0.13977909239E+02  0.18316626180E+01  0.14565663246E+02  0.51100000000E-03 0. -1.
        -11    1    3    3    0    0  0.48835511525E+01  0.20796172270E+00  0.84083950936E+01  0.97259152910E+01  0.51100000000E-03 0.  1.
        -12    1    3    3    0    0 -0.19498123950E+01 -0.54230273856E+01  0.25596557865E+02  0.26237278230E+02  0.00000000000E+00 0.  1.
</event>
<event>
 7    1  0.5456331E-013  0.5052886E+02  0.7816164E-02  0.1300439E+00
        -11   -1    0    0    0    0  0.00000000000E+00  0.00000000000E+00  0.45593999997E+02  0.45594000000E+02  0.51100000000E-03 0.  1.
         11   -1    0    0    0    0 -0.00000000000E+00 -0.00000000000E+00 -0.45593999997E+02  0.45594000000E+02  0.51100000000E-03 0. -1.
    9900012    2    1    2    0    0 -0.16679426282E+02  0.14893147335E+01  0.37050563973E+02  0.50528860681E+02  0.30000002526E+02 0.  0.
         12    1    1    2    0    0  0.16679426282E+02 -0.14893147335E+01 -0.37050563973E+02  0.40659139319E+02  0.00000000000E+00 0. -1.
         11    1    3    3    0    0 -0.11979141678E+02 -0.54952752908E+00  0.56238707672E+01  0.13244989185E+02  0.51100000000E-03 0. -1.
        -11    1    3    3    0    0 -0.10031203538E+02  0.66503278415E+01  0.24995429313E+02  0.27742087009E+02  0.51100000000E-03 0.  1.
         12    1    3    3    0    0  0.53309189346E+01 -0.46114855789E+01  0.64312638932E+01  0.95417844870E+01  0.00000000000E+00 0. -1.
</event>
<event>
 7    1  0.5456331E-013  0.5052887E+02  0.7816164E-02  0.1300439E+00
        -11   -1    0    0    0    0  0.00000000000E+00  0.00000000000E+00  0.45593999997E+02  0.45594000000E+02  0.51100000000E-03 0. -1.
         11   -1    0    0    0    0 -0.00000000000E+00 -0.00000000000E+00 -0.45593999997E+02  0.45594000000E+02  0.51100000000E-03 0.  1.
    9900012    2    1    2    0    0 -0.39445976262E+02 -0.97585629584E+01 -0.13964701499E+01  0.50528871589E+02  0.30000035682E+02 0.  0.
         12    1    1    2    0    0  0.39445976262E+02  0.97585629584E+01  0.13964701499E+01  0.40659128411E+02  0.00000000000E+00 0. -1.
         11    1    3    3    0    0 -0.30731794101E+02 -0.10084347127E+01 -0.45174714386E+01  0.31078411441E+02  0.51100000000E-03 0. -1.
        -11    1    3    3    0    0 -0.22251313642E+01  0.81406210645E+00 -0.48587001913E+01  0.54056335901E+01  0.51100000000E-03 0.  1.
         12    1    3    3    0    0 -0.64890507963E+01 -0.95641903521E+01  0.79797014799E+01  0.14044826558E+02  0.00000000000E+00 0. -1.
</event>
<event>
 7    1  0.5456331E-013  0.5052886E+02  0.7816164E-02  0.1300439E+00
        -11   -1    0    0    0    0  0.00000000000E+00  0.00000000000E+00  0.45593999997E+02  0.45594000000E+02  0.51100000000E-03 0. -1.
         11   -1    0    0    0    0 -0.00000000000E+00 -0.00000000000E+00 -0.45593999997E+02  0.45594000000E+02  0.51100000000E-03 0.  1.
    9900012    2    1    2    0    0 -0.25866234347E+02  0.31127316041E+02 -0.38979456919E+01  0.50528857561E+02  0.29999993044E+02 0.  0.
         12    1    1    2    0    0  0.25866234347E+02 -0.31127316041E+02  0.38979456919E+01  0.40659142439E+02  0.00000000000E+00 0. -1.
         11    1    3    3    0    0 -0.40863023071E+01 -0.93948042772E-01  0.48688665955E+01  0.63570869874E+01  0.51100000000E-03 0. -1.
        -11    1    3    3    0    0  0.25561532237E+01  0.93648425593E+01 -0.58454178455E+01  0.11331509410E+02  0.51100000000E-03 0.  1.
        -12    1    3    3    0    0 -0.24336085264E+02  0.21856421524E+02 -0.29213944419E+01  0.32840261164E+02  0.00000000000E+00 0.  1.
</event>
<event>
 7    1  0.5456331E-013  0.5052886E+02  0.7816164E-02  0.1300439E+00
        -11   -1    0    0    0    0  0.00000000000E+00  0.00000000000E+00  0.45593999997E+02  0.45594000000E+02  0.51100000000E-03 0.  1.
         11   -1    0    0    0    0 -0.00000000000E+00 -0.00000000000E+00 -0.45593999997E+02  0.45594000000E+02  0.51100000000E-03 0. -1.
    9900012    2    1    2    0    0 -0.34724203145E+02  0.39735674386E+01  0.20775126753E+02  0.50528863095E+02  0.30000009864E+02 0.  0.
         12    1    1    2    0    0  0.34724203145E+02 -0.39735674386E+01 -0.20775126753E+02  0.40659136905E+02  0.00000000000E+00 0. -1.
         11    1    3    3    0    0 -0.61430357352E+01 -0.39399974193E+01  0.56751504268E+01  0.92448796821E+01  0.51100000000E-03 0.  1.
        -11    1    3    3    0    0 -0.84542173490E+01 -0.76960844837E+01 -0.45065097792E+00  0.11441441951E+02  0.51100000000E-03 0. -1.
        -12    1    3    3    0    0 -0.20126950061E+02  0.15609649342E+02  0.15550627304E+02  0.29842541461E+02  0.00000000000E+00 0.  1.
</event>
<event>
 7    1  0.5456331E-013  0.5052886E+02  0.7816164E-02  0.1300439E+00
        -11   -1    0    0    0    0  0.00000000000E+00  0.00000000000E+00  0.45593999997E+02  0.45594000000E+02  0.51100000000E-03 0. -1.
         11   -1    0    0    0    0 -0.00000000000E+00 -0.00000000000E+00 -0.45593999997E+02  0.45594000000E+02  0.51100000000E-03 0.  1.
    9900012    2    1    2    0    0  0.18337469244E+02  0.26007657373E+02 -0.25308199802E+02  0.50528855918E+02  0.29999988048E+02 0.  0.
         12    1    1    2    0    0 -0.18337469244E+02 -0.26007657373E+02  0.25308199802E+02  0.40659144082E+02  0.00000000000E+00 0. -1.
         11    1    3    3    0    0  0.15419010506E+02  0.46155593263E+01 -0.93303329830E+01  0.18603880958E+02  0.51100000000E-03 0. -1.
        -11    1    3    3    0    0  0.91492287752E+01  0.15507541063E+02 -0.64896422439E+01  0.19139165962E+02  0.51100000000E-03 0.  1.
         12    1    3    3    0    0 -0.62307700370E+01  0.58845569830E+01 -0.94882245749E+01  0.12785808998E+02  0.00000000000E+00 0. -1.
</event>
<event>
 7    1  0.5456331E-013  0.5052886E+02  0.7816164E-02  0.1300439E+00
        -11   -1    0    0    0    0  0.00000000000E+00  0.00000000000E+00  0.45593999997E+02  0.45594000000E+02  0.51100000000E-03 0.  1.
         11   -1    0    0    0    0 -0.00000000000E+00 -0.00000000000E+00 -0.45593999997E+02  0.45594000000E+02  0.51100000000E-03 0. -1.
    9900012    2    1    2    0    0 -0.39552870542E+02 -0.48906120699E+01  0.80509544445E+01  0.50528861765E+02  0.30000005822E+02 0.  0.
         12    1    1    2    0    0  0.39552870542E+02  0.48906120699E+01 -0.80509544445E+01  0.40659138235E+02  0.00000000000E+00 0. -1.
         11    1    3    3    0    0 -0.15530113273E+02  0.57306590426E+01  0.30618877768E+01  0.16834489251E+02  0.51100000000E-03 0. -1.
        -11    1    3    3    0    0 -0.24993358627E+02 -0.10945423447E+02 -0.13064405989E+01  0.27316241638E+02  0.51100000000E-03 0.  1.
        -12    1    3    3    0    0  0.97060135855E+00  0.32415233470E+00  0.62955072665E+01  0.63781308764E+01  0.00000000000E+00 0.  1.
</event>
<event>
 7    1  0.5456331E-013  0.5052886E+02  0.7816164E-02  0.1300439E+00
        -11   -1    0    0    0    0  0.00000000000E+00  0.00000000000E+00  0.45593999997E+02  0.45594000000E+02  0.51100000000E-03 0.  1.
         11   -1    0    0    0    0 -0.00000000000E+00 -0.00000000000E+00 -0.45593999997E+02  0.45594000000E+02  0.51100000000E-03 0. -1.
    9900012    2    1    2    0    0  0.54811723742E+00 -0.39777521504E+02  0.84031976245E+01  0.50528863514E+02  0.30000011136E+02 0.  0.
         12    1    1    2    0    0 -0.54811723742E+00  0.39777521504E+02 -0.84031976245E+01  0.40659136486E+02  0.00000000000E+00 0. -1.
         11    1    3    3    0    0  0.97091577515E+00 -0.12091595223E+02  0.24458546506E+01  0.12374633640E+02  0.51100000000E-03 0. -1.
        -11    1    3    3    0    0  0.91985295867E+01 -0.21188323725E+02  0.10893334455E+02  0.25538651974E+02  0.51100000000E-03 0.  1.
         12    1    3    3    0    0 -0.96213281244E+01 -0.64976025555E+01 -0.49359914812E+01  0.12615577900E+02  0.00000000000E+00 0. -1.
</event>
<event>
 7    1  0.5456331E-013  0.5052887E+02  0.7816164E-02  0.1300439E+00
        -11   -1    0    0    0    0  0.00000000000E+00  0.00000000000E+00  0.45593999997E+02  0.45594000000E+02  0.51100000000E-03 0.  1.
         11   -1    0    0    0    0 -0.00000000000E+00 -0.00000000000E+00 -0.45593999997E+02  0.45594000000E+02  0.51100000000E-03 0. -1.
    9900012    2    1    2    0    0 -0.18400635991E+02  0.31962014894E+02  0.17117576138E+02  0.50528865555E+02  0.30000017341E+02 0.  0.
         12    1    1    2    0    0  0.18400635991E+02 -0.31962014894E+02 -0.17117576138E+02  0.40659134445E+02  0.00000000000E+00 0. -1.
         11    1    3    3    0    0 -0.22106484081E+01  0.16096377144E+02  0.10378738724E+02  0.19279484985E+02  0.51100000000E-03 0. -1.
        -11    1    3    3    0    0  0.38355962010E+01  0.15853677179E+01  0.51334281500E+01  0.66013084953E+01  0.51100000000E-03 0.  1.
        -12    1    3    3    0    0 -0.20025583784E+02  0.14280270033E+02  0.16054092643E+01  0.24648072075E+02  0.00000000000E+00 0.  1.
</event>
<event>
 7    1  0.5456331E-013  0.5052886E+02  0.7816164E-02  0.1300439E+00
        -11   -1    0    0    0    0  0.00000000000E+00  0.00000000000E+00  0.45593999997E+02  0.45594000000E+02  0.51100000000E-03 0.  1.
         11   -1    0    0    0    0 -0.00000000000E+00 -0.00000000000E+00 -0.45593999997E+02  0.45594000000E+02  0.51100000000E-03 0. -1.
    9900012    2    1    2    0    0 -0.16036338388E+02  0.10227391906E+02  0.35936080795E+02  0.50528860843E+02  0.30000003018E+02 0.  0.
         12    1    1    2    0    0  0.16036338388E+02 -0.10227391906E+02 -0.35936080795E+02  0.40659139157E+02  0.00000000000E+00 0. -1.
         11    1    3    3    0    0 -0.43713447377E+01  0.65966074599E+01 -0.99323751995E+00  0.79756131945E+01  0.51100000000E-03 0. -1.
        -11    1    3    3    0    0 -0.56139492459E+01  0.89992241070E+01  0.10544411126E+02  0.14956171533E+02  0.51100000000E-03 0.  1.
        -12    1    3    3    0    0 -0.60510444040E+01 -0.53684396604E+01  0.26384907189E+02  0.27597076116E+02  0.00000000000E+00 0.  1.
</event>
<event>
 7    1  0.5456331E-013  0.5052886E+02  0.7816164E-02  0.1300439E+00
        -11   -1    0    0    0    0  0.00000000000E+00  0.00000000000E+00  0.45593999997E+02  0.45594000000E+02  0.51100000000E-03 0. -1.
         11   -1    0    0    0    0 -0.00000000000E+00 -0.00000000000E+00 -0.45593999997E+02  0.45594000000E+02  0.51100000000E-03 0.  1.
    9900012    2    1    2    0    0 -0.16785976178E+02 -0.25798927305E+02 -0.26567130469E+02  0.50528855055E+02  0.29999985425E+02 0.  0.
         12    1    1    2    0    0  0.16785976178E+02  0.25798927305E+02  0.26567130469E+02  0.40659144945E+02  0.00000000000E+00 0. -1.
         11    1    3    3    0    0 -0.33457946105E+01 -0.61331005686E+00 -0.14020941382E+02  0.14427657062E+02  0.51100000000E-03 0. -1.
        -11    1    3    3    0    0 -0.20614787002E+01 -0.22827373675E+01 -0.99282676864E+01  0.10393800260E+02  0.51100000000E-03 0.  1.
         12    1    3    3    0    0 -0.11378702867E+02 -0.22902879880E+02 -0.26179214006E+01  0.25707397733E+02  0.00000000000E+00 0. -1.
</event>
<event>
 7    1  0.5456331E-013  0.5052886E+02  0.7816164E-02  0.1300439E+00
        -11   -1    0    0    0    0  0.00000000000E+00  0.00000000000E+00  0.45593999997E+02  0.45594000000E+02  0.51100000000E-03 0.  1.
         11   -1    0    0    0    0 -0.00000000000E+00 -0.00000000000E+00 -0.45593999997E+02  0.45594000000E+02  0.51100000000E-03 0. -1.
    9900012    2    1    2    0    0  0.19027754243E+00 -0.38172228230E+01  0.40479111724E+02  0.50528857343E+02  0.29999992379E+02 0.  0.
         12    1    1    2    0    0 -0.19027754243E+00  0.38172228230E+01 -0.40479111724E+02  0.40659142657E+02  0.00000000000E+00 0. -1.
         11    1    3    3    0    0  0.74079773768E+00 -0.27752224051E+00 -0.59511224965E+00  0.98992865043E+00  0.51100000000E-03 0. -1.
        -11    1    3    3    0    0 -0.93165010310E+01  0.85362235910E+01  0.21302658754E+02  0.24768277592E+02  0.51100000000E-03 0.  1.
         12    1    3    3    0    0  0.87659808357E+01 -0.12075924174E+02  0.19771565220E+02  0.24770651100E+02  0.00000000000E+00 0. -1.
</event>
<event>
 7    1  0.5456331E-013  0.5052888E+02  0.7816164E-02  0.1300439E+00
        -11   -1    0    0    0    0  0.00000000000E+00  0.00000000000E+00  0.45593999997E+02  0.45594000000E+02  0.51100000000E-03 0.  1.
         11   -1    0    0    0    0 -0.00000000000E+00 -0.00000000000E+00 -0.45593999997E+02  0.45594000000E+02  0.51100000000E-03 0. -1.
    9900012    2    1    2    0    0  0.30705889199E+02  0.12015449210E+02  0.23789518066E+02  0.50528882682E+02  0.30000069401E+02 0.  0.
         12    1    1    2    0    0 -0.30705889199E+02 -0.12015449210E+02 -0.23789518066E+02  0.40659117318E+02  0.00000000000E+00 0. -1.
         11    1    3    3    0    0  0.43195161546E+01  0.84494665651E+01  0.39914833657E+00  0.94979484469E+01  0.51100000000E-03 0. -1.
        -11    1    3    3    0    0  0.13203639995E+02  0.12165243980E+02  0.11795428999E+02  0.21481653003E+02  0.51100000000E-03 0.  1.
        -12    1    3    3    0    0  0.13182733049E+02 -0.85992613346E+01  0.11594940730E+02  0.19549281232E+02  0.00000000000E+00 0.  1.
</event>
<event>
 7    1  0.5456331E-013  0.5052887E+02  0.7816164E-02  0.1300439E+00
        -11   -1    0    0    0    0  0.00000000000E+00  0.00000000000E+00  0.45593999997E+02  0.45594000000E+02  0.51100000000E-03 0. -1.
         11   -1    0    0    0    0 -0.00000000000E+00 -0.00000000000E+00 -0.45593999997E+02  0.45594000000E+02  0.51100000000E-03 0.  1.
    9900012    2    1    2    0    0 -0.10189937157E+02 -0.10242873627E+02 -0.38005445178E+02  0.50528866431E+02  0.30000020004E+02 0.  0.
         12    1    1    2    0    0  0.10189937157E+02  0.10242873627E+02  0.38005445178E+02  0.40659133569E+02  0.00000000000E+00 0. -1.
         11    1    3    3    0    0  0.77915294159E+01 -0.19071382779E+01 -0.35627625784E+01  0.87771512748E+01  0.51100000000E-03 0. -1.
        -11    1    3    3    0    0  0.17702317160E+01 -0.13496870186E+01 -0.61935347786E+01  0.65814321155E+01  0.51100000000E-03 0.  1.
        -12    1    3    3    0    0 -0.19751698289E+02 -0.69860483301E+01 -0.28249147821E+02  0.35170283041E+02  0.00000000000E+00 0.  1.
</event>
<event>
 7    1  0.5456331E-013  0.5052886E+02  0.7816164E-02  0.1300439E+00
        -11   -1    0    0    0    0  0.00000000000E+00  0.00000000000E+00  0.45593999997E+02  0.45594000000E+02  0.51100000000E-03 0.  1.
         11   -1    0    0    0    0 -0.00000000000E+00 -0.00000000000E+00 -0.45593999997E+02  0.45594000000E+02  0.51100000000E-03 0. -1.
    9900012    2    1    2    0    0 -0.20877430191E+02 -0.13455870357E+02  0.32190647662E+02  0.50528864061E+02  0.30000012798E+02 0.  0.
         12    1    1    2    0    0  0.20877430191E+02  0.13455870357E+02 -0.32190647662E+02  0.40659135939E+02  0.00000000000E+00 0. -1.
         11    1    3    3    0    0 -0.68731789718E+01 -0.34699711348E+01  0.29611159505E+02  0.30595784944E+02  0.51100000000E-03 0.  1.
        -11    1    3    3    0    0 -0.10196942740E+02 -0.13152200065E+01  0.17214445187E+01  0.10424529553E+02  0.51100000000E-03 0. -1.
        -12    1    3    3    0    0 -0.38073084789E+01 -0.86706792157E+01  0.85804363835E+00  0.95085495634E+01  0.00000000000E+00 0.  1.
</event>
<event>
 7    1  0.5456331E-013  0.5052885E+02  0.7816164E-02  0.1300439E+00
        -11   -1    0    0    0    0  0.00000000000E+00  0.00000000000E+00  0.45593999997E+02  0.45594000000E+02  0.51100000000E-03 0. -1.
         11   -1    0    0    0    0 -0.00000000000E+00 -0.00000000000E+00 -0.45593999997E+02  0.45594000000E+02  0.51100000000E-03 0.  1.
    9900012    2    1    2    0    0 -0.19113818918E+02  0.73460726941E+01 -0.35126389370E+02  0.50528854807E+02  0.29999984672E+02 0.  0.
         12    1    1    2    0    0  0.19113818918E+02 -0.73460726941E+01  0.35126389370E+02  0.40659145193E+02  0.00000000000E+00 0. -1.
         11    1    3    3    0    0 -0.56989072425E+01  0.10144049777E+02 -0.19097199648E+02  0.22362520527E+02  0.51100000000E-03 0. -1.
        -11    1    3    3    0    0  0.50623395622E+00 -0.43468461884E+01 -0.13159851398E+02  0.13868418572E+02  0.51100000000E-03 0.  1.
         12    1    3    3    0    0 -0.13921145632E+02  0.15488691051E+01 -0.28693383235E+01  0.14297915709E+02  0.00000000000E+00 0. -1.
</event>
<event>
 7    1  0.5456331E-013  0.5052886E+02  0.7816164E-02  0.1300439E+00
        -11   -1    0    0    0    0  0.00000000000E+00  0.00000000000E+00  0.45593999997E+02  0.45594000000E+02  0.51100000000E-03 0.  1.
         11   -1    0    0    0    0 -0.00000000000E+00 -0.00000000000E+00 -0.45593999997E+02  0.45594000000E+02  0.51100000000E-03 0. -1.
    9900012    2    1    2    0    0 -0.28729183265E+02 -0.12991537585E+02  0.25671372444E+02  0.50528863474E+02  0.30000011015E+02 0.  0.
         12    1    1    2    0    0  0.28729183265E+02  0.12991537585E+02 -0.25671372444E+02  0.40659136526E+02  0.00000000000E+00 0. -1.
         11    1    3    3    0    0 -0.11665778964E+02 -0.74865653057E+01  0.14662234214E+01  0.13938754259E+02  0.51100000000E-03 0. -1.
        -11    1    3    3    0    0 -0.51019036443E+01 -0.57797443899E+01 -0.18420184656E+01  0.79264051308E+01  0.51100000000E-03 0.  1.
        -12    1    3    3    0    0 -0.11961500657E+02  0.27477211077E+00  0.26047167488E+02  0.28663704084E+02  0.00000000000E+00 0.  1.
</event>
<event>
 7    1  0.5456331E-013  0.5052887E+02  0.7816164E-02  0.1300439E+00
        -11   -1    0    0    0    0  0.00000000000E+00  0.00000000000E+00  0.45593999997E+02  0.45594000000E+02  0.51100000000E-03 0.  1.
         11   -1    0    0    0    0 -0.00000000000E+00 -0.00000000000E+00 -0.45593999997E+02  0.45594000000E+02  0.51100000000E-03 0. -1.
    9900012    2    1    2    0    0 -0.55097948424E+01 -0.60049322629E+01  0.39833999510E+02  0.50528873501E+02  0.30000041493E+02 0.  0.
         12    1    1    2    0    0  0.55097948424E+01  0.60049322629E+01 -0.39833999510E+02  0.40659126499E+02  0.00000000000E+00 0. -1.
         11    1    3    3    0    0 -0.18542161632E+01  0.15959014477E+01 -0.24171047413E+01  0.34391008421E+01  0.51100000000E-03 0. -1.
        -11    1    3    3    0    0  0.15156923626E+00 -0.37253769069E+01 -0.70242966137E+00  0.37940498181E+01  0.51100000000E-03 0.  1.
        -12    1    3    3    0    0 -0.38071479155E+01 -0.38754568037E+01  0.42953533913E+02  0.43295722841E+02  0.00000000000E+00 0.  1.
</event>
<event>
 7    1  0.5456331E-013  0.5052886E+02  0.7816164E-02  0.1300439E+00
        -11   -1    0    0    0    0  0.00000000000E+00  0.00000000000E+00  0.45593999997E+02  0.45594000000E+02  0.51100000000E-03 0. -1.
         11   -1    0    0    0    0 -0.00000000000E+00 -0.00000000000E+00 -0.45593999997E+02  0.45594000000E+02  0.51100000000E-03 0.  1.
    9900012    2    1    2    0    0  0.30498621289E+02 -0.15052874775E+02 -0.22280283733E+02  0.50528856099E+02  0.29999988600E+02 0.  0.
         12    1    1    2    0    0 -0.30498621289E+02  0.15052874775E+02  0.22280283733E+02  0.40659143901E+02  0.00000000000E+00 0. -1.
         11    1    3    3    0    0  0.15354534867E+02  0.49801908826E+01 -0.10888549569E+02  0.19471121030E+02  0.51100000000E-03 0. -1.
        -11    1    3    3    0    0  0.10634111953E+02 -0.26877860251E+01 -0.41244732529E+01  0.11718353580E+02  0.51100000000E-03 0.  1.
         12    1    3    3    0    0  0.45099744690E+01 -0.17345279632E+02 -0.72672609111E+01  0.19339381489E+02  0.00000000000E+00 0. -1.
</event>
<event>
 7    1  0.5456331E-013  0.5052872E+02  0.7816164E-02  0.1300439E+00
        -11   -1    0    0    0    0  0.00000000000E+00  0.00000000000E+00  0.45593999997E+02  0.45594000000E+02  0.51100000000E-03 0.  1.
         11   -1    0    0    0    0 -0.00000000000E+00 -0.00000000000E+00 -0.45593999997E+02  0.45594000000E+02  0.51100000000E-03 0. -1.
    9900012    2    1    2    0    0  0.10196329339E+02  0.22516833853E+02  0.32283185505E+02  0.50528720553E+02  0.29999576591E+02 0.  0.
         12    1    1    2    0    0 -0.10196329339E+02 -0.22516833853E+02 -0.32283185505E+02  0.40659279447E+02  0.00000000000E+00 0. -1.
         11    1    3    3    0    0 -0.13021935431E+01  0.13346981007E+01 -0.34804148576E+01  0.39484699423E+01  0.51100000000E-03 0. -1.
        -11    1    3    3    0    0  0.26096128362E+01 -0.30357074047E+01  0.39832531191E+01  0.56472917645E+01  0.51100000000E-03 0.  1.
        -12    1    3    3    0    0  0.88889100456E+01  0.24217843157E+02  0.31780347244E+02  0.40932958846E+02  0.00000000000E+00 0.  1.
</event>
<event>
 7    1  0.5456331E-013  0.5052887E+02  0.7816164E-02  0.1300439E+00
        -11   -1    0    0    0    0  0.00000000000E+00  0.00000000000E+00  0.45593999997E+02  0.45594000000E+02  0.51100000000E-03 0. -1.
         11   -1    0    0    0    0 -0.00000000000E+00 -0.00000000000E+00 -0.45593999997E+02  0.45594000000E+02  0.51100000000E-03 0.  1.
    9900012    2    1    2    0    0  0.35968717138E+02 -0.43303600929E+01  0.18457085071E+02  0.50528872852E+02  0.30000039522E+02 0.  0.
         12    1    1    2    0    0 -0.35968717138E+02  0.43303600929E+01 -0.18457085071E+02  0.40659127148E+02  0.00000000000E+00 0. -1.
         11    1    3    3    0    0 -0.16999377010E+01 -0.76287334309E+00 -0.37595422732E+01  0.41959411686E+01  0.51100000000E-03 0. -1.
        -11    1    3    3    0    0  0.64235997479E+01 -0.61568448548E+01  0.77685542631E+01  0.11811850316E+02  0.51100000000E-03 0.  1.
         12    1    3    3    0    0  0.31245055091E+02  0.25893581050E+01  0.14448073081E+02  0.34521081368E+02  0.00000000000E+00 0. -1.
</event>
<event>
 7    1  0.5456331E-013  0.5052885E+02  0.7816164E-02  0.1300439E+00
        -11   -1    0    0    0    0  0.00000000000E+00  0.00000000000E+00  0.45593999997E+02  0.45594000000E+02  0.51100000000E-03 0. -1.
         11   -1    0    0    0    0 -0.00000000000E+00 -0.00000000000E+00 -0.45593999997E+02  0.45594000000E+02  0.51100000000E-03 0.  1.
    9900012    2    1    2    0    0 -0.10484060792E+02  0.32239480184E+02 -0.22446971357E+02  0.50528854211E+02  0.29999982859E+02 0.  0.
         12    1    1    2    0    0  0.10484060792E+02 -0.32239480184E+02  0.22446971357E+02  0.40659145789E+02  0.00000000000E+00 0. -1.
         11    1    3    3    0    0 -0.65195502444E+01  0.10716171257E+02 -0.85925042436E+01  0.15204341197E+02  0.51100000000E-03 0. -1.
        -11    1    3    3    0    0  0.17198062294E+00  0.19243525374E+02 -0.19879842739E+02  0.27668592189E+02  0.51100000000E-03 0.  1.
         12    1    3    3    0    0 -0.41364911702E+01  0.22797835519E+01  0.60253756248E+01  0.76559208241E+01  0.00000000000E+00 0. -1.
</event>
<event>
 7    1  0.5456331E-013  0.5052885E+02  0.7816164E-02  0.1300439E+00
        -11   -1    0    0    0    0  0.00000000000E+00  0.00000000000E+00  0.45593999997E+02  0.45594000000E+02  0.51100000000E-03 0.  1.
         11   -1    0    0    0    0 -0.00000000000E+00 -0.00000000000E+00 -0.45593999997E+02  0.45594000000E+02  0.51100000000E-03 0. -1.
    9900012    2    1    2    0    0 -0.15343601972E+02  0.14029543595E+02  0.34941553604E+02  0.50528851175E+02  0.29999973630E+02 0.  0.
         12    1    1    2    0    0  0.15343601972E+02 -0.14029543595E+02 -0.34941553604E+02  0.40659148825E+02  0.00000000000E+00 0. -1.
         11    1    3    3    0    0 -0.11319579968E+01  0.95802400257E+01  0.77062485087E+01  0.12347007500E+02  0.51100000000E-03 0. -1.
        -11    1    3    3    0    0 -0.60222407057E+01  0.68221607534E+01  0.28171108577E+02  0.29604402024E+02  0.51100000000E-03 0.  1.
        -12    1    3    3    0    0 -0.81894032693E+01 -0.23728571846E+01 -0.93580348138E+00  0.85774416514E+01  0.00000000000E+00 0.  1.
</event>
<event>
 7    1  0.5456331E-013  0.5052886E+02  0.7816164E-02  0.1300439E+00
        -11   -1    0    0    0    0  0.00000000000E+00  0.00000000000E+00  0.45593999997E+02  0.45594000000E+02  0.51100000000E-03 0.  1.
         11   -1    0    0    0    0 -0.00000000000E+00 -0.00000000000E+00 -0.45593999997E+02  0.45594000000E+02  0.51100000000E-03 0. -1.
    9900012    2    1    2    0    0  0.10736225415E+02 -0.69630013148E+01  0.38592951996E+02  0.50528857520E+02  0.29999992916E+02 0.  0.
         12    1    1    2    0    0 -0.10736225415E+02  0.69630013148E+01 -0.38592951996E+02  0.40659142480E+02  0.00000000000E+00 0. -1.
         11    1    3    3    0    0  0.73773451983E+01  0.61205833401E+01  0.22181517923E+02  0.24164157346E+02  0.51100000000E-03 0. -1.
        -11    1    3    3    0    0  0.43709985373E+01 -0.72219751090E+00  0.12651182006E+02  0.13404462088E+02  0.51100000000E-03 0.  1.
         12    1    3    3    0    0 -0.10121183204E+01 -0.12361387144E+02  0.37602520661E+01  0.12960238085E+02  0.00000000000E+00 0. -1.
</event>
<event>
 7    1  0.5456331E-013  0.5052886E+02  0.7816164E-02  0.1300439E+00
        -11   -1    0    0    0    0  0.00000000000E+00  0.00000000000E+00  0.45593999997E+02  0.45594000000E+02  0.51100000000E-03 0.  1.
         11   -1    0    0    0    0 -0.00000000000E+00 -0.00000000000E+00 -0.45593999997E+02  0.45594000000E+02  0.51100000000E-03 0. -1.
    9900012    2    1    2    0    0  0.23796245941E+02  0.93461111447E+01  0.31615731888E+02  0.50528860594E+02  0.30000002262E+02 0.  0.
         12    1    1    2    0    0 -0.23796245941E+02 -0.93461111447E+01 -0.31615731888E+02  0.40659139406E+02  0.00000000000E+00 0. -1.
         11    1    3    3    0    0  0.28952907771E+01  0.13434196373E+02  0.14328121687E+02  0.19853347632E+02  0.51100000000E-03 0. -1.
        -11    1    3    3    0    0  0.18961694307E+02  0.14835616428E+00  0.17775188948E+02  0.25990867684E+02  0.51100000000E-03 0.  1.
        -12    1    3    3    0    0  0.19392608575E+01 -0.42364413927E+01 -0.48757874783E+00  0.46846452782E+01  0.00000000000E+00 0.  1.
</event>
<event>
 7    1  0.5456331E-013  0.5052886E+02  0.7816164E-02  0.1300439E+00
        -11   -1    0    0    0    0  0.00000000000E+00  0.00000000000E+00  0.45593999997E+02  0.45594000000E+02  0.51100000000E-03 0.  1.
         11   -1    0    0    0    0 -0.00000000000E+00 -0.00000000000E+00 -0.45593999997E+02  0.45594000000E+02  0.51100000000E-03 0. -1.
    9900012    2    1    2    0    0  0.75851599862E+01 -0.39860797596E+02  0.25976510988E+01  0.50528860459E+02  0.30000001851E+02 0.  0.
         12    1    1    2    0    0 -0.75851599862E+01  0.39860797596E+02 -0.25976510988E+01  0.40659139541E+02  0.00000000000E+00 0. -1.
         11    1    3    3    0    0  0.52337187833E+00 -0.81408390591E+01 -0.36339833082E+01  0.89304542805E+01  0.51100000000E-03 0. -1.
        -11    1    3    3    0    0 -0.52421218737E+01 -0.26917276253E+00 -0.36701811333E+01  0.64048829441E+01  0.51100000000E-03 0.  1.
        -12    1    3    3    0    0  0.12303909982E+02 -0.31450785774E+02  0.99018155404E+01  0.35193523234E+02  0.00000000000E+00 0.  1.
</event>
<event>
 7    1  0.5456331E-013  0.5052886E+02  0.7816164E-02  0.1300439E+00
        -11   -1    0    0    0    0  0.00000000000E+00  0.00000000000E+00  0.45593999997E+02  0.45594000000E+02  0.51100000000E-03 0.  1.
         11   -1    0    0    0    0 -0.00000000000E+00 -0.00000000000E+00 -0.45593999997E+02  0.45594000000E+02  0.51100000000E-03 0. -1.
    9900012    2    1    2    0    0  0.23954455537E+02  0.76440492841E+01  0.31951807018E+02  0.50528863250E+02  0.30000010334E+02 0.  0.
         12    1    1    2    0    0 -0.23954455537E+02 -0.76440492841E+01 -0.31951807018E+02  0.40659136750E+02  0.00000000000E+00 0. -1.
         11    1    3    3    0    0  0.22998779724E+02  0.11264332032E+02  0.17508830885E+02  0.31022382309E+02  0.51100000000E-03 0. -1.
        -11    1    3    3    0    0  0.57162302174E+01  0.11866241627E+01  0.94119186429E+01  0.11075539608E+02  0.51100000000E-03 0.  1.
         12    1    3    3    0    0 -0.47605544042E+01 -0.48069069109E+01  0.50310574900E+01  0.84309413325E+01  0.00000000000E+00 0. -1.
</event>
<event>
 7    1  0.5456331E-013  0.5052887E+02  0.7816164E-02  0.1300439E+00
        -11   -1    0    0    0    0  0.00000000000E+00  0.00000000000E+00  0.45593999997E+02  0.45594000000E+02  0.51100000000E-03 0.  1.
         11   -1    0    0    0    0 -0.00000000000E+00 -0.00000000000E+00 -0.45593999997E+02  0.45594000000E+02  0.51100000000E-03 0. -1.
    9900012    2    1    2    0    0  0.27669045938E+01 -0.22729826600E+01  0.40501143286E+02  0.50528870415E+02  0.30000032112E+02 0.  0.
         12    1    1    2    0    0 -0.27669045938E+01  0.22729826600E+01 -0.40501143286E+02  0.40659129585E+02  0.00000000000E+00 0. -1.
         11    1    3    3    0    0 -0.18967613032E+01  0.55631772604E+01  0.58420412689E+01  0.82871039043E+01  0.51100000000E-03 0. -1.
        -11    1    3    3    0    0  0.92477362779E+01  0.27338066295E+00  0.30798316053E+02  0.32157917147E+02  0.51100000000E-03 0.  1.
         12    1    3    3    0    0 -0.45840703809E+01 -0.81095405833E+01  0.38607859639E+01  0.10083849364E+02  0.00000000000E+00 0. -1.
</event>
<event>
 7    1  0.5456331E-013  0.5052886E+02  0.7816164E-02  0.1300439E+00
        -11   -1    0    0    0    0  0.00000000000E+00  0.00000000000E+00  0.45593999997E+02  0.45594000000E+02  0.51100000000E-03 0.  1.
         11   -1    0    0    0    0 -0.00000000000E+00 -0.00000000000E+00 -0.45593999997E+02  0.45594000000E+02  0.51100000000E-03 0. -1.
    9900012    2    1    2    0    0  0.93677025458E+01  0.17340828274E+02  0.35562728750E+02  0.50528857702E+02  0.29999993471E+02 0.  0.
         12    1    1    2    0    0 -0.93677025458E+01 -0.17340828274E+02 -0.35562728750E+02  0.40659142298E+02  0.00000000000E+00 0. -1.
         11    1    3    3    0    0  0.55335372119E+01 -0.45686400927E+01  0.10102751849E+02  0.12391856259E+02  0.51100000000E-03 0. -1.
        -11    1    3    3    0    0 -0.39449044899E+01 -0.89052842597E+00  0.56455736260E+01  0.69446248380E+01  0.51100000000E-03 0.  1.
        -12    1    3    3    0    0  0.77790698238E+01  0.22799996793E+02  0.19814403276E+02  0.31192376605E+02  0.00000000000E+00 0.  1.
</event>
<event>
 7    1  0.5456331E-013  0.5052886E+02  0.7816164E-02  0.1300439E+00
        -11   -1    0    0    0    0  0.00000000000E+00  0.00000000000E+00  0.45593999997E+02  0.45594000000E+02  0.51100000000E-03 0. -1.
         11   -1    0    0    0    0 -0.00000000000E+00 -0.00000000000E+00 -0.45593999997E+02  0.45594000000E+02  0.51100000000E-03 0.  1.
    9900012    2    1    2    0    0 -0.37676494214E+01  0.38155975806E+02 -0.13531139286E+02  0.50528863238E+02  0.30000010298E+02 0.  0.
         12    1    1    2    0    0  0.37676494214E+01 -0.38155975806E+02  0.13531139286E+02  0.40659136762E+02  0.00000000000E+00 0. -1.
         11    1    3    3    0    0  0.60517774082E+00  0.20173672085E+01  0.38782902169E+01  0.44132919481E+01  0.51100000000E-03 0. -1.
        -11    1    3    3    0    0  0.83079557731E+01  0.70452054148E+01 -0.56416887176E+01  0.12267261321E+02  0.51100000000E-03 0.  1.
         12    1    3    3    0    0 -0.12680782935E+02  0.29093403182E+02 -0.11767740785E+02  0.33848309969E+02  0.00000000000E+00 0. -1.
</event>
<event>
 7    1  0.5456331E-013  0.5052886E+02  0.7816164E-02  0.1300439E+00
        -11   -1    0    0    0    0  0.00000000000E+00  0.00000000000E+00  0.45593999997E+02  0.45594000000E+02  0.51100000000E-03 0.  1.
         11   -1    0    0    0    0 -0.00000000000E+00 -0.00000000000E+00 -0.45593999997E+02  0.45594000000E+02  0.51100000000E-03 0. -1.
    9900012    2    1    2    0    0 -0.22316923466E+02 -0.40637795718E+01  0.33743237611E+02  0.50528862505E+02  0.30000008069E+02 0.  0.
         12    1    1    2    0    0  0.22316923466E+02  0.40637795718E+01 -0.33743237611E+02  0.40659137495E+02  0.00000000000E+00 0. -1.
         11    1    3    3    0    0 -0.64303269423E+01  0.86639323642E+01  0.43826658346E+01  0.11645625302E+02  0.51100000000E-03 0. -1.
        -11    1    3    3    0    0 -0.15561177209E+01  0.27160509722E+01  0.92196689086E+01  0.97365666582E+01  0.51100000000E-03 0.  1.
        -12    1    3    3    0    0 -0.14330478803E+02 -0.15443762908E+02  0.20140902868E+02  0.29146670544E+02  0.00000000000E+00 0.  1.
</event>
<event>
 7    1  0.5456331E-013  0.5052881E+02  0.7816164E-02  0.1300439E+00
        -11   -1    0    0    0    0  0.00000000000E+00  0.00000000000E+00  0.45593999997E+02  0.45594000000E+02  0.51100000000E-03 0. -1.
         11   -1    0    0    0    0 -0.00000000000E+00 -0.00000000000E+00 -0.45593999997E+02  0.45594000000E+02  0.51100000000E-03 0.  1.
    9900012    2    1    2    0    0  0.17936411832E+02 -0.32453545272E+02 -0.16680006062E+02  0.50528805808E+02  0.29999835733E+02 0.  0.
         12    1    1    2    0    0 -0.17936411832E+02  0.32453545272E+02  0.16680006062E+02  0.40659194192E+02  0.00000000000E+00 0. -1.
         11    1    3    3    0    0 -0.11867071195E+01 -0.39677118250E+01  0.46422548430E+01  0.62210562771E+01  0.51100000000E-03 0. -1.
        -11    1    3    3    0    0  0.89321769242E+01 -0.10714890108E+02 -0.19171552884E+02  0.23709514859E+02  0.51100000000E-03 0.  1.
         12    1    3    3    0    0  0.10190942027E+02 -0.17770943340E+02 -0.21507080207E+01  0.20598234671E+02  0.00000000000E+00 0. -1.
</event>
<event>
 7    1  0.5456331E-013  0.5052895E+02  0.7816164E-02  0.1300438E+00
        -11   -1    0    0    0    0  0.00000000000E+00  0.00000000000E+00  0.45593999997E+02  0.45594000000E+02  0.51100000000E-03 0.  1.
         11   -1    0    0    0    0 -0.00000000000E+00 -0.00000000000E+00 -0.45593999997E+02  0.45594000000E+02  0.51100000000E-03 0. -1.
    9900012    2    1    2    0    0  0.35149664659E+02  0.38688438629E+01  0.20067172865E+02  0.50528950512E+02  0.30000275575E+02 0.  0.
         12    1    1    2    0    0 -0.35149664659E+02 -0.38688438629E+01 -0.20067172865E+02  0.40659049488E+02  0.00000000000E+00 0. -1.
         11    1    3    3    0    0  0.14540963953E+01  0.44197205923E+01  0.34299217738E+01  0.57803711019E+01  0.51100000000E-03 0. -1.
        -11    1    3    3    0    0 -0.34864430952E+01  0.23553155004E+00  0.43528132266E+01  0.55819122005E+01  0.51100000000E-03 0.  1.
         12    1    3    3    0    0  0.37182011359E+02 -0.78640827939E+00  0.12284437865E+02  0.39166667210E+02  0.00000000000E+00 0. -1.
</event>
<event>
 7    1  0.5456331E-013  0.5052887E+02  0.7816164E-02  0.1300439E+00
        -11   -1    0    0    0    0  0.00000000000E+00  0.00000000000E+00  0.45593999997E+02  0.45594000000E+02  0.51100000000E-03 0.  1.
         11   -1    0    0    0    0 -0.00000000000E+00 -0.00000000000E+00 -0.45593999997E+02  0.45594000000E+02  0.51100000000E-03 0. -1.
    9900012    2    1    2    0    0  0.13260883695E+02  0.33195491925E+02  0.19374558596E+02  0.50528865217E+02  0.30000016313E+02 0.  0.
         12    1    1    2    0    0 -0.13260883695E+02 -0.33195491925E+02 -0.19374558596E+02  0.40659134783E+02  0.00000000000E+00 0. -1.
         11    1    3    3    0    0 -0.66163482783E+01  0.59760035613E+01 -0.28779853101E+01  0.93686435950E+01  0.51100000000E-03 0. -1.
        -11    1    3    3    0    0  0.26932564945E+01  0.51349513292E+01  0.76429150551E+01  0.95935137723E+01  0.51100000000E-03 0.  1.
        -12    1    3    3    0    0  0.17183975479E+02  0.22084537035E+02  0.14609628851E+02  0.31566707849E+02  0.00000000000E+00 0.  1.
</event>
<event>
 7    1  0.5456331E-013  0.5052887E+02  0.7816164E-02  0.1300439E+00
        -11   -1    0    0    0    0  0.00000000000E+00  0.00000000000E+00  0.45593999997E+02  0.45594000000E+02  0.51100000000E-03 0.  1.
         11   -1    0    0    0    0 -0.00000000000E+00 -0.00000000000E+00 -0.45593999997E+02  0.45594000000E+02  0.51100000000E-03 0. -1.
    9900012    2    1    2    0    0  0.10965630435E+02  0.16210896439E+02  0.35638841091E+02  0.50528865620E+02  0.30000017539E+02 0.  0.
         12    1    1    2    0    0 -0.10965630435E+02 -0.16210896439E+02 -0.35638841091E+02  0.40659134380E+02  0.00000000000E+00 0. -1.
         11    1    3    3    0    0  0.29346422285E+01  0.71458543632E+01  0.67108682485E+01  0.10232844790E+02  0.51100000000E-03 0. -1.
        -11    1    3    3    0    0 -0.71886187025E+01  0.64073489881E+01  0.20611366560E+02  0.22749918497E+02  0.51100000000E-03 0.  1.
        -12    1    3    3    0    0  0.15219606909E+02  0.26576930879E+01  0.83166062828E+01  0.17546102333E+02  0.00000000000E+00 0.  1.
</event>
<event>
 7    1  0.5456331E-013  0.5052886E+02  0.7816164E-02  0.1300439E+00
        -11   -1    0    0    0    0  0.00000000000E+00  0.00000000000E+00  0.45593999997E+02  0.45594000000E+02  0.51100000000E-03 0.  1.
         11   -1    0    0    0    0 -0.00000000000E+00 -0.00000000000E+00 -0.45593999997E+02  0.45594000000E+02  0.51100000000E-03 0. -1.
    9900012    2    1    2    0    0  0.23844655391E+02 -0.22672725665E+02  0.23886098916E+02  0.50528858331E+02  0.29999995384E+02 0.  0.
         12    1    1    2    0    0 -0.23844655391E+02  0.22672725665E+02 -0.23886098916E+02  0.40659141669E+02  0.00000000000E+00 0. -1.
         11    1    3    3    0    0  0.21388747984E+02 -0.16750888676E+02  0.26018459973E+02  0.37616898747E+02  0.51100000000E-03 0. -1.
        -11    1    3    3    0    0  0.52488024602E+01 -0.37681247524E+01  0.26382727054E+01  0.69791958380E+01  0.51100000000E-03 0.  1.
         12    1    3    3    0    0 -0.27928950528E+01 -0.21537122367E+01 -0.47706337621E+01  0.59327637461E+01  0.00000000000E+00 0. -1.
</event>
<event>
 7    1  0.5456331E-013  0.5052886E+02  0.7816164E-02  0.1300439E+00
        -11   -1    0    0    0    0  0.00000000000E+00  0.00000000000E+00  0.45593999997E+02  0.45594000000E+02  0.51100000000E-03 0.  1.
         11   -1    0    0    0    0 -0.00000000000E+00 -0.00000000000E+00 -0.45593999997E+02  0.45594000000E+02  0.51100000000E-03 0. -1.
    9900012    2    1    2    0    0 -0.19156685565E+02 -0.34796930049E+02  0.86810599294E+01  0.50528859034E+02  0.29999997518E+02 0.  0.
         12    1    1    2    0    0  0.19156685565E+02  0.34796930049E+02 -0.86810599294E+01  0.40659140966E+02  0.00000000000E+00 0. -1.
         11    1    3    3    0    0 -0.10571452186E+01 -0.52838300813E+01 -0.40085573948E+01  0.67160218128E+01  0.51100000000E-03 0. -1.
        -11    1    3    3    0    0 -0.23286540797E+02 -0.27358656347E+02  0.88251661743E+01  0.36995170194E+02  0.51100000000E-03 0.  1.
         12    1    3    3    0    0  0.51870004513E+01 -0.21544436200E+01  0.38644511500E+01  0.68176670265E+01  0.00000000000E+00 0. -1.
</event>
<event>
 7    1  0.5456331E-013  0.5052886E+02  0.7816164E-02  0.1300439E+00
        -11   -1    0    0    0    0  0.00000000000E+00  0.00000000000E+00  0.45593999997E+02  0.45594000000E+02  0.51100000000E-03 0.  1.
         11   -1    0    0    0    0 -0.00000000000E+00 -0.00000000000E+00 -0.45593999997E+02  0.45594000000E+02  0.51100000000E-03 0. -1.
    9900012    2    1    2    0    0  0.66412923218E+01  0.37567435184E+02  0.14062257496E+02  0.50528855445E+02  0.29999986611E+02 0.  0.
         12    1    1    2    0    0 -0.66412923218E+01 -0.37567435184E+02 -0.14062257496E+02  0.40659144555E+02  0.00000000000E+00 0. -1.
         11    1    3    3    0    0  0.66726372570E+01  0.25550521641E+02  0.19229236836E+01  0.26477365425E+02  0.51100000000E-03 0. -1.
        -11    1    3    3    0    0  0.75998166421E-01  0.16018115748E+02  0.68577094536E+01  0.17424522577E+02  0.51100000000E-03 0.  1.
         12    1    3    3    0    0 -0.10734310162E+00 -0.40012022042E+01  0.52816243593E+01  0.66269674432E+01  0.00000000000E+00 0. -1.
</event>
<event>
 7    1  0.5456331E-013  0.5052885E+02  0.7816164E-02  0.1300439E+00
        -11   -1    0    0    0    0  0.00000000000E+00  0.00000000000E+00  0.45593999997E+02  0.45594000000E+02  0.51100000000E-03 0. -1.
         11   -1    0    0    0    0 -0.00000000000E+00 -0.00000000000E+00 -0.45593999997E+02  0.45594000000E+02  0.51100000000E-03 0.  1.
    9900012    2    1    2    0    0 -0.31950211912E+02  0.25120609963E+02 -0.11424512634E+01  0.50528852431E+02  0.29999977449E+02 0.  0.
         12    1    1    2    0    0  0.31950211912E+02 -0.25120609963E+02  0.11424512634E+01  0.40659147569E+02  0.00000000000E+00 0. -1.
         11    1    3    3    0    0 -0.22388479370E+02  0.10281655775E+02  0.44676537315E+01  0.25038298347E+02  0.51100000000E-03 0. -1.
        -11    1    3    3    0    0 -0.10125210426E+02  0.13033081206E+02  0.29138310179E+01  0.16759221442E+02  0.51100000000E-03 0.  1.
         12    1    3    3    0    0  0.56347788369E+00  0.18058729821E+01 -0.85239360128E+01  0.87313326418E+01  0.00000000000E+00 0. -1.
</event>
<event>
 7    1  0.5456331E-013  0.5052887E+02  0.7816164E-02  0.1300439E+00
        -11   -1    0    0    0    0  0.00000000000E+00  0.00000000000E+00  0.45593999997E+02  0.45594000000E+02  0.51100000000E-03 0. -1.
         11   -1    0    0    0    0 -0.00000000000E+00 -0.00000000000E+00 -0.45593999997E+02  0.45594000000E+02  0.51100000000E-03 0.  1.
    9900012    2    1    2    0    0  0.48590570755E+00 -0.28778369329E+02 -0.28718192619E+02  0.50528865320E+02  0.30000016627E+02 0.  0.
         12    1    1    2    0    0 -0.48590570755E+00  0.28778369329E+02  0.28718192619E+02  0.40659134680E+02  0.00000000000E+00 0. -1.
         11    1    3    3    0    0 -0.20202224498E+01 -0.61019409974E+01 -0.29089911455E+01  0.70552967640E+01  0.51100000000E-03 0. -1.
        -11    1    3    3    0    0 -0.61028767133E+00 -0.14471259724E+01  0.53866672596E+01  0.56109543795E+01  0.51100000000E-03 0.  1.
        -12    1    3    3    0    0  0.31164158286E+01 -0.21229302360E+02 -0.31195868733E+02  0.37862614177E+02  0.00000000000E+00 0.  1.
</event>
<event>
 7    1  0.5456331E-013  0.5052886E+02  0.7816164E-02  0.1300439E+00
        -11   -1    0    0    0    0  0.00000000000E+00  0.00000000000E+00  0.45593999997E+02  0.45594000000E+02  0.51100000000E-03 0.  1.
         11   -1    0    0    0    0 -0.00000000000E+00 -0.00000000000E+00 -0.45593999997E+02  0.45594000000E+02  0.51100000000E-03 0. -1.
    9900012    2    1    2    0    0  0.20981937642E+02 -0.34762845705E+02  0.21139538667E+01  0.50528856506E+02  0.29999989835E+02 0.  0.
         12    1    1    2    0    0 -0.20981937642E+02  0.34762845705E+02 -0.21139538667E+01  0.40659143494E+02  0.00000000000E+00 0. -1.
         11    1    3    3    0    0 -0.34645514432E+01 -0.10354950996E+02  0.80065055628E+00  0.10948477904E+02  0.51100000000E-03 0. -1.
        -11    1    3    3    0    0 -0.25497377493E+00 -0.11255681715E+01  0.52802178962E+01  0.54048697142E+01  0.51100000000E-03 0.  1.
        -12    1    3    3    0    0  0.24701462860E+02 -0.23282326537E+02 -0.39669145858E+01  0.34175508888E+02  0.00000000000E+00 0.  1.
</event>
<event>
 7    1  0.5456331E-013  0.5052886E+02  0.7816164E-02  0.1300439E+00
        -11   -1    0    0    0    0  0.00000000000E+00  0.00000000000E+00  0.45593999997E+02  0.45594000000E+02  0.51100000000E-03 0.  1.
         11   -1    0    0    0    0 -0.00000000000E+00 -0.00000000000E+00 -0.45593999997E+02  0.45594000000E+02  0.51100000000E-03 0. -1.
    9900012    2    1    2    0    0 -0.12118176994E+02 -0.19676625177E+02  0.33453639673E+02  0.50528858354E+02  0.29999995454E+02 0.  0.
         12    1    1    2    0    0  0.12118176994E+02  0.19676625177E+02 -0.33453639673E+02  0.40659141646E+02  0.00000000000E+00 0. -1.
         11    1    3    3    0    0  0.22368852530E+01  0.68297873355E+00  0.46773148972E+01  0.52294732521E+01  0.51100000000E-03 0. -1.
        -11    1    3    3    0    0 -0.46396789416E+01 -0.57512983019E+01 -0.37925220571E+01  0.83058579722E+01  0.51100000000E-03 0.  1.
        -12    1    3    3    0    0 -0.97153833053E+01 -0.14608305608E+02  0.32568846833E+02  0.36993527130E+02  0.00000000000E+00 0.  1.
</event>
<event>
 7    1  0.5456331E-013  0.5052886E+02  0.7816164E-02  0.1300439E+00
        -11   -1    0    0    0    0  0.00000000000E+00  0.00000000000E+00  0.45593999997E+02  0.45594000000E+02  0.51100000000E-03 0. -1.
         11   -1    0    0    0    0 -0.00000000000E+00 -0.00000000000E+00 -0.45593999997E+02  0.45594000000E+02  0.51100000000E-03 0.  1.
    9900012    2    1    2    0    0  0.24695078145E+02  0.21270486040E+01 -0.32230338278E+02  0.50528856799E+02  0.29999990725E+02 0.  0.
         12    1    1    2    0    0 -0.24695078145E+02 -0.21270486040E+01  0.32230338278E+02  0.40659143201E+02  0.00000000000E+00 0. -1.
         11    1    3    3    0    0  0.16986093275E+00 -0.48855051207E+01 -0.68992820380E+01  0.84555961305E+01  0.51100000000E-03 0. -1.
        -11    1    3    3    0    0  0.12814015668E+02 -0.74155225496E+01 -0.13557030449E+02  0.20074412745E+02  0.51100000000E-03 0.  1.
        -12    1    3    3    0    0  0.11711201544E+02  0.14428076274E+02 -0.11774025792E+02  0.21998847923E+02  0.00000000000E+00 0.  1.
</event>
<event>
 7    1  0.5456331E-013  0.5052887E+02  0.7816164E-02  0.1300439E+00
        -11   -1    0    0    0    0  0.00000000000E+00  0.00000000000E+00  0.45593999997E+02  0.45594000000E+02  0.51100000000E-03 0. -1.
         11   -1    0    0    0    0 -0.00000000000E+00 -0.00000000000E+00 -0.45593999997E+02  0.45594000000E+02  0.51100000000E-03 0.  1.
    9900012    2    1    2    0    0  0.31305692270E+02 -0.21795515158E+02  0.14073878352E+02  0.50528869397E+02  0.30000029020E+02 0.  0.
         12    1    1    2    0    0 -0.31305692270E+02  0.21795515158E+02 -0.14073878352E+02  0.40659130603E+02  0.00000000000E+00 0. -1.
         11    1    3    3    0    0  0.99376595273E+01 -0.37204260087E+00 -0.46418032749E+01  0.10974599331E+02  0.51100000000E-03 0.  1.
        -11    1    3    3    0    0  0.74191601529E+01 -0.16612217791E+02  0.38254684334E+01  0.18591501454E+02  0.51100000000E-03 0. -1.
         12    1    3    3    0    0  0.13948872589E+02 -0.48112547667E+01  0.14890213194E+02  0.20962768612E+02  0.00000000000E+00 0. -1.
</event>
<event>
 7    1  0.5456331E-013  0.5052885E+02  0.7816164E-02  0.1300439E+00
        -11   -1    0    0    0    0  0.00000000000E+00  0.00000000000E+00  0.45593999997E+02  0.45594000000E+02  0.51100000000E-03 0. -1.
         11   -1    0    0    0    0 -0.00000000000E+00 -0.00000000000E+00 -0.45593999997E+02  0.45594000000E+02  0.51100000000E-03 0.  1.
    9900012    2    1    2    0    0 -0.75727364105E+01  0.34232509164E+02 -0.20590170296E+02  0.50528854248E+02  0.29999982973E+02 0.  0.
         12    1    1    2    0    0  0.75727364105E+01 -0.34232509164E+02  0.20590170296E+02  0.40659145752E+02  0.00000000000E+00 0. -1.
         11    1    3    3    0    0  0.38245175712E+01  0.11793901492E+02 -0.60547656602E+01  0.13797943126E+02  0.51100000000E-03 0. -1.
        -11    1    3    3    0    0 -0.60606057763E+01  0.17592772301E+02  0.19784600240E+01  0.18712319042E+02  0.51100000000E-03 0.  1.
         12    1    3    3    0    0 -0.53366482055E+01  0.48458353712E+01 -0.16513864660E+02  0.18018592080E+02  0.00000000000E+00 0. -1.
</event>
<event>
 7    1  0.5456331E-013  0.5052888E+02  0.7816164E-02  0.1300439E+00
        -11   -1    0    0    0    0  0.00000000000E+00  0.00000000000E+00  0.45593999997E+02  0.45594000000E+02  0.51100000000E-03 0. -1.
         11   -1    0    0    0    0 -0.00000000000E+00 -0.00000000000E+00 -0.45593999997E+02  0.45594000000E+02  0.51100000000E-03 0.  1.
    9900012    2    1    2    0    0 -0.19095866960E+02  0.23643960097E+02 -0.27008799852E+02  0.50528877365E+02  0.30000053239E+02 0.  0.
         12    1    1    2    0    0  0.19095866960E+02 -0.23643960097E+02  0.27008799852E+02  0.40659122635E+02  0.00000000000E+00 0. -1.
         11    1    3    3    0    0  0.29479043418E+01  0.32470051849E+01  0.37981262491E+00  0.44019814368E+01  0.51100000000E-03 0. -1.
        -11    1    3    3    0    0 -0.73056129728E+01 -0.13464712127E+01  0.94711198308E+00  0.74887907572E+01  0.51100000000E-03 0.  1.
         12    1    3    3    0    0 -0.14738158329E+02  0.21743426125E+02 -0.28335724460E+02  0.38638105171E+02  0.00000000000E+00 0. -1.
</event>
<event>
 7    1  0.5456331E-013  0.5052886E+02  0.7816164E-02  0.1300439E+00
        -11   -1    0    0    0    0  0.00000000000E+00  0.00000000000E+00  0.45593999997E+02  0.45594000000E+02  0.51100000000E-03 0. -1.
         11   -1    0    0    0    0 -0.00000000000E+00 -0.00000000000E+00 -0.45593999997E+02  0.45594000000E+02  0.51100000000E-03 0.  1.
    9900012    2    1    2    0    0 -0.89784255155E+01 -0.37379301456E+02 -0.13241665693E+02  0.50528855735E+02  0.29999987491E+02 0.  0.
         12    1    1    2    0    0  0.89784255155E+01  0.37379301456E+02  0.13241665693E+02  0.40659144265E+02  0.00000000000E+00 0. -1.
         11    1    3    3    0    0 -0.41257543048E+01 -0.10980722716E+02 -0.11688461890E+02  0.16559536877E+02  0.51100000000E-03 0. -1.
        -11    1    3    3    0    0 -0.43488562805E+01 -0.29487451030E+02 -0.38959015453E+01  0.30059946246E+02  0.51100000000E-03 0.  1.
         12    1    3    3    0    0 -0.50381493020E+00  0.30888722898E+01  0.23426977426E+01  0.39093726121E+01  0.00000000000E+00 0. -1.
</event>
<event>
 7    1  0.5456331E-013  0.5052888E+02  0.7816164E-02  0.1300439E+00
        -11   -1    0    0    0    0  0.00000000000E+00  0.00000000000E+00  0.45593999997E+02  0.45594000000E+02  0.51100000000E-03 0.  1.
         11   -1    0    0    0    0 -0.00000000000E+00 -0.00000000000E+00 -0.45593999997E+02  0.45594000000E+02  0.51100000000E-03 0. -1.
    9900012    2    1    2    0    0  0.42209375885E+01 -0.32807033292E+02  0.23644161823E+02  0.50528878811E+02  0.30000057634E+02 0.  0.
         12    1    1    2    0    0 -0.42209375885E+01  0.32807033292E+02 -0.23644161823E+02  0.40659121189E+02  0.00000000000E+00 0. -1.
         11    1    3    3    0    0  0.11519127191E+01  0.22083756214E+01 -0.86663071907E+00  0.26372096735E+01  0.51100000000E-03 0. -1.
        -11    1    3    3    0    0  0.20177320792E+01 -0.13579503684E+01  0.11560263798E+02  0.11813338702E+02  0.51100000000E-03 0.  1.
         12    1    3    3    0    0  0.10512927902E+01 -0.33657458545E+02  0.12950528744E+02  0.36078330435E+02  0.00000000000E+00 0. -1.
</event>
<event>
 7    1  0.5456331E-013  0.5052885E+02  0.7816164E-02  0.1300439E+00
        -11   -1    0    0    0    0  0.00000000000E+00  0.00000000000E+00  0.45593999997E+02  0.45594000000E+02  0.51100000000E-03 0.  1.
         11   -1    0    0    0    0 -0.00000000000E+00 -0.00000000000E+00 -0.45593999997E+02  0.45594000000E+02  0.51100000000E-03 0. -1.
    9900012    2    1    2    0    0 -0.82177484393E+01 -0.34545779106E+02  0.19804656319E+02  0.50528847828E+02  0.29999963458E+02 0.  0.
         12    1    1    2    0    0  0.82177484393E+01  0.34545779106E+02 -0.19804656319E+02  0.40659152172E+02  0.00000000000E+00 0. -1.
         11    1    3    3    0    0 -0.51238268871E+01 -0.17551100513E+02 -0.40084997441E+01  0.18717980705E+02  0.51100000000E-03 0. -1.
        -11    1    3    3    0    0  0.11725438606E+01 -0.92471378766E+01  0.40580913512E+01  0.10166244326E+02  0.51100000000E-03 0.  1.
         12    1    3    3    0    0 -0.42664654128E+01 -0.77475407155E+01  0.19755064712E+02  0.21644622798E+02  0.00000000000E+00 0. -1.
</event>
<event>
 7    1  0.5456331E-013  0.5052885E+02  0.7816164E-02  0.1300439E+00
        -11   -1    0    0    0    0  0.00000000000E+00  0.00000000000E+00  0.45593999997E+02  0.45594000000E+02  0.51100000000E-03 0.  1.
         11   -1    0    0    0    0 -0.00000000000E+00 -0.00000000000E+00 -0.45593999997E+02  0.45594000000E+02  0.51100000000E-03 0. -1.
    9900012    2    1    2    0    0 -0.40516226449E+02  0.27412601832E+01 -0.20217576512E+01  0.50528848299E+02  0.29999964889E+02 0.  0.
         12    1    1    2    0    0  0.40516226449E+02 -0.27412601832E+01  0.20217576512E+01  0.40659151701E+02  0.00000000000E+00 0. -1.
         11    1    3    3    0    0 -0.30587094316E+02  0.19605429753E+01  0.54369689034E+01  0.31128358430E+02  0.51100000000E-03 0. -1.
        -11    1    3    3    0    0 -0.85448282828E+01  0.53869972632E+01  0.48642864429E+00  0.10112884998E+02  0.51100000000E-03 0.  1.
         12    1    3    3    0    0 -0.13843038503E+01 -0.46062800553E+01 -0.79451551988E+01  0.92876048706E+01  0.00000000000E+00 0. -1.
</event>
<event>
 7    1  0.5456331E-013  0.5052886E+02  0.7816164E-02  0.1300439E+00
        -11   -1    0    0    0    0  0.00000000000E+00  0.00000000000E+00  0.45593999997E+02  0.45594000000E+02  0.51100000000E-03 0.  1.
         11   -1    0    0    0    0 -0.00000000000E+00 -0.00000000000E+00 -0.45593999997E+02  0.45594000000E+02  0.51100000000E-03 0. -1.
    9900012    2    1    2    0    0  0.83646836251E+01 -0.87208846361E+00  0.39779854191E+02  0.50528864865E+02  0.30000015244E+02 0.  0.
         12    1    1    2    0    0 -0.83646836251E+01  0.87208846361E+00 -0.39779854191E+02  0.40659135135E+02  0.00000000000E+00 0. -1.
         11    1    3    3    0    0  0.12617128030E+02 -0.46638418207E+00  0.15376271203E+02  0.19895706831E+02  0.51100000000E-03 0. -1.
        -11    1    3    3    0    0  0.62065210494E+01  0.10122088434E+01  0.15835967436E+02  0.17038877168E+02  0.51100000000E-03 0.  1.
         12    1    3    3    0    0 -0.10458965454E+02 -0.14179131250E+01  0.85676155529E+01  0.13594280866E+02  0.00000000000E+00 0. -1.
</event>
<event>
 7    1  0.5456331E-013  0.5052887E+02  0.7816164E-02  0.1300439E+00
        -11   -1    0    0    0    0  0.00000000000E+00  0.00000000000E+00  0.45593999997E+02  0.45594000000E+02  0.51100000000E-03 0. -1.
         11   -1    0    0    0    0 -0.00000000000E+00 -0.00000000000E+00 -0.45593999997E+02  0.45594000000E+02  0.51100000000E-03 0.  1.
    9900012    2    1    2    0    0 -0.24597720550E+02  0.32372207784E+02 -0.39670781059E+00  0.50528867322E+02  0.30000022711E+02 0.  0.
         12    1    1    2    0    0  0.24597720550E+02 -0.32372207784E+02  0.39670781059E+00  0.40659132678E+02  0.00000000000E+00 0. -1.
         11    1    3    3    0    0 -0.84660512188E+01  0.19788200490E+01  0.42057205123E+00  0.87044030891E+01  0.51100000000E-03 0. -1.
        -11    1    3    3    0    0  0.23436173056E+00 -0.17717368512E+01  0.49631421537E+01  0.52751073155E+01  0.51100000000E-03 0.  1.
        -12    1    3    3    0    0 -0.16366031062E+02  0.32165124586E+02 -0.57804220156E+01  0.36549356917E+02  0.00000000000E+00 0.  1.
</event>
<event>
 7    1  0.5456331E-013  0.5052884E+02  0.7816164E-02  0.1300439E+00
        -11   -1    0    0    0    0  0.00000000000E+00  0.00000000000E+00  0.45593999997E+02  0.45594000000E+02  0.51100000000E-03 0. -1.
         11   -1    0    0    0    0 -0.00000000000E+00 -0.00000000000E+00 -0.45593999997E+02  0.45594000000E+02  0.51100000000E-03 0.  1.
    9900012    2    1    2    0    0  0.33234621395E+02  0.17817061586E+02 -0.15204590044E+02  0.50528839885E+02  0.29999939314E+02 0.  0.
         12    1    1    2    0    0 -0.33234621395E+02 -0.17817061586E+02  0.15204590044E+02  0.40659160115E+02  0.00000000000E+00 0. -1.
         11    1    3    3    0    0  0.17395588857E+02  0.10477436117E+02 -0.98368944110E+01  0.22564300813E+02  0.51100000000E-03 0. -1.
        -11    1    3    3    0    0  0.20963620792E+02  0.59153971690E+01 -0.60381239682E+01  0.22603633816E+02  0.51100000000E-03 0.  1.
         12    1    3    3    0    0 -0.51245882530E+01  0.14242283002E+01  0.67042833554E+00  0.53609052563E+01  0.00000000000E+00 0. -1.
</event>
<event>
 7    1  0.5456331E-013  0.5052887E+02  0.7816164E-02  0.1300439E+00
        -11   -1    0    0    0    0  0.00000000000E+00  0.00000000000E+00  0.45593999997E+02  0.45594000000E+02  0.51100000000E-03 0.  1.
         11   -1    0    0    0    0 -0.00000000000E+00 -0.00000000000E+00 -0.45593999997E+02  0.45594000000E+02  0.51100000000E-03 0. -1.
    9900012    2    1    2    0    0  0.19700488771E+02 -0.21202252068E+01  0.35504373328E+02  0.50528866486E+02  0.30000020171E+02 0.  0.
         12    1    1    2    0    0 -0.19700488771E+02  0.21202252068E+01 -0.35504373328E+02  0.40659133514E+02  0.00000000000E+00 0. -1.
         11    1    3    3    0    0  0.28519885656E+01 -0.92604281579E+01  0.81202473819E+01  0.12642301462E+02  0.51100000000E-03 0. -1.
        -11    1    3    3    0    0 -0.17149689880E+01 -0.41139963995E+01  0.51808369278E+01  0.68342634232E+01  0.51100000000E-03 0.  1.
         12    1    3    3    0    0  0.18563469193E+02  0.11254199351E+02  0.22203289018E+02  0.31052301601E+02  0.00000000000E+00 0. -1.
</event>
<event>
 7    1  0.5456331E-013  0.5052885E+02  0.7816164E-02  0.1300439E+00
        -11   -1    0    0    0    0  0.00000000000E+00  0.00000000000E+00  0.45593999997E+02  0.45594000000E+02  0.51100000000E-03 0. -1.
         11   -1    0    0    0    0 -0.00000000000E+00 -0.00000000000E+00 -0.45593999997E+02  0.45594000000E+02  0.51100000000E-03 0.  1.
    9900012    2    1    2    0    0 -0.34493986928E+02 -0.21056544378E+02  0.44668964225E+01  0.50528851472E+02  0.29999974536E+02 0.  0.
         12    1    1    2    0    0  0.34493986928E+02  0.21056544378E+02 -0.44668964225E+01  0.40659148528E+02  0.00000000000E+00 0. -1.
         11    1    3    3    0    0 -0.86045957818E+00 -0.98827110856E+01  0.36755925686E+01  0.10579146945E+02  0.51100000000E-03 0. -1.
        -11    1    3    3    0    0 -0.94234012953E+01 -0.10133899316E+02  0.61315556418E+01  0.15135798035E+02  0.51100000000E-03 0.  1.
        -12    1    3    3    0    0 -0.24210126055E+02 -0.10399339765E+01 -0.53402517878E+01  0.24813906493E+02  0.00000000000E+00 0.  1.
</event>
<event>
 7    1  0.5456331E-013  0.5052883E+02  0.7816164E-02  0.1300439E+00
        -11   -1    0    0    0    0  0.00000000000E+00  0.00000000000E+00  0.45593999997E+02  0.45594000000E+02  0.51100000000E-03 0.  1.
         11   -1    0    0    0    0 -0.00000000000E+00 -0.00000000000E+00 -0.45593999997E+02  0.45594000000E+02  0.51100000000E-03 0. -1.
    9900012    2    1    2    0    0 -0.62432561946E+01 -0.36580835254E+02  0.16614212052E+02  0.50528833778E+02  0.29999920751E+02 0.  0.
         12    1    1    2    0    0  0.62432561946E+01  0.36580835254E+02 -0.16614212052E+02  0.40659166222E+02  0.00000000000E+00 0. -1.
         11    1    3    3    0    0 -0.17529510546E+01  0.30517590855E+01  0.47074616035E+01  0.58776071598E+01  0.51100000000E-03 0. -1.
        -11    1    3    3    0    0 -0.37347822127E+01 -0.92784226378E+00  0.31206153839E+01  0.49545665884E+01  0.51100000000E-03 0.  1.
        -12    1    3    3    0    0 -0.75552292727E+00 -0.38704752076E+02  0.87861350641E+01  0.39696660030E+02  0.00000000000E+00 0.  1.
</event>
<event>
 7    1  0.5456331E-013  0.5052886E+02  0.7816164E-02  0.1300439E+00
        -11   -1    0    0    0    0  0.00000000000E+00  0.00000000000E+00  0.45593999997E+02  0.45594000000E+02  0.51100000000E-03 0.  1.
         11   -1    0    0    0    0 -0.00000000000E+00 -0.00000000000E+00 -0.45593999997E+02  0.45594000000E+02  0.51100000000E-03 0. -1.
    9900012    2    1    2    0    0 -0.19515169063E+01 -0.14292484610E+02  0.38014234513E+02  0.50528861296E+02  0.30000004396E+02 0.  0.
         12    1    1    2    0    0  0.19515169063E+01  0.14292484610E+02 -0.38014234513E+02  0.40659138704E+02  0.00000000000E+00 0. -1.
         11    1    3    3    0    0 -0.57045036498E+00  0.42294637292E+01 -0.90433011476E+00  0.43625210914E+01  0.51100000000E-03 0. -1.
        -11    1    3    3    0    0 -0.40955768364E+01 -0.97643381585E+00  0.10453543121E+01  0.43381953067E+01  0.51100000000E-03 0.  1.
        -12    1    3    3    0    0  0.27145102951E+01 -0.17545514523E+02  0.37873210315E+02  0.41828144898E+02  0.00000000000E+00 0.  1.
</event>
<event>
 7    1  0.5456331E-013  0.5052886E+02  0.7816164E-02  0.1300439E+00
        -11   -1    0    0    0    0  0.00000000000E+00  0.00000000000E+00  0.45593999997E+02  0.45594000000E+02  0.51100000000E-03 0. -1.
         11   -1    0    0    0    0 -0.00000000000E+00 -0.00000000000E+00 -0.45593999997E+02  0.45594000000E+02  0.51100000000E-03 0.  1.
    9900012    2    1    2    0    0 -0.30977098554E+02 -0.92000675854E+01 -0.24676785787E+02  0.50528860373E+02  0.30000001591E+02 0.  0.
         12    1    1    2    0    0  0.30977098554E+02  0.92000675854E+01  0.24676785787E+02  0.40659139627E+02  0.00000000000E+00 0. -1.
         11    1    3    3    0    0 -0.18954406792E+02 -0.27912579600E+01 -0.13610284413E+02  0.23501074441E+02  0.51100000000E-03 0. -1.
        -11    1    3    3    0    0 -0.48655548179E+01 -0.98670928522E+01 -0.14639753492E+02  0.18312714916E+02  0.51100000000E-03 0.  1.
         12    1    3    3    0    0 -0.71571369447E+01  0.34582832268E+01  0.35732521177E+01  0.87150710163E+01  0.00000000000E+00 0. -1.
</event>
<event>
 7    1  0.5456331E-013  0.5052886E+02  0.7816164E-02  0.1300439E+00
        -11   -1    0    0    0    0  0.00000000000E+00  0.00000000000E+00  0.45593999997E+02  0.45594000000E+02  0.51100000000E-03 0.  1.
         11   -1    0    0    0    0 -0.00000000000E+00 -0.00000000000E+00 -0.45593999997E+02  0.45594000000E+02  0.51100000000E-03 0. -1.
    9900012    2    1    2    0    0  0.32542214445E+02  0.15065799921E+02  0.19162249272E+02  0.50528857789E+02  0.29999993734E+02 0.  0.
         12    1    1    2    0    0 -0.32542214445E+02 -0.15065799921E+02 -0.19162249272E+02  0.40659142211E+02  0.00000000000E+00 0. -1.
         11    1    3    3    0    0  0.13465716450E+02  0.18929473747E+02  0.49529520647E+01  0.23752520504E+02  0.51100000000E-03 0. -1.
        -11    1    3    3    0    0  0.33717513491E+01  0.34180142011E+01  0.58052273054E+01  0.75334051111E+01  0.51100000000E-03 0.  1.
         12    1    3    3    0    0  0.15704746646E+02 -0.72816880275E+01  0.84040699018E+01  0.19242932174E+02  0.00000000000E+00 0. -1.
</event>
<event>
 7    1  0.5456331E-013  0.5052886E+02  0.7816164E-02  0.1300439E+00
        -11   -1    0    0    0    0  0.00000000000E+00  0.00000000000E+00  0.45593999997E+02  0.45594000000E+02  0.51100000000E-03 0.  1.
         11   -1    0    0    0    0 -0.00000000000E+00 -0.00000000000E+00 -0.45593999997E+02  0.45594000000E+02  0.51100000000E-03 0. -1.
    9900012    2    1    2    0    0 -0.14799809828E+01  0.11913972275E+02  0.38846266900E+02  0.50528861653E+02  0.30000005480E+02 0.  0.
         12    1    1    2    0    0  0.14799809828E+01 -0.11913972275E+02 -0.38846266900E+02  0.40659138347E+02  0.00000000000E+00 0. -1.
         11    1    3    3    0    0 -0.48213886363E+01  0.26925221887E+01  0.84180016329E+00  0.55860622889E+01  0.51100000000E-03 0. -1.
        -11    1    3    3    0    0 -0.68693539646E+01  0.73054045958E+01  0.69609809298E+01  0.12207055991E+02  0.51100000000E-03 0.  1.
        -12    1    3    3    0    0  0.10210761618E+02  0.19160454909E+01  0.31043485807E+02  0.32735743373E+02  0.00000000000E+00 0.  1.
</event>
<event>
 7    1  0.5456331E-013  0.5052887E+02  0.7816164E-02  0.1300439E+00
        -11   -1    0    0    0    0  0.00000000000E+00  0.00000000000E+00  0.45593999997E+02  0.45594000000E+02  0.51100000000E-03 0.  1.
         11   -1    0    0    0    0 -0.00000000000E+00 -0.00000000000E+00 -0.45593999997E+02  0.45594000000E+02  0.51100000000E-03 0. -1.
    9900012    2    1    2    0    0 -0.36390843809E+02  0.10117245602E+02 -0.15050349520E+02  0.50528865819E+02  0.30000018144E+02 0.  0.
         12    1    1    2    0    0  0.36390843809E+02 -0.10117245602E+02  0.15050349520E+02  0.40659134181E+02  0.00000000000E+00 0. -1.
         11    1    3    3    0    0 -0.86146654849E+01 -0.24257653823E+01 -0.17854683896E+01  0.91260449669E+01  0.51100000000E-03 0. -1.
        -11    1    3    3    0    0 -0.17592610129E+02  0.77742885973E+01  0.50732091632E+01  0.19891630044E+02  0.51100000000E-03 0.  1.
         12    1    3    3    0    0 -0.10183568195E+02  0.47687223865E+01 -0.18338090293E+02  0.21511190808E+02  0.00000000000E+00 0. -1.
</event>
<event>
 7    1  0.5456331E-013  0.5052887E+02  0.7816164E-02  0.1300439E+00
        -11   -1    0    0    0    0  0.00000000000E+00  0.00000000000E+00  0.45593999997E+02  0.45594000000E+02  0.51100000000E-03 0.  1.
         11   -1    0    0    0    0 -0.00000000000E+00 -0.00000000000E+00 -0.45593999997E+02  0.45594000000E+02  0.51100000000E-03 0. -1.
    9900012    2    1    2    0    0 -0.20392158694E+02 -0.33273877665E+02  0.11409380011E+02  0.50528867898E+02  0.30000024463E+02 0.  0.
         12    1    1    2    0    0  0.20392158694E+02  0.33273877665E+02 -0.11409380011E+02  0.40659132102E+02  0.00000000000E+00 0. -1.
         11    1    3    3    0    0 -0.96378017434E+01 -0.27144900363E+02  0.43241514962E+01  0.29127841056E+02  0.51100000000E-03 0. -1.
        -11    1    3    3    0    0 -0.81227520462E+01 -0.11312676587E+02  0.28680367433E+01  0.14219050158E+02  0.51100000000E-03 0.  1.
         12    1    3    3    0    0 -0.26316049045E+01  0.51836992854E+01  0.42171917712E+01  0.71819766840E+01  0.00000000000E+00 0. -1.
</event>
<event>
 7    1  0.5456331E-013  0.5052886E+02  0.7816164E-02  0.1300439E+00
        -11   -1    0    0    0    0  0.00000000000E+00  0.00000000000E+00  0.45593999997E+02  0.45594000000E+02  0.51100000000E-03 0.  1.
         11   -1    0    0    0    0 -0.00000000000E+00 -0.00000000000E+00 -0.45593999997E+02  0.45594000000E+02  0.51100000000E-03 0. -1.
    9900012    2    1    2    0    0  0.22898652066E+02  0.27310258671E+02  0.19569551333E+02  0.50528857922E+02  0.29999994141E+02 0.  0.
         12    1    1    2    0    0 -0.22898652066E+02 -0.27310258671E+02 -0.19569551333E+02  0.40659142078E+02  0.00000000000E+00 0. -1.
         11    1    3    3    0    0  0.28810296879E+01  0.23326179483E+01  0.82392258358E+01  0.90347264037E+01  0.51100000000E-03 0. -1.
        -11    1    3    3    0    0  0.82147645943E+01  0.26287546719E+02  0.10873658687E+02  0.29610030789E+02  0.51100000000E-03 0.  1.
        -12    1    3    3    0    0  0.11802857783E+02 -0.13099059960E+01  0.45666681073E+00  0.11884100730E+02  0.00000000000E+00 0.  1.
</event>
<event>
 7    1  0.5456331E-013  0.5052885E+02  0.7816164E-02  0.1300439E+00
        -11   -1    0    0    0    0  0.00000000000E+00  0.00000000000E+00  0.45593999997E+02  0.45594000000E+02  0.51100000000E-03 0. -1.
         11   -1    0    0    0    0 -0.00000000000E+00 -0.00000000000E+00 -0.45593999997E+02  0.45594000000E+02  0.51100000000E-03 0.  1.
    9900012    2    1    2    0    0 -0.91613616237E+00  0.10915101766E+02 -0.39155940739E+02  0.50528850388E+02  0.29999971238E+02 0.  0.
         12    1    1    2    0    0  0.91613616237E+00 -0.10915101766E+02  0.39155940739E+02  0.40659149612E+02  0.00000000000E+00 0. -1.
         11    1    3    3    0    0 -0.62520772026E+01  0.35838786666E+01 -0.15266174459E+02  0.16881609476E+02  0.51100000000E-03 0. -1.
        -11    1    3    3    0    0  0.13929039460E+00  0.13680008474E+02 -0.20767783453E+02  0.24868913597E+02  0.51100000000E-03 0.  1.
         12    1    3    3    0    0  0.51966506456E+01 -0.63487853747E+01 -0.31219828273E+01  0.87783273145E+01  0.00000000000E+00 0. -1.
</event>
<event>
 7    1  0.5456331E-013  0.5052886E+02  0.7816164E-02  0.1300439E+00
        -11   -1    0    0    0    0  0.00000000000E+00  0.00000000000E+00  0.45593999997E+02  0.45594000000E+02  0.51100000000E-03 0.  1.
         11   -1    0    0    0    0 -0.00000000000E+00 -0.00000000000E+00 -0.45593999997E+02  0.45594000000E+02  0.51100000000E-03 0. -1.
    9900012    2    1    2    0    0  0.23094165287E+02  0.29408334413E+02  0.15967933613E+02  0.50528861948E+02  0.30000006378E+02 0.  0.
         12    1    1    2    0    0 -0.23094165287E+02 -0.29408334413E+02 -0.15967933613E+02  0.40659138052E+02  0.00000000000E+00 0. -1.
         11    1    3    3    0    0  0.12650276512E+01  0.90224921301E+01  0.58204499602E+01  0.10811257891E+02  0.51100000000E-03 0. -1.
        -11    1    3    3    0    0  0.81656401611E+01  0.13193893797E+02  0.16831515583E+02  0.22892278826E+02  0.51100000000E-03 0.  1.
         12    1    3    3    0    0  0.13663497475E+02  0.71919484856E+01 -0.66840319305E+01  0.16825325230E+02  0.00000000000E+00 0. -1.
</event>
<event>
 7    1  0.5456331E-013  0.5052887E+02  0.7816164E-02  0.1300439E+00
        -11   -1    0    0    0    0  0.00000000000E+00  0.00000000000E+00  0.45593999997E+02  0.45594000000E+02  0.51100000000E-03 0.  1.
         11   -1    0    0    0    0 -0.00000000000E+00 -0.00000000000E+00 -0.45593999997E+02  0.45594000000E+02  0.51100000000E-03 0. -1.
    9900012    2    1    2    0    0  0.27624451922E+02 -0.26176467326E+02  0.14312490098E+02  0.50528866235E+02  0.30000019409E+02 0.  0.
         12    1    1    2    0    0 -0.27624451922E+02  0.26176467326E+02 -0.14312490098E+02  0.40659133765E+02  0.00000000000E+00 0. -1.
         11    1    3    3    0    0  0.19859206565E+02 -0.35214888356E+01  0.31545329636E+01  0.20414211900E+02  0.51100000000E-03 0. -1.
        -11    1    3    3    0    0  0.27447039118E+01  0.11909343077E+01  0.34264223842E+01  0.45488564173E+01  0.51100000000E-03 0.  1.
        -12    1    3    3    0    0  0.50205414452E+01 -0.23845912799E+02  0.77315347498E+01  0.25565797918E+02  0.00000000000E+00 0.  1.
</event>
<event>
 7    1  0.5456331E-013  0.5052884E+02  0.7816164E-02  0.1300439E+00
        -11   -1    0    0    0    0  0.00000000000E+00  0.00000000000E+00  0.45593999997E+02  0.45594000000E+02  0.51100000000E-03 0.  1.
         11   -1    0    0    0    0 -0.00000000000E+00 -0.00000000000E+00 -0.45593999997E+02  0.45594000000E+02  0.51100000000E-03 0. -1.
    9900012    2    1    2    0    0 -0.12070151434E+02 -0.18663176240E+02  0.34046502920E+02  0.50528842802E+02  0.29999948181E+02 0.  0.
         12    1    1    2    0    0  0.12070151434E+02  0.18663176240E+02 -0.34046502920E+02  0.40659157198E+02  0.00000000000E+00 0. -1.
         11    1    3    3    0    0  0.15139889861E+01 -0.11456985341E+02  0.20707151040E+02  0.23713725566E+02  0.51100000000E-03 0. -1.
        -11    1    3    3    0    0 -0.41954684455E+01 -0.31250589919E+01  0.15494137211E+02  0.16353477837E+02  0.51100000000E-03 0.  1.
         12    1    3    3    0    0 -0.93886719744E+01 -0.40811319066E+01 -0.21547853319E+01  0.10461639399E+02  0.00000000000E+00 0. -1.
</event>
<event>
 7    1  0.5456331E-013  0.5052886E+02  0.7816164E-02  0.1300439E+00
        -11   -1    0    0    0    0  0.00000000000E+00  0.00000000000E+00  0.45593999997E+02  0.45594000000E+02  0.51100000000E-03 0. -1.
         11   -1    0    0    0    0 -0.00000000000E+00 -0.00000000000E+00 -0.45593999997E+02  0.45594000000E+02  0.51100000000E-03 0.  1.
    9900012    2    1    2    0    0  0.25788763411E+02  0.29221907584E+02 -0.11583846525E+02  0.50528859559E+02  0.29999999115E+02 0.  0.
         12    1    1    2    0    0 -0.25788763411E+02 -0.29221907584E+02  0.11583846525E+02  0.40659140441E+02  0.00000000000E+00 0. -1.
         11    1    3    3    0    0  0.23236025523E+01 -0.27568790345E+01 -0.22008361569E+01  0.42241201312E+01  0.51100000000E-03 0. -1.
        -11    1    3    3    0    0  0.18005984779E+02  0.66053283309E+01 -0.17894653794E+01  0.19262607218E+02  0.51100000000E-03 0.  1.
        -12    1    3    3    0    0  0.54591760794E+01  0.25373458288E+02 -0.75935449887E+01  0.27042132210E+02  0.00000000000E+00 0.  1.
</event>
<event>
 7    1  0.5456331E-013  0.5052886E+02  0.7816164E-02  0.1300439E+00
        -11   -1    0    0    0    0  0.00000000000E+00  0.00000000000E+00  0.45593999997E+02  0.45594000000E+02  0.51100000000E-03 0.  1.
         11   -1    0    0    0    0 -0.00000000000E+00 -0.00000000000E+00 -0.45593999997E+02  0.45594000000E+02  0.51100000000E-03 0. -1.
    9900012    2    1    2    0    0 -0.77980389938E+01 -0.20159608969E+02  0.34437575824E+02  0.50528857430E+02  0.29999992645E+02 0.  0.
         12    1    1    2    0    0  0.77980389938E+01  0.20159608969E+02 -0.34437575824E+02  0.40659142570E+02  0.00000000000E+00 0. -1.
         11    1    3    3    0    0 -0.12202111531E+02 -0.39176084439E+01  0.12994431229E+02  0.18250874635E+02  0.51100000000E-03 0. -1.
        -11    1    3    3    0    0 -0.39430314987E+01  0.13077212813E+01  0.67058068174E+01  0.78883127272E+01  0.51100000000E-03 0.  1.
        -12    1    3    3    0    0  0.83471040357E+01 -0.17549721806E+02  0.14737337777E+02  0.24389670068E+02  0.00000000000E+00 0.  1.
</event>
<event>
 7    1  0.5456331E-013  0.5052887E+02  0.7816164E-02  0.1300439E+00
        -11   -1    0    0    0    0  0.00000000000E+00  0.00000000000E+00  0.45593999997E+02  0.45594000000E+02  0.51100000000E-03 0. -1.
         11   -1    0    0    0    0 -0.00000000000E+00 -0.00000000000E+00 -0.45593999997E+02  0.45594000000E+02  0.51100000000E-03 0.  1.
    9900012    2    1    2    0    0 -0.11402032650E+02 -0.49356261565E+01 -0.38714316461E+02  0.50528867531E+02  0.30000023347E+02 0.  0.
         12    1    1    2    0    0  0.11402032650E+02  0.49356261565E+01  0.38714316461E+02  0.40659132469E+02  0.00000000000E+00 0. -1.
         11    1    3    3    0    0  0.27605530543E+01  0.65769937922E+01 -0.17393975257E+01  0.73418665557E+01  0.51100000000E-03 0. -1.
        -11    1    3    3    0    0 -0.89225888774E+01  0.19385241801E+00 -0.10583939369E+02  0.13844491463E+02  0.51100000000E-03 0.  1.
         12    1    3    3    0    0 -0.52399968264E+01 -0.11706472367E+02 -0.26390979566E+02  0.29342509512E+02  0.00000000000E+00 0. -1.
</event>
<event>
 7    1  0.5456331E-013  0.5052886E+02  0.7816164E-02  0.1300439E+00
        -11   -1    0    0    0    0  0.00000000000E+00  0.00000000000E+00  0.45593999997E+02  0.45594000000E+02  0.51100000000E-03 0. -1.
         11   -1    0    0    0    0 -0.00000000000E+00 -0.00000000000E+00 -0.45593999997E+02  0.45594000000E+02  0.51100000000E-03 0.  1.
    9900012    2    1    2    0    0 -0.35607660536E+02  0.19320177317E+02  0.34627399054E+01  0.50528864396E+02  0.30000013817E+02 0.  0.
         12    1    1    2    0    0  0.35607660536E+02 -0.19320177317E+02 -0.34627399054E+01  0.40659135604E+02  0.00000000000E+00 0. -1.
         11    1    3    3    0    0 -0.13634770272E+02  0.42574906720E+01 -0.37345766900E+00  0.14288899821E+02  0.51100000000E-03 0. -1.
        -11    1    3    3    0    0 -0.18404070842E+02  0.20071111575E+02 -0.25786413588E+01  0.27353404449E+02  0.51100000000E-03 0.  1.
         12    1    3    3    0    0 -0.35688194216E+01 -0.50084249293E+01  0.64148389332E+01  0.88865601261E+01  0.00000000000E+00 0. -1.
</event>
<event>
 7    1  0.5456331E-013  0.5052887E+02  0.7816164E-02  0.1300439E+00
        -11   -1    0    0    0    0  0.00000000000E+00  0.00000000000E+00  0.45593999997E+02  0.45594000000E+02  0.51100000000E-03 0.  1.
         11   -1    0    0    0    0 -0.00000000000E+00 -0.00000000000E+00 -0.45593999997E+02  0.45594000000E+02  0.51100000000E-03 0. -1.
    9900012    2    1    2    0    0 -0.11914984011E+02 -0.36867285745E+01  0.38698917246E+02  0.50528868091E+02  0.30000025049E+02 0.  0.
         12    1    1    2    0    0  0.11914984011E+02  0.36867285745E+01 -0.38698917246E+02  0.40659131909E+02  0.00000000000E+00 0. -1.
         11    1    3    3    0    0 -0.24486295515E+01  0.82934497219E+01  0.16904386690E+02  0.18987769342E+02  0.51100000000E-03 0. -1.
        -11    1    3    3    0    0 -0.69926357959E+01  0.24593662376E+01  0.11323080266E+02  0.13533572501E+02  0.51100000000E-03 0.  1.
         12    1    3    3    0    0 -0.24737186640E+01 -0.14439544534E+02  0.10471450290E+02  0.18007526248E+02  0.00000000000E+00 0. -1.
</event>
<event>
 7    1  0.5456331E-013  0.5052875E+02  0.7816164E-02  0.1300439E+00
        -11   -1    0    0    0    0  0.00000000000E+00  0.00000000000E+00  0.45593999997E+02  0.45594000000E+02  0.51100000000E-03 0.  1.
         11   -1    0    0    0    0 -0.00000000000E+00 -0.00000000000E+00 -0.45593999997E+02  0.45594000000E+02  0.51100000000E-03 0. -1.
    9900012    2    1    2    0    0  0.35427014350E+02 -0.16613750587E+02 -0.11049177025E+02  0.50528752992E+02  0.29999675194E+02 0.  0.
         12    1    1    2    0    0 -0.35427014350E+02  0.16613750587E+02  0.11049177025E+02  0.40659247008E+02  0.00000000000E+00 0. -1.
         11    1    3    3    0    0  0.68101031930E+01 -0.67928381251E+01 -0.88892318963E+01  0.13097274497E+02  0.51100000000E-03 0. -1.
        -11    1    3    3    0    0  0.22013306929E+02 -0.14434724043E+02 -0.79644739681E+01  0.27502359645E+02  0.51100000000E-03 0.  1.
         12    1    3    3    0    0  0.66036042274E+01  0.46138115813E+01  0.58045288391E+01  0.99291188503E+01  0.00000000000E+00 0. -1.
</event>
<event>
 7    1  0.5456331E-013  0.5052885E+02  0.7816164E-02  0.1300439E+00
        -11   -1    0    0    0    0  0.00000000000E+00  0.00000000000E+00  0.45593999997E+02  0.45594000000E+02  0.51100000000E-03 0.  1.
         11   -1    0    0    0    0 -0.00000000000E+00 -0.00000000000E+00 -0.45593999997E+02  0.45594000000E+02  0.51100000000E-03 0. -1.
    9900012    2    1    2    0    0  0.19112175633E+02 -0.28452961859E+02  0.21870523030E+02  0.50528854982E+02  0.29999985203E+02 0.  0.
         12    1    1    2    0    0 -0.19112175633E+02  0.28452961859E+02 -0.21870523030E+02  0.40659145018E+02  0.00000000000E+00 0. -1.
         11    1    3    3    0    0  0.32019373492E+00  0.75298855209E+00 -0.74130054669E+00  0.11041025990E+01  0.51100000000E-03 0. -1.
        -11    1    3    3    0    0  0.10119465102E+02  0.51960348665E+00 -0.14155361674E+01  0.10231192728E+02  0.51100000000E-03 0.  1.
        -12    1    3    3    0    0  0.86725167956E+01 -0.29725553898E+02  0.24027359744E+02  0.39193559655E+02  0.00000000000E+00 0.  1.
</event>
<event>
 7    1  0.5456331E-013  0.5052888E+02  0.7816164E-02  0.1300439E+00
        -11   -1    0    0    0    0  0.00000000000E+00  0.00000000000E+00  0.45593999997E+02  0.45594000000E+02  0.51100000000E-03 0.  1.
         11   -1    0    0    0    0 -0.00000000000E+00 -0.00000000000E+00 -0.45593999997E+02  0.45594000000E+02  0.51100000000E-03 0. -1.
    9900012    2    1    2    0    0 -0.94649817805E+01  0.17619829087E+02  0.35399436370E+02  0.50528876147E+02  0.30000049537E+02 0.  0.
         12    1    1    2    0    0  0.94649817805E+01 -0.17619829087E+02 -0.35399436370E+02  0.40659123853E+02  0.00000000000E+00 0. -1.
         11    1    3    3    0    0 -0.78746009225E+00 -0.17337141469E+01  0.10425056305E+02  0.10597530720E+02  0.51100000000E-03 0. -1.
        -11    1    3    3    0    0 -0.59196411246E+01  0.35560266194E+01  0.22708913193E+02  0.23735673890E+02  0.51100000000E-03 0.  1.
         12    1    3    3    0    0 -0.27578805637E+01  0.15797516615E+02  0.22654668726E+01  0.16195671538E+02  0.00000000000E+00 0. -1.
</event>
<event>
 7    1  0.5456331E-013  0.5052886E+02  0.7816164E-02  0.1300439E+00
        -11   -1    0    0    0    0  0.00000000000E+00  0.00000000000E+00  0.45593999997E+02  0.45594000000E+02  0.51100000000E-03 0.  1.
         11   -1    0    0    0    0 -0.00000000000E+00 -0.00000000000E+00 -0.45593999997E+02  0.45594000000E+02  0.51100000000E-03 0. -1.
    9900012    2    1    2    0    0 -0.16348349641E+02  0.20036400741E+01  0.37173682656E+02  0.50528858448E+02  0.29999995738E+02 0.  0.
         12    1    1    2    0    0  0.16348349641E+02 -0.20036400741E+01 -0.37173682656E+02  0.40659141552E+02  0.00000000000E+00 0. -1.
         11    1    3    3    0    0 -0.28381573639E+01  0.56566308581E+01  0.44665992315E+01  0.77461680103E+01  0.51100000000E-03 0. -1.
        -11    1    3    3    0    0  0.34022042518E+00  0.12666631027E+01  0.26974148649E+02  0.27006015644E+02  0.51100000000E-03 0.  1.
        -12    1    3    3    0    0 -0.13850412702E+02 -0.49196538868E+01  0.57329347756E+01  0.15776674793E+02  0.00000000000E+00 0.  1.
</event>
<event>
 7    1  0.5456331E-013  0.5052888E+02  0.7816164E-02  0.1300439E+00
        -11   -1    0    0    0    0  0.00000000000E+00  0.00000000000E+00  0.45593999997E+02  0.45594000000E+02  0.51100000000E-03 0.  1.
         11   -1    0    0    0    0 -0.00000000000E+00 -0.00000000000E+00 -0.45593999997E+02  0.45594000000E+02  0.51100000000E-03 0. -1.
    9900012    2    1    2    0    0 -0.34011013607E+02 -0.70562698247E+01  0.21133479065E+02  0.50528881370E+02  0.30000065411E+02 0.  0.
         12    1    1    2    0    0  0.34011013607E+02  0.70562698247E+01 -0.21133479065E+02  0.40659118630E+02  0.00000000000E+00 0. -1.
         11    1    3    3    0    0 -0.22860252143E+02  0.12179669073E+01  0.23749841316E+02  0.32986808488E+02  0.51100000000E-03 0. -1.
        -11    1    3    3    0    0 -0.75441263048E+01 -0.42228948300E+01  0.35353855202E+01  0.93405371090E+01  0.51100000000E-03 0.  1.
         12    1    3    3    0    0 -0.36066351590E+01 -0.40513419019E+01 -0.61517477718E+01  0.82015357723E+01  0.00000000000E+00 0. -1.
</event>
<event>
 7    1  0.5456331E-013  0.5052885E+02  0.7816164E-02  0.1300439E+00
        -11   -1    0    0    0    0  0.00000000000E+00  0.00000000000E+00  0.45593999997E+02  0.45594000000E+02  0.51100000000E-03 0.  1.
         11   -1    0    0    0    0 -0.00000000000E+00 -0.00000000000E+00 -0.45593999997E+02  0.45594000000E+02  0.51100000000E-03 0. -1.
    9900012    2    1    2    0    0 -0.11539718590E+02 -0.29289919873E+02  0.25731337708E+02  0.50528852794E+02  0.29999978552E+02 0.  0.
         12    1    1    2    0    0  0.11539718590E+02  0.29289919873E+02 -0.25731337708E+02  0.40659147206E+02  0.00000000000E+00 0. -1.
         11    1    3    3    0    0  0.39325657889E+01 -0.57712179362E+01  0.71896661283E+00  0.70206084781E+01  0.51100000000E-03 0. -1.
        -11    1    3    3    0    0 -0.12800444519E+01 -0.36083779776E+01 -0.40199481954E+01  0.55514763066E+01  0.51100000000E-03 0.  1.
        -12    1    3    3    0    0 -0.14192239927E+02 -0.19910323960E+02  0.29032319290E+02  0.37956768009E+02  0.00000000000E+00 0.  1.
</event>
<event>
 7    1  0.5456331E-013  0.5052886E+02  0.7816164E-02  0.1300439E+00
        -11   -1    0    0    0    0  0.00000000000E+00  0.00000000000E+00  0.45593999997E+02  0.45594000000E+02  0.51100000000E-03 0.  1.
         11   -1    0    0    0    0 -0.00000000000E+00 -0.00000000000E+00 -0.45593999997E+02  0.45594000000E+02  0.51100000000E-03 0. -1.
    9900012    2    1    2    0    0  0.21844708779E+02  0.16587131993E+02  0.30014021307E+02  0.50528859276E+02  0.29999998255E+02 0.  0.
         12    1    1    2    0    0 -0.21844708779E+02 -0.16587131993E+02 -0.30014021307E+02  0.40659140724E+02  0.00000000000E+00 0. -1.
         11    1    3    3    0    0  0.18809294418E+02  0.10850978210E+02  0.96461778432E+01  0.23760934995E+02  0.51100000000E-03 0. -1.
        -11    1    3    3    0    0  0.48433223113E+01  0.87397694436E+01  0.53258654966E+01  0.11322816986E+02  0.51100000000E-03 0.  1.
        -12    1    3    3    0    0 -0.18079079500E+01 -0.30036156606E+01  0.15041977967E+02  0.15445107295E+02  0.00000000000E+00 0.  1.
</event>
<event>
 7    1  0.5456331E-013  0.5052886E+02  0.7816164E-02  0.1300439E+00
        -11   -1    0    0    0    0  0.00000000000E+00  0.00000000000E+00  0.45593999997E+02  0.45594000000E+02  0.51100000000E-03 0.  1.
         11   -1    0    0    0    0 -0.00000000000E+00 -0.00000000000E+00 -0.45593999997E+02  0.45594000000E+02  0.51100000000E-03 0. -1.
    9900012    2    1    2    0    0  0.20758254319E+02 -0.32256657846E+02  0.13482154010E+02  0.50528861119E+02  0.30000003857E+02 0.  0.
         12    1    1    2    0    0 -0.20758254319E+02  0.32256657846E+02 -0.13482154010E+02  0.40659138881E+02  0.00000000000E+00 0. -1.
         11    1    3    3    0    0 -0.22185684955E+01 -0.32901530560E+00  0.30739695698E+01  0.38052051742E+01  0.51100000000E-03 0. -1.
        -11    1    3    3    0    0 -0.28899583248E+01 -0.11322527097E+02 -0.10301597146E+01  0.11730844312E+02  0.51100000000E-03 0.  1.
        -12    1    3    3    0    0  0.25866781139E+02 -0.20605115444E+02  0.11438344155E+02  0.34992811633E+02  0.00000000000E+00 0.  1.
</event>
<event>
 7    1  0.5456331E-013  0.5052886E+02  0.7816164E-02  0.1300439E+00
        -11   -1    0    0    0    0  0.00000000000E+00  0.00000000000E+00  0.45593999997E+02  0.45594000000E+02  0.51100000000E-03 0.  1.
         11   -1    0    0    0    0 -0.00000000000E+00 -0.00000000000E+00 -0.45593999997E+02  0.45594000000E+02  0.51100000000E-03 0. -1.
    9900012    2    1    2    0    0 -0.10881924795E+02  0.38517372818E+02 -0.71527069235E+01  0.50528861883E+02  0.30000006180E+02 0.  0.
         12    1    1    2    0    0  0.10881924795E+02 -0.38517372818E+02  0.71527069235E+01  0.40659138117E+02  0.00000000000E+00 0. -1.
         11    1    3    3    0    0 -0.46038794499E+01  0.85076914310E+01  0.52956373322E+01  0.11028159161E+02  0.51100000000E-03 0. -1.
        -11    1    3    3    0    0 -0.12030507038E+02  0.20395864644E+02 -0.13303291073E+01  0.23716959543E+02  0.51100000000E-03 0.  1.
         12    1    3    3    0    0  0.57524616925E+01  0.96138167431E+01 -0.11118015148E+02  0.15783743179E+02  0.00000000000E+00 0. -1.
</event>
<event>
 7    1  0.5456331E-013  0.5052886E+02  0.7816164E-02  0.1300439E+00
        -11   -1    0    0    0    0  0.00000000000E+00  0.00000000000E+00  0.45593999997E+02  0.45594000000E+02  0.51100000000E-03 0. -1.
         11   -1    0    0    0    0 -0.00000000000E+00 -0.00000000000E+00 -0.45593999997E+02  0.45594000000E+02  0.51100000000E-03 0.  1.
    9900012    2    1    2    0    0  0.42345479478E+01 -0.96618991281E+01 -0.39266804244E+02  0.50528860724E+02  0.30000002658E+02 0.  0.
         12    1    1    2    0    0 -0.42345479478E+01  0.96618991281E+01  0.39266804244E+02  0.40659139276E+02  0.00000000000E+00 0. -1.
         11    1    3    3    0    0 -0.30206620199E+01 -0.17814888424E+01  0.53396995372E+00  0.35472842720E+01  0.51100000000E-03 0. -1.
        -11    1    3    3    0    0  0.88281812183E+01  0.33412690960E+01 -0.56524980640E+01  0.11002345087E+02  0.51100000000E-03 0.  1.
         12    1    3    3    0    0 -0.15729712506E+01 -0.11221679382E+02 -0.34148276134E+02  0.35979231365E+02  0.00000000000E+00 0. -1.
</event>
<event>
 7    1  0.5456331E-013  0.5052886E+02  0.7816164E-02  0.1300439E+00
        -11   -1    0    0    0    0  0.00000000000E+00  0.00000000000E+00  0.45593999997E+02  0.45594000000E+02  0.51100000000E-03 0. -1.
         11   -1    0    0    0    0 -0.00000000000E+00 -0.00000000000E+00 -0.45593999997E+02  0.45594000000E+02  0.51100000000E-03 0.  1.
    9900012    2    1    2    0    0  0.52544197581E+01  0.14570608808E+02 -0.37593274778E+02  0.50528857405E+02  0.29999992569E+02 0.  0.
         12    1    1    2    0    0 -0.52544197581E+01 -0.14570608808E+02  0.37593274778E+02  0.40659142595E+02  0.00000000000E+00 0. -1.
         11    1    3    3    0    0 -0.26917472143E+01 -0.78672558551E+01 -0.97889617356E+01  0.12843791881E+02  0.51100000000E-03 0. -1.
        -11    1    3    3    0    0  0.27370186098E+01  0.13929329112E+01 -0.69715175247E+01  0.76179780667E+01  0.51100000000E-03 0.  1.
        -12    1    3    3    0    0  0.52091483625E+01  0.21044931752E+02 -0.20832795517E+02  0.30067087458E+02  0.00000000000E+00 0.  1.
</event>
<event>
 7    1  0.5456331E-013  0.5052885E+02  0.7816164E-02  0.1300439E+00
        -11   -1    0    0    0    0  0.00000000000E+00  0.00000000000E+00  0.45593999997E+02  0.45594000000E+02  0.51100000000E-03 0. -1.
         11   -1    0    0    0    0 -0.00000000000E+00 -0.00000000000E+00 -0.45593999997E+02  0.45594000000E+02  0.51100000000E-03 0.  1.
    9900012    2    1    2    0    0  0.19545966456E+02  0.90484833187E+01 -0.34485455909E+02  0.50528849439E+02  0.29999968356E+02 0.  0.
         12    1    1    2    0    0 -0.19545966456E+02 -0.90484833187E+01  0.34485455909E+02  0.40659150561E+02  0.00000000000E+00 0. -1.
         11    1    3    3    0    0  0.77916934363E+01 -0.26132081435E+01 -0.32167964866E+01  0.88253681682E+01  0.51100000000E-03 0. -1.
        -11    1    3    3    0    0  0.10927601634E+02 -0.37733963063E+01 -0.92754856629E+01  0.14821795833E+02  0.51100000000E-03 0.  1.
         12    1    3    3    0    0  0.82667138545E+00  0.15435087769E+02 -0.21993173759E+02  0.26881685439E+02  0.00000000000E+00 0. -1.
</event>
<event>
 7    1  0.5456331E-013  0.5052885E+02  0.7816164E-02  0.1300439E+00
        -11   -1    0    0    0    0  0.00000000000E+00  0.00000000000E+00  0.45593999997E+02  0.45594000000E+02  0.51100000000E-03 0.  1.
         11   -1    0    0    0    0 -0.00000000000E+00 -0.00000000000E+00 -0.45593999997E+02  0.45594000000E+02  0.51100000000E-03 0. -1.
    9900012    2    1    2    0    0 -0.15277730465E+02 -0.37177683641E+02  0.61300377180E+01  0.50528848859E+02  0.29999966593E+02 0.  0.
         12    1    1    2    0    0  0.15277730465E+02  0.37177683641E+02 -0.61300377180E+01  0.40659151141E+02  0.00000000000E+00 0. -1.
         11    1    3    3    0    0  0.18767744512E+01 -0.79464046587E+01 -0.15128659576E+01  0.83039986156E+01  0.51100000000E-03 0. -1.
        -11    1    3    3    0    0  0.33162665796E+01 -0.75270658517E+00 -0.40186833097E+01  0.52644094669E+01  0.51100000000E-03 0.  1.
        -12    1    3    3    0    0 -0.20470771496E+02 -0.28478572397E+02  0.11661586985E+02  0.36960440777E+02  0.00000000000E+00 0.  1.
</event>
<event>
 7    1  0.5456331E-013  0.5052888E+02  0.7816164E-02  0.1300439E+00
        -11   -1    0    0    0    0  0.00000000000E+00  0.00000000000E+00  0.45593999997E+02  0.45594000000E+02  0.51100000000E-03 0.  1.
         11   -1    0    0    0    0 -0.00000000000E+00 -0.00000000000E+00 -0.45593999997E+02  0.45594000000E+02  0.51100000000E-03 0. -1.
    9900012    2    1    2    0    0 -0.13637264928E+02  0.93036771045E+01  0.37156843164E+02  0.50528875609E+02  0.30000047901E+02 0.  0.
         12    1    1    2    0    0  0.13637264928E+02 -0.93036771045E+01 -0.37156843164E+02  0.40659124391E+02  0.00000000000E+00 0. -1.
         11    1    3    3    0    0 -0.90038798900E+00  0.97988482012E+00 -0.49689119078E+00  0.14204836881E+01  0.51100000000E-03 0. -1.
        -11    1    3    3    0    0 -0.15019853510E+02 -0.55855147145E-01  0.58149578066E+01  0.16106298576E+02  0.51100000000E-03 0.  1.
        -12    1    3    3    0    0  0.22829765715E+01  0.83796474316E+01  0.31838776548E+02  0.33002093345E+02  0.00000000000E+00 0.  1.
</event>
<event>
 7    1  0.5456331E-013  0.5052879E+02  0.7816164E-02  0.1300439E+00
        -11   -1    0    0    0    0  0.00000000000E+00  0.00000000000E+00  0.45593999997E+02  0.45594000000E+02  0.51100000000E-03 0. -1.
         11   -1    0    0    0    0 -0.00000000000E+00 -0.00000000000E+00 -0.45593999997E+02  0.45594000000E+02  0.51100000000E-03 0.  1.
    9900012    2    1    2    0    0 -0.14706904803E+02  0.39917371153E+01 -0.37695411235E+02  0.50528793880E+02  0.29999799478E+02 0.  0.
         12    1    1    2    0    0  0.14706904803E+02 -0.39917371153E+01  0.37695411235E+02  0.40659206120E+02  0.00000000000E+00 0. -1.
         11    1    3    3    0    0 -0.10770064561E+02 -0.10108768049E+02 -0.15538507068E+02  0.21438905855E+02  0.51100000000E-03 0. -1.
        -11    1    3    3    0    0  0.82235975837E-01  0.17870734149E+01 -0.13250098533E+02  0.13370321819E+02  0.51100000000E-03 0.  1.
         12    1    3    3    0    0 -0.40190762182E+01  0.12313431749E+02 -0.89068056336E+01  0.15719566205E+02  0.00000000000E+00 0. -1.
</event>
<event>
 7    1  0.5456331E-013  0.5052886E+02  0.7816164E-02  0.1300439E+00
        -11   -1    0    0    0    0  0.00000000000E+00  0.00000000000E+00  0.45593999997E+02  0.45594000000E+02  0.51100000000E-03 0.  1.
         11   -1    0    0    0    0 -0.00000000000E+00 -0.00000000000E+00 -0.45593999997E+02  0.45594000000E+02  0.51100000000E-03 0. -1.
    9900012    2    1    2    0    0  0.77753565045E+01 -0.46265337602E+01  0.39639684991E+02  0.50528860688E+02  0.30000002549E+02 0.  0.
         12    1    1    2    0    0 -0.77753565045E+01  0.46265337602E+01 -0.39639684991E+02  0.40659139312E+02  0.00000000000E+00 0. -1.
         11    1    3    3    0    0  0.70770972879E+01  0.60011295991E+01  0.48438938056E+01  0.10467194942E+02  0.51100000000E-03 0. -1.
        -11    1    3    3    0    0  0.50885867102E+01  0.24619860230E+01  0.67701939405E+01  0.88198988734E+01  0.51100000000E-03 0.  1.
         12    1    3    3    0    0 -0.43903274936E+01 -0.13089649382E+02  0.28025597244E+02  0.31241766873E+02  0.00000000000E+00 0. -1.
</event>
<event>
 7    1  0.5456331E-013  0.5052887E+02  0.7816164E-02  0.1300439E+00
        -11   -1    0    0    0    0  0.00000000000E+00  0.00000000000E+00  0.45593999997E+02  0.45594000000E+02  0.51100000000E-03 0. -1.
         11   -1    0    0    0    0 -0.00000000000E+00 -0.00000000000E+00 -0.45593999997E+02  0.45594000000E+02  0.51100000000E-03 0.  1.
    9900012    2    1    2    0    0  0.49371305011E+01 -0.35828004823E+02 -0.18578046516E+02  0.50528868190E+02  0.30000025352E+02 0.  0.
         12    1    1    2    0    0 -0.49371305011E+01  0.35828004823E+02  0.18578046516E+02  0.40659131810E+02  0.00000000000E+00 0. -1.
         11    1    3    3    0    0 -0.10704093544E+02 -0.13698933352E+02 -0.10871755977E+02  0.20504474435E+02  0.51100000000E-03 0.  1.
        -11    1    3    3    0    0  0.82116193495E+01 -0.38692876123E+01 -0.41978863329E+01  0.10001216371E+02  0.51100000000E-03 0. -1.
        -12    1    3    3    0    0  0.74296046959E+01 -0.18259783858E+02 -0.35084042063E+01  0.20023177384E+02  0.00000000000E+00 0.  1.
</event>
<event>
 7    1  0.5456331E-013  0.5052885E+02  0.7816164E-02  0.1300439E+00
        -11   -1    0    0    0    0  0.00000000000E+00  0.00000000000E+00  0.45593999997E+02  0.45594000000E+02  0.51100000000E-03 0.  1.
         11   -1    0    0    0    0 -0.00000000000E+00 -0.00000000000E+00 -0.45593999997E+02  0.45594000000E+02  0.51100000000E-03 0. -1.
    9900012    2    1    2    0    0 -0.16327751806E+02  0.24628123218E+02  0.27928956562E+02  0.50528849161E+02  0.29999967510E+02 0.  0.
         12    1    1    2    0    0  0.16327751806E+02 -0.24628123218E+02 -0.27928956562E+02  0.40659150839E+02  0.00000000000E+00 0. -1.
         11    1    3    3    0    0  0.55454871661E+01  0.12304644906E+02  0.99210157506E+01  0.16750619927E+02  0.51100000000E-03 0. -1.
        -11    1    3    3    0    0 -0.14080058806E+01  0.58869944133E+01  0.47509769530E+00  0.60716473764E+01  0.51100000000E-03 0.  1.
        -12    1    3    3    0    0 -0.20465233092E+02  0.64364838992E+01  0.17532843116E+02  0.27706581857E+02  0.00000000000E+00 0.  1.
</event>
<event>
 7    1  0.5456331E-013  0.5052887E+02  0.7816164E-02  0.1300439E+00
        -11   -1    0    0    0    0  0.00000000000E+00  0.00000000000E+00  0.45593999997E+02  0.45594000000E+02  0.51100000000E-03 0.  1.
         11   -1    0    0    0    0 -0.00000000000E+00 -0.00000000000E+00 -0.45593999997E+02  0.45594000000E+02  0.51100000000E-03 0. -1.
    9900012    2    1    2    0    0  0.15117605334E+01  0.83985945933E+01  0.39753523897E+02  0.50528874661E+02  0.30000045020E+02 0.  0.
         12    1    1    2    0    0 -0.15117605334E+01 -0.83985945933E+01 -0.39753523897E+02  0.40659125339E+02  0.00000000000E+00 0. -1.
         11    1    3    3    0    0 -0.39154811679E+01  0.55047805989E+01  0.21677547288E+02  0.22705718639E+02  0.51100000000E-03 0.  1.
        -11    1    3    3    0    0  0.22690831229E+01  0.10226877637E+02  0.16711197446E+02  0.19723130704E+02  0.51100000000E-03 0. -1.
         12    1    3    3    0    0  0.31581585784E+01 -0.73330636427E+01  0.13647791631E+01  0.81000253184E+01  0.00000000000E+00 0. -1.
</event>
<event>
 7    1  0.5456331E-013  0.5052887E+02  0.7816164E-02  0.1300439E+00
        -11   -1    0    0    0    0  0.00000000000E+00  0.00000000000E+00  0.45593999997E+02  0.45594000000E+02  0.51100000000E-03 0.  1.
         11   -1    0    0    0    0 -0.00000000000E+00 -0.00000000000E+00 -0.45593999997E+02  0.45594000000E+02  0.51100000000E-03 0. -1.
    9900012    2    1    2    0    0  0.14822793096E+02  0.24181337615E+02  0.29132674604E+02  0.50528868017E+02  0.30000024825E+02 0.  0.
         12    1    1    2    0    0 -0.14822793096E+02 -0.24181337615E+02 -0.29132674604E+02  0.40659131983E+02  0.00000000000E+00 0. -1.
         11    1    3    3    0    0  0.10822832262E+02  0.53501515890E+01  0.17480183957E+02  0.21244167473E+02  0.51100000000E-03 0. -1.
        -11    1    3    3    0    0  0.10188199169E+02  0.12904689757E+02  0.12529265792E+02  0.20671548602E+02  0.51100000000E-03 0.  1.
         12    1    3    3    0    0 -0.61882383358E+01  0.59264962690E+01 -0.87677514472E+00  0.86131519423E+01  0.00000000000E+00 0. -1.
</event>
<event>
 7    1  0.5456331E-013  0.5052886E+02  0.7816164E-02  0.1300439E+00
        -11   -1    0    0    0    0  0.00000000000E+00  0.00000000000E+00  0.45593999997E+02  0.45594000000E+02  0.51100000000E-03 0.  1.
         11   -1    0    0    0    0 -0.00000000000E+00 -0.00000000000E+00 -0.45593999997E+02  0.45594000000E+02  0.51100000000E-03 0. -1.
    9900012    2    1    2    0    0 -0.64149299030E+01  0.18589982699E+02  0.35586892371E+02  0.50528859687E+02  0.29999999504E+02 0.  0.
         12    1    1    2    0    0  0.64149299030E+01 -0.18589982699E+02 -0.35586892371E+02  0.40659140313E+02  0.00000000000E+00 0. -1.
         11    1    3    3    0    0  0.18695420291E+01  0.16654694972E+02  0.32210871237E+02  0.36309974912E+02  0.51100000000E-03 0.  1.
        -11    1    3    3    0    0  0.31906466276E+00 -0.31160237368E+01 -0.10510603709E+01  0.33039573774E+01  0.51100000000E-03 0. -1.
        -12    1    3    3    0    0 -0.86035365948E+01  0.50513114633E+01  0.44270815042E+01  0.10914927397E+02  0.00000000000E+00 0.  1.
</event>
<event>
 7    1  0.5456331E-013  0.5052886E+02  0.7816164E-02  0.1300439E+00
        -11   -1    0    0    0    0  0.00000000000E+00  0.00000000000E+00  0.45593999997E+02  0.45594000000E+02  0.51100000000E-03 0.  1.
         11   -1    0    0    0    0 -0.00000000000E+00 -0.00000000000E+00 -0.45593999997E+02  0.45594000000E+02  0.51100000000E-03 0. -1.
    9900012    2    1    2    0    0 -0.10387774320E+02 -0.17599881133E+02  0.35149732871E+02  0.50528863362E+02  0.30000010676E+02 0.  0.
         12    1    1    2    0    0  0.10387774320E+02  0.17599881133E+02 -0.35149732871E+02  0.40659136638E+02  0.00000000000E+00 0. -1.
         11    1    3    3    0    0 -0.25566681812E+00 -0.13250992189E+01  0.79606466710E+01  0.80742274641E+01  0.51100000000E-03 0.  1.
        -11    1    3    3    0    0  0.26084979159E+01 -0.16482018576E+02  0.24150831449E+02  0.29355133413E+02  0.51100000000E-03 0. -1.
        -12    1    3    3    0    0 -0.12740605417E+02  0.20723666234E+00  0.30382547508E+01  0.13099502485E+02  0.00000000000E+00 0.  1.
</event>
<event>
 7    1  0.5456331E-013  0.5052887E+02  0.7816164E-02  0.1300439E+00
        -11   -1    0    0    0    0  0.00000000000E+00  0.00000000000E+00  0.45593999997E+02  0.45594000000E+02  0.51100000000E-03 0.  1.
         11   -1    0    0    0    0 -0.00000000000E+00 -0.00000000000E+00 -0.45593999997E+02  0.45594000000E+02  0.51100000000E-03 0. -1.
    9900012    2    1    2    0    0 -0.70536717559E+01 -0.12476625830E+02  0.38049237315E+02  0.50528868952E+02  0.30000027666E+02 0.  0.
         12    1    1    2    0    0  0.70536717559E+01  0.12476625830E+02 -0.38049237315E+02  0.40659131048E+02  0.00000000000E+00 0. -1.
         11    1    3    3    0    0 -0.28949010253E+01  0.57191649794E+01  0.66050239770E+00  0.64440331848E+01  0.51100000000E-03 0. -1.
        -11    1    3    3    0    0  0.35314173572E+01 -0.30053777533E+00  0.34036563404E+01  0.49138689695E+01  0.51100000000E-03 0.  1.
        -12    1    3    3    0    0 -0.76901880877E+01 -0.17895253034E+02  0.33985078577E+02  0.39170966798E+02  0.00000000000E+00 0.  1.
</event>
<event>
 7    1  0.5456331E-013  0.5052887E+02  0.7816164E-02  0.1300439E+00
        -11   -1    0    0    0    0  0.00000000000E+00  0.00000000000E+00  0.45593999997E+02  0.45594000000E+02  0.51100000000E-03 0. -1.
         11   -1    0    0    0    0 -0.00000000000E+00 -0.00000000000E+00 -0.45593999997E+02  0.45594000000E+02  0.51100000000E-03 0.  1.
    9900012    2    1    2    0    0  0.72893718401E+01 -0.39185951477E+02 -0.80306111298E+01  0.50528874946E+02  0.30000045887E+02 0.  0.
         12    1    1    2    0    0 -0.72893718401E+01  0.39185951477E+02  0.80306111298E+01  0.40659125054E+02  0.00000000000E+00 0. -1.
         11    1    3    3    0    0 -0.19975813257E+01 -0.13513062108E+01 -0.52067003373E+01  0.57381258519E+01  0.51100000000E-03 0. -1.
        -11    1    3    3    0    0 -0.62912120519E+01 -0.71265627380E+01  0.27797802500E+01  0.99042629226E+01  0.51100000000E-03 0.  1.
        -12    1    3    3    0    0  0.15578165218E+02 -0.30708082528E+02 -0.56036910425E+01  0.34886486172E+02  0.00000000000E+00 0.  1.
</event>
<event>
 7    1  0.5456331E-013  0.5052890E+02  0.7816164E-02  0.1300439E+00
        -11   -1    0    0    0    0  0.00000000000E+00  0.00000000000E+00  0.45593999997E+02  0.45594000000E+02  0.51100000000E-03 0.  1.
         11   -1    0    0    0    0 -0.00000000000E+00 -0.00000000000E+00 -0.45593999997E+02  0.45594000000E+02  0.51100000000E-03 0. -1.
    9900012    2    1    2    0    0  0.92357622287E+01 -0.22294844777E+02  0.32723126954E+02  0.50528899602E+02  0.30000120829E+02 0.  0.
         12    1    1    2    0    0 -0.92357622287E+01  0.22294844777E+02 -0.32723126954E+02  0.40659100398E+02  0.00000000000E+00 0. -1.
         11    1    3    3    0    0  0.16066851127E+01 -0.45534413869E+01  0.89190974821E+01  0.10142266299E+02  0.51100000000E-03 0. -1.
        -11    1    3    3    0    0  0.11339792707E+01 -0.89716198128E+00  0.22216886233E+02  0.22263891007E+02  0.51100000000E-03 0.  1.
         12    1    3    3    0    0  0.64950978453E+01 -0.16844241409E+02  0.15871432382E+01  0.18122742296E+02  0.00000000000E+00 0. -1.
</event>
<event>
 7    1  0.5456331E-013  0.5052886E+02  0.7816164E-02  0.1300439E+00
        -11   -1    0    0    0    0  0.00000000000E+00  0.00000000000E+00  0.45593999997E+02  0.45594000000E+02  0.51100000000E-03 0.  1.
         11   -1    0    0    0    0 -0.00000000000E+00 -0.00000000000E+00 -0.45593999997E+02  0.45594000000E+02  0.51100000000E-03 0. -1.
    9900012    2    1    2    0    0  0.89907021324E+01  0.99015449780E+01  0.38396513562E+02  0.50528861156E+02  0.30000003971E+02 0.  0.
         12    1    1    2    0    0 -0.89907021324E+01 -0.99015449780E+01 -0.38396513562E+02  0.40659138844E+02  0.00000000000E+00 0. -1.
         11    1    3    3    0    0  0.84374765935E+01  0.41979739862E+01  0.24056396306E+02  0.25836489706E+02  0.51100000000E-03 0. -1.
        -11    1    3    3    0    0  0.67828624351E+01  0.95972328375E+01  0.12420808556E+02  0.17099432341E+02  0.51100000000E-03 0.  1.
         12    1    3    3    0    0 -0.62296368962E+01 -0.38936618457E+01  0.19193087005E+01  0.75929391091E+01  0.00000000000E+00 0. -1.
</event>
<event>
 7    1  0.5456331E-013  0.5052874E+02  0.7816164E-02  0.1300439E+00
        -11   -1    0    0    0    0  0.00000000000E+00  0.00000000000E+00  0.45593999997E+02  0.45594000000E+02  0.51100000000E-03 0.  1.
         11   -1    0    0    0    0 -0.00000000000E+00 -0.00000000000E+00 -0.45593999997E+02  0.45594000000E+02  0.51100000000E-03 0. -1.
    9900012    2    1    2    0    0 -0.94312485318E+01  0.96079343201E+01  0.38365535178E+02  0.50528743486E+02  0.29999646298E+02 0.  0.
         12    1    1    2    0    0  0.94312485318E+01 -0.96079343201E+01 -0.38365535178E+02  0.40659256514E+02  0.00000000000E+00 0. -1.
         11    1    3    3    0    0 -0.70679126478E+01 -0.68454824906E+00  0.65112179448E+01  0.96343113344E+01  0.51100000000E-03 0. -1.
        -11    1    3    3    0    0  0.10656828644E-01 -0.63232612133E+01  0.19766800283E+01  0.66250290668E+01  0.51100000000E-03 0.  1.
         12    1    3    3    0    0 -0.23739927126E+01  0.16615743782E+02  0.29877637205E+02  0.34269403085E+02  0.00000000000E+00 0. -1.
</event>
<event>
 7    1  0.5456331E-013  0.5052896E+02  0.7816164E-02  0.1300438E+00
        -11   -1    0    0    0    0  0.00000000000E+00  0.00000000000E+00  0.45593999997E+02  0.45594000000E+02  0.51100000000E-03 0.  1.
         11   -1    0    0    0    0 -0.00000000000E+00 -0.00000000000E+00 -0.45593999997E+02  0.45594000000E+02  0.51100000000E-03 0. -1.
    9900012    2    1    2    0    0 -0.20235840932E+02 -0.28105497854E+02  0.21301399082E+02  0.50528955856E+02  0.30000291818E+02 0.  0.
         12    1    1    2    0    0  0.20235840932E+02  0.28105497854E+02 -0.21301399082E+02  0.40659044144E+02  0.00000000000E+00 0. -1.
         11    1    3    3    0    0 -0.14622113456E+01 -0.18693526169E+01 -0.15702055940E+01  0.28457138110E+01  0.51100000000E-03 0. -1.
        -11    1    3    3    0    0 -0.51353455518E+01 -0.19674719034E+02  0.91753420593E-01  0.20334078832E+02  0.51100000000E-03 0.  1.
        -12    1    3    3    0    0 -0.13638284035E+02 -0.65614262036E+01  0.22779851256E+02  0.27349163213E+02  0.00000000000E+00 0.  1.
</event>
<event>
 7    1  0.5456331E-013  0.5052886E+02  0.7816164E-02  0.1300439E+00
        -11   -1    0    0    0    0  0.00000000000E+00  0.00000000000E+00  0.45593999997E+02  0.45594000000E+02  0.51100000000E-03 0.  1.
         11   -1    0    0    0    0 -0.00000000000E+00 -0.00000000000E+00 -0.45593999997E+02  0.45594000000E+02  0.51100000000E-03 0. -1.
    9900012    2    1    2    0    0  0.34894246370E+02  0.26685187990E+01  0.20698702468E+02  0.50528859500E+02  0.29999998937E+02 0.  0.
         12    1    1    2    0    0 -0.34894246370E+02 -0.26685187990E+01 -0.20698702468E+02  0.40659140500E+02  0.00000000000E+00 0. -1.
         11    1    3    3    0    0  0.46045564433E+01 -0.51904073256E+01  0.96921784156E+01  0.11919756329E+02  0.51100000000E-03 0. -1.
        -11    1    3    3    0    0  0.90002503963E+01 -0.18345571453E+01  0.12099671000E+02  0.15191186448E+02  0.51100000000E-03 0.  1.
         12    1    3    3    0    0  0.21289439530E+02  0.96934832699E+01 -0.10931469473E+01  0.23417916724E+02  0.00000000000E+00 0. -1.
</event>
<event>
 7    1  0.5456331E-013  0.5052886E+02  0.7816164E-02  0.1300439E+00
        -11   -1    0    0    0    0  0.00000000000E+00  0.00000000000E+00  0.45593999997E+02  0.45594000000E+02  0.51100000000E-03 0.  1.
         11   -1    0    0    0    0 -0.00000000000E+00 -0.00000000000E+00 -0.45593999997E+02  0.45594000000E+02  0.51100000000E-03 0. -1.
    9900012    2    1    2    0    0  0.33269581824E+02  0.23436898014E+01  0.23255275732E+02  0.50528858273E+02  0.29999995206E+02 0.  0.
         12    1    1    2    0    0 -0.33269581824E+02 -0.23436898014E+01 -0.23255275732E+02  0.40659141727E+02  0.00000000000E+00 0. -1.
         11    1    3    3    0    0  0.48433709207E+00 -0.15409952616E+01  0.79755371032E+01  0.81374714231E+01  0.51100000000E-03 0. -1.
        -11    1    3    3    0    0  0.15345913273E+02 -0.34962203785E+01  0.17251091682E+02  0.23352104308E+02  0.51100000000E-03 0.  1.
         12    1    3    3    0    0  0.17439331458E+02  0.73809054415E+01 -0.19713530532E+01  0.19039282542E+02  0.00000000000E+00 0. -1.
</event>
<event>
 7    1  0.5456331E-013  0.5052886E+02  0.7816164E-02  0.1300439E+00
        -11   -1    0    0    0    0  0.00000000000E+00  0.00000000000E+00  0.45593999997E+02  0.45594000000E+02  0.51100000000E-03 0.  1.
         11   -1    0    0    0    0 -0.00000000000E+00 -0.00000000000E+00 -0.45593999997E+02  0.45594000000E+02  0.51100000000E-03 0. -1.
    9900012    2    1    2    0    0  0.68457964192E+01  0.77083487489E+01  0.39330421196E+02  0.50528860800E+02  0.30000002886E+02 0.  0.
         12    1    1    2    0    0 -0.68457964192E+01 -0.77083487489E+01 -0.39330421196E+02  0.40659139200E+02  0.00000000000E+00 0. -1.
         11    1    3    3    0    0 -0.24451777737E+01 -0.76550339464E+01  0.51319310677E+01  0.95349439332E+01  0.51100000000E-03 0. -1.
        -11    1    3    3    0    0  0.16045223892E+01  0.39782496084E+01  0.22635160148E+02  0.23038043260E+02  0.51100000000E-03 0.  1.
        -12    1    3    3    0    0  0.76864518037E+01  0.11385133087E+02  0.11563329980E+02  0.17955873606E+02  0.00000000000E+00 0.  1.
</event>
<event>
 7    1  0.5456331E-013  0.5052885E+02  0.7816164E-02  0.1300439E+00
        -11   -1    0    0    0    0  0.00000000000E+00  0.00000000000E+00  0.45593999997E+02  0.45594000000E+02  0.51100000000E-03 0. -1.
         11   -1    0    0    0    0 -0.00000000000E+00 -0.00000000000E+00 -0.45593999997E+02  0.45594000000E+02  0.51100000000E-03 0.  1.
    9900012    2    1    2    0    0 -0.12508083842E+02 -0.24071061222E+02 -0.30286937819E+02  0.50528846637E+02  0.29999959837E+02 0.  0.
         12    1    1    2    0    0  0.12508083842E+02  0.24071061222E+02  0.30286937819E+02  0.40659153363E+02  0.00000000000E+00 0. -1.
         11    1    3    3    0    0 -0.95757013075E+00 -0.22462797560E+02 -0.13739236466E+02  0.26348829835E+02  0.51100000000E-03 0. -1.
        -11    1    3    3    0    0 -0.81471370462E+01 -0.98879652915E+00 -0.10181437300E+01  0.82698354000E+01  0.51100000000E-03 0.  1.
        -12    1    3    3    0    0 -0.34033766647E+01 -0.61946713278E+00 -0.15529557623E+02  0.15910181401E+02  0.00000000000E+00 0.  1.
</event>
<event>
 7    1  0.5456331E-013  0.5052885E+02  0.7816164E-02  0.1300439E+00
        -11   -1    0    0    0    0  0.00000000000E+00  0.00000000000E+00  0.45593999997E+02  0.45594000000E+02  0.51100000000E-03 0.  1.
         11   -1    0    0    0    0 -0.00000000000E+00 -0.00000000000E+00 -0.45593999997E+02  0.45594000000E+02  0.51100000000E-03 0. -1.
    9900012    2    1    2    0    0 -0.21637268045E+02 -0.25478990008E+02  0.23147706887E+02  0.50528848085E+02  0.29999964240E+02 0.  0.
         12    1    1    2    0    0  0.21637268045E+02  0.25478990008E+02 -0.23147706887E+02  0.40659151915E+02  0.00000000000E+00 0. -1.
         11    1    3    3    0    0  0.61292308857E+01 -0.43348419622E+01 -0.13510086479E+01  0.76278142816E+01  0.51100000000E-03 0. -1.
        -11    1    3    3    0    0 -0.36110032066E+01 -0.42952968012E+01  0.25126355137E+01  0.61483539468E+01  0.51100000000E-03 0.  1.
         12    1    3    3    0    0 -0.24155495725E+02 -0.16848851245E+02  0.21986080021E+02  0.36752679857E+02  0.00000000000E+00 0. -1.
</event>
<event>
 7    1  0.5456331E-013  0.5052887E+02  0.7816164E-02  0.1300439E+00
        -11   -1    0    0    0    0  0.00000000000E+00  0.00000000000E+00  0.45593999997E+02  0.45594000000E+02  0.51100000000E-03 0. -1.
         11   -1    0    0    0    0 -0.00000000000E+00 -0.00000000000E+00 -0.45593999997E+02  0.45594000000E+02  0.51100000000E-03 0.  1.
    9900012    2    1    2    0    0  0.15168476387E+02  0.10146561507E+01 -0.37710117393E+02  0.50528866257E+02  0.30000019474E+02 0.  0.
         12    1    1    2    0    0 -0.15168476387E+02 -0.10146561507E+01  0.37710117393E+02  0.40659133743E+02  0.00000000000E+00 0. -1.
         11    1    3    3    0    0 -0.55604987343E+00  0.13671404329E+01 -0.23812704476E+02  0.23858398084E+02  0.51100000000E-03 0. -1.
        -11    1    3    3    0    0  0.11985186145E+02 -0.69087202324E+01 -0.13148862355E+02  0.19085797957E+02  0.51100000000E-03 0.  1.
        -12    1    3    3    0    0  0.37393401154E+01  0.65562359502E+01 -0.74855056208E+00  0.75846702155E+01  0.00000000000E+00 0.  1.
</event>
<event>
 7    1  0.5456331E-013  0.5052886E+02  0.7816164E-02  0.1300439E+00
        -11   -1    0    0    0    0  0.00000000000E+00  0.00000000000E+00  0.45593999997E+02  0.45594000000E+02  0.51100000000E-03 0. -1.
         11   -1    0    0    0    0 -0.00000000000E+00 -0.00000000000E+00 -0.45593999997E+02  0.45594000000E+02  0.51100000000E-03 0.  1.
    9900012    2    1    2    0    0 -0.97852157344E+00  0.40626392697E+02  0.13054797690E+01  0.50528861231E+02  0.30000004197E+02 0.  0.
         12    1    1    2    0    0  0.97852157344E+00 -0.40626392697E+02 -0.13054797690E+01  0.40659138769E+02  0.00000000000E+00 0. -1.
         11    1    3    3    0    0  0.41472834854E+01  0.58094828838E+01  0.34563528195E+01  0.79307267485E+01  0.51100000000E-03 0. -1.
        -11    1    3    3    0    0 -0.28165730930E+01  0.24825744867E+02 -0.12578892696E+02  0.27972830281E+02  0.51100000000E-03 0.  1.
         12    1    3    3    0    0 -0.23092319659E+01  0.99911649455E+01  0.10428019646E+02  0.14625304201E+02  0.00000000000E+00 0. -1.
</event>
<event>
 7    1  0.5456331E-013  0.5052886E+02  0.7816164E-02  0.1300439E+00
        -11   -1    0    0    0    0  0.00000000000E+00  0.00000000000E+00  0.45593999997E+02  0.45594000000E+02  0.51100000000E-03 0. -1.
         11   -1    0    0    0    0 -0.00000000000E+00 -0.00000000000E+00 -0.45593999997E+02  0.45594000000E+02  0.51100000000E-03 0.  1.
    9900012    2    1    2    0    0 -0.63636142504E+01  0.18750815690E+02 -0.35511649155E+02  0.50528857104E+02  0.29999991652E+02 0.  0.
         12    1    1    2    0    0  0.63636142504E+01 -0.18750815690E+02  0.35511649155E+02  0.40659142896E+02  0.00000000000E+00 0. -1.
         11    1    3    3    0    0 -0.10026307085E+02  0.67455021260E+01 -0.33696318074E+01  0.12545240192E+02  0.51100000000E-03 0. -1.
        -11    1    3    3    0    0  0.40930605744E+01  0.13517027263E+02 -0.14392011156E+02  0.20164155233E+02  0.51100000000E-03 0.  1.
         12    1    3    3    0    0 -0.43036773949E+00 -0.15117136988E+01 -0.17750006192E+02  0.17819461678E+02  0.00000000000E+00 0. -1.
</event>
<event>
 7    1  0.5456331E-013  0.5052886E+02  0.7816164E-02  0.1300439E+00
        -11   -1    0    0    0    0  0.00000000000E+00  0.00000000000E+00  0.45593999997E+02  0.45594000000E+02  0.51100000000E-03 0.  1.
         11   -1    0    0    0    0 -0.00000000000E+00 -0.00000000000E+00 -0.45593999997E+02  0.45594000000E+02  0.51100000000E-03 0. -1.
    9900012    2    1    2    0    0 -0.45269392706E+01 -0.15121196008E+02  0.37470280060E+02  0.50528860368E+02  0.30000001573E+02 0.  0.
         12    1    1    2    0    0  0.45269392706E+01  0.15121196008E+02 -0.37470280060E+02  0.40659139632E+02  0.00000000000E+00 0. -1.
         11    1    3    3    0    0  0.12038134398E+01  0.86560596299E+00  0.12556857831E+02  0.12644094248E+02  0.51100000000E-03 0. -1.
        -11    1    3    3    0    0 -0.58349082078E+01  0.45251399617E+00  0.19832309944E+02  0.20677800673E+02  0.51100000000E-03 0.  1.
         12    1    3    3    0    0  0.10415549739E+00 -0.16439315968E+02  0.50811122848E+01  0.17206965447E+02  0.00000000000E+00 0. -1.
</event>
<event>
 7    1  0.5456331E-013  0.5052886E+02  0.7816164E-02  0.1300439E+00
        -11   -1    0    0    0    0  0.00000000000E+00  0.00000000000E+00  0.45593999997E+02  0.45594000000E+02  0.51100000000E-03 0.  1.
         11   -1    0    0    0    0 -0.00000000000E+00 -0.00000000000E+00 -0.45593999997E+02  0.45594000000E+02  0.51100000000E-03 0. -1.
    9900012    2    1    2    0    0 -0.61116365913E+01  0.23305089151E+02  0.32751893082E+02  0.50528858560E+02  0.29999996080E+02 0.  0.
         12    1    1    2    0    0  0.61116365913E+01 -0.23305089151E+02 -0.32751893082E+02  0.40659141440E+02  0.00000000000E+00 0. -1.
         11    1    3    3    0    0 -0.22219592963E+01  0.14173867729E+02  0.10752285638E+02  0.17928950784E+02  0.51100000000E-03 0.  1.
        -11    1    3    3    0    0  0.37881494940E+01  0.37568304597E+01 -0.28450787273E+01  0.60463480645E+01  0.51100000000E-03 0. -1.
         12    1    3    3    0    0 -0.76778267890E+01  0.53743909622E+01  0.24844686171E+02  0.26553559712E+02  0.00000000000E+00 0. -1.
</event>
<event>
 7    1  0.5456331E-013  0.5052886E+02  0.7816164E-02  0.1300439E+00
        -11   -1    0    0    0    0  0.00000000000E+00  0.00000000000E+00  0.45593999997E+02  0.45594000000E+02  0.51100000000E-03 0. -1.
         11   -1    0    0    0    0 -0.00000000000E+00 -0.00000000000E+00 -0.45593999997E+02  0.45594000000E+02  0.51100000000E-03 0.  1.
    9900012    2    1    2    0    0 -0.27486661717E+02 -0.15035413099E+02 -0.25914970249E+02  0.50528857088E+02  0.29999991604E+02 0.  0.
         12    1    1    2    0    0  0.27486661717E+02  0.15035413099E+02  0.25914970249E+02  0.40659142912E+02  0.00000000000E+00 0. -1.
         11    1    3    3    0    0  0.15882588386E+01 -0.19795713125E+00  0.23441158983E+01  0.28384208233E+01  0.51100000000E-03 0. -1.
        -11    1    3    3    0    0  0.19498551935E+01 -0.54865138082E+01 -0.61121814681E+01  0.84417137835E+01  0.51100000000E-03 0.  1.
        -12    1    3    3    0    0 -0.31024775749E+02 -0.93509421595E+01 -0.22146904679E+02  0.39248722481E+02  0.00000000000E+00 0.  1.
</event>
<event>
 7    1  0.5456331E-013  0.5052887E+02  0.7816164E-02  0.1300439E+00
        -11   -1    0    0    0    0  0.00000000000E+00  0.00000000000E+00  0.45593999997E+02  0.45594000000E+02  0.51100000000E-03 0.  1.
         11   -1    0    0    0    0 -0.00000000000E+00 -0.00000000000E+00 -0.45593999997E+02  0.45594000000E+02  0.51100000000E-03 0. -1.
    9900012    2    1    2    0    0  0.78209659018E+01  0.10396568418E+02  0.38521539037E+02  0.50528866804E+02  0.30000021137E+02 0.  0.
         12    1    1    2    0    0 -0.78209659018E+01 -0.10396568418E+02 -0.38521539037E+02  0.40659133196E+02  0.00000000000E+00 0. -1.
         11    1    3    3    0    0 -0.56024588255E+01  0.35748205778E+00  0.21069153380E+02  0.21804232679E+02  0.51100000000E-03 0. -1.
        -11    1    3    3    0    0 -0.79815062744E+00 -0.32525079119E+01  0.25502443639E+01  0.42094653720E+01  0.51100000000E-03 0.  1.
        -12    1    3    3    0    0  0.14221575355E+02  0.13291594272E+02  0.14902141292E+02  0.24515168753E+02  0.00000000000E+00 0.  1.
</event>
<event>
 7    1  0.5456331E-013  0.5052882E+02  0.7816164E-02  0.1300439E+00
        -11   -1    0    0    0    0  0.00000000000E+00  0.00000000000E+00  0.45593999997E+02  0.45594000000E+02  0.51100000000E-03 0. -1.
         11   -1    0    0    0    0 -0.00000000000E+00 -0.00000000000E+00 -0.45593999997E+02  0.45594000000E+02  0.51100000000E-03 0.  1.
    9900012    2    1    2    0    0  0.27316597763E+02 -0.33213924035E+01 -0.29932263920E+02  0.50528824108E+02  0.29999891358E+02 0.  0.
         12    1    1    2    0    0 -0.27316597763E+02  0.33213924035E+01  0.29932263920E+02  0.40659175892E+02  0.00000000000E+00 0. -1.
         11    1    3    3    0    0 -0.14462188776E+01 -0.30518130611E+01  0.26854949869E+01  0.43147416594E+01  0.51100000000E-03 0. -1.
        -11    1    3    3    0    0  0.14863445820E+02 -0.76173141078E+01 -0.19988640339E+02  0.26047864380E+02  0.51100000000E-03 0.  1.
         12    1    3    3    0    0  0.13899370821E+02  0.73477347654E+01 -0.12629118568E+02  0.20166218069E+02  0.00000000000E+00 0. -1.
</event>
<event>
 7    1  0.5456331E-013  0.5052885E+02  0.7816164E-02  0.1300439E+00
        -11   -1    0    0    0    0  0.00000000000E+00  0.00000000000E+00  0.45593999997E+02  0.45594000000E+02  0.51100000000E-03 0. -1.
         11   -1    0    0    0    0 -0.00000000000E+00 -0.00000000000E+00 -0.45593999997E+02  0.45594000000E+02  0.51100000000E-03 0.  1.
    9900012    2    1    2    0    0 -0.34862644873E+02 -0.16440414380E+01 -0.20858073578E+02  0.50528854495E+02  0.29999983724E+02 0.  0.
         12    1    1    2    0    0  0.34862644873E+02  0.16440414380E+01  0.20858073578E+02  0.40659145505E+02  0.00000000000E+00 0. -1.
         11    1    3    3    0    0 -0.13367000769E+02  0.70289860106E+01 -0.98622477176E+01  0.18037385737E+02  0.51100000000E-03 0. -1.
        -11    1    3    3    0    0 -0.23042593039E+02 -0.78593139700E+01 -0.14668909941E+02  0.28423701890E+02  0.51100000000E-03 0.  1.
         12    1    3    3    0    0  0.15469489351E+01 -0.81371347864E+00  0.36730840805E+01  0.40677668684E+01  0.00000000000E+00 0. -1.
</event>
<event>
 7    1  0.5456331E-013  0.5052884E+02  0.7816164E-02  0.1300439E+00
        -11   -1    0    0    0    0  0.00000000000E+00  0.00000000000E+00  0.45593999997E+02  0.45594000000E+02  0.51100000000E-03 0. -1.
         11   -1    0    0    0    0 -0.00000000000E+00 -0.00000000000E+00 -0.45593999997E+02  0.45594000000E+02  0.51100000000E-03 0.  1.
    9900012    2    1    2    0    0  0.34757683079E+02 -0.11069441758E+02 -0.17959344782E+02  0.50528841883E+02  0.29999945386E+02 0.  0.
         12    1    1    2    0    0 -0.34757683079E+02  0.11069441758E+02  0.17959344782E+02  0.40659158117E+02  0.00000000000E+00 0. -1.
         11    1    3    3    0    0 -0.21168442044E+01  0.22045494381E+01 -0.31621427216E+01  0.43977510688E+01  0.51100000000E-03 0. -1.
        -11    1    3    3    0    0  0.85927985322E+01 -0.71284506397E+01  0.37251203454E+01  0.11769771323E+02  0.51100000000E-03 0.  1.
        -12    1    3    3    0    0  0.28281728751E+02 -0.61455405559E+01 -0.18522322406E+02  0.34361319491E+02  0.00000000000E+00 0.  1.
</event>
<event>
 7    1  0.5456331E-013  0.5052886E+02  0.7816164E-02  0.1300439E+00
        -11   -1    0    0    0    0  0.00000000000E+00  0.00000000000E+00  0.45593999997E+02  0.45594000000E+02  0.51100000000E-03 0.  1.
         11   -1    0    0    0    0 -0.00000000000E+00 -0.00000000000E+00 -0.45593999997E+02  0.45594000000E+02  0.51100000000E-03 0. -1.
    9900012    2    1    2    0    0  0.35057853745E+02 -0.14081952977E+02  0.15027013222E+02  0.50528860373E+02  0.30000001588E+02 0.  0.
         12    1    1    2    0    0 -0.35057853745E+02  0.14081952977E+02 -0.15027013222E+02  0.40659139627E+02  0.00000000000E+00 0. -1.
         11    1    3    3    0    0 -0.23718499536E+01 -0.11374732072E+01  0.30453922652E+01  0.40241684619E+01  0.51100000000E-03 0. -1.
        -11    1    3    3    0    0  0.17931963087E+01 -0.37303671913E+01 -0.45529393844E+01  0.61530845666E+01  0.51100000000E-03 0.  1.
        -12    1    3    3    0    0  0.35636507390E+02 -0.92141125788E+01  0.16534560341E+02  0.40351607344E+02  0.00000000000E+00 0.  1.
</event>
<event>
 7    1  0.5456331E-013  0.5052890E+02  0.7816164E-02  0.1300439E+00
        -11   -1    0    0    0    0  0.00000000000E+00  0.00000000000E+00  0.45593999997E+02  0.45594000000E+02  0.51100000000E-03 0.  1.
         11   -1    0    0    0    0 -0.00000000000E+00 -0.00000000000E+00 -0.45593999997E+02  0.45594000000E+02  0.51100000000E-03 0. -1.
    9900012    2    1    2    0    0 -0.37889238996E+02 -0.13587719567E+02  0.57395212741E+01  0.50528896971E+02  0.30000112832E+02 0.  0.
         12    1    1    2    0    0  0.37889238996E+02  0.13587719567E+02 -0.57395212741E+01  0.40659103029E+02  0.00000000000E+00 0. -1.
         11    1    3    3    0    0  0.11966218738E+00 -0.23384661171E+01 -0.30955296078E+01  0.38813717464E+01  0.51100000000E-03 0. -1.
        -11    1    3    3    0    0 -0.31131609079E+02 -0.67104785640E+01 -0.32592660886E+01  0.32012972716E+02  0.51100000000E-03 0.  1.
         12    1    3    3    0    0 -0.68772921042E+01 -0.45387748858E+01  0.12094316971E+02  0.14634552509E+02  0.00000000000E+00 0. -1.
</event>
<event>
 7    1  0.5456331E-013  0.5052886E+02  0.7816164E-02  0.1300439E+00
        -11   -1    0    0    0    0  0.00000000000E+00  0.00000000000E+00  0.45593999997E+02  0.45594000000E+02  0.51100000000E-03 0.  1.
         11   -1    0    0    0    0 -0.00000000000E+00 -0.00000000000E+00 -0.45593999997E+02  0.45594000000E+02  0.51100000000E-03 0. -1.
    9900012    2    1    2    0    0  0.12352079076E+02  0.29839910288E+02  0.24701644554E+02  0.50528863915E+02  0.30000012356E+02 0.  0.
         12    1    1    2    0    0 -0.12352079076E+02 -0.29839910288E+02 -0.24701644554E+02  0.40659136085E+02  0.00000000000E+00 0. -1.
         11    1    3    3    0    0 -0.16419599749E+01 -0.40822465942E+00 -0.70549260713E+00  0.18331393869E+01  0.51100000000E-03 0. -1.
        -11    1    3    3    0    0 -0.40460897311E+01  0.13755195309E+02  0.13525120206E+01  0.14401580785E+02  0.51100000000E-03 0.  1.
        -12    1    3    3    0    0  0.18040128782E+02  0.16492939639E+02  0.24054625141E+02  0.34294143743E+02  0.00000000000E+00 0.  1.
</event>
<event>
 7    1  0.5456331E-013  0.5052885E+02  0.7816164E-02  0.1300439E+00
        -11   -1    0    0    0    0  0.00000000000E+00  0.00000000000E+00  0.45593999997E+02  0.45594000000E+02  0.51100000000E-03 0.  1.
         11   -1    0    0    0    0 -0.00000000000E+00 -0.00000000000E+00 -0.45593999997E+02  0.45594000000E+02  0.51100000000E-03 0. -1.
    9900012    2    1    2    0    0  0.31052948856E+02  0.62444905961E+00  0.26239105439E+02  0.50528853139E+02  0.29999979601E+02 0.  0.
         12    1    1    2    0    0 -0.31052948856E+02 -0.62444905961E+00 -0.26239105439E+02  0.40659146861E+02  0.00000000000E+00 0. -1.
         11    1    3    3    0    0  0.99012277676E+01  0.11095307045E+02  0.12496160087E+02  0.19424061545E+02  0.51100000000E-03 0. -1.
        -11    1    3    3    0    0  0.12447792661E+02  0.14206515744E+01  0.96389334373E+01  0.15807429617E+02  0.51100000000E-03 0.  1.
         12    1    3    3    0    0  0.87039284271E+01 -0.11891509559E+02  0.41040119146E+01  0.15297361977E+02  0.00000000000E+00 0. -1.
</event>
<event>
 7    1  0.5456331E-013  0.5052886E+02  0.7816164E-02  0.1300439E+00
        -11   -1    0    0    0    0  0.00000000000E+00  0.00000000000E+00  0.45593999997E+02  0.45594000000E+02  0.51100000000E-03 0.  1.
         11   -1    0    0    0    0 -0.00000000000E+00 -0.00000000000E+00 -0.45593999997E+02  0.45594000000E+02  0.51100000000E-03 0. -1.
    9900012    2    1    2    0    0  0.21237962151E+02  0.25794415163E+02  0.23168137058E+02  0.50528862470E+02  0.30000007964E+02 0.  0.
         12    1    1    2    0    0 -0.21237962151E+02 -0.25794415163E+02 -0.23168137058E+02  0.40659137530E+02  0.00000000000E+00 0. -1.
         11    1    3    3    0    0  0.11558210815E+02  0.31479120164E+01  0.23015285288E+01  0.12198304027E+02  0.51100000000E-03 0. -1.
        -11    1    3    3    0    0  0.12059285866E+02  0.14098080447E+02  0.35726751084E+01  0.18893021346E+02  0.51100000000E-03 0.  1.
        -12    1    3    3    0    0 -0.23795345302E+01  0.85484227004E+01  0.17293933421E+02  0.19437537097E+02  0.00000000000E+00 0.  1.
</event>
<event>
 7    1  0.5456331E-013  0.5052886E+02  0.7816164E-02  0.1300439E+00
        -11   -1    0    0    0    0  0.00000000000E+00  0.00000000000E+00  0.45593999997E+02  0.45594000000E+02  0.51100000000E-03 0.  1.
         11   -1    0    0    0    0 -0.00000000000E+00 -0.00000000000E+00 -0.45593999997E+02  0.45594000000E+02  0.51100000000E-03 0. -1.
    9900012    2    1    2    0    0 -0.11812925382E+02 -0.81340545989E+01  0.38045463686E+02  0.50528863790E+02  0.30000011975E+02 0.  0.
         12    1    1    2    0    0  0.11812925382E+02  0.81340545989E+01 -0.38045463686E+02  0.40659136210E+02  0.00000000000E+00 0. -1.
         11    1    3    3    0    0  0.47412583495E+00 -0.82148086921E+00  0.95080668373E+01  0.95552583099E+01  0.51100000000E-03 0. -1.
        -11    1    3    3    0    0 -0.14072585573E+02 -0.60877373597E+01  0.32792046750E+02  0.36199675982E+02  0.51100000000E-03 0.  1.
         12    1    3    3    0    0  0.17855343564E+01 -0.12248363700E+01 -0.42546499011E+01  0.47739294980E+01  0.00000000000E+00 0. -1.
</event>
<event>
 7    1  0.5456331E-013  0.5052887E+02  0.7816164E-02  0.1300439E+00
        -11   -1    0    0    0    0  0.00000000000E+00  0.00000000000E+00  0.45593999997E+02  0.45594000000E+02  0.51100000000E-03 0.  1.
         11   -1    0    0    0    0 -0.00000000000E+00 -0.00000000000E+00 -0.45593999997E+02  0.45594000000E+02  0.51100000000E-03 0. -1.
    9900012    2    1    2    0    0  0.35590849815E+02  0.39435174082E+01  0.19258901177E+02  0.50528865791E+02  0.30000018058E+02 0.  0.
         12    1    1    2    0    0 -0.35590849815E+02 -0.39435174082E+01 -0.19258901177E+02  0.40659134209E+02  0.00000000000E+00 0. -1.
         11    1    3    3    0    0 -0.43407762791E+01 -0.78445506678E-01  0.19345698518E+01  0.47530046471E+01  0.51100000000E-03 0. -1.
        -11    1    3    3    0    0  0.93137294392E+01  0.46647276621E+01 -0.33970250224E+00  0.10422122542E+02  0.51100000000E-03 0.  1.
        -12    1    3    3    0    0  0.30617896654E+02 -0.64276474724E+00  0.17664033828E+02  0.35353738602E+02  0.00000000000E+00 0.  1.
</event>
<event>
 7    1  0.5456331E-013  0.5052886E+02  0.7816164E-02  0.1300439E+00
        -11   -1    0    0    0    0  0.00000000000E+00  0.00000000000E+00  0.45593999997E+02  0.45594000000E+02  0.51100000000E-03 0. -1.
         11   -1    0    0    0    0 -0.00000000000E+00 -0.00000000000E+00 -0.45593999997E+02  0.45594000000E+02  0.51100000000E-03 0.  1.
    9900012    2    1    2    0    0 -0.39807780668E+02  0.13961930780E+01 -0.81582574624E+01  0.50528856850E+02  0.29999990882E+02 0.  0.
         12    1    1    2    0    0  0.39807780668E+02 -0.13961930780E+01  0.81582574624E+01  0.40659143150E+02  0.00000000000E+00 0. -1.
         11    1    3    3    0    0  0.71878186723E+00  0.46691474091E+01 -0.15536068908E+01  0.49730553518E+01  0.51100000000E-03 0. -1.
        -11    1    3    3    0    0 -0.12551085552E+02  0.80318927344E+01 -0.21250697082E+01  0.15051809558E+02  0.51100000000E-03 0.  1.
         12    1    3    3    0    0 -0.27975476983E+02 -0.11304847065E+02 -0.44795808634E+01  0.30503991941E+02  0.00000000000E+00 0. -1.
</event>
<event>
 7    1  0.5456331E-013  0.5052886E+02  0.7816164E-02  0.1300439E+00
        -11   -1    0    0    0    0  0.00000000000E+00  0.00000000000E+00  0.45593999997E+02  0.45594000000E+02  0.51100000000E-03 0.  1.
         11   -1    0    0    0    0 -0.00000000000E+00 -0.00000000000E+00 -0.45593999997E+02  0.45594000000E+02  0.51100000000E-03 0. -1.
    9900012    2    1    2    0    0 -0.97952700446E+00 -0.20891216229E+02  0.34867797828E+02  0.50528859403E+02  0.29999998642E+02 0.  0.
         12    1    1    2    0    0  0.97952700446E+00  0.20891216229E+02 -0.34867797828E+02  0.40659140597E+02  0.00000000000E+00 0. -1.
         11    1    3    3    0    0  0.66003107940E+00 -0.31338503262E+01  0.12098319181E+02  0.12515030410E+02  0.51100000000E-03 0.  1.
        -11    1    3    3    0    0 -0.84613085798E+00 -0.22570958638E+02  0.24026127057E+02  0.32976035130E+02  0.51100000000E-03 0. -1.
         12    1    3    3    0    0 -0.79342722588E+00  0.48135927352E+01 -0.12566484100E+01  0.50377938634E+01  0.00000000000E+00 0. -1.
</event>
<event>
 7    1  0.5456331E-013  0.5052886E+02  0.7816164E-02  0.1300439E+00
        -11   -1    0    0    0    0  0.00000000000E+00  0.00000000000E+00  0.45593999997E+02  0.45594000000E+02  0.51100000000E-03 0.  1.
         11   -1    0    0    0    0 -0.00000000000E+00 -0.00000000000E+00 -0.45593999997E+02  0.45594000000E+02  0.51100000000E-03 0. -1.
    9900012    2    1    2    0    0  0.19838278327E+02  0.10606541178E+02  0.33869006292E+02  0.50528860929E+02  0.30000003280E+02 0.  0.
         12    1    1    2    0    0 -0.19838278327E+02 -0.10606541178E+02 -0.33869006292E+02  0.40659139071E+02  0.00000000000E+00 0. -1.
         11    1    3    3    0    0  0.94428762302E+01 -0.45443154081E+01  0.18426935418E+02  0.21198364635E+02  0.51100000000E-03 0. -1.
        -11    1    3    3    0    0  0.11728547653E+02  0.24532409942E+01  0.92693779908E+01  0.15149210872E+02  0.51100000000E-03 0.  1.
        -12    1    3    3    0    0 -0.13331455562E+01  0.12697615592E+02  0.61726928835E+01  0.14181285423E+02  0.00000000000E+00 0.  1.
</event>
<event>
 7    1  0.5456331E-013  0.5052886E+02  0.7816164E-02  0.1300439E+00
        -11   -1    0    0    0    0  0.00000000000E+00  0.00000000000E+00  0.45593999997E+02  0.45594000000E+02  0.51100000000E-03 0. -1.
         11   -1    0    0    0    0 -0.00000000000E+00 -0.00000000000E+00 -0.45593999997E+02  0.45594000000E+02  0.51100000000E-03 0.  1.
    9900012    2    1    2    0    0  0.35987657678E+02 -0.18686069655E+02 -0.29807572245E+01  0.50528860586E+02  0.30000002237E+02 0.  0.
         12    1    1    2    0    0 -0.35987657678E+02  0.18686069655E+02  0.29807572245E+01  0.40659139414E+02  0.00000000000E+00 0. -1.
         11    1    3    3    0    0  0.31200898111E+01  0.38681476992E-01  0.14837483055E+01  0.34551361741E+01  0.51100000000E-03 0.  1.
        -11    1    3    3    0    0  0.15509387488E+02 -0.75055171153E+01  0.11706820722E+02  0.20830831455E+02  0.51100000000E-03 0. -1.
        -12    1    3    3    0    0  0.17358180378E+02 -0.11219234017E+02 -0.16171326252E+02  0.26242892956E+02  0.00000000000E+00 0.  1.
</event>
<event>
 7    1  0.5456331E-013  0.5052887E+02  0.7816164E-02  0.1300439E+00
        -11   -1    0    0    0    0  0.00000000000E+00  0.00000000000E+00  0.45593999997E+02  0.45594000000E+02  0.51100000000E-03 0.  1.
         11   -1    0    0    0    0 -0.00000000000E+00 -0.00000000000E+00 -0.45593999997E+02  0.45594000000E+02  0.51100000000E-03 0. -1.
    9900012    2    1    2    0    0  0.39022924372E+02  0.92811448657E+01  0.66510453083E+01  0.50528872117E+02  0.30000037286E+02 0.  0.
         12    1    1    2    0    0 -0.39022924372E+02 -0.92811448657E+01 -0.66510453083E+01  0.40659127883E+02  0.00000000000E+00 0. -1.
         11    1    3    3    0    0 -0.22926740727E+01  0.22549157834E+01  0.17825910410E+01  0.36767690537E+01  0.51100000000E-03 0. -1.
        -11    1    3    3    0    0  0.21293344027E+01  0.69767940479E+01  0.19855591981E+01  0.75599051433E+01  0.51100000000E-03 0.  1.
        -12    1    3    3    0    0  0.39186264042E+02  0.49435034355E-01  0.28828950692E+01  0.39292197920E+02  0.00000000000E+00 0.  1.
</event>
<event>
 7    1  0.5456331E-013  0.5052886E+02  0.7816164E-02  0.1300439E+00
        -11   -1    0    0    0    0  0.00000000000E+00  0.00000000000E+00  0.45593999997E+02  0.45594000000E+02  0.51100000000E-03 0.  1.
         11   -1    0    0    0    0 -0.00000000000E+00 -0.00000000000E+00 -0.45593999997E+02  0.45594000000E+02  0.51100000000E-03 0. -1.
    9900012    2    1    2    0    0 -0.33045870117E+01  0.40324439415E+02  0.40230751464E+01  0.50528857816E+02  0.29999993819E+02 0.  0.
         12    1    1    2    0    0  0.33045870117E+01 -0.40324439415E+02 -0.40230751464E+01  0.40659142184E+02  0.00000000000E+00 0. -1.
         11    1    3    3    0    0 -0.11827301519E+01  0.21017373051E+02  0.11006488150E+02  0.23754401744E+02  0.51100000000E-03 0.  1.
        -11    1    3    3    0    0  0.43741814675E+01  0.30919372886E+01 -0.75971821950E+01  0.92957365104E+01  0.51100000000E-03 0. -1.
         12    1    3    3    0    0 -0.64960383272E+01  0.16215129076E+02  0.61376919090E+00  0.17478719562E+02  0.00000000000E+00 0. -1.
</event>
<event>
 7    1  0.5456331E-013  0.5052885E+02  0.7816164E-02  0.1300439E+00
        -11   -1    0    0    0    0  0.00000000000E+00  0.00000000000E+00  0.45593999997E+02  0.45594000000E+02  0.51100000000E-03 0.  1.
         11   -1    0    0    0    0 -0.00000000000E+00 -0.00000000000E+00 -0.45593999997E+02  0.45594000000E+02  0.51100000000E-03 0. -1.
    9900012    2    1    2    0    0  0.17319114904E+01 -0.14394306112E+01  0.40596731386E+02  0.50528854939E+02  0.29999985072E+02 0.  0.
         12    1    1    2    0    0 -0.17319114904E+01  0.14394306112E+01 -0.40596731386E+02  0.40659145061E+02  0.00000000000E+00 0. -1.
         11    1    3    3    0    0 -0.27857537389E+01 -0.11151776711E+01  0.12245187213E+02  0.12607484097E+02  0.51100000000E-03 0. -1.
        -11    1    3    3    0    0 -0.87074126769E+00 -0.11388953371E+02  0.20053044141E+02  0.23077933807E+02  0.51100000000E-03 0.  1.
         12    1    3    3    0    0  0.53884064969E+01  0.11064700431E+02  0.82985000324E+01  0.14843437034E+02  0.00000000000E+00 0. -1.
</event>
<event>
 7    1  0.5456331E-013  0.5052886E+02  0.7816164E-02  0.1300439E+00
        -11   -1    0    0    0    0  0.00000000000E+00  0.00000000000E+00  0.45593999997E+02  0.45594000000E+02  0.51100000000E-03 0.  1.
         11   -1    0    0    0    0 -0.00000000000E+00 -0.00000000000E+00 -0.45593999997E+02  0.45594000000E+02  0.51100000000E-03 0. -1.
    9900012    2    1    2    0    0  0.86438283771E+01  0.11205425059E+02  0.38116772185E+02  0.50528860295E+02  0.30000001354E+02 0.  0.
         12    1    1    2    0    0 -0.86438283771E+01 -0.11205425059E+02 -0.38116772185E+02  0.40659139705E+02  0.00000000000E+00 0. -1.
         11    1    3    3    0    0  0.12002777925E+02 -0.16312408887E+01  0.12157012759E+02  0.17161602029E+02  0.51100000000E-03 0. -1.
        -11    1    3    3    0    0  0.59106225656E+01  0.12525193993E+01  0.89206417366E+01  0.10774140950E+02  0.51100000000E-03 0.  1.
        -12    1    3    3    0    0 -0.92695721131E+01  0.11584146548E+02  0.17039117689E+02  0.22593117316E+02  0.00000000000E+00 0.  1.
</event>
<event>
 7    1  0.5456331E-013  0.5052886E+02  0.7816164E-02  0.1300439E+00
        -11   -1    0    0    0    0  0.00000000000E+00  0.00000000000E+00  0.45593999997E+02  0.45594000000E+02  0.51100000000E-03 0.  1.
         11   -1    0    0    0    0 -0.00000000000E+00 -0.00000000000E+00 -0.45593999997E+02  0.45594000000E+02  0.51100000000E-03 0. -1.
    9900012    2    1    2    0    0 -0.17867838697E+02 -0.35995868135E+01  0.36344864716E+02  0.50528857410E+02  0.29999992583E+02 0.  0.
         12    1    1    2    0    0  0.17867838697E+02  0.35995868135E+01 -0.36344864716E+02  0.40659142590E+02  0.00000000000E+00 0. -1.
         11    1    3    3    0    0 -0.13996503129E+01 -0.39147130323E+01  0.58294336132E+01  0.71600485777E+01  0.51100000000E-03 0. -1.
        -11    1    3    3    0    0 -0.22755565442E+02 -0.24332005810E+01  0.27753231803E+02  0.35971907086E+02  0.51100000000E-03 0.  1.
         12    1    3    3    0    0  0.62873770579E+01  0.27483267999E+01  0.27621993001E+01  0.73969017460E+01  0.00000000000E+00 0. -1.
</event>
<event>
 7    1  0.5456331E-013  0.5052886E+02  0.7816164E-02  0.1300439E+00
        -11   -1    0    0    0    0  0.00000000000E+00  0.00000000000E+00  0.45593999997E+02  0.45594000000E+02  0.51100000000E-03 0. -1.
         11   -1    0    0    0    0 -0.00000000000E+00 -0.00000000000E+00 -0.45593999997E+02  0.45594000000E+02  0.51100000000E-03 0.  1.
    9900012    2    1    2    0    0  0.27065031682E+02 -0.23093434992E+02 -0.19681026937E+02  0.50528862024E+02  0.30000006608E+02 0.  0.
         12    1    1    2    0    0 -0.27065031682E+02  0.23093434992E+02  0.19681026937E+02  0.40659137976E+02  0.00000000000E+00 0. -1.
         11    1    3    3    0    0 -0.30716840142E+01  0.65388786250E+00 -0.52528292970E+01  0.61200512992E+01  0.51100000000E-03 0. -1.
        -11    1    3    3    0    0  0.13212695114E+02 -0.50266941915E+01  0.20274112137E+01  0.14281224148E+02  0.51100000000E-03 0.  1.
        -12    1    3    3    0    0  0.16924020582E+02 -0.18720628663E+02 -0.16455608853E+02  0.30127586577E+02  0.00000000000E+00 0.  1.
</event>
<event>
 7    1  0.5456331E-013  0.5052887E+02  0.7816164E-02  0.1300439E+00
        -11   -1    0    0    0    0  0.00000000000E+00  0.00000000000E+00  0.45593999997E+02  0.45594000000E+02  0.51100000000E-03 0.  1.
         11   -1    0    0    0    0 -0.00000000000E+00 -0.00000000000E+00 -0.45593999997E+02  0.45594000000E+02  0.51100000000E-03 0. -1.
    9900012    2    1    2    0    0  0.11372546272E+02  0.15432982363E+02  0.35856003651E+02  0.50528871245E+02  0.30000034636E+02 0.  0.
         12    1    1    2    0    0 -0.11372546272E+02 -0.15432982363E+02 -0.35856003651E+02  0.40659128755E+02  0.00000000000E+00 0. -1.
         11    1    3    3    0    0 -0.45617414426E+01  0.94419452727E+01  0.62601395267E+01  0.12212664029E+02  0.51100000000E-03 0. -1.
        -11    1    3    3    0    0  0.12905439016E+01  0.78862619782E+01  0.17464685169E+02  0.19206089135E+02  0.51100000000E-03 0.  1.
         12    1    3    3    0    0  0.14643743813E+02 -0.18952248881E+01  0.12131178955E+02  0.19110118081E+02  0.00000000000E+00 0. -1.
</event>
<event>
 7    1  0.5456331E-013  0.5052886E+02  0.7816164E-02  0.1300439E+00
        -11   -1    0    0    0    0  0.00000000000E+00  0.00000000000E+00  0.45593999997E+02  0.45594000000E+02  0.51100000000E-03 0.  1.
         11   -1    0    0    0    0 -0.00000000000E+00 -0.00000000000E+00 -0.45593999997E+02  0.45594000000E+02  0.51100000000E-03 0. -1.
    9900012    2    1    2    0    0  0.50982452299E+00  0.55923543268E+01  0.40269485067E+02  0.50528858647E+02  0.29999996343E+02 0.  0.
         12    1    1    2    0    0 -0.50982452299E+00 -0.55923543268E+01 -0.40269485067E+02  0.40659141353E+02  0.00000000000E+00 0. -1.
         11    1    3    3    0    0 -0.92387280571E+00 -0.26318763649E+01  0.94380929579E+00  0.29446715283E+01  0.51100000000E-03 0. -1.
        -11    1    3    3    0    0  0.11371903369E+02  0.87916890474E+00  0.80640500099E+01  0.13968608629E+02  0.51100000000E-03 0.  1.
         12    1    3    3    0    0 -0.99382060403E+01  0.73450617870E+01  0.31261625762E+02  0.33615578490E+02  0.00000000000E+00 0. -1.
</event>
<event>
 7    1  0.5456331E-013  0.5052885E+02  0.7816164E-02  0.1300439E+00
        -11   -1    0    0    0    0  0.00000000000E+00  0.00000000000E+00  0.45593999997E+02  0.45594000000E+02  0.51100000000E-03 0. -1.
         11   -1    0    0    0    0 -0.00000000000E+00 -0.00000000000E+00 -0.45593999997E+02  0.45594000000E+02  0.51100000000E-03 0.  1.
    9900012    2    1    2    0    0 -0.35276875693E+02 -0.11256100677E+02  0.16793103723E+02  0.50528854734E+02  0.29999984450E+02 0.  0.
         12    1    1    2    0    0  0.35276875693E+02  0.11256100677E+02 -0.16793103723E+02  0.40659145266E+02  0.00000000000E+00 0. -1.
         11    1    3    3    0    0 -0.39071583030E+01 -0.64995361467E+01  0.15713167003E+02  0.17447448915E+02  0.51100000000E-03 0.  1.
        -11    1    3    3    0    0 -0.94925123906E+00 -0.48370882946E-01  0.20753604004E+01  0.22826604456E+01  0.51100000000E-03 0. -1.
        -12    1    3    3    0    0 -0.30420466151E+02 -0.47081936469E+01 -0.99542368012E+00  0.30798745373E+02  0.00000000000E+00 0.  1.
</event>
<event>
 7    1  0.5456331E-013  0.5052887E+02  0.7816164E-02  0.1300439E+00
        -11   -1    0    0    0    0  0.00000000000E+00  0.00000000000E+00  0.45593999997E+02  0.45594000000E+02  0.51100000000E-03 0.  1.
         11   -1    0    0    0    0 -0.00000000000E+00 -0.00000000000E+00 -0.45593999997E+02  0.45594000000E+02  0.51100000000E-03 0. -1.
    9900012    2    1    2    0    0 -0.36783925549E+02 -0.14954754926E+02  0.87443031914E+01  0.50528871726E+02  0.30000036099E+02 0.  0.
         12    1    1    2    0    0  0.36783925549E+02  0.14954754926E+02 -0.87443031914E+01  0.40659128274E+02  0.00000000000E+00 0. -1.
         11    1    3    3    0    0 -0.93388084286E+01 -0.40164399195E+01 -0.14412744438E+01  0.10267541321E+02  0.51100000000E-03 0.  1.
        -11    1    3    3    0    0 -0.18710314800E+02 -0.11419181083E+02 -0.52313966191E+01  0.22535329759E+02  0.51100000000E-03 0. -1.
         12    1    3    3    0    0 -0.87348023200E+01  0.48086607560E+00  0.15416974254E+02  0.17726000646E+02  0.00000000000E+00 0. -1.
</event>
<event>
 7    1  0.5456331E-013  0.5052886E+02  0.7816164E-02  0.1300439E+00
        -11   -1    0    0    0    0  0.00000000000E+00  0.00000000000E+00  0.45593999997E+02  0.45594000000E+02  0.51100000000E-03 0.  1.
         11   -1    0    0    0    0 -0.00000000000E+00 -0.00000000000E+00 -0.45593999997E+02  0.45594000000E+02  0.51100000000E-03 0. -1.
    9900012    2    1    2    0    0  0.11999774190E+02 -0.33265126845E+02  0.20064956879E+02  0.50528859095E+02  0.29999997704E+02 0.  0.
         12    1    1    2    0    0 -0.11999774190E+02  0.33265126845E+02 -0.20064956879E+02  0.40659140905E+02  0.00000000000E+00 0. -1.
         11    1    3    3    0    0 -0.21916935291E+01 -0.95039876894E+00  0.26424790842E+00  0.24034570026E+01  0.51100000000E-03 0. -1.
        -11    1    3    3    0    0  0.25320039348E+01 -0.39599257964E+01 -0.63009002590E+01  0.78608778501E+01  0.51100000000E-03 0.  1.
        -12    1    3    3    0    0  0.11659463784E+02 -0.28354802280E+02  0.26101609229E+02  0.40264524242E+02  0.00000000000E+00 0.  1.
</event>
<event>
 7    1  0.5456331E-013  0.5052885E+02  0.7816164E-02  0.1300439E+00
        -11   -1    0    0    0    0  0.00000000000E+00  0.00000000000E+00  0.45593999997E+02  0.45594000000E+02  0.51100000000E-03 0.  1.
         11   -1    0    0    0    0 -0.00000000000E+00 -0.00000000000E+00 -0.45593999997E+02  0.45594000000E+02  0.51100000000E-03 0. -1.
    9900012    2    1    2    0    0 -0.23519942774E+02  0.31607045056E+02  0.10048539603E+02  0.50528854000E+02  0.29999982219E+02 0.  0.
         12    1    1    2    0    0  0.23519942774E+02 -0.31607045056E+02 -0.10048539603E+02  0.40659146000E+02  0.00000000000E+00 0. -1.
         11    1    3    3    0    0  0.34397695962E+01  0.76638563329E+01  0.20693184607E+01  0.86515193995E+01  0.51100000000E-03 0.  1.
        -11    1    3    3    0    0 -0.12909633368E+02  0.88880109540E+01 -0.62213054942E+01  0.16862977635E+02  0.51100000000E-03 0. -1.
        -12    1    3    3    0    0 -0.14050079002E+02  0.15055177769E+02  0.14200526636E+02  0.25014356965E+02  0.00000000000E+00 0.  1.
</event>
<event>
 7    1  0.5456331E-013  0.5052885E+02  0.7816164E-02  0.1300439E+00
        -11   -1    0    0    0    0  0.00000000000E+00  0.00000000000E+00  0.45593999997E+02  0.45594000000E+02  0.51100000000E-03 0.  1.
         11   -1    0    0    0    0 -0.00000000000E+00 -0.00000000000E+00 -0.45593999997E+02  0.45594000000E+02  0.51100000000E-03 0. -1.
    9900012    2    1    2    0    0 -0.10191601066E+02 -0.20819383787E+02  0.33404351589E+02  0.50528853690E+02  0.29999981276E+02 0.  0.
         12    1    1    2    0    0  0.10191601066E+02  0.20819383787E+02 -0.33404351589E+02  0.40659146310E+02  0.00000000000E+00 0. -1.
         11    1    3    3    0    0 -0.91570109687E+01  0.17806059628E+01  0.47261218778E+01  0.10457420128E+02  0.51100000000E-03 0. -1.
        -11    1    3    3    0    0  0.22058997090E+01 -0.38922435209E+01  0.17448013454E+02  0.18012460323E+02  0.51100000000E-03 0.  1.
         12    1    3    3    0    0 -0.32404898060E+01 -0.18707746229E+02  0.11230216258E+02  0.22058973239E+02  0.00000000000E+00 0. -1.
</event>
<event>
 7    1  0.5456331E-013  0.5052882E+02  0.7816164E-02  0.1300439E+00
        -11   -1    0    0    0    0  0.00000000000E+00  0.00000000000E+00  0.45593999997E+02  0.45594000000E+02  0.51100000000E-03 0.  1.
         11   -1    0    0    0    0 -0.00000000000E+00 -0.00000000000E+00 -0.45593999997E+02  0.45594000000E+02  0.51100000000E-03 0. -1.
    9900012    2    1    2    0    0 -0.33102913224E+02 -0.23117783006E+02 -0.47889637996E+01  0.50528819865E+02  0.29999878460E+02 0.  0.
         12    1    1    2    0    0  0.33102913224E+02  0.23117783006E+02  0.47889637996E+01  0.40659180135E+02  0.00000000000E+00 0. -1.
         11    1    3    3    0    0 -0.89399559835E+01 -0.13473146867E+02 -0.12873118346E+02  0.20667986735E+02  0.51100000000E-03 0. -1.
        -11    1    3    3    0    0 -0.87029160739E+01  0.25346578593E+01  0.25736329102E+01  0.94227822468E+01  0.51100000000E-03 0.  1.
        -12    1    3    3    0    0 -0.15460041167E+02 -0.12179293998E+02  0.55105216363E+01  0.20438050883E+02  0.00000000000E+00 0.  1.
</event>
<event>
 7    1  0.5456331E-013  0.5052888E+02  0.7816164E-02  0.1300439E+00
        -11   -1    0    0    0    0  0.00000000000E+00  0.00000000000E+00  0.45593999997E+02  0.45594000000E+02  0.51100000000E-03 0. -1.
         11   -1    0    0    0    0 -0.00000000000E+00 -0.00000000000E+00 -0.45593999997E+02  0.45594000000E+02  0.51100000000E-03 0.  1.
    9900012    2    1    2    0    0  0.40381151518E+02  0.43579556075E+01 -0.18801520174E+01  0.50528878678E+02  0.30000057231E+02 0.  0.
         12    1    1    2    0    0 -0.40381151518E+02 -0.43579556075E+01  0.18801520174E+01  0.40659121322E+02  0.00000000000E+00 0. -1.
         11    1    3    3    0    0  0.15685450556E+01 -0.10311216844E+01  0.56529056016E+01  0.59564156606E+01  0.51100000000E-03 0. -1.
        -11    1    3    3    0    0  0.11994962035E+02 -0.65229761306E+01 -0.67176081526E+01  0.15216917932E+02  0.51100000000E-03 0.  1.
        -12    1    3    3    0    0  0.26817644428E+02  0.11912053422E+02 -0.81544946645E+00  0.29355545085E+02  0.00000000000E+00 0.  1.
</event>
<event>
 7    1  0.7895796E-013  0.5052887E+02  0.7816164E-02  0.1300439E+00
        -11   -1    0    0    0    0  0.00000000000E+00  0.00000000000E+00  0.45593999997E+02  0.45594000000E+02  0.51100000000E-03 0. -1.
         11   -1    0    0    0    0 -0.00000000000E+00 -0.00000000000E+00 -0.45593999997E+02  0.45594000000E+02  0.51100000000E-03 0.  1.
    9900012    2    1    2    0    0  0.28077236071E+02  0.15882488511E+02 -0.24750365895E+02  0.50528865250E+02  0.30000016415E+02 0.  0.
         12    1    1    2    0    0 -0.28077236071E+02 -0.15882488511E+02  0.24750365895E+02  0.40659134750E+02  0.00000000000E+00 0. -1.
         11    1    3    3    0    0  0.88995439979E+01  0.14994162682E+02 -0.96000546021E+01  0.19904468004E+02  0.51100000000E-03 0.  1.
        -11    1    3    3    0    0  0.22873963943E+02  0.11806896085E+01 -0.12905904406E+02  0.26290200136E+02  0.51100000000E-03 0. -1.
         12    1    3    3    0    0 -0.36962718701E+01 -0.29236377917E+00 -0.22444068865E+01  0.43341971101E+01  0.00000000000E+00 0. -1.
</event>
<event>
 7    1  0.5456331E-013  0.5052887E+02  0.7816164E-02  0.1300439E+00
        -11   -1    0    0    0    0  0.00000000000E+00  0.00000000000E+00  0.45593999997E+02  0.45594000000E+02  0.51100000000E-03 0. -1.
         11   -1    0    0    0    0 -0.00000000000E+00 -0.00000000000E+00 -0.45593999997E+02  0.45594000000E+02  0.51100000000E-03 0.  1.
    9900012    2    1    2    0    0  0.29161741977E+02  0.26591471146E+02  0.97801390433E+01  0.50528872457E+02  0.30000038321E+02 0.  0.
         12    1    1    2    0    0 -0.29161741977E+02 -0.26591471146E+02 -0.97801390433E+01  0.40659127543E+02  0.00000000000E+00 0. -1.
         11    1    3    3    0    0  0.19155145421E+02  0.18797065877E+02  0.13164507664E+02  0.29892365982E+02  0.51100000000E-03 0. -1.
        -11    1    3    3    0    0  0.80199970098E+01  0.11750171155E+02 -0.60610058019E+01  0.15463591620E+02  0.51100000000E-03 0.  1.
        -12    1    3    3    0    0  0.19865995459E+01 -0.39557658859E+01  0.26766371816E+01  0.51729148554E+01  0.00000000000E+00 0.  1.
</event>
<event>
 7    1  0.5456331E-013  0.5052887E+02  0.7816164E-02  0.1300439E+00
        -11   -1    0    0    0    0  0.00000000000E+00  0.00000000000E+00  0.45593999997E+02  0.45594000000E+02  0.51100000000E-03 0. -1.
         11   -1    0    0    0    0 -0.00000000000E+00 -0.00000000000E+00 -0.45593999997E+02  0.45594000000E+02  0.51100000000E-03 0.  1.
    9900012    2    1    2    0    0 -0.21590528027E+02 -0.22420860016E+02 -0.26159496536E+02  0.50528866667E+02  0.30000020721E+02 0.  0.
         12    1    1    2    0    0  0.21590528027E+02  0.22420860016E+02  0.26159496536E+02  0.40659133333E+02  0.00000000000E+00 0. -1.
         11    1    3    3    0    0  0.23427852241E+01 -0.11773894178E+02 -0.11170095581E+02  0.16397690761E+02  0.51100000000E-03 0. -1.
        -11    1    3    3    0    0 -0.22054052989E+01 -0.60871692905E+01 -0.90891561716E+01  0.11159310134E+02  0.51100000000E-03 0.  1.
        -12    1    3    3    0    0 -0.21727907952E+02 -0.45597965475E+01 -0.59002447831E+01  0.22971865772E+02  0.00000000000E+00 0.  1.
</event>
<event>
 7    1  0.5456331E-013  0.5052887E+02  0.7816164E-02  0.1300439E+00
        -11   -1    0    0    0    0  0.00000000000E+00  0.00000000000E+00  0.45593999997E+02  0.45594000000E+02  0.51100000000E-03 0.  1.
         11   -1    0    0    0    0 -0.00000000000E+00 -0.00000000000E+00 -0.45593999997E+02  0.45594000000E+02  0.51100000000E-03 0. -1.
    9900012    2    1    2    0    0  0.34938139829E+01 -0.17418057771E+02  0.36572800460E+02  0.50528865649E+02  0.30000017628E+02 0.  0.
         12    1    1    2    0    0 -0.34938139829E+01  0.17418057771E+02 -0.36572800460E+02  0.40659134351E+02  0.00000000000E+00 0. -1.
         11    1    3    3    0    0  0.42628053121E+00 -0.12512956674E+01  0.15244157710E+02  0.15301365968E+02  0.51100000000E-03 0. -1.
        -11    1    3    3    0    0  0.56542168297E+01 -0.73923209379E+01  0.23963923355E+02  0.25707707009E+02  0.51100000000E-03 0.  1.
        -12    1    3    3    0    0 -0.25866833780E+01 -0.87744411659E+01 -0.26352806051E+01  0.95197926731E+01  0.00000000000E+00 0.  1.
</event>
<event>
 7    1  0.5456331E-013  0.5052887E+02  0.7816164E-02  0.1300439E+00
        -11   -1    0    0    0    0  0.00000000000E+00  0.00000000000E+00  0.45593999997E+02  0.45594000000E+02  0.51100000000E-03 0.  1.
         11   -1    0    0    0    0 -0.00000000000E+00 -0.00000000000E+00 -0.45593999997E+02  0.45594000000E+02  0.51100000000E-03 0. -1.
    9900012    2    1    2    0    0  0.29869182872E+02 -0.94716284654E+01  0.25909175534E+02  0.50528865625E+02  0.30000017555E+02 0.  0.
         12    1    1    2    0    0 -0.29869182872E+02  0.94716284654E+01 -0.25909175534E+02  0.40659134375E+02  0.00000000000E+00 0. -1.
         11    1    3    3    0    0 -0.22585135743E+01  0.40668885470E+01 -0.96666431819E+00  0.47513057346E+01  0.51100000000E-03 0. -1.
        -11    1    3    3    0    0  0.32449188223E+01 -0.55373747535E+01  0.83943218921E+01  0.10566771390E+02  0.51100000000E-03 0.  1.
         12    1    3    3    0    0  0.28882777624E+02 -0.80011422590E+01  0.18481517960E+02  0.35210788501E+02  0.00000000000E+00 0. -1.
</event>
<event>
 7    1  0.5456331E-013  0.5052888E+02  0.7816164E-02  0.1300439E+00
        -11   -1    0    0    0    0  0.00000000000E+00  0.00000000000E+00  0.45593999997E+02  0.45594000000E+02  0.51100000000E-03 0.  1.
         11   -1    0    0    0    0 -0.00000000000E+00 -0.00000000000E+00 -0.45593999997E+02  0.45594000000E+02  0.51100000000E-03 0. -1.
    9900012    2    1    2    0    0  0.43622428256E+01  0.21780708020E+02  0.34054888578E+02  0.50528882444E+02  0.30000068678E+02 0.  0.
         12    1    1    2    0    0 -0.43622428256E+01 -0.21780708020E+02 -0.34054888578E+02  0.40659117556E+02  0.00000000000E+00 0. -1.
         11    1    3    3    0    0 -0.44603103377E+01  0.12216808320E+02  0.13044502964E+02  0.18420201728E+02  0.51100000000E-03 0. -1.
        -11    1    3    3    0    0  0.13215125082E+02  0.59981089522E+01  0.22009426306E+02  0.26363453653E+02  0.51100000000E-03 0.  1.
         12    1    3    3    0    0 -0.43925719184E+01  0.35657907477E+01 -0.99904069175E+00  0.57452270641E+01  0.00000000000E+00 0. -1.
</event>
<event>
 7    1  0.5456331E-013  0.5052888E+02  0.7816164E-02  0.1300439E+00
        -11   -1    0    0    0    0  0.00000000000E+00  0.00000000000E+00  0.45593999997E+02  0.45594000000E+02  0.51100000000E-03 0.  1.
         11   -1    0    0    0    0 -0.00000000000E+00 -0.00000000000E+00 -0.45593999997E+02  0.45594000000E+02  0.51100000000E-03 0. -1.
    9900012    2    1    2    0    0  0.29249609617E+02  0.53916560615E+01  0.27722820095E+02  0.50528875909E+02  0.30000048814E+02 0.  0.
         12    1    1    2    0    0 -0.29249609617E+02 -0.53916560615E+01 -0.27722820095E+02  0.40659124091E+02  0.00000000000E+00 0. -1.
         11    1    3    3    0    0  0.50770885935E+01 -0.31437124151E+01 -0.32431248966E+01  0.67954113703E+01  0.51100000000E-03 0. -1.
        -11    1    3    3    0    0 -0.27149008165E+01  0.80840528188E+00  0.20289129374E+01  0.34843497976E+01  0.51100000000E-03 0.  1.
         12    1    3    3    0    0  0.26887421840E+02  0.77269631948E+01  0.28937032054E+02  0.40249114742E+02  0.00000000000E+00 0. -1.
</event>
<event>
 7    1  0.5456331E-013  0.5052886E+02  0.7816164E-02  0.1300439E+00
        -11   -1    0    0    0    0  0.00000000000E+00  0.00000000000E+00  0.45593999997E+02  0.45594000000E+02  0.51100000000E-03 0.  1.
         11   -1    0    0    0    0 -0.00000000000E+00 -0.00000000000E+00 -0.45593999997E+02  0.45594000000E+02  0.51100000000E-03 0. -1.
    9900012    2    1    2    0    0  0.20748636805E+02  0.85309028769E+01  0.33909928347E+02  0.50528862359E+02  0.30000007626E+02 0.  0.
         12    1    1    2    0    0 -0.20748636805E+02 -0.85309028769E+01 -0.33909928347E+02  0.40659137641E+02  0.00000000000E+00 0. -1.
         11    1    3    3    0    0  0.64500717096E+01  0.76658338840E+01  0.12033110212E+02  0.15657719369E+02  0.51100000000E-03 0. -1.
        -11    1    3    3    0    0  0.11932057568E+02  0.35808983002E+01  0.26338904923E+02  0.29136484744E+02  0.51100000000E-03 0.  1.
         12    1    3    3    0    0  0.23665075275E+01 -0.27158293072E+01 -0.44620867872E+01  0.57346582462E+01  0.00000000000E+00 0. -1.
</event>
<event>
 7    1  0.5456331E-013  0.5052886E+02  0.7816164E-02  0.1300439E+00
        -11   -1    0    0    0    0  0.00000000000E+00  0.00000000000E+00  0.45593999997E+02  0.45594000000E+02  0.51100000000E-03 0. -1.
         11   -1    0    0    0    0 -0.00000000000E+00 -0.00000000000E+00 -0.45593999997E+02  0.45594000000E+02  0.51100000000E-03 0.  1.
    9900012    2    1    2    0    0  0.27771802933E+02 -0.78016641681E+01 -0.28653567048E+02  0.50528857037E+02  0.29999991449E+02 0.  0.
         12    1    1    2    0    0 -0.27771802933E+02  0.78016641681E+01  0.28653567048E+02  0.40659142963E+02  0.00000000000E+00 0. -1.
         11    1    3    3    0    0 -0.16237860636E+01  0.60358348482E+01 -0.19814944223E+01  0.65570041865E+01  0.51100000000E-03 0. -1.
        -11    1    3    3    0    0  0.49265227928E+01  0.17423011351E+01 -0.77173023792E+01  0.93200319928E+01  0.51100000000E-03 0.  1.
        -12    1    3    3    0    0  0.24469066204E+02 -0.15579800151E+02 -0.18954770246E+02  0.34651820857E+02  0.00000000000E+00 0.  1.
</event>
<event>
 7    1  0.5456331E-013  0.5052886E+02  0.7816164E-02  0.1300439E+00
        -11   -1    0    0    0    0  0.00000000000E+00  0.00000000000E+00  0.45593999997E+02  0.45594000000E+02  0.51100000000E-03 0.  1.
         11   -1    0    0    0    0 -0.00000000000E+00 -0.00000000000E+00 -0.45593999997E+02  0.45594000000E+02  0.51100000000E-03 0. -1.
    9900012    2    1    2    0    0  0.43336553135E+01 -0.22482421536E+02  0.33599492485E+02  0.50528859062E+02  0.29999997606E+02 0.  0.
         12    1    1    2    0    0 -0.43336553135E+01  0.22482421536E+02 -0.33599492485E+02  0.40659140938E+02  0.00000000000E+00 0. -1.
         11    1    3    3    0    0  0.47585417918E+01  0.16136591527E+01  0.94536275077E+01  0.10706011823E+02  0.51100000000E-03 0. -1.
        -11    1    3    3    0    0  0.41697638538E+01 -0.13224415439E+02  0.24346670976E+02  0.28018431115E+02  0.51100000000E-03 0.  1.
        -12    1    3    3    0    0 -0.45946503321E+01 -0.10871665250E+02 -0.20080599800E+00  0.11804416124E+02  0.00000000000E+00 0.  1.
</event>
<event>
 7    1  0.5456331E-013  0.5052886E+02  0.7816164E-02  0.1300439E+00
        -11   -1    0    0    0    0  0.00000000000E+00  0.00000000000E+00  0.45593999997E+02  0.45594000000E+02  0.51100000000E-03 0.  1.
         11   -1    0    0    0    0 -0.00000000000E+00 -0.00000000000E+00 -0.45593999997E+02  0.45594000000E+02  0.51100000000E-03 0. -1.
    9900012    2    1    2    0    0  0.34269670951E+02  0.12874539344E+02  0.17691854318E+02  0.50528858105E+02  0.29999994696E+02 0.  0.
         12    1    1    2    0    0 -0.34269670951E+02 -0.12874539344E+02 -0.17691854318E+02  0.40659141895E+02  0.00000000000E+00 0. -1.
         11    1    3    3    0    0  0.74722430953E+01  0.62062184738E+01 -0.39679773391E+01  0.10492683596E+02  0.51100000000E-03 0. -1.
        -11    1    3    3    0    0  0.11504533962E+02  0.12155538170E+02  0.69610207020E+01  0.18126423237E+02  0.51100000000E-03 0.  1.
        -12    1    3    3    0    0  0.15292893894E+02 -0.54872172994E+01  0.14698810955E+02  0.21909751273E+02  0.00000000000E+00 0.  1.
</event>
<event>
 7    1  0.5456331E-013  0.5052886E+02  0.7816164E-02  0.1300439E+00
        -11   -1    0    0    0    0  0.00000000000E+00  0.00000000000E+00  0.45593999997E+02  0.45594000000E+02  0.51100000000E-03 0. -1.
         11   -1    0    0    0    0 -0.00000000000E+00 -0.00000000000E+00 -0.45593999997E+02  0.45594000000E+02  0.51100000000E-03 0.  1.
    9900012    2    1    2    0    0  0.34621623959E+02  0.21315407812E+02 -0.40298546500E+00  0.50528857694E+02  0.29999993446E+02 0.  0.
         12    1    1    2    0    0 -0.34621623959E+02 -0.21315407812E+02  0.40298546500E+00  0.40659142306E+02  0.00000000000E+00 0. -1.
         11    1    3    3    0    0  0.17988737210E+02  0.27210739430E+01  0.55346395618E+01  0.19016601829E+02  0.51100000000E-03 0. -1.
        -11    1    3    3    0    0  0.15818569472E+02  0.10711641886E+02 -0.11061512538E+02  0.22075404231E+02  0.51100000000E-03 0.  1.
        -12    1    3    3    0    0  0.81431727732E+00  0.78826919830E+01  0.51238875113E+01  0.94368516337E+01  0.00000000000E+00 0.  1.
</event>
<event>
 7    1  0.5456331E-013  0.5052886E+02  0.7816164E-02  0.1300439E+00
        -11   -1    0    0    0    0  0.00000000000E+00  0.00000000000E+00  0.45593999997E+02  0.45594000000E+02  0.51100000000E-03 0.  1.
         11   -1    0    0    0    0 -0.00000000000E+00 -0.00000000000E+00 -0.45593999997E+02  0.45594000000E+02  0.51100000000E-03 0. -1.
    9900012    2    1    2    0    0 -0.35388180696E+02 -0.18514026029E+02  0.76205503463E+01  0.50528864736E+02  0.30000014853E+02 0.  0.
         12    1    1    2    0    0  0.35388180696E+02  0.18514026029E+02 -0.76205503463E+01  0.40659135264E+02  0.00000000000E+00 0. -1.
         11    1    3    3    0    0 -0.56310396463E+01 -0.12681362273E+02  0.90812314983E+01  0.16582952764E+02  0.51100000000E-03 0. -1.
        -11    1    3    3    0    0 -0.61429533696E+01 -0.52247977974E+01  0.49590089326E+01  0.94671092726E+01  0.51100000000E-03 0.  1.
         12    1    3    3    0    0 -0.23614187680E+02 -0.60786595899E+00 -0.64196900846E+01  0.24478802700E+02  0.00000000000E+00 0. -1.
</event>
<event>
 7    1  0.5456331E-013  0.5052886E+02  0.7816164E-02  0.1300439E+00
        -11   -1    0    0    0    0  0.00000000000E+00  0.00000000000E+00  0.45593999997E+02  0.45594000000E+02  0.51100000000E-03 0.  1.
         11   -1    0    0    0    0 -0.00000000000E+00 -0.00000000000E+00 -0.45593999997E+02  0.45594000000E+02  0.51100000000E-03 0. -1.
    9900012    2    1    2    0    0 -0.34006362980E+02 -0.13635636600E+02  0.17629593611E+02  0.50528857369E+02  0.29999992459E+02 0.  0.
         12    1    1    2    0    0  0.34006362980E+02  0.13635636600E+02 -0.17629593611E+02  0.40659142631E+02  0.00000000000E+00 0. -1.
         11    1    3    3    0    0 -0.10092252526E+02 -0.52599480871E+01  0.89449190869E+01  0.14475226860E+02  0.51100000000E-03 0. -1.
        -11    1    3    3    0    0 -0.25802407968E+02 -0.36613223175E+00  0.10085952420E+02  0.27706041692E+02  0.51100000000E-03 0.  1.
         12    1    3    3    0    0  0.18882975137E+01 -0.80095562807E+01 -0.14012778959E+01  0.83475888169E+01  0.00000000000E+00 0. -1.
</event>
<event>
 7    1  0.5456331E-013  0.5052885E+02  0.7816164E-02  0.1300439E+00
        -11   -1    0    0    0    0  0.00000000000E+00  0.00000000000E+00  0.45593999997E+02  0.45594000000E+02  0.51100000000E-03 0.  1.
         11   -1    0    0    0    0 -0.00000000000E+00 -0.00000000000E+00 -0.45593999997E+02  0.45594000000E+02  0.51100000000E-03 0. -1.
    9900012    2    1    2    0    0  0.47093048739E+01 -0.25296637518E+02  0.31481247955E+02  0.50528851030E+02  0.29999973192E+02 0.  0.
         12    1    1    2    0    0 -0.47093048739E+01  0.25296637518E+02 -0.31481247955E+02  0.40659148970E+02  0.00000000000E+00 0. -1.
         11    1    3    3    0    0 -0.78310705341E+01 -0.94925063296E+01  0.72910054806E+01  0.14303569600E+02  0.51100000000E-03 0. -1.
        -11    1    3    3    0    0  0.26108994015E+01 -0.67247457111E+01  0.21266304542E+02  0.22456507068E+02  0.51100000000E-03 0.  1.
        -12    1    3    3    0    0  0.99294760065E+01 -0.90793854773E+01  0.29239379331E+01  0.13768774363E+02  0.00000000000E+00 0.  1.
</event>
<event>
 7    1  0.5456331E-013  0.5052883E+02  0.7816164E-02  0.1300439E+00
        -11   -1    0    0    0    0  0.00000000000E+00  0.00000000000E+00  0.45593999997E+02  0.45594000000E+02  0.51100000000E-03 0.  1.
         11   -1    0    0    0    0 -0.00000000000E+00 -0.00000000000E+00 -0.45593999997E+02  0.45594000000E+02  0.51100000000E-03 0. -1.
    9900012    2    1    2    0    0  0.10977573478E+02  0.16636962507E+02  0.35438288067E+02  0.50528832497E+02  0.29999916858E+02 0.  0.
         12    1    1    2    0    0 -0.10977573478E+02 -0.16636962507E+02 -0.35438288067E+02  0.40659167503E+02  0.00000000000E+00 0. -1.
         11    1    3    3    0    0  0.13513587957E+02  0.71475772803E+01  0.33390032285E+01  0.15647806980E+02  0.51100000000E-03 0. -1.
        -11    1    3    3    0    0 -0.89117734117E+00  0.43377136705E+01  0.31584809477E+01  0.54392976659E+01  0.51100000000E-03 0.  1.
        -12    1    3    3    0    0 -0.16448371381E+01  0.51516715560E+01  0.28940803891E+02  0.29441727852E+02  0.00000000000E+00 0.  1.
</event>
<event>
 7    1  0.5456331E-013  0.5052886E+02  0.7816164E-02  0.1300439E+00
        -11   -1    0    0    0    0  0.00000000000E+00  0.00000000000E+00  0.45593999997E+02  0.45594000000E+02  0.51100000000E-03 0.  1.
         11   -1    0    0    0    0 -0.00000000000E+00 -0.00000000000E+00 -0.45593999997E+02  0.45594000000E+02  0.51100000000E-03 0. -1.
    9900012    2    1    2    0    0 -0.47287632583E+01  0.23069938305E+02  0.33144870874E+02  0.50528859323E+02  0.29999998398E+02 0.  0.
         12    1    1    2    0    0  0.47287632583E+01 -0.23069938305E+02 -0.33144870874E+02  0.40659140677E+02  0.00000000000E+00 0. -1.
         11    1    3    3    0    0 -0.61461620541E+00  0.26391931354E+01  0.63641547771E+01  0.69170484872E+01  0.51100000000E-03 0. -1.
        -11    1    3    3    0    0  0.98330867978E+01  0.17198915882E+02  0.18310016188E+02  0.26976823322E+02  0.51100000000E-03 0.  1.
         12    1    3    3    0    0 -0.13947233851E+02  0.32318292880E+01  0.84706999088E+01  0.16634987514E+02  0.00000000000E+00 0. -1.
</event>
<event>
 7    1  0.5456331E-013  0.5052885E+02  0.7816164E-02  0.1300439E+00
        -11   -1    0    0    0    0  0.00000000000E+00  0.00000000000E+00  0.45593999997E+02  0.45594000000E+02  0.51100000000E-03 0.  1.
         11   -1    0    0    0    0 -0.00000000000E+00 -0.00000000000E+00 -0.45593999997E+02  0.45594000000E+02  0.51100000000E-03 0. -1.
    9900012    2    1    2    0    0 -0.35051289984E+01 -0.14719320790E+02  0.37738869030E+02  0.50528848884E+02  0.29999966667E+02 0.  0.
         12    1    1    2    0    0  0.35051289984E+01  0.14719320790E+02 -0.37738869030E+02  0.40659151116E+02  0.00000000000E+00 0. -1.
         11    1    3    3    0    0  0.17946451082E+01 -0.46427630111E+01 -0.11904488638E+01  0.51179261620E+01  0.51100000000E-03 0. -1.
        -11    1    3    3    0    0  0.75652956980E+01 -0.26832574239E+01  0.93832312219E+01  0.12348222456E+02  0.51100000000E-03 0.  1.
        -12    1    3    3    0    0 -0.12865069805E+02 -0.73933003555E+01  0.29546086672E+02  0.33062700266E+02  0.00000000000E+00 0.  1.
</event>
<event>
 7    1  0.5456331E-013  0.5052886E+02  0.7816164E-02  0.1300439E+00
        -11   -1    0    0    0    0  0.00000000000E+00  0.00000000000E+00  0.45593999997E+02  0.45594000000E+02  0.51100000000E-03 0. -1.
         11   -1    0    0    0    0 -0.00000000000E+00 -0.00000000000E+00 -0.45593999997E+02  0.45594000000E+02  0.51100000000E-03 0.  1.
    9900012    2    1    2    0    0 -0.13636335039E+02  0.26863148395E+02 -0.27305449948E+02  0.50528856233E+02  0.29999989007E+02 0.  0.
         12    1    1    2    0    0  0.13636335039E+02 -0.26863148395E+02  0.27305449948E+02  0.40659143767E+02  0.00000000000E+00 0. -1.
         11    1    3    3    0    0 -0.57358592113E+01  0.13607268742E+02 -0.26670679905E+02  0.30485783742E+02  0.51100000000E-03 0.  1.
        -11    1    3    3    0    0  0.22727751949E+01  0.83036186660E+01  0.76150847710E+00  0.86426550006E+01  0.51100000000E-03 0. -1.
        -12    1    3    3    0    0 -0.10173251022E+02  0.49522609874E+01 -0.13962785194E+01  0.11400417490E+02  0.00000000000E+00 0.  1.
</event>
<event>
 7    1  0.5456331E-013  0.5052886E+02  0.7816164E-02  0.1300439E+00
        -11   -1    0    0    0    0  0.00000000000E+00  0.00000000000E+00  0.45593999997E+02  0.45594000000E+02  0.51100000000E-03 0.  1.
         11   -1    0    0    0    0 -0.00000000000E+00 -0.00000000000E+00 -0.45593999997E+02  0.45594000000E+02  0.51100000000E-03 0. -1.
    9900012    2    1    2    0    0  0.25911724918E+02  0.21916007210E+02  0.22392783778E+02  0.50528860491E+02  0.30000001949E+02 0.  0.
         12    1    1    2    0    0 -0.25911724918E+02 -0.21916007210E+02 -0.22392783778E+02  0.40659139509E+02  0.00000000000E+00 0. -1.
         11    1    3    3    0    0  0.12339783767E+02 -0.20501168861E+01  0.72094778517E+01  0.14437791169E+02  0.51100000000E-03 0. -1.
        -11    1    3    3    0    0  0.96108070394E+01  0.39901147910E+01  0.11295576522E+02  0.15358342268E+02  0.51100000000E-03 0.  1.
        -12    1    3    3    0    0  0.39611341112E+01  0.19976009305E+02  0.38877294041E+01  0.20732727055E+02  0.00000000000E+00 0.  1.
</event>
<event>
 7    1  0.5456331E-013  0.5052886E+02  0.7816164E-02  0.1300439E+00
        -11   -1    0    0    0    0  0.00000000000E+00  0.00000000000E+00  0.45593999997E+02  0.45594000000E+02  0.51100000000E-03 0. -1.
         11   -1    0    0    0    0 -0.00000000000E+00 -0.00000000000E+00 -0.45593999997E+02  0.45594000000E+02  0.51100000000E-03 0.  1.
    9900012    2    1    2    0    0 -0.28692927413E+02  0.20536950847E+01 -0.28734364777E+02  0.50528862452E+02  0.30000007908E+02 0.  0.
         12    1    1    2    0    0  0.28692927413E+02 -0.20536950847E+01  0.28734364777E+02  0.40659137548E+02  0.00000000000E+00 0. -1.
         11    1    3    3    0    0 -0.85590738265E+00  0.54027631523E+01 -0.12034140708E+01  0.56009492780E+01  0.51100000000E-03 0. -1.
        -11    1    3    3    0    0 -0.29047380844E+01  0.11518699808E+01  0.36153320404E+01  0.47785911957E+01  0.51100000000E-03 0.  1.
        -12    1    3    3    0    0 -0.24932281946E+02 -0.45009380484E+01 -0.31146282747E+02  0.40149321978E+02  0.00000000000E+00 0.  1.
</event>
<event>
 7    1  0.5456331E-013  0.5052886E+02  0.7816164E-02  0.1300439E+00
        -11   -1    0    0    0    0  0.00000000000E+00  0.00000000000E+00  0.45593999997E+02  0.45594000000E+02  0.51100000000E-03 0.  1.
         11   -1    0    0    0    0 -0.00000000000E+00 -0.00000000000E+00 -0.45593999997E+02  0.45594000000E+02  0.51100000000E-03 0. -1.
    9900012    2    1    2    0    0 -0.14365773462E+02  0.48010127970E+01  0.37732484136E+02  0.50528861666E+02  0.30000005519E+02 0.  0.
         12    1    1    2    0    0  0.14365773462E+02 -0.48010127970E+01 -0.37732484136E+02  0.40659138334E+02  0.00000000000E+00 0. -1.
         11    1    3    3    0    0  0.46529666041E+01 -0.34316870893E+01  0.21322480157E+01  0.61622281977E+01  0.51100000000E-03 0. -1.
        -11    1    3    3    0    0  0.28600926558E+01  0.21703832158E+01  0.32366294454E+01  0.48338870209E+01  0.51100000000E-03 0.  1.
         12    1    3    3    0    0 -0.21878832722E+02  0.60623166706E+01  0.32363606675E+02  0.39532746447E+02  0.00000000000E+00 0. -1.
</event>
<event>
 7    1  0.5456331E-013  0.5052885E+02  0.7816164E-02  0.1300439E+00
        -11   -1    0    0    0    0  0.00000000000E+00  0.00000000000E+00  0.45593999997E+02  0.45594000000E+02  0.51100000000E-03 0.  1.
         11   -1    0    0    0    0 -0.00000000000E+00 -0.00000000000E+00 -0.45593999997E+02  0.45594000000E+02  0.51100000000E-03 0. -1.
    9900012    2    1    2    0    0  0.40015991098E+02 -0.65518966926E+01 -0.29932079290E+01  0.50528853581E+02  0.29999980943E+02 0.  0.
         12    1    1    2    0    0 -0.40015991098E+02  0.65518966926E+01  0.29932079290E+01  0.40659146419E+02  0.00000000000E+00 0. -1.
         11    1    3    3    0    0  0.15677441308E+02 -0.92416647665E+00 -0.93370224347E+01  0.18270638682E+02  0.51100000000E-03 0. -1.
        -11    1    3    3    0    0  0.23844930218E+02 -0.10229406370E+02  0.82884212568E+01  0.27238197058E+02  0.51100000000E-03 0.  1.
         12    1    3    3    0    0  0.49361957249E+00  0.46016761536E+01 -0.19446067512E+01  0.50200178407E+01  0.00000000000E+00 0. -1.
</event>
<event>
 7    1  0.5456331E-013  0.5052885E+02  0.7816164E-02  0.1300439E+00
        -11   -1    0    0    0    0  0.00000000000E+00  0.00000000000E+00  0.45593999997E+02  0.45594000000E+02  0.51100000000E-03 0.  1.
         11   -1    0    0    0    0 -0.00000000000E+00 -0.00000000000E+00 -0.45593999997E+02  0.45594000000E+02  0.51100000000E-03 0. -1.
    9900012    2    1    2    0    0  0.10960490422E+02  0.12421907283E+02  0.37131253848E+02  0.50528854127E+02  0.29999982603E+02 0.  0.
         12    1    1    2    0    0 -0.10960490422E+02 -0.12421907283E+02 -0.37131253848E+02  0.40659145873E+02  0.00000000000E+00 0. -1.
         11    1    3    3    0    0  0.12904984543E+02 -0.14310419764E+01  0.16856939950E+02  0.21277756741E+02  0.51100000000E-03 0. -1.
        -11    1    3    3    0    0  0.67207655454E+01  0.69020965019E+01  0.12059568436E+02  0.15435051563E+02  0.51100000000E-03 0.  1.
         12    1    3    3    0    0 -0.86652596670E+01  0.69508527574E+01  0.82147454629E+01  0.13816045823E+02  0.00000000000E+00 0. -1.
</event>
<event>
 7    1  0.5456331E-013  0.5052886E+02  0.7816164E-02  0.1300439E+00
        -11   -1    0    0    0    0  0.00000000000E+00  0.00000000000E+00  0.45593999997E+02  0.45594000000E+02  0.51100000000E-03 0.  1.
         11   -1    0    0    0    0 -0.00000000000E+00 -0.00000000000E+00 -0.45593999997E+02  0.45594000000E+02  0.51100000000E-03 0. -1.
    9900012    2    1    2    0    0 -0.28439332712E+02 -0.24858375519E+02  0.15047632710E+02  0.50528859223E+02  0.29999998094E+02 0.  0.
         12    1    1    2    0    0  0.28439332712E+02  0.24858375519E+02 -0.15047632710E+02  0.40659140777E+02  0.00000000000E+00 0. -1.
         11    1    3    3    0    0 -0.76532059206E+01 -0.12742827475E+02 -0.35510365735E+01  0.15282705059E+02  0.51100000000E-03 0. -1.
        -11    1    3    3    0    0 -0.12319848025E+02 -0.42343955915E+00  0.83325050666E+00  0.12355252450E+02  0.51100000000E-03 0.  1.
         12    1    3    3    0    0 -0.84662787661E+01 -0.11692108484E+02  0.17765418777E+02  0.22890901714E+02  0.00000000000E+00 0. -1.
</event>
<event>
 7    1  0.5456331E-013  0.5052886E+02  0.7816164E-02  0.1300439E+00
        -11   -1    0    0    0    0  0.00000000000E+00  0.00000000000E+00  0.45593999997E+02  0.45594000000E+02  0.51100000000E-03 0.  1.
         11   -1    0    0    0    0 -0.00000000000E+00 -0.00000000000E+00 -0.45593999997E+02  0.45594000000E+02  0.51100000000E-03 0. -1.
    9900012    2    1    2    0    0  0.39102939871E+01 -0.89487066605E+01  0.39468923716E+02  0.50528859709E+02  0.29999999571E+02 0.  0.
         12    1    1    2    0    0 -0.39102939871E+01  0.89487066605E+01 -0.39468923716E+02  0.40659140291E+02  0.00000000000E+00 0. -1.
         11    1    3    3    0    0  0.32957489016E+01 -0.73546027252E+00  0.42581388468E+01  0.54345753592E+01  0.51100000000E-03 0. -1.
        -11    1    3    3    0    0 -0.11970395882E+02 -0.35097676621E+01  0.82042468511E+01  0.14930455896E+02  0.51100000000E-03 0.  1.
        -12    1    3    3    0    0  0.12584940967E+02 -0.47034787258E+01  0.27006538018E+02  0.30163828453E+02  0.00000000000E+00 0.  1.
</event>
<event>
 7    1  0.5456331E-013  0.5052886E+02  0.7816164E-02  0.1300439E+00
        -11   -1    0    0    0    0  0.00000000000E+00  0.00000000000E+00  0.45593999997E+02  0.45594000000E+02  0.51100000000E-03 0.  1.
         11   -1    0    0    0    0 -0.00000000000E+00 -0.00000000000E+00 -0.45593999997E+02  0.45594000000E+02  0.51100000000E-03 0. -1.
    9900012    2    1    2    0    0  0.30636717168E+02 -0.24805908548E+02  0.99611133445E+01  0.50528864289E+02  0.30000013492E+02 0.  0.
         12    1    1    2    0    0 -0.30636717168E+02  0.24805908548E+02 -0.99611133445E+01  0.40659135711E+02  0.00000000000E+00 0. -1.
         11    1    3    3    0    0  0.12859922945E+02 -0.22258154962E+02  0.35298935739E+01  0.25947316420E+02  0.51100000000E-03 0. -1.
        -11    1    3    3    0    0  0.11662505002E+02 -0.79726039327E+01 -0.86092902935E-01  0.14127414790E+02  0.51100000000E-03 0.  1.
         12    1    3    3    0    0  0.61142892207E+01  0.54248503466E+01  0.65173126735E+01  0.10454133079E+02  0.00000000000E+00 0. -1.
</event>
<event>
 7    1  0.5456331E-013  0.5052890E+02  0.7816164E-02  0.1300439E+00
        -11   -1    0    0    0    0  0.00000000000E+00  0.00000000000E+00  0.45593999997E+02  0.45594000000E+02  0.51100000000E-03 0.  1.
         11   -1    0    0    0    0 -0.00000000000E+00 -0.00000000000E+00 -0.45593999997E+02  0.45594000000E+02  0.51100000000E-03 0. -1.
    9900012    2    1    2    0    0 -0.71344400127E+01 -0.23808715245E+02  0.32177747265E+02  0.50528898006E+02  0.30000115978E+02 0.  0.
         12    1    1    2    0    0  0.71344400127E+01  0.23808715245E+02 -0.32177747265E+02  0.40659101994E+02  0.00000000000E+00 0. -1.
         11    1    3    3    0    0 -0.45383275674E+01 -0.23188454971E+01  0.22429323549E+02  0.23001043817E+02  0.51100000000E-03 0. -1.
        -11    1    3    3    0    0  0.47390223793E+01 -0.48558988022E+01  0.57960742081E+01  0.89237079051E+01  0.51100000000E-03 0.  1.
         12    1    3    3    0    0 -0.73351348246E+01 -0.16633970946E+02  0.39523495082E+01  0.18604146284E+02  0.00000000000E+00 0. -1.
</event>
<event>
 7    1  0.5456331E-013  0.5052883E+02  0.7816164E-02  0.1300439E+00
        -11   -1    0    0    0    0  0.00000000000E+00  0.00000000000E+00  0.45593999997E+02  0.45594000000E+02  0.51100000000E-03 0.  1.
         11   -1    0    0    0    0 -0.00000000000E+00 -0.00000000000E+00 -0.45593999997E+02  0.45594000000E+02  0.51100000000E-03 0. -1.
    9900012    2    1    2    0    0  0.39625089070E+02  0.70482131478E+01  0.57743267396E+01  0.50528833239E+02  0.29999919114E+02 0.  0.
         12    1    1    2    0    0 -0.39625089070E+02 -0.70482131478E+01 -0.57743267396E+01  0.40659166761E+02  0.00000000000E+00 0. -1.
         11    1    3    3    0    0  0.71271286488E+01  0.68233625351E+01  0.38672787453E+01  0.10597645220E+02  0.51100000000E-03 0. -1.
        -11    1    3    3    0    0  0.11242496007E+02  0.11276389779E+02  0.10858238325E+01  0.15960253650E+02  0.51100000000E-03 0.  1.
        -12    1    3    3    0    0  0.21255464414E+02 -0.11051539166E+02  0.82122416177E+00  0.23970934369E+02  0.00000000000E+00 0.  1.
</event>
<event>
 7    1  0.5456331E-013  0.5052886E+02  0.7816164E-02  0.1300439E+00
        -11   -1    0    0    0    0  0.00000000000E+00  0.00000000000E+00  0.45593999997E+02  0.45594000000E+02  0.51100000000E-03 0.  1.
         11   -1    0    0    0    0 -0.00000000000E+00 -0.00000000000E+00 -0.45593999997E+02  0.45594000000E+02  0.51100000000E-03 0. -1.
    9900012    2    1    2    0    0 -0.14591309130E+02  0.92081303569E+01  0.36816699431E+02  0.50528864202E+02  0.30000013229E+02 0.  0.
         12    1    1    2    0    0  0.14591309130E+02 -0.92081303569E+01 -0.36816699431E+02  0.40659135798E+02  0.00000000000E+00 0. -1.
         11    1    3    3    0    0  0.23898181194E+01  0.20689979104E+01 -0.36042453648E+01  0.47940137576E+01  0.51100000000E-03 0. -1.
        -11    1    3    3    0    0 -0.68464247833E+01  0.11268752696E+01  0.26988542042E+02  0.27866194250E+02  0.51100000000E-03 0.  1.
        -12    1    3    3    0    0 -0.10134702466E+02  0.60122571769E+01  0.13432402754E+02  0.17868656194E+02  0.00000000000E+00 0.  1.
</event>
<event>
 7    1  0.5456331E-013  0.5052885E+02  0.7816164E-02  0.1300439E+00
        -11   -1    0    0    0    0  0.00000000000E+00  0.00000000000E+00  0.45593999997E+02  0.45594000000E+02  0.51100000000E-03 0.  1.
         11   -1    0    0    0    0 -0.00000000000E+00 -0.00000000000E+00 -0.45593999997E+02  0.45594000000E+02  0.51100000000E-03 0. -1.
    9900012    2    1    2    0    0  0.14347315603E+02  0.23708619661E+02  0.29752682116E+02  0.50528853374E+02  0.29999980316E+02 0.  0.
         12    1    1    2    0    0 -0.14347315603E+02 -0.23708619661E+02 -0.29752682116E+02  0.40659146626E+02  0.00000000000E+00 0. -1.
         11    1    3    3    0    0 -0.32079650012E+01  0.32906177711E+01  0.52711384438E+01  0.69931470397E+01  0.51100000000E-03 0. -1.
        -11    1    3    3    0    0 -0.52160398184E+01  0.35903540014E+01  0.97299585568E+01  0.11609039884E+02  0.51100000000E-03 0.  1.
        -12    1    3    3    0    0  0.22771320422E+02  0.16827647889E+02  0.14751585116E+02  0.31926666451E+02  0.00000000000E+00 0.  1.
</event>
<event>
 7    1  0.5456331E-013  0.5052886E+02  0.7816164E-02  0.1300439E+00
        -11   -1    0    0    0    0  0.00000000000E+00  0.00000000000E+00  0.45593999997E+02  0.45594000000E+02  0.51100000000E-03 0. -1.
         11   -1    0    0    0    0 -0.00000000000E+00 -0.00000000000E+00 -0.45593999997E+02  0.45594000000E+02  0.51100000000E-03 0.  1.
    9900012    2    1    2    0    0  0.21612289024E+02  0.34400388143E+02 -0.16394503975E+01  0.50528861558E+02  0.30000005191E+02 0.  0.
         12    1    1    2    0    0 -0.21612289024E+02 -0.34400388143E+02  0.16394503975E+01  0.40659138442E+02  0.00000000000E+00 0. -1.
         11    1    3    3    0    0  0.17868699479E+01  0.20191463808E+02  0.92636798953E+01  0.22286854430E+02  0.51100000000E-03 0. -1.
        -11    1    3    3    0    0  0.58908847988E+00  0.29683854719E+01 -0.37991057969E+01  0.48571125851E+01  0.51100000000E-03 0.  1.
        -12    1    3    3    0    0  0.19236330596E+02  0.11240538863E+02 -0.71040244960E+01  0.23384894543E+02  0.00000000000E+00 0.  1.
</event>
<event>
 7    1  0.5456331E-013  0.5052887E+02  0.7816164E-02  0.1300439E+00
        -11   -1    0    0    0    0  0.00000000000E+00  0.00000000000E+00  0.45593999997E+02  0.45594000000E+02  0.51100000000E-03 0.  1.
         11   -1    0    0    0    0 -0.00000000000E+00 -0.00000000000E+00 -0.45593999997E+02  0.45594000000E+02  0.51100000000E-03 0. -1.
    9900012    2    1    2    0    0 -0.23786196085E+02 -0.31841560533E+02 -0.85730389886E+01  0.50528866969E+02  0.30000021638E+02 0.  0.
         12    1    1    2    0    0  0.23786196085E+02  0.31841560533E+02  0.85730389886E+01  0.40659133031E+02  0.00000000000E+00 0. -1.
         11    1    3    3    0    0 -0.14760904907E+02 -0.11444029810E+02  0.14625763777E+01  0.18734707414E+02  0.51100000000E-03 0.  1.
        -11    1    3    3    0    0 -0.39175193558E+01 -0.23642486725E+02 -0.66974633474E+01  0.24883129867E+02  0.51100000000E-03 0. -1.
         12    1    3    3    0    0 -0.51077718221E+01  0.32449560020E+01 -0.33381520189E+01  0.69110296876E+01  0.00000000000E+00 0. -1.
</event>
<event>
 7    1  0.5456331E-013  0.5052886E+02  0.7816164E-02  0.1300439E+00
        -11   -1    0    0    0    0  0.00000000000E+00  0.00000000000E+00  0.45593999997E+02  0.45594000000E+02  0.51100000000E-03 0. -1.
         11   -1    0    0    0    0 -0.00000000000E+00 -0.00000000000E+00 -0.45593999997E+02  0.45594000000E+02  0.51100000000E-03 0.  1.
    9900012    2    1    2    0    0 -0.18919525743E+02 -0.35979379226E+02  0.83748923904E+00  0.50528861149E+02  0.30000003950E+02 0.  0.
         12    1    1    2    0    0  0.18919525743E+02  0.35979379226E+02 -0.83748923904E+00  0.40659138851E+02  0.00000000000E+00 0. -1.
         11    1    3    3    0    0 -0.16135544426E+00 -0.41258540789E+01  0.60063538880E+01  0.72886895083E+01  0.51100000000E-03 0. -1.
        -11    1    3    3    0    0 -0.15988044266E+02 -0.24120531497E+02  0.58229364046E+01  0.29518200958E+02  0.51100000000E-03 0.  1.
        -12    1    3    3    0    0 -0.27701260331E+01 -0.77329936498E+01 -0.10991801054E+02  0.13721970683E+02  0.00000000000E+00 0.  1.
</event>
<event>
 7    1  0.5456331E-013  0.5052885E+02  0.7816164E-02  0.1300439E+00
        -11   -1    0    0    0    0  0.00000000000E+00  0.00000000000E+00  0.45593999997E+02  0.45594000000E+02  0.51100000000E-03 0.  1.
         11   -1    0    0    0    0 -0.00000000000E+00 -0.00000000000E+00 -0.45593999997E+02  0.45594000000E+02  0.51100000000E-03 0. -1.
    9900012    2    1    2    0    0 -0.22101108488E+02  0.19514958310E+02  0.27997748619E+02  0.50528849468E+02  0.29999968444E+02 0.  0.
         12    1    1    2    0    0  0.22101108488E+02 -0.19514958310E+02 -0.27997748619E+02  0.40659150532E+02  0.00000000000E+00 0. -1.
         11    1    3    3    0    0 -0.36076599370E+01 -0.54445406805E+01  0.15011891631E+02  0.16371167462E+02  0.51100000000E-03 0.  1.
        -11    1    3    3    0    0 -0.50240817950E+01  0.96966809171E+01  0.68718294741E+01  0.12903063949E+02  0.51100000000E-03 0. -1.
        -12    1    3    3    0    0 -0.13469366756E+02  0.15262818073E+02  0.61140275138E+01  0.21254618058E+02  0.00000000000E+00 0.  1.
</event>
<event>
 7    1  0.5456331E-013  0.5052885E+02  0.7816164E-02  0.1300439E+00
        -11   -1    0    0    0    0  0.00000000000E+00  0.00000000000E+00  0.45593999997E+02  0.45594000000E+02  0.51100000000E-03 0.  1.
         11   -1    0    0    0    0 -0.00000000000E+00 -0.00000000000E+00 -0.45593999997E+02  0.45594000000E+02  0.51100000000E-03 0. -1.
    9900012    2    1    2    0    0  0.69889362460E+01  0.17096504821E+02  0.36221963203E+02  0.50528851888E+02  0.29999975798E+02 0.  0.
         12    1    1    2    0    0 -0.69889362460E+01 -0.17096504821E+02 -0.36221963203E+02  0.40659148112E+02  0.00000000000E+00 0. -1.
         11    1    3    3    0    0  0.31622443358E+00  0.61345754633E+01  0.82932307404E+01  0.10320401658E+02  0.51100000000E-03 0.  1.
        -11    1    3    3    0    0  0.27811434810E+01 -0.67859895836E+01  0.55678686882E+00  0.73548912684E+01  0.51100000000E-03 0. -1.
         12    1    3    3    0    0  0.38915683314E+01  0.17747918942E+02  0.27371945594E+02  0.32853558961E+02  0.00000000000E+00 0. -1.
</event>
<event>
 7    1  0.5456331E-013  0.5052887E+02  0.7816164E-02  0.1300439E+00
        -11   -1    0    0    0    0  0.00000000000E+00  0.00000000000E+00  0.45593999997E+02  0.45594000000E+02  0.51100000000E-03 0.  1.
         11   -1    0    0    0    0 -0.00000000000E+00 -0.00000000000E+00 -0.45593999997E+02  0.45594000000E+02  0.51100000000E-03 0. -1.
    9900012    2    1    2    0    0 -0.71142493198E+01  0.93273930945E+01  0.38930096330E+02  0.50528865656E+02  0.30000017649E+02 0.  0.
         12    1    1    2    0    0  0.71142493198E+01 -0.93273930945E+01 -0.38930096330E+02  0.40659134344E+02  0.00000000000E+00 0. -1.
         11    1    3    3    0    0  0.47076167102E+00  0.13936142592E+02  0.26476780772E+02  0.29924197686E+02  0.51100000000E-03 0. -1.
        -11    1    3    3    0    0 -0.15886968007E+01 -0.58061021788E+01  0.13138395060E+02  0.14451719796E+02  0.51100000000E-03 0.  1.
         12    1    3    3    0    0 -0.59963141901E+01  0.11973526817E+01 -0.68507950224E+00  0.61529481742E+01  0.00000000000E+00 0. -1.
</event>
<event>
 7    1  0.5456331E-013  0.5052900E+02  0.7816164E-02  0.1300438E+00
        -11   -1    0    0    0    0  0.00000000000E+00  0.00000000000E+00  0.45593999997E+02  0.45594000000E+02  0.51100000000E-03 0. -1.
         11   -1    0    0    0    0 -0.00000000000E+00 -0.00000000000E+00 -0.45593999997E+02  0.45594000000E+02  0.51100000000E-03 0.  1.
    9900012    2    1    2    0    0 -0.17632877254E+01 -0.40443437965E+02 -0.37911852790E+01  0.50529004146E+02  0.30000438600E+02 0.  0.
         12    1    1    2    0    0  0.17632877254E+01  0.40443437965E+02  0.37911852790E+01  0.40658995854E+02  0.00000000000E+00 0. -1.
         11    1    3    3    0    0 -0.12699365455E+01 -0.74384243261E+00 -0.15598300248E+00  0.14799903217E+01  0.51100000000E-03 0. -1.
        -11    1    3    3    0    0 -0.20280407927E+01 -0.26401307503E+02 -0.15906151195E+02  0.30889280234E+02  0.51100000000E-03 0.  1.
         12    1    3    3    0    0  0.15346896128E+01 -0.13298288029E+02  0.12270948918E+02  0.18159733590E+02  0.00000000000E+00 0. -1.
</event>
<event>
 7    1  0.5456331E-013  0.5052886E+02  0.7816164E-02  0.1300439E+00
        -11   -1    0    0    0    0  0.00000000000E+00  0.00000000000E+00  0.45593999997E+02  0.45594000000E+02  0.51100000000E-03 0. -1.
         11   -1    0    0    0    0 -0.00000000000E+00 -0.00000000000E+00 -0.45593999997E+02  0.45594000000E+02  0.51100000000E-03 0.  1.
    9900012    2    1    2    0    0 -0.30417038731E+01 -0.31387984247E+02 -0.25665313666E+02  0.50528857816E+02  0.29999993817E+02 0.  0.
         12    1    1    2    0    0  0.30417038731E+01  0.31387984247E+02  0.25665313666E+02  0.40659142184E+02  0.00000000000E+00 0. -1.
         11    1    3    3    0    0 -0.22510650603E+01 -0.17621790223E+02 -0.11941894162E+02  0.21405691322E+02  0.51100000000E-03 0. -1.
        -11    1    3    3    0    0  0.61520803640E-01 -0.14984293734E+02 -0.18680640097E+02  0.23947842454E+02  0.51100000000E-03 0.  1.
         12    1    3    3    0    0 -0.85215961647E+00  0.12180997099E+01  0.49572205921E+01  0.51753240395E+01  0.00000000000E+00 0. -1.
</event>
<event>
 7    1  0.5456331E-013  0.5052886E+02  0.7816164E-02  0.1300439E+00
        -11   -1    0    0    0    0  0.00000000000E+00  0.00000000000E+00  0.45593999997E+02  0.45594000000E+02  0.51100000000E-03 0.  1.
         11   -1    0    0    0    0 -0.00000000000E+00 -0.00000000000E+00 -0.45593999997E+02  0.45594000000E+02  0.51100000000E-03 0. -1.
    9900012    2    1    2    0    0 -0.21061325417E+01 -0.34734099468E+01  0.40455718739E+02  0.50528861426E+02  0.30000004789E+02 0.  0.
         12    1    1    2    0    0  0.21061325417E+01  0.34734099468E+01 -0.40455718739E+02  0.40659138574E+02  0.00000000000E+00 0. -1.
         11    1    3    3    0    0 -0.47250357717E+01  0.48827418429E+01  0.12477015173E+00  0.67957853704E+01  0.51100000000E-03 0. -1.
        -11    1    3    3    0    0  0.24269906370E+01 -0.55004543668E+00 -0.16230372814E+00  0.24938276395E+01  0.51100000000E-03 0.  1.
        -12    1    3    3    0    0  0.19191259307E+00 -0.78061063529E+01  0.40493252315E+02  0.41239248416E+02  0.00000000000E+00 0.  1.
</event>
<event>
 7    1  0.5456331E-013  0.5052886E+02  0.7816164E-02  0.1300439E+00
        -11   -1    0    0    0    0  0.00000000000E+00  0.00000000000E+00  0.45593999997E+02  0.45594000000E+02  0.51100000000E-03 0.  1.
         11   -1    0    0    0    0 -0.00000000000E+00 -0.00000000000E+00 -0.45593999997E+02  0.45594000000E+02  0.51100000000E-03 0. -1.
    9900012    2    1    2    0    0 -0.22998272556E+02  0.91490333015E+01  0.32257411121E+02  0.50528856832E+02  0.29999990827E+02 0.  0.
         12    1    1    2    0    0  0.22998272556E+02 -0.91490333015E+01 -0.32257411121E+02  0.40659143168E+02  0.00000000000E+00 0. -1.
         11    1    3    3    0    0 -0.64635303779E+01 -0.53959256456E+01  0.12875938570E+02  0.15384506259E+02  0.51100000000E-03 0. -1.
        -11    1    3    3    0    0 -0.15671127321E+02  0.14275431478E+02  0.23079395634E+02  0.31337368723E+02  0.51100000000E-03 0.  1.
         12    1    3    3    0    0 -0.86361485719E+00  0.26952746950E+00 -0.36979230832E+01  0.38069818502E+01  0.00000000000E+00 0. -1.
</event>
<event>
 7    1  0.5456331E-013  0.5052886E+02  0.7816164E-02  0.1300439E+00
        -11   -1    0    0    0    0  0.00000000000E+00  0.00000000000E+00  0.45593999997E+02  0.45594000000E+02  0.51100000000E-03 0.  1.
         11   -1    0    0    0    0 -0.00000000000E+00 -0.00000000000E+00 -0.45593999997E+02  0.45594000000E+02  0.51100000000E-03 0. -1.
    9900012    2    1    2    0    0  0.32570780279E+02  0.13095260160E+02  0.20513996123E+02  0.50528860762E+02  0.30000002773E+02 0.  0.
         12    1    1    2    0    0 -0.32570780279E+02 -0.13095260160E+02 -0.20513996123E+02  0.40659139238E+02  0.00000000000E+00 0. -1.
         11    1    3    3    0    0  0.82514621670E+01  0.24670666275E+01 -0.36147390298E+01  0.93402025756E+01  0.51100000000E-03 0. -1.
        -11    1    3    3    0    0  0.23719976057E+02  0.10372377450E+01  0.17944886883E+02  0.29761251516E+02  0.51100000000E-03 0.  1.
        -12    1    3    3    0    0  0.59934205528E+00  0.95909557874E+01  0.61838482691E+01  0.11427406671E+02  0.00000000000E+00 0.  1.
</event>
<event>
 7    1  0.5456331E-013  0.5052886E+02  0.7816164E-02  0.1300439E+00
        -11   -1    0    0    0    0  0.00000000000E+00  0.00000000000E+00  0.45593999997E+02  0.45594000000E+02  0.51100000000E-03 0. -1.
         11   -1    0    0    0    0 -0.00000000000E+00 -0.00000000000E+00 -0.45593999997E+02  0.45594000000E+02  0.51100000000E-03 0.  1.
    9900012    2    1    2    0    0 -0.26275359387E+02  0.18949561183E+02 -0.24570007788E+02  0.50528860036E+02  0.30000000564E+02 0.  0.
         12    1    1    2    0    0  0.26275359387E+02 -0.18949561183E+02  0.24570007788E+02  0.40659139964E+02  0.00000000000E+00 0. -1.
         11    1    3    3    0    0 -0.38278240951E+00  0.73212244543E+01 -0.10772747667E+02  0.13030692324E+02  0.51100000000E-03 0. -1.
        -11    1    3    3    0    0 -0.90741130989E+01  0.13845408807E+02 -0.11986194431E+02  0.20437801515E+02  0.51100000000E-03 0.  1.
        -12    1    3    3    0    0 -0.16818463879E+02 -0.22170720779E+01 -0.18110656896E+01  0.17060366197E+02  0.00000000000E+00 0.  1.
</event>
<event>
 7    1  0.5456331E-013  0.5052885E+02  0.7816164E-02  0.1300439E+00
        -11   -1    0    0    0    0  0.00000000000E+00  0.00000000000E+00  0.45593999997E+02  0.45594000000E+02  0.51100000000E-03 0.  1.
         11   -1    0    0    0    0 -0.00000000000E+00 -0.00000000000E+00 -0.45593999997E+02  0.45594000000E+02  0.51100000000E-03 0. -1.
    9900012    2    1    2    0    0  0.31161785426E+02 -0.23337413334E+02  0.11724965397E+02  0.50528849178E+02  0.29999967561E+02 0.  0.
         12    1    1    2    0    0 -0.31161785426E+02  0.23337413334E+02 -0.11724965397E+02  0.40659150822E+02  0.00000000000E+00 0. -1.
         11    1    3    3    0    0  0.32770890307E+01 -0.45501071677E+00 -0.33791798111E+01  0.47291863702E+01  0.51100000000E-03 0. -1.
        -11    1    3    3    0    0  0.18128230885E+02 -0.10546756970E+02 -0.36877217621E+01  0.21294744179E+02  0.51100000000E-03 0.  1.
        -12    1    3    3    0    0  0.97564655105E+01 -0.12335645646E+02  0.18791866970E+02  0.24504918628E+02  0.00000000000E+00 0.  1.
</event>
<event>
 7    1  0.5456331E-013  0.5052886E+02  0.7816164E-02  0.1300439E+00
        -11   -1    0    0    0    0  0.00000000000E+00  0.00000000000E+00  0.45593999997E+02  0.45594000000E+02  0.51100000000E-03 0.  1.
         11   -1    0    0    0    0 -0.00000000000E+00 -0.00000000000E+00 -0.45593999997E+02  0.45594000000E+02  0.51100000000E-03 0. -1.
    9900012    2    1    2    0    0 -0.39588296910E+02 -0.35014515006E+01  0.85832704083E+01  0.50528856554E+02  0.29999989981E+02 0.  0.
         12    1    1    2    0    0  0.39588296910E+02  0.35014515006E+01 -0.85832704083E+01  0.40659143446E+02  0.00000000000E+00 0. -1.
         11    1    3    3    0    0 -0.12427352314E+02  0.34514684517E+01  0.41943254138E+01  0.13562598790E+02  0.51100000000E-03 0. -1.
        -11    1    3    3    0    0 -0.12954501215E+02 -0.37097005592E+01  0.14061865630E+02  0.19476063391E+02  0.51100000000E-03 0.  1.
        -12    1    3    3    0    0 -0.14206443382E+02 -0.32432193931E+01 -0.96729206351E+01  0.17490194373E+02  0.00000000000E+00 0.  1.
</event>
<event>
 7    1  0.5456331E-013  0.5052890E+02  0.7816164E-02  0.1300439E+00
        -11   -1    0    0    0    0  0.00000000000E+00  0.00000000000E+00  0.45593999997E+02  0.45594000000E+02  0.51100000000E-03 0.  1.
         11   -1    0    0    0    0 -0.00000000000E+00 -0.00000000000E+00 -0.45593999997E+02  0.45594000000E+02  0.51100000000E-03 0. -1.
    9900012    2    1    2    0    0 -0.54057747104E+01  0.36268143840E+01  0.40134605228E+02  0.50528896227E+02  0.30000110571E+02 0.  0.
         12    1    1    2    0    0  0.54057747104E+01 -0.36268143840E+01 -0.40134605228E+02  0.40659103773E+02  0.00000000000E+00 0. -1.
         11    1    3    3    0    0  0.37600254926E+01  0.18333527865E+01  0.51261019335E-01  0.41834916156E+01  0.51100000000E-03 0. -1.
        -11    1    3    3    0    0  0.50335936336E+00 -0.66836613618E+01  0.34864967913E+01  0.75551545308E+01  0.51100000000E-03 0.  1.
        -12    1    3    3    0    0 -0.96691595664E+01  0.84771229593E+01  0.36596847418E+02  0.38790250080E+02  0.00000000000E+00 0.  1.
</event>
<event>
 7    1  0.5456331E-013  0.5052886E+02  0.7816164E-02  0.1300439E+00
        -11   -1    0    0    0    0  0.00000000000E+00  0.00000000000E+00  0.45593999997E+02  0.45594000000E+02  0.51100000000E-03 0. -1.
         11   -1    0    0    0    0 -0.00000000000E+00 -0.00000000000E+00 -0.45593999997E+02  0.45594000000E+02  0.51100000000E-03 0.  1.
    9900012    2    1    2    0    0  0.33845477002E+02  0.21138020879E+02  0.77995944465E+01  0.50528856948E+02  0.29999991179E+02 0.  0.
         12    1    1    2    0    0 -0.33845477002E+02 -0.21138020879E+02 -0.77995944465E+01  0.40659143052E+02  0.00000000000E+00 0. -1.
         11    1    3    3    0    0 -0.14224132008E+01  0.62746100546E+01  0.46776823440E+01  0.79545397745E+01  0.51100000000E-03 0. -1.
        -11    1    3    3    0    0  0.73812448435E+01  0.40131999641E+00  0.78775263939E+01  0.10802742963E+02  0.51100000000E-03 0.  1.
        -12    1    3    3    0    0  0.27886645359E+02  0.14462090828E+02 -0.47556142915E+01  0.31771574210E+02  0.00000000000E+00 0.  1.
</event>
<event>
 7    1  0.5456331E-013  0.5052886E+02  0.7816164E-02  0.1300439E+00
        -11   -1    0    0    0    0  0.00000000000E+00  0.00000000000E+00  0.45593999997E+02  0.45594000000E+02  0.51100000000E-03 0. -1.
         11   -1    0    0    0    0 -0.00000000000E+00 -0.00000000000E+00 -0.45593999997E+02  0.45594000000E+02  0.51100000000E-03 0.  1.
    9900012    2    1    2    0    0 -0.12248184508E+02 -0.26739684094E+02 -0.28073777987E+02  0.50528859088E+02  0.29999997685E+02 0.  0.
         12    1    1    2    0    0  0.12248184508E+02  0.26739684094E+02  0.28073777987E+02  0.40659140912E+02  0.00000000000E+00 0. -1.
         11    1    3    3    0    0 -0.79369809354E+01 -0.20620523186E+02 -0.15941549568E+02  0.27245818867E+02  0.51100000000E-03 0.  1.
        -11    1    3    3    0    0 -0.18543233250E+01 -0.12079922008E+02 -0.11539812125E+02  0.16808637507E+02  0.51100000000E-03 0. -1.
         12    1    3    3    0    0 -0.24568802476E+01  0.59607610998E+01 -0.59241629461E+00  0.64744027142E+01  0.00000000000E+00 0. -1.
</event>
<event>
 7    1  0.5456331E-013  0.5052886E+02  0.7816164E-02  0.1300439E+00
        -11   -1    0    0    0    0  0.00000000000E+00  0.00000000000E+00  0.45593999997E+02  0.45594000000E+02  0.51100000000E-03 0.  1.
         11   -1    0    0    0    0 -0.00000000000E+00 -0.00000000000E+00 -0.45593999997E+02  0.45594000000E+02  0.51100000000E-03 0. -1.
    9900012    2    1    2    0    0  0.14547608776E+02 -0.68001552982E+00  0.37961430260E+02  0.50528861671E+02  0.30000005536E+02 0.  0.
         12    1    1    2    0    0 -0.14547608776E+02  0.68001552982E+00 -0.37961430260E+02  0.40659138329E+02  0.00000000000E+00 0. -1.
         11    1    3    3    0    0  0.40586106430E+01  0.62301312303E+01  0.47346800512E+01  0.88149901275E+01  0.51100000000E-03 0. -1.
        -11    1    3    3    0    0 -0.10081871147E+01  0.18842116599E+01 -0.24270403617E+01  0.32337625169E+01  0.51100000000E-03 0.  1.
        -12    1    3    3    0    0  0.11497185248E+02 -0.87943584200E+01  0.35653790571E+02  0.38480109027E+02  0.00000000000E+00 0.  1.
</event>
<event>
 7    1  0.5456331E-013  0.5052887E+02  0.7816164E-02  0.1300439E+00
        -11   -1    0    0    0    0  0.00000000000E+00  0.00000000000E+00  0.45593999997E+02  0.45594000000E+02  0.51100000000E-03 0. -1.
         11   -1    0    0    0    0 -0.00000000000E+00 -0.00000000000E+00 -0.45593999997E+02  0.45594000000E+02  0.51100000000E-03 0.  1.
    9900012    2    1    2    0    0 -0.30060720114E+02 -0.26508220464E+02 -0.68434132136E+01  0.50528868795E+02  0.30000027189E+02 0.  0.
         12    1    1    2    0    0  0.30060720114E+02  0.26508220464E+02  0.68434132136E+01  0.40659131205E+02  0.00000000000E+00 0. -1.
         11    1    3    3    0    0 -0.17866147613E+02 -0.19136400454E+02 -0.61641452441E+01  0.26896054352E+02  0.51100000000E-03 0. -1.
        -11    1    3    3    0    0 -0.16090735339E+02 -0.87693113152E+01 -0.34563734544E+01  0.18648300255E+02  0.51100000000E-03 0.  1.
         12    1    3    3    0    0  0.38961628380E+01  0.13974913052E+01  0.27771054848E+01  0.49845141872E+01  0.00000000000E+00 0. -1.
</event>
<event>
 7    1  0.5456331E-013  0.5052887E+02  0.7816164E-02  0.1300439E+00
        -11   -1    0    0    0    0  0.00000000000E+00  0.00000000000E+00  0.45593999997E+02  0.45594000000E+02  0.51100000000E-03 0.  1.
         11   -1    0    0    0    0 -0.00000000000E+00 -0.00000000000E+00 -0.45593999997E+02  0.45594000000E+02  0.51100000000E-03 0. -1.
    9900012    2    1    2    0    0 -0.33459714818E+02 -0.71004699932E+01  0.21981718059E+02  0.50528866725E+02  0.30000020898E+02 0.  0.
         12    1    1    2    0    0  0.33459714818E+02  0.71004699932E+01 -0.21981718059E+02  0.40659133275E+02  0.00000000000E+00 0. -1.
         11    1    3    3    0    0 -0.71727618341E+01 -0.46746928465E+01 -0.50392614437E+01  0.99345569452E+01  0.51100000000E-03 0. -1.
        -11    1    3    3    0    0 -0.19120203128E+02  0.70819181683E+00  0.94051952164E+01  0.21319976563E+02  0.51100000000E-03 0.  1.
         12    1    3    3    0    0 -0.71667498555E+01 -0.31339689635E+01  0.17615784286E+02  0.19274333217E+02  0.00000000000E+00 0. -1.
</event>
<event>
 7    1  0.5456331E-013  0.5052886E+02  0.7816164E-02  0.1300439E+00
        -11   -1    0    0    0    0  0.00000000000E+00  0.00000000000E+00  0.45593999997E+02  0.45594000000E+02  0.51100000000E-03 0.  1.
         11   -1    0    0    0    0 -0.00000000000E+00 -0.00000000000E+00 -0.45593999997E+02  0.45594000000E+02  0.51100000000E-03 0. -1.
    9900012    2    1    2    0    0 -0.35010500473E+02 -0.10992232573E+02  0.17510046502E+02  0.50528855286E+02  0.29999986129E+02 0.  0.
         12    1    1    2    0    0  0.35010500473E+02  0.10992232573E+02 -0.17510046502E+02  0.40659144714E+02  0.00000000000E+00 0. -1.
         11    1    3    3    0    0 -0.24626500092E+00 -0.50659151435E+01  0.62246376526E+01  0.80293372615E+01  0.51100000000E-03 0. -1.
        -11    1    3    3    0    0 -0.15618481412E+02 -0.73543544774E+01  0.15088124853E+02  0.22927603521E+02  0.51100000000E-03 0.  1.
        -12    1    3    3    0    0 -0.19145754060E+02  0.14280370479E+01 -0.38027160027E+01  0.19571914504E+02  0.00000000000E+00 0.  1.
</event>
<event>
 7    1  0.5456331E-013  0.5052886E+02  0.7816164E-02  0.1300439E+00
        -11   -1    0    0    0    0  0.00000000000E+00  0.00000000000E+00  0.45593999997E+02  0.45594000000E+02  0.51100000000E-03 0. -1.
         11   -1    0    0    0    0 -0.00000000000E+00 -0.00000000000E+00 -0.45593999997E+02  0.45594000000E+02  0.51100000000E-03 0.  1.
    9900012    2    1    2    0    0 -0.35558861889E+02  0.16301346038E+02 -0.11090495229E+02  0.50528860487E+02  0.30000001938E+02 0.  0.
         12    1    1    2    0    0  0.35558861889E+02 -0.16301346038E+02  0.11090495229E+02  0.40659139513E+02  0.00000000000E+00 0. -1.
         11    1    3    3    0    0 -0.52385029329E+01  0.49753416649E+01 -0.18654193249E+01  0.74616169279E+01  0.51100000000E-03 0. -1.
        -11    1    3    3    0    0 -0.22677808857E+02  0.19008620848E+02 -0.11918766657E+02  0.31900904062E+02  0.51100000000E-03 0.  1.
         12    1    3    3    0    0 -0.76425500987E+01 -0.76826164744E+01  0.26936907527E+01  0.11166339498E+02  0.00000000000E+00 0. -1.
</event>
<event>
 7    1  0.5456331E-013  0.5052887E+02  0.7816164E-02  0.1300439E+00
        -11   -1    0    0    0    0  0.00000000000E+00  0.00000000000E+00  0.45593999997E+02  0.45594000000E+02  0.51100000000E-03 0.  1.
         11   -1    0    0    0    0 -0.00000000000E+00 -0.00000000000E+00 -0.45593999997E+02  0.45594000000E+02  0.51100000000E-03 0. -1.
    9900012    2    1    2    0    0 -0.14568439474E+02  0.37168028876E+02  0.77112439370E+01  0.50528867172E+02  0.30000022256E+02 0.  0.
         12    1    1    2    0    0  0.14568439474E+02 -0.37168028876E+02 -0.77112439370E+01  0.40659132828E+02  0.00000000000E+00 0. -1.
         11    1    3    3    0    0 -0.79586338153E+01  0.15991217762E+02  0.76660439461E+01  0.19437775792E+02  0.51100000000E-03 0.  1.
        -11    1    3    3    0    0 -0.90200472959E+01  0.66061136041E+01 -0.84853189535E+01  0.14035762472E+02  0.51100000000E-03 0. -1.
         12    1    3    3    0    0  0.24102416367E+01  0.14570697510E+02  0.85305189445E+01  0.17055328907E+02  0.00000000000E+00 0. -1.
</event>
<event>
 7    1  0.5456331E-013  0.5052884E+02  0.7816164E-02  0.1300439E+00
        -11   -1    0    0    0    0  0.00000000000E+00  0.00000000000E+00  0.45593999997E+02  0.45594000000E+02  0.51100000000E-03 0.  1.
         11   -1    0    0    0    0 -0.00000000000E+00 -0.00000000000E+00 -0.45593999997E+02  0.45594000000E+02  0.51100000000E-03 0. -1.
    9900012    2    1    2    0    0  0.15240943834E+02  0.36207024527E+02  0.10484863001E+02  0.50528839332E+02  0.29999937635E+02 0.  0.
         12    1    1    2    0    0 -0.15240943834E+02 -0.36207024527E+02 -0.10484863001E+02  0.40659160668E+02  0.00000000000E+00 0. -1.
         11    1    3    3    0    0 -0.17918872392E+01  0.12145560868E+02  0.99031839782E+01  0.15773349734E+02  0.51100000000E-03 0. -1.
        -11    1    3    3    0    0  0.80791308556E+01  0.24234030515E+02  0.22569673425E+01  0.25644775144E+02  0.51100000000E-03 0.  1.
        -12    1    3    3    0    0  0.89537002176E+01 -0.17256685540E+00 -0.16752883193E+01  0.91107144538E+01  0.00000000000E+00 0.  1.
</event>
<event>
 7    1  0.5456331E-013  0.5052886E+02  0.7816164E-02  0.1300439E+00
        -11   -1    0    0    0    0  0.00000000000E+00  0.00000000000E+00  0.45593999997E+02  0.45594000000E+02  0.51100000000E-03 0.  1.
         11   -1    0    0    0    0 -0.00000000000E+00 -0.00000000000E+00 -0.45593999997E+02  0.45594000000E+02  0.51100000000E-03 0. -1.
    9900012    2    1    2    0    0 -0.39614982904E+01 -0.15293838910E+02  0.37464260463E+02  0.50528858478E+02  0.29999995829E+02 0.  0.
         12    1    1    2    0    0  0.39614982904E+01  0.15293838910E+02 -0.37464260463E+02  0.40659141522E+02  0.00000000000E+00 0. -1.
         11    1    3    3    0    0 -0.54412712754E+01 -0.14097792699E+01  0.12560457637E+01  0.57595626487E+01  0.51100000000E-03 0. -1.
        -11    1    3    3    0    0 -0.36513595766E+01 -0.18389411562E+02  0.21326766498E+02  0.28396018275E+02  0.51100000000E-03 0.  1.
        -12    1    3    3    0    0  0.51311325615E+01  0.45053519222E+01  0.14881448201E+02  0.16373277554E+02  0.00000000000E+00 0.  1.
</event>
<event>
 7    1  0.5456331E-013  0.5052886E+02  0.7816164E-02  0.1300439E+00
        -11   -1    0    0    0    0  0.00000000000E+00  0.00000000000E+00  0.45593999997E+02  0.45594000000E+02  0.51100000000E-03 0. -1.
         11   -1    0    0    0    0 -0.00000000000E+00 -0.00000000000E+00 -0.45593999997E+02  0.45594000000E+02  0.51100000000E-03 0.  1.
    9900012    2    1    2    0    0  0.39893277015E+02 -0.73027027718E+01  0.28918794265E+01  0.50528856066E+02  0.29999988499E+02 0.  0.
         12    1    1    2    0    0 -0.39893277015E+02  0.73027027718E+01 -0.28918794265E+01  0.40659143934E+02  0.00000000000E+00 0. -1.
         11    1    3    3    0    0  0.12412938070E+02 -0.57902772067E+01 -0.24811551915E+01  0.13919930783E+02  0.51100000000E-03 0. -1.
        -11    1    3    3    0    0  0.46285678237E+01  0.85668596963E+01 -0.31256881253E+01  0.10226663761E+02  0.51100000000E-03 0.  1.
         12    1    3    3    0    0  0.22851771121E+02 -0.10079285261E+02  0.84987227433E+01  0.26382261522E+02  0.00000000000E+00 0. -1.
</event>
<event>
 7    1  0.5456331E-013  0.5052886E+02  0.7816164E-02  0.1300439E+00
        -11   -1    0    0    0    0  0.00000000000E+00  0.00000000000E+00  0.45593999997E+02  0.45594000000E+02  0.51100000000E-03 0.  1.
         11   -1    0    0    0    0 -0.00000000000E+00 -0.00000000000E+00 -0.45593999997E+02  0.45594000000E+02  0.51100000000E-03 0. -1.
    9900012    2    1    2    0    0 -0.11778302069E+02  0.10121947953E+02  0.37576369050E+02  0.50528859072E+02  0.29999997636E+02 0.  0.
         12    1    1    2    0    0  0.11778302069E+02 -0.10121947953E+02 -0.37576369050E+02  0.40659140928E+02  0.00000000000E+00 0. -1.
         11    1    3    3    0    0 -0.16255944597E+02  0.76650467771E+01  0.28093222744E+02  0.33350230003E+02  0.51100000000E-03 0.  1.
        -11    1    3    3    0    0  0.61224211139E+01  0.59126996496E+01  0.19543742287E+01  0.87329053773E+01  0.51100000000E-03 0. -1.
         12    1    3    3    0    0 -0.16447785851E+01 -0.34557984734E+01  0.75287720772E+01  0.84457236915E+01  0.00000000000E+00 0. -1.
</event>
<event>
 7    1  0.5456331E-013  0.5052888E+02  0.7816164E-02  0.1300439E+00
        -11   -1    0    0    0    0  0.00000000000E+00  0.00000000000E+00  0.45593999997E+02  0.45594000000E+02  0.51100000000E-03 0.  1.
         11   -1    0    0    0    0 -0.00000000000E+00 -0.00000000000E+00 -0.45593999997E+02  0.45594000000E+02  0.51100000000E-03 0. -1.
    9900012    2    1    2    0    0 -0.23680608117E+02 -0.14296965169E+02  0.29799149286E+02  0.50528884024E+02  0.30000073478E+02 0.  0.
         12    1    1    2    0    0  0.23680608117E+02  0.14296965169E+02 -0.29799149286E+02  0.40659115976E+02  0.00000000000E+00 0. -1.
         11    1    3    3    0    0  0.84573374025E+00 -0.11291804442E+01  0.24414611332E+01  0.28197600538E+01  0.51100000000E-03 0. -1.
        -11    1    3    3    0    0 -0.11409247675E+02 -0.19983206259E+02  0.22412247106E+02  0.32121772764E+02  0.51100000000E-03 0.  1.
         12    1    3    3    0    0 -0.13117094182E+02  0.68154215342E+01  0.49454410467E+01  0.15587351206E+02  0.00000000000E+00 0. -1.
</event>
<event>
 7    1  0.5456331E-013  0.5052886E+02  0.7816164E-02  0.1300439E+00
        -11   -1    0    0    0    0  0.00000000000E+00  0.00000000000E+00  0.45593999997E+02  0.45594000000E+02  0.51100000000E-03 0.  1.
         11   -1    0    0    0    0 -0.00000000000E+00 -0.00000000000E+00 -0.45593999997E+02  0.45594000000E+02  0.51100000000E-03 0. -1.
    9900012    2    1    2    0    0 -0.23717213502E+01 -0.12014389079E+02  0.38771055210E+02  0.50528864137E+02  0.30000013029E+02 0.  0.
         12    1    1    2    0    0  0.23717213502E+01  0.12014389079E+02 -0.38771055210E+02  0.40659135863E+02  0.00000000000E+00 0. -1.
         11    1    3    3    0    0  0.14856857045E+01  0.52160706260E+01  0.24959179506E+01  0.59702815231E+01  0.51100000000E-03 0. -1.
        -11    1    3    3    0    0 -0.11721392124E+01 -0.22126416867E+01 -0.20962798771E+01  0.32655907813E+01  0.51100000000E-03 0.  1.
        -12    1    3    3    0    0 -0.26852678423E+01 -0.15017818018E+02  0.38371417136E+02  0.41292991832E+02  0.00000000000E+00 0.  1.
</event>
<event>
 7    1  0.5456331E-013  0.5052887E+02  0.7816164E-02  0.1300439E+00
        -11   -1    0    0    0    0  0.00000000000E+00  0.00000000000E+00  0.45593999997E+02  0.45594000000E+02  0.51100000000E-03 0.  1.
         11   -1    0    0    0    0 -0.00000000000E+00 -0.00000000000E+00 -0.45593999997E+02  0.45594000000E+02  0.51100000000E-03 0. -1.
    9900012    2    1    2    0    0  0.16598839128E+02 -0.33492756366E+02  0.15996202219E+02  0.50528872183E+02  0.30000037489E+02 0.  0.
         12    1    1    2    0    0 -0.16598839128E+02  0.33492756366E+02 -0.15996202219E+02  0.40659127817E+02  0.00000000000E+00 0. -1.
         11    1    3    3    0    0  0.11072877535E+01 -0.19812447225E+02 -0.82876672707E+00  0.19860664786E+02  0.51100000000E-03 0. -1.
        -11    1    3    3    0    0  0.55370915437E+01 -0.13923639069E+02  0.65289578597E+01  0.16344858478E+02  0.51100000000E-03 0.  1.
         12    1    3    3    0    0  0.99544598305E+01  0.24332992729E+00  0.10296011086E+02  0.14323348919E+02  0.00000000000E+00 0. -1.
</event>
<event>
 7    1  0.5456331E-013  0.5052886E+02  0.7816164E-02  0.1300439E+00
        -11   -1    0    0    0    0  0.00000000000E+00  0.00000000000E+00  0.45593999997E+02  0.45594000000E+02  0.51100000000E-03 0.  1.
         11   -1    0    0    0    0 -0.00000000000E+00 -0.00000000000E+00 -0.45593999997E+02  0.45594000000E+02  0.51100000000E-03 0. -1.
    9900012    2    1    2    0    0  0.33968633496E+02  0.22213614104E+02  0.24192326681E+01  0.50528863267E+02  0.30000010387E+02 0.  0.
         12    1    1    2    0    0 -0.33968633496E+02 -0.22213614104E+02 -0.24192326681E+01  0.40659136733E+02  0.00000000000E+00 0. -1.
         11    1    3    3    0    0  0.29336830901E+01  0.55408576057E+01  0.92795246890E+01  0.11198981123E+02  0.51100000000E-03 0. -1.
        -11    1    3    3    0    0  0.14590992558E+02  0.15258893133E+02  0.81460005533E+00  0.21128049057E+02  0.51100000000E-03 0.  1.
         12    1    3    3    0    0  0.16443957848E+02  0.14138633653E+01 -0.76748920762E+01  0.18201833087E+02  0.00000000000E+00 0. -1.
</event>
<event>
 7    1  0.5456331E-013  0.5052885E+02  0.7816164E-02  0.1300439E+00
        -11   -1    0    0    0    0  0.00000000000E+00  0.00000000000E+00  0.45593999997E+02  0.45594000000E+02  0.51100000000E-03 0. -1.
         11   -1    0    0    0    0 -0.00000000000E+00 -0.00000000000E+00 -0.45593999997E+02  0.45594000000E+02  0.51100000000E-03 0.  1.
    9900012    2    1    2    0    0 -0.41829373072E+00 -0.29142157098E+02 -0.28350066600E+02  0.50528848925E+02  0.29999966791E+02 0.  0.
         12    1    1    2    0    0  0.41829373072E+00  0.29142157098E+02  0.28350066600E+02  0.40659151075E+02  0.00000000000E+00 0. -1.
         11    1    3    3    0    0  0.57738772953E+01 -0.73028719285E-01 -0.14796362773E+02  0.15883178013E+02  0.51100000000E-03 0. -1.
        -11    1    3    3    0    0  0.30155428178E+01 -0.35276846413E+01 -0.29434522090E+01  0.54956317728E+01  0.51100000000E-03 0.  1.
         12    1    3    3    0    0 -0.92077138438E+01 -0.25541443737E+02 -0.10610251618E+02  0.29150039139E+02  0.00000000000E+00 0. -1.
</event>
<event>
 7    1  0.5456331E-013  0.5052883E+02  0.7816164E-02  0.1300439E+00
        -11   -1    0    0    0    0  0.00000000000E+00  0.00000000000E+00  0.45593999997E+02  0.45594000000E+02  0.51100000000E-03 0.  1.
         11   -1    0    0    0    0 -0.00000000000E+00 -0.00000000000E+00 -0.45593999997E+02  0.45594000000E+02  0.51100000000E-03 0. -1.
    9900012    2    1    2    0    0 -0.76754244273E+00 -0.10053369016E+02  0.39389194265E+02  0.50528831602E+02  0.29999914137E+02 0.  0.
         12    1    1    2    0    0  0.76754244273E+00  0.10053369016E+02 -0.39389194265E+02  0.40659168398E+02  0.00000000000E+00 0. -1.
         11    1    3    3    0    0 -0.33752492786E+01 -0.49466034599E+01 -0.30223499534E+01  0.67078903528E+01  0.51100000000E-03 0. -1.
        -11    1    3    3    0    0  0.32701474088E+01 -0.38721676384E+01  0.86144191393E+01  0.99947868244E+01  0.51100000000E-03 0.  1.
        -12    1    3    3    0    0 -0.66244057285E+00 -0.12345979173E+01  0.33797125079E+02  0.33826154425E+02  0.00000000000E+00 0.  1.
</event>
<event>
 7    1  0.5456331E-013  0.5052886E+02  0.7816164E-02  0.1300439E+00
        -11   -1    0    0    0    0  0.00000000000E+00  0.00000000000E+00  0.45593999997E+02  0.45594000000E+02  0.51100000000E-03 0. -1.
         11   -1    0    0    0    0 -0.00000000000E+00 -0.00000000000E+00 -0.45593999997E+02  0.45594000000E+02  0.51100000000E-03 0.  1.
    9900012    2    1    2    0    0 -0.18160708030E+02  0.28584565099E+02 -0.22500593321E+02  0.50528863538E+02  0.30000011210E+02 0.  0.
         12    1    1    2    0    0  0.18160708030E+02 -0.28584565099E+02  0.22500593321E+02  0.40659136462E+02  0.00000000000E+00 0. -1.
         11    1    3    3    0    0  0.34670817617E+01  0.35671935153E+01 -0.38634339650E+01  0.62985433063E+01  0.51100000000E-03 0. -1.
        -11    1    3    3    0    0 -0.47000242062E+01  0.14121708597E+02 -0.18950922589E+02  0.24096687500E+02  0.51100000000E-03 0.  1.
         12    1    3    3    0    0 -0.16927765585E+02  0.10895662986E+02  0.31376323262E+00  0.20133632732E+02  0.00000000000E+00 0. -1.
</event>
<event>
 7    1  0.5456331E-013  0.5052887E+02  0.7816164E-02  0.1300439E+00
        -11   -1    0    0    0    0  0.00000000000E+00  0.00000000000E+00  0.45593999997E+02  0.45594000000E+02  0.51100000000E-03 0. -1.
         11   -1    0    0    0    0 -0.00000000000E+00 -0.00000000000E+00 -0.45593999997E+02  0.45594000000E+02  0.51100000000E-03 0.  1.
    9900012    2    1    2    0    0  0.88475808908E+01  0.38387828460E+02 -0.10062802230E+02  0.50528867567E+02  0.30000023455E+02 0.  0.
         12    1    1    2    0    0 -0.88475808908E+01 -0.38387828460E+02  0.10062802230E+02  0.40659132433E+02  0.00000000000E+00 0. -1.
         11    1    3    3    0    0 -0.74617335237E+00 -0.16965259282E+01  0.24092229874E+01  0.30396267141E+01  0.51100000000E-03 0. -1.
        -11    1    3    3    0    0 -0.29991953649E+01  0.50811713972E+01  0.36590382318E+01  0.69427686586E+01  0.51100000000E-03 0.  1.
        -12    1    3    3    0    0  0.12592949608E+02  0.35003182991E+02 -0.16131063449E+02  0.40546472194E+02  0.00000000000E+00 0.  1.
</event>
<event>
 7    1  0.5456331E-013  0.5052885E+02  0.7816164E-02  0.1300439E+00
        -11   -1    0    0    0    0  0.00000000000E+00  0.00000000000E+00  0.45593999997E+02  0.45594000000E+02  0.51100000000E-03 0. -1.
         11   -1    0    0    0    0 -0.00000000000E+00 -0.00000000000E+00 -0.45593999997E+02  0.45594000000E+02  0.51100000000E-03 0.  1.
    9900012    2    1    2    0    0 -0.46008706718E+01 -0.31831638482E+01 -0.40272397675E+02  0.50528849031E+02  0.29999967113E+02 0.  0.
         12    1    1    2    0    0  0.46008706718E+01  0.31831638482E+01  0.40272397675E+02  0.40659150969E+02  0.00000000000E+00 0. -1.
         11    1    3    3    0    0 -0.63591443602E+01  0.34306574641E+01 -0.66751747811E+01  0.98369754625E+01  0.51100000000E-03 0. -1.
        -11    1    3    3    0    0 -0.28721313498E+01  0.47068989828E+01 -0.25343548265E+02  0.25936450711E+02  0.51100000000E-03 0.  1.
         12    1    3    3    0    0  0.46304050382E+01 -0.11320720295E+02 -0.82536746289E+01  0.14755422857E+02  0.00000000000E+00 0. -1.
</event>
<event>
 7    1  0.5456331E-013  0.5052887E+02  0.7816164E-02  0.1300439E+00
        -11   -1    0    0    0    0  0.00000000000E+00  0.00000000000E+00  0.45593999997E+02  0.45594000000E+02  0.51100000000E-03 0.  1.
         11   -1    0    0    0    0 -0.00000000000E+00 -0.00000000000E+00 -0.45593999997E+02  0.45594000000E+02  0.51100000000E-03 0. -1.
    9900012    2    1    2    0    0  0.38907302759E+02  0.80942150709E+01  0.85947733881E+01  0.50528872425E+02  0.30000038222E+02 0.  0.
         12    1    1    2    0    0 -0.38907302759E+02 -0.80942150709E+01 -0.85947733881E+01  0.40659127575E+02  0.00000000000E+00 0. -1.
         11    1    3    3    0    0  0.76480504785E+01  0.23811405406E+01 -0.48585825208E+01  0.93684753705E+01  0.51100000000E-03 0. -1.
        -11    1    3    3    0    0  0.24661168862E+02  0.87446921771E+01  0.33652742026E+00  0.26167845572E+02  0.51100000000E-03 0.  1.
        -12    1    3    3    0    0  0.65980834187E+01 -0.30316176468E+01  0.13116828489E+02  0.14992551483E+02  0.00000000000E+00 0.  1.
</event>
<event>
 7    1  0.5456331E-013  0.5052886E+02  0.7816164E-02  0.1300439E+00
        -11   -1    0    0    0    0  0.00000000000E+00  0.00000000000E+00  0.45593999997E+02  0.45594000000E+02  0.51100000000E-03 0. -1.
         11   -1    0    0    0    0 -0.00000000000E+00 -0.00000000000E+00 -0.45593999997E+02  0.45594000000E+02  0.51100000000E-03 0.  1.
    9900012    2    1    2    0    0 -0.71157775580E+01 -0.12560325049E+02 -0.38010123117E+02  0.50528861852E+02  0.30000006085E+02 0.  0.
         12    1    1    2    0    0  0.71157775580E+01  0.12560325049E+02  0.38010123117E+02  0.40659138148E+02  0.00000000000E+00 0. -1.
         11    1    3    3    0    0  0.79643206337E+01  0.11565989288E+01 -0.50671097407E+01  0.95101906198E+01  0.51100000000E-03 0. -1.
        -11    1    3    3    0    0 -0.90068296063E+01  0.17787741319E+00 -0.94433208743E+01  0.13051089201E+02  0.51100000000E-03 0.  1.
        -12    1    3    3    0    0 -0.60732685854E+01 -0.13894801391E+02 -0.23499692502E+02  0.27967582031E+02  0.00000000000E+00 0.  1.
</event>
<event>
 7    1  0.5456331E-013  0.5052886E+02  0.7816164E-02  0.1300439E+00
        -11   -1    0    0    0    0  0.00000000000E+00  0.00000000000E+00  0.45593999997E+02  0.45594000000E+02  0.51100000000E-03 0.  1.
         11   -1    0    0    0    0 -0.00000000000E+00 -0.00000000000E+00 -0.45593999997E+02  0.45594000000E+02  0.51100000000E-03 0. -1.
    9900012    2    1    2    0    0 -0.10080176874E+02 -0.63962053021E+01  0.38867008711E+02  0.50528858664E+02  0.29999996394E+02 0.  0.
         12    1    1    2    0    0  0.10080176874E+02  0.63962053021E+01 -0.38867008711E+02  0.40659141336E+02  0.00000000000E+00 0. -1.
         11    1    3    3    0    0 -0.35917629697E+00 -0.10729067240E+01 -0.13428364938E+01  0.17559460587E+01  0.51100000000E-03 0. -1.
        -11    1    3    3    0    0  0.70167667252E+01 -0.72315087782E+01  0.10075503729E+02  0.14249403852E+02  0.51100000000E-03 0.  1.
        -12    1    3    3    0    0 -0.16737767302E+02  0.19082102002E+01  0.30134341476E+02  0.34523508753E+02  0.00000000000E+00 0.  1.
</event>
<event>
 7    1  0.5456331E-013  0.5052889E+02  0.7816164E-02  0.1300439E+00
        -11   -1    0    0    0    0  0.00000000000E+00  0.00000000000E+00  0.45593999997E+02  0.45594000000E+02  0.51100000000E-03 0.  1.
         11   -1    0    0    0    0 -0.00000000000E+00 -0.00000000000E+00 -0.45593999997E+02  0.45594000000E+02  0.51100000000E-03 0. -1.
    9900012    2    1    2    0    0 -0.36246000841E+01 -0.39697802722E+02 -0.80068728707E+01  0.50528889337E+02  0.30000089629E+02 0.  0.
         12    1    1    2    0    0  0.36246000841E+01  0.39697802722E+02  0.80068728707E+01  0.40659110663E+02  0.00000000000E+00 0. -1.
         11    1    3    3    0    0  0.22506375705E+01 -0.56811967177E+01  0.42542518268E+01  0.74458058318E+01  0.51100000000E-03 0. -1.
        -11    1    3    3    0    0 -0.33300534862E+00 -0.25044558997E+02  0.22467033556E+01  0.25147335925E+02  0.51100000000E-03 0.  1.
        -12    1    3    3    0    0 -0.55422323059E+01 -0.89720470073E+01 -0.14507828053E+02  0.17935747580E+02  0.00000000000E+00 0.  1.
</event>
<event>
 7    1  0.5456331E-013  0.5052888E+02  0.7816164E-02  0.1300439E+00
        -11   -1    0    0    0    0  0.00000000000E+00  0.00000000000E+00  0.45593999997E+02  0.45594000000E+02  0.51100000000E-03 0. -1.
         11   -1    0    0    0    0 -0.00000000000E+00 -0.00000000000E+00 -0.45593999997E+02  0.45594000000E+02  0.51100000000E-03 0.  1.
    9900012    2    1    2    0    0 -0.35720121988E+01 -0.84368750563E+01 -0.39613434779E+02  0.50528876217E+02  0.30000049749E+02 0.  0.
         12    1    1    2    0    0  0.35720121988E+01  0.84368750563E+01  0.39613434779E+02  0.40659123783E+02  0.00000000000E+00 0. -1.
         11    1    3    3    0    0 -0.23954367882E+01  0.80915895255E+01 -0.12759676348E+01  0.85346371992E+01  0.51100000000E-03 0. -1.
        -11    1    3    3    0    0 -0.11719270009E+00 -0.40189465792E+01 -0.14573072635E+02  0.15117543188E+02  0.51100000000E-03 0.  1.
        -12    1    3    3    0    0 -0.10593827105E+01 -0.12509518003E+02 -0.23764394509E+02  0.26876695830E+02  0.00000000000E+00 0.  1.
</event>
<event>
 7    1  0.5456331E-013  0.5052879E+02  0.7816164E-02  0.1300439E+00
        -11   -1    0    0    0    0  0.00000000000E+00  0.00000000000E+00  0.45593999997E+02  0.45594000000E+02  0.51100000000E-03 0.  1.
         11   -1    0    0    0    0 -0.00000000000E+00 -0.00000000000E+00 -0.45593999997E+02  0.45594000000E+02  0.51100000000E-03 0. -1.
    9900012    2    1    2    0    0  0.24938499106E+02 -0.31858059076E+02 -0.40381251448E+01  0.50528792919E+02  0.29999796556E+02 0.  0.
         12    1    1    2    0    0 -0.24938499106E+02  0.31858059076E+02  0.40381251448E+01  0.40659207081E+02  0.00000000000E+00 0. -1.
         11    1    3    3    0    0  0.13155994822E+02 -0.21465311803E+02  0.33028119487E+01  0.25391895904E+02  0.51100000000E-03 0. -1.
        -11    1    3    3    0    0  0.11914514992E+02 -0.12172850358E+02  0.55435896929E+00  0.17042337500E+02  0.51100000000E-03 0.  1.
         12    1    3    3    0    0 -0.13201070890E+00  0.17801030844E+01 -0.78952960628E+01  0.80945595148E+01  0.00000000000E+00 0. -1.
</event>
<event>
 7    1  0.5456331E-013  0.5052884E+02  0.7816164E-02  0.1300439E+00
        -11   -1    0    0    0    0  0.00000000000E+00  0.00000000000E+00  0.45593999997E+02  0.45594000000E+02  0.51100000000E-03 0. -1.
         11   -1    0    0    0    0 -0.00000000000E+00 -0.00000000000E+00 -0.45593999997E+02  0.45594000000E+02  0.51100000000E-03 0.  1.
    9900012    2    1    2    0    0 -0.39219951871E+02  0.10662192840E+02 -0.11315162627E+01  0.50528839778E+02  0.29999938988E+02 0.  0.
         12    1    1    2    0    0  0.39219951871E+02 -0.10662192840E+02  0.11315162627E+01  0.40659160222E+02  0.00000000000E+00 0. -1.
         11    1    3    3    0    0 -0.26391765369E+00 -0.11526906630E+01  0.29577469839E+00  0.12189467691E+01  0.51100000000E-03 0. -1.
        -11    1    3    3    0    0 -0.20063066449E+02  0.18705921589E+02 -0.72517209160E+01  0.28372972955E+02  0.51100000000E-03 0.  1.
        -12    1    3    3    0    0 -0.18892967769E+02 -0.68910380859E+01  0.58244299549E+01  0.20936920053E+02  0.00000000000E+00 0.  1.
</event>
<event>
 7    1  0.5456331E-013  0.5052886E+02  0.7816164E-02  0.1300439E+00
        -11   -1    0    0    0    0  0.00000000000E+00  0.00000000000E+00  0.45593999997E+02  0.45594000000E+02  0.51100000000E-03 0.  1.
         11   -1    0    0    0    0 -0.00000000000E+00 -0.00000000000E+00 -0.45593999997E+02  0.45594000000E+02  0.51100000000E-03 0. -1.
    9900012    2    1    2    0    0  0.21450947630E+02  0.33394351856E+02  0.88226898920E+01  0.50528858998E+02  0.29999997410E+02 0.  0.
         12    1    1    2    0    0 -0.21450947630E+02 -0.33394351856E+02 -0.88226898920E+01  0.40659141002E+02  0.00000000000E+00 0. -1.
         11    1    3    3    0    0  0.42445477152E+01  0.56512011074E+01 -0.62648106743E+01  0.94445811081E+01  0.51100000000E-03 0. -1.
        -11    1    3    3    0    0  0.21440270172E+02  0.23434143161E+02  0.10346298418E+02  0.33404941880E+02  0.51100000000E-03 0.  1.
        -12    1    3    3    0    0 -0.42338702576E+01  0.43090075874E+01  0.47412021479E+01  0.76793360100E+01  0.00000000000E+00 0.  1.
</event>
<event>
 7    1  0.5456331E-013  0.5052887E+02  0.7816164E-02  0.1300439E+00
        -11   -1    0    0    0    0  0.00000000000E+00  0.00000000000E+00  0.45593999997E+02  0.45594000000E+02  0.51100000000E-03 0.  1.
         11   -1    0    0    0    0 -0.00000000000E+00 -0.00000000000E+00 -0.45593999997E+02  0.45594000000E+02  0.51100000000E-03 0. -1.
    9900012    2    1    2    0    0 -0.71681361058E+00 -0.16118248914E+02  0.37320948301E+02  0.50528868776E+02  0.30000027131E+02 0.  0.
         12    1    1    2    0    0  0.71681361058E+00  0.16118248914E+02 -0.37320948301E+02  0.40659131224E+02  0.00000000000E+00 0. -1.
         11    1    3    3    0    0 -0.35810260061E+01 -0.32085605754E+01 -0.36157245967E+01  0.60159847774E+01  0.51100000000E-03 0. -1.
        -11    1    3    3    0    0 -0.24331294421E+01  0.91453791343E+00  0.47443303738E+01  0.54097291461E+01  0.51100000000E-03 0.  1.
         12    1    3    3    0    0  0.52973418376E+01 -0.13824226252E+02  0.36192342524E+02  0.39103154852E+02  0.00000000000E+00 0. -1.
</event>
