<event>
 7    1  0.4031943E-009  0.4778727E+02  0.7816164E-02  0.1312668E+00
        -11   -1    0    0    0    0  0.00000000000E+00  0.00000000000E+00  0.45593999997E+02  0.45594000000E+02  0.51100000000E-03 0.  1.
         11   -1    0    0    0    0 -0.00000000000E+00 -0.00000000000E+00 -0.45593999997E+02  0.45594000000E+02  0.51100000000E-03 0. -1.
    9900012    2    1    2    0    0  0.16397193258E+02  0.23081274923E+02 -0.32893921662E+02  0.47787270961E+02  0.19999999618E+02 0.  0.
        -12    1    1    2    0    0 -0.16397193258E+02 -0.23081274923E+02  0.32893921662E+02  0.43400729039E+02  0.00000000000E+00 0.  1.
         11    1    3    3    0    0  0.45343507172E+01  0.20590159707E+01 -0.60721487078E+01  0.78530805029E+01  0.51100000000E-03 0. -1.
        -11    1    3    3    0    0  0.26421707362E+01 -0.13082018742E+01 -0.10178834657E+02  0.10597222918E+02  0.51100000000E-03 0.  1.
         12    1    3    3    0    0  0.92206718049E+01  0.22330460826E+02 -0.16642938298E+02  0.29336967540E+02  0.00000000000E+00 0. -1.
</event>
<event>
 7    1  0.4031943E-009  0.4778727E+02  0.7816164E-02  0.1312668E+00
        -11   -1    0    0    0    0  0.00000000000E+00  0.00000000000E+00  0.45593999997E+02  0.45594000000E+02  0.51100000000E-03 0.  1.
         11   -1    0    0    0    0 -0.00000000000E+00 -0.00000000000E+00 -0.45593999997E+02  0.45594000000E+02  0.51100000000E-03 0. -1.
    9900012    2    1    2    0    0  0.35415780512E+01  0.42952943238E+01 -0.43042202915E+02  0.47787267746E+02  0.19999984960E+02 0.  0.
        -12    1    1    2    0    0 -0.35415780512E+01 -0.42952943238E+01  0.43042202915E+02  0.43400732254E+02  0.00000000000E+00 0.  1.
         11    1    3    3    0    0  0.49939895621E+01  0.25448146595E+01 -0.30202377257E+02  0.30718066437E+02  0.51100000000E-03 0.  1.
        -11    1    3    3    0    0  0.48234153653E+00  0.54575130575E+01 -0.11397394444E+02  0.12645857128E+02  0.51100000000E-03 0. -1.
        -12    1    3    3    0    0 -0.19347530474E+01 -0.37070333933E+01 -0.14424312141E+01  0.44233441806E+01  0.00000000000E+00 0.  1.
</event>
<event>
 7    1  0.4031943E-009  0.4778727E+02  0.7816164E-02  0.1312668E+00
        -11   -1    0    0    0    0  0.00000000000E+00  0.00000000000E+00  0.45593999997E+02  0.45594000000E+02  0.51100000000E-03 0. -1.
         11   -1    0    0    0    0 -0.00000000000E+00 -0.00000000000E+00 -0.45593999997E+02  0.45594000000E+02  0.51100000000E-03 0.  1.
    9900012    2    1    2    0    0 -0.85345921285E+00  0.41863898764E+02  0.11415289728E+02  0.47787271297E+02  0.20000001151E+02 0.  0.
        -12    1    1    2    0    0  0.85345921285E+00 -0.41863898764E+02 -0.11415289728E+02  0.43400728703E+02  0.00000000000E+00 0.  1.
         11    1    3    3    0    0 -0.46087157727E+01  0.24700758825E+02  0.87433433385E+01  0.26604770261E+02  0.51100000000E-03 0. -1.
        -11    1    3    3    0    0  0.37854543900E+01  0.11978437315E+02  0.70421909905E+01  0.14401565181E+02  0.51100000000E-03 0.  1.
         12    1    3    3    0    0 -0.30197830146E-01  0.51847026241E+01 -0.43702446005E+01  0.67809358556E+01  0.00000000000E+00 0. -1.
</event>
<event>
 7    1  0.4031943E-009  0.4778727E+02  0.7816164E-02  0.1312668E+00
        -11   -1    0    0    0    0  0.00000000000E+00  0.00000000000E+00  0.45593999997E+02  0.45594000000E+02  0.51100000000E-03 0.  1.
         11   -1    0    0    0    0 -0.00000000000E+00 -0.00000000000E+00 -0.45593999997E+02  0.45594000000E+02  0.51100000000E-03 0. -1.
    9900012    2    1    2    0    0  0.34361568655E+02 -0.25503976701E+02 -0.72424242087E+01  0.47787274932E+02  0.20000017724E+02 0.  0.
        -12    1    1    2    0    0 -0.34361568655E+02  0.25503976701E+02  0.72424242087E+01  0.43400725068E+02  0.00000000000E+00 0.  1.
         11    1    3    3    0    0  0.20996878346E+02 -0.89927188213E+01 -0.17141764397E+01  0.22905813524E+02  0.51100000000E-03 0. -1.
        -11    1    3    3    0    0  0.13984244106E+01  0.15577175747E+01 -0.20538477237E+01  0.29326379947E+01  0.51100000000E-03 0.  1.
         12    1    3    3    0    0  0.11966265899E+02 -0.18068975455E+02 -0.34744000453E+01  0.21948823413E+02  0.00000000000E+00 0. -1.
</event>
<event>
 7    1  0.4031943E-009  0.4778727E+02  0.7816164E-02  0.1312668E+00
        -11   -1    0    0    0    0  0.00000000000E+00  0.00000000000E+00  0.45593999997E+02  0.45594000000E+02  0.51100000000E-03 0.  1.
         11   -1    0    0    0    0 -0.00000000000E+00 -0.00000000000E+00 -0.45593999997E+02  0.45594000000E+02  0.51100000000E-03 0. -1.
    9900012    2    1    2    0    0  0.38443030397E+02  0.56037164917E+01 -0.19348260017E+02  0.47787269703E+02  0.19999993886E+02 0.  0.
        -12    1    1    2    0    0 -0.38443030397E+02 -0.56037164917E+01  0.19348260017E+02  0.43400730297E+02  0.00000000000E+00 0.  1.
         11    1    3    3    0    0  0.12782354102E+01  0.18576814732E+01  0.31954005337E+01  0.39109399192E+01  0.51100000000E-03 0. -1.
        -11    1    3    3    0    0  0.99881806638E+01 -0.99716895178E+00 -0.65965949941E+01  0.12011376469E+02  0.51100000000E-03 0.  1.
         12    1    3    3    0    0  0.27176614323E+02  0.47432039703E+01 -0.15947065557E+02  0.31864953316E+02  0.00000000000E+00 0. -1.
</event>
<event>
 7    1  0.4031943E-009  0.4778728E+02  0.7816164E-02  0.1312668E+00
        -11   -1    0    0    0    0  0.00000000000E+00  0.00000000000E+00  0.45593999997E+02  0.45594000000E+02  0.51100000000E-03 0.  1.
         11   -1    0    0    0    0 -0.00000000000E+00 -0.00000000000E+00 -0.45593999997E+02  0.45594000000E+02  0.51100000000E-03 0. -1.
    9900012    2    1    2    0    0 -0.38656102770E+02 -0.30307991645E+01 -0.19497245055E+02  0.47787278927E+02  0.20000035939E+02 0.  0.
        -12    1    1    2    0    0  0.38656102770E+02  0.30307991645E+01  0.19497245055E+02  0.43400721073E+02  0.00000000000E+00 0.  1.
         11    1    3    3    0    0 -0.25280886466E+02 -0.59116513752E+01 -0.11630088866E+02  0.28448722463E+02  0.51100000000E-03 0. -1.
        -11    1    3    3    0    0 -0.14271643157E+02 -0.25031890739E+00 -0.73012262178E+01  0.16032790228E+02  0.51100000000E-03 0.  1.
        -12    1    3    3    0    0  0.89642685313E+00  0.31311711181E+01 -0.56592997161E+00  0.33057662359E+01  0.00000000000E+00 0.  1.
</event>
<event>
 7    1  0.4031943E-009  0.4778728E+02  0.7816164E-02  0.1312668E+00
        -11   -1    0    0    0    0  0.00000000000E+00  0.00000000000E+00  0.45593999997E+02  0.45594000000E+02  0.51100000000E-03 0. -1.
         11   -1    0    0    0    0 -0.00000000000E+00 -0.00000000000E+00 -0.45593999997E+02  0.45594000000E+02  0.51100000000E-03 0.  1.
    9900012    2    1    2    0    0  0.27384976078E+02  0.17390843726E+02  0.28831309058E+02  0.47787277169E+02  0.20000027922E+02 0.  0.
        -12    1    1    2    0    0 -0.27384976078E+02 -0.17390843726E+02 -0.28831309058E+02  0.43400722831E+02  0.00000000000E+00 0.  1.
         11    1    3    3    0    0  0.13868177882E+02  0.30419425965E+01  0.11280718687E+02  0.18133791299E+02  0.51100000000E-03 0. -1.
        -11    1    3    3    0    0  0.12556303656E+02  0.47764808417E+01  0.13988604659E+02  0.19394756799E+02  0.51100000000E-03 0.  1.
        -12    1    3    3    0    0  0.96049453983E+00  0.95724202874E+01  0.35619857123E+01  0.10258729070E+02  0.00000000000E+00 0.  1.
</event>
<event>
 7    1  0.4031943E-009  0.4778727E+02  0.7816164E-02  0.1312668E+00
        -11   -1    0    0    0    0  0.00000000000E+00  0.00000000000E+00  0.45593999997E+02  0.45594000000E+02  0.51100000000E-03 0.  1.
         11   -1    0    0    0    0 -0.00000000000E+00 -0.00000000000E+00 -0.45593999997E+02  0.45594000000E+02  0.51100000000E-03 0. -1.
    9900012    2    1    2    0    0 -0.34189487266E+02 -0.18223050730E+02 -0.19560746799E+02  0.47787269214E+02  0.19999991653E+02 0.  0.
        -12    1    1    2    0    0  0.34189487266E+02  0.18223050730E+02  0.19560746799E+02  0.43400730786E+02  0.00000000000E+00 0.  1.
         11    1    3    3    0    0 -0.77594514051E+00 -0.19693320491E+01 -0.69232695012E+01  0.72396146602E+01  0.51100000000E-03 0. -1.
        -11    1    3    3    0    0 -0.11577186105E+02 -0.10959944200E+02 -0.68074478735E+01  0.17334732816E+02  0.51100000000E-03 0.  1.
         12    1    3    3    0    0 -0.21836356021E+02 -0.52937744811E+01 -0.58300294241E+01  0.23212921738E+02  0.00000000000E+00 0. -1.
</event>
<event>
 7    1  0.4031943E-009  0.4778727E+02  0.7816164E-02  0.1312668E+00
        -11   -1    0    0    0    0  0.00000000000E+00  0.00000000000E+00  0.45593999997E+02  0.45594000000E+02  0.51100000000E-03 0.  1.
         11   -1    0    0    0    0 -0.00000000000E+00 -0.00000000000E+00 -0.45593999997E+02  0.45594000000E+02  0.51100000000E-03 0. -1.
    9900012    2    1    2    0    0 -0.24203434164E+02 -0.29359645893E+02 -0.20876504687E+02  0.47787268667E+02  0.19999989159E+02 0.  0.
        -12    1    1    2    0    0  0.24203434164E+02  0.29359645893E+02  0.20876504687E+02  0.43400731333E+02  0.00000000000E+00 0.  1.
         11    1    3    3    0    0 -0.37622280014E+01  0.13953516093E+01 -0.29953496319E+01  0.50073431405E+01  0.51100000000E-03 0.  1.
        -11    1    3    3    0    0  0.16107562083E+01 -0.29567370042E+01 -0.12337431452E+01  0.35859380480E+01  0.51100000000E-03 0. -1.
        -12    1    3    3    0    0 -0.22051962371E+02 -0.27798260498E+02 -0.16647411910E+02  0.39193987478E+02  0.00000000000E+00 0.  1.
</event>
<event>
 7    1  0.4031943E-009  0.4778728E+02  0.7816164E-02  0.1312668E+00
        -11   -1    0    0    0    0  0.00000000000E+00  0.00000000000E+00  0.45593999997E+02  0.45594000000E+02  0.51100000000E-03 0. -1.
         11   -1    0    0    0    0 -0.00000000000E+00 -0.00000000000E+00 -0.45593999997E+02  0.45594000000E+02  0.51100000000E-03 0.  1.
    9900012    2    1    2    0    0 -0.16808665758E+02  0.36206601977E+02  0.17034483026E+02  0.47787275545E+02  0.20000020519E+02 0.  0.
        -12    1    1    2    0    0  0.16808665758E+02 -0.36206601977E+02 -0.17034483026E+02  0.43400724455E+02  0.00000000000E+00 0.  1.
         11    1    3    3    0    0  0.83279890452E+00  0.76102490853E+01  0.11026098115E+02  0.13423274006E+02  0.51100000000E-03 0. -1.
        -11    1    3    3    0    0 -0.30776028067E+01  0.82237726077E+01  0.11774081088E+01  0.88593659511E+01  0.51100000000E-03 0.  1.
         12    1    3    3    0    0 -0.14563861856E+02  0.20372580284E+02  0.48309768029E+01  0.25504635587E+02  0.00000000000E+00 0. -1.
</event>
<event>
 7    1  0.4031943E-009  0.4778727E+02  0.7816164E-02  0.1312668E+00
        -11   -1    0    0    0    0  0.00000000000E+00  0.00000000000E+00  0.45593999997E+02  0.45594000000E+02  0.51100000000E-03 0.  1.
         11   -1    0    0    0    0 -0.00000000000E+00 -0.00000000000E+00 -0.45593999997E+02  0.45594000000E+02  0.51100000000E-03 0. -1.
    9900012    2    1    2    0    0 -0.31947026964E+02  0.20163475343E+02 -0.21364569454E+02  0.47787273074E+02  0.20000009254E+02 0.  0.
        -12    1    1    2    0    0  0.31947026964E+02 -0.20163475343E+02  0.21364569454E+02  0.43400726926E+02  0.00000000000E+00 0.  1.
         11    1    3    3    0    0 -0.12908547661E+02  0.42045940893E-01 -0.40035222472E+01  0.13515197417E+02  0.51100000000E-03 0. -1.
        -11    1    3    3    0    0 -0.46872232453E+01  0.37597198289E+01 -0.92818510643E+01  0.11057048177E+02  0.51100000000E-03 0.  1.
        -12    1    3    3    0    0 -0.14351256058E+02  0.16361709574E+02 -0.80791961421E+01  0.23215027480E+02  0.00000000000E+00 0.  1.
</event>
<event>
 7    1  0.4031943E-009  0.4778728E+02  0.7816164E-02  0.1312668E+00
        -11   -1    0    0    0    0  0.00000000000E+00  0.00000000000E+00  0.45593999997E+02  0.45594000000E+02  0.51100000000E-03 0.  1.
         11   -1    0    0    0    0 -0.00000000000E+00 -0.00000000000E+00 -0.45593999997E+02  0.45594000000E+02  0.51100000000E-03 0. -1.
    9900012    2    1    2    0    0 -0.21361682155E+01 -0.16788950553E+02 -0.39964869908E+02  0.47787275328E+02  0.20000019530E+02 0.  0.
        -12    1    1    2    0    0  0.21361682155E+01  0.16788950553E+02  0.39964869908E+02  0.43400724672E+02  0.00000000000E+00 0.  1.
         11    1    3    3    0    0 -0.14852370584E+01 -0.10414475811E+02 -0.20956102435E+02  0.23448357407E+02  0.51100000000E-03 0. -1.
        -11    1    3    3    0    0 -0.32061575399E+01 -0.91250519418E+01 -0.18028002605E+02  0.20458614257E+02  0.51100000000E-03 0.  1.
        -12    1    3    3    0    0  0.25552263828E+01  0.27505772002E+01 -0.98076486725E+00  0.38803036642E+01  0.00000000000E+00 0.  1.
</event>
<event>
 7    1  0.4031943E-009  0.4778728E+02  0.7816164E-02  0.1312668E+00
        -11   -1    0    0    0    0  0.00000000000E+00  0.00000000000E+00  0.45593999997E+02  0.45594000000E+02  0.51100000000E-03 0.  1.
         11   -1    0    0    0    0 -0.00000000000E+00 -0.00000000000E+00 -0.45593999997E+02  0.45594000000E+02  0.51100000000E-03 0. -1.
    9900012    2    1    2    0    0  0.12064266823E+02 -0.25120134536E+02 -0.33272439480E+02  0.47787275097E+02  0.20000018480E+02 0.  0.
        -12    1    1    2    0    0 -0.12064266823E+02  0.25120134536E+02  0.33272439480E+02  0.43400724903E+02  0.00000000000E+00 0.  1.
         11    1    3    3    0    0 -0.20212905778E+01 -0.10551800887E+01 -0.64266720526E+00  0.23689748874E+01  0.51100000000E-03 0. -1.
        -11    1    3    3    0    0  0.62067508489E+01 -0.22395476584E+02 -0.21346441677E+02  0.31555533589E+02  0.51100000000E-03 0.  1.
         12    1    3    3    0    0  0.78788065516E+01 -0.16694778631E+01 -0.11283330598E+02  0.13862766621E+02  0.00000000000E+00 0. -1.
</event>
<event>
 7    1  0.4031943E-009  0.4778727E+02  0.7816164E-02  0.1312668E+00
        -11   -1    0    0    0    0  0.00000000000E+00  0.00000000000E+00  0.45593999997E+02  0.45594000000E+02  0.51100000000E-03 0. -1.
         11   -1    0    0    0    0 -0.00000000000E+00 -0.00000000000E+00 -0.45593999997E+02  0.45594000000E+02  0.51100000000E-03 0.  1.
    9900012    2    1    2    0    0  0.59834275981E+01  0.42727315151E+02 -0.47115085499E+01  0.47787272141E+02  0.20000005001E+02 0.  0.
        -12    1    1    2    0    0 -0.59834275981E+01 -0.42727315151E+02  0.47115085499E+01  0.43400727859E+02  0.00000000000E+00 0.  1.
         11    1    3    3    0    0  0.11952661764E+02  0.37328512655E+02 -0.27166312654E+01  0.39289490528E+02  0.51100000000E-03 0.  1.
        -11    1    3    3    0    0 -0.29565536699E+01  0.37686429774E+01 -0.15976022118E+01  0.50493774450E+01  0.51100000000E-03 0. -1.
        -12    1    3    3    0    0 -0.30126804956E+01  0.16301595193E+01 -0.39727507261E+00  0.34484041686E+01  0.00000000000E+00 0.  1.
</event>
<event>
 7    1  0.4031943E-009  0.4778727E+02  0.7816164E-02  0.1312668E+00
        -11   -1    0    0    0    0  0.00000000000E+00  0.00000000000E+00  0.45593999997E+02  0.45594000000E+02  0.51100000000E-03 0.  1.
         11   -1    0    0    0    0 -0.00000000000E+00 -0.00000000000E+00 -0.45593999997E+02  0.45594000000E+02  0.51100000000E-03 0. -1.
    9900012    2    1    2    0    0  0.17475103282E+02 -0.35506534530E+02 -0.17819369206E+02  0.47787272495E+02  0.20000006614E+02 0.  0.
        -12    1    1    2    0    0 -0.17475103282E+02  0.35506534530E+02  0.17819369206E+02  0.43400727505E+02  0.00000000000E+00 0.  1.
         11    1    3    3    0    0  0.11222087203E+01 -0.96644072438E+00 -0.33389412438E+01  0.36526550584E+01  0.51100000000E-03 0. -1.
        -11    1    3    3    0    0  0.10244899836E+02 -0.72887349727E+01  0.21866183706E+00  0.12575032542E+02  0.51100000000E-03 0.  1.
         12    1    3    3    0    0  0.61079947249E+01 -0.27251358833E+02 -0.14699089799E+02  0.31559584895E+02  0.00000000000E+00 0. -1.
</event>
<event>
 7    1  0.4031943E-009  0.4778727E+02  0.7816164E-02  0.1312668E+00
        -11   -1    0    0    0    0  0.00000000000E+00  0.00000000000E+00  0.45593999997E+02  0.45594000000E+02  0.51100000000E-03 0. -1.
         11   -1    0    0    0    0 -0.00000000000E+00 -0.00000000000E+00 -0.45593999997E+02  0.45594000000E+02  0.51100000000E-03 0.  1.
    9900012    2    1    2    0    0  0.30621113193E+02  0.27014536419E+02  0.14703251241E+02  0.47787270189E+02  0.19999996100E+02 0.  0.
        -12    1    1    2    0    0 -0.30621113193E+02 -0.27014536419E+02 -0.14703251241E+02  0.43400729811E+02  0.00000000000E+00 0.  1.
         11    1    3    3    0    0  0.11826427342E+02  0.74366777670E+01  0.12545923590E+02  0.18776814397E+02  0.51100000000E-03 0. -1.
        -11    1    3    3    0    0  0.14957569658E+01 -0.10978512846E+01 -0.50033545962E+00  0.19216925292E+01  0.51100000000E-03 0.  1.
        -12    1    3    3    0    0  0.17298928884E+02  0.20675709936E+02  0.26576631104E+01  0.27088763263E+02  0.00000000000E+00 0.  1.
</event>
<event>
 7    1  0.4031943E-009  0.4778726E+02  0.7816164E-02  0.1312668E+00
        -11   -1    0    0    0    0  0.00000000000E+00  0.00000000000E+00  0.45593999997E+02  0.45594000000E+02  0.51100000000E-03 0.  1.
         11   -1    0    0    0    0 -0.00000000000E+00 -0.00000000000E+00 -0.45593999997E+02  0.45594000000E+02  0.51100000000E-03 0. -1.
    9900012    2    1    2    0    0  0.35378842699E+01  0.16406376661E+02 -0.40024217768E+02  0.47787264658E+02  0.19999970883E+02 0.  0.
        -12    1    1    2    0    0 -0.35378842699E+01 -0.16406376661E+02  0.40024217768E+02  0.43400735342E+02  0.00000000000E+00 0.  1.
         11    1    3    3    0    0 -0.32708096812E+01  0.91354859975E+01 -0.13293283794E+02  0.16458028274E+02  0.51100000000E-03 0. -1.
        -11    1    3    3    0    0  0.86388706657E+01  0.23986844083E+01 -0.84438441737E+01  0.12315935935E+02  0.51100000000E-03 0.  1.
         12    1    3    3    0    0 -0.18301767146E+01  0.48722062552E+01 -0.18287089800E+02  0.19013300449E+02  0.00000000000E+00 0. -1.
</event>
<event>
 7    1  0.4031943E-009  0.4778727E+02  0.7816164E-02  0.1312668E+00
        -11   -1    0    0    0    0  0.00000000000E+00  0.00000000000E+00  0.45593999997E+02  0.45594000000E+02  0.51100000000E-03 0. -1.
         11   -1    0    0    0    0 -0.00000000000E+00 -0.00000000000E+00 -0.45593999997E+02  0.45594000000E+02  0.51100000000E-03 0.  1.
    9900012    2    1    2    0    0 -0.36438776555E+02 -0.17498181777E+02  0.15800398639E+02  0.47787269598E+02  0.19999993403E+02 0.  0.
        -12    1    1    2    0    0  0.36438776555E+02  0.17498181777E+02 -0.15800398639E+02  0.43400730402E+02  0.00000000000E+00 0.  1.
         11    1    3    3    0    0 -0.53737754481E+01 -0.12752613034E+01 -0.18726860600E+01  0.58318699658E+01  0.51100000000E-03 0. -1.
        -11    1    3    3    0    0  0.12000064901E+01 -0.22974564748E+01 -0.60353028092E-01  0.25926751780E+01  0.51100000000E-03 0.  1.
        -12    1    3    3    0    0 -0.32265007597E+02 -0.13925463998E+02  0.17733437727E+02  0.39362724454E+02  0.00000000000E+00 0.  1.
</event>
<event>
 7    1  0.4031943E-009  0.4778725E+02  0.7816164E-02  0.1312668E+00
        -11   -1    0    0    0    0  0.00000000000E+00  0.00000000000E+00  0.45593999997E+02  0.45594000000E+02  0.51100000000E-03 0. -1.
         11   -1    0    0    0    0 -0.00000000000E+00 -0.00000000000E+00 -0.45593999997E+02  0.45594000000E+02  0.51100000000E-03 0.  1.
    9900012    2    1    2    0    0  0.12069440149E+02 -0.77105544649E+01  0.40969517978E+02  0.47787246101E+02  0.19999886273E+02 0.  0.
        -12    1    1    2    0    0 -0.12069440149E+02  0.77105544649E+01 -0.40969517978E+02  0.43400753899E+02  0.00000000000E+00 0.  1.
         11    1    3    3    0    0  0.71915974410E-01 -0.52674048459E+00 -0.87017200914E+00  0.10197190947E+01  0.51100000000E-03 0. -1.
        -11    1    3    3    0    0 -0.30498467207E+01  0.11639301394E+01  0.10733450232E+02  0.11218879291E+02  0.51100000000E-03 0.  1.
         12    1    3    3    0    0  0.15047370895E+02 -0.83477441196E+01  0.31106239755E+02  0.35548647716E+02  0.00000000000E+00 0. -1.
</event>
<event>
 7    1  0.4031943E-009  0.4778727E+02  0.7816164E-02  0.1312668E+00
        -11   -1    0    0    0    0  0.00000000000E+00  0.00000000000E+00  0.45593999997E+02  0.45594000000E+02  0.51100000000E-03 0. -1.
         11   -1    0    0    0    0 -0.00000000000E+00 -0.00000000000E+00 -0.45593999997E+02  0.45594000000E+02  0.51100000000E-03 0.  1.
    9900012    2    1    2    0    0  0.43218593447E+02 -0.79097900018E+00  0.38923905647E+01  0.47787272222E+02  0.20000005370E+02 0.  0.
        -12    1    1    2    0    0 -0.43218593447E+02  0.79097900018E+00 -0.38923905647E+01  0.43400727778E+02  0.00000000000E+00 0.  1.
         11    1    3    3    0    0  0.31205322943E+02  0.12635563747E+01 -0.49248299669E+01  0.31616810484E+02  0.51100000000E-03 0. -1.
        -11    1    3    3    0    0  0.16559907163E+01  0.18489029304E+01  0.17795352414E+01  0.30540945033E+01  0.51100000000E-03 0.  1.
         12    1    3    3    0    0  0.10357279788E+02 -0.39034383053E+01  0.70376852902E+01  0.13116367235E+02  0.00000000000E+00 0. -1.
</event>
<event>
 7    1  0.4031943E-009  0.4778727E+02  0.7816164E-02  0.1312668E+00
        -11   -1    0    0    0    0  0.00000000000E+00  0.00000000000E+00  0.45593999997E+02  0.45594000000E+02  0.51100000000E-03 0. -1.
         11   -1    0    0    0    0 -0.00000000000E+00 -0.00000000000E+00 -0.45593999997E+02  0.45594000000E+02  0.51100000000E-03 0.  1.
    9900012    2    1    2    0    0 -0.39626369836E+02  0.17256547975E+02 -0.39478478842E+01  0.47787272618E+02  0.20000007175E+02 0.  0.
        -12    1    1    2    0    0  0.39626369836E+02 -0.17256547975E+02  0.39478478842E+01  0.43400727382E+02  0.00000000000E+00 0.  1.
         11    1    3    3    0    0 -0.13605854665E+02  0.84732404207E+01 -0.94925143532E+00  0.16056654786E+02  0.51100000000E-03 0. -1.
        -11    1    3    3    0    0 -0.12495690312E+01  0.45786974096E+01  0.33577337624E+01  0.58137998772E+01  0.51100000000E-03 0.  1.
         12    1    3    3    0    0 -0.24770946140E+02  0.42046101447E+01 -0.63563302112E+01  0.25916817954E+02  0.00000000000E+00 0. -1.
</event>
<event>
 7    1  0.4031943E-009  0.4778727E+02  0.7816164E-02  0.1312668E+00
        -11   -1    0    0    0    0  0.00000000000E+00  0.00000000000E+00  0.45593999997E+02  0.45594000000E+02  0.51100000000E-03 0. -1.
         11   -1    0    0    0    0 -0.00000000000E+00 -0.00000000000E+00 -0.45593999997E+02  0.45594000000E+02  0.51100000000E-03 0.  1.
    9900012    2    1    2    0    0 -0.25978071797E+02  0.26222726039E+02  0.22828307854E+02  0.47787271726E+02  0.20000003109E+02 0.  0.
        -12    1    1    2    0    0  0.25978071797E+02 -0.26222726039E+02 -0.22828307854E+02  0.43400728274E+02  0.00000000000E+00 0.  1.
         11    1    3    3    0    0  0.66299416871E+00  0.18609665808E+01 -0.15254494348E+01  0.24959475399E+01  0.51100000000E-03 0.  1.
        -11    1    3    3    0    0 -0.67724374303E+01  0.22150368634E+01  0.99418837001E+01  0.12231653560E+02  0.51100000000E-03 0. -1.
         12    1    3    3    0    0 -0.19868628536E+02  0.22146722595E+02  0.14411873588E+02  0.33059670626E+02  0.00000000000E+00 0. -1.
</event>
<event>
 7    1  0.4031943E-009  0.4778727E+02  0.7816164E-02  0.1312668E+00
        -11   -1    0    0    0    0  0.00000000000E+00  0.00000000000E+00  0.45593999997E+02  0.45594000000E+02  0.51100000000E-03 0. -1.
         11   -1    0    0    0    0 -0.00000000000E+00 -0.00000000000E+00 -0.45593999997E+02  0.45594000000E+02  0.51100000000E-03 0.  1.
    9900012    2    1    2    0    0  0.30500334699E+02  0.29469241005E+02  0.92150254971E+01  0.47787271008E+02  0.19999999835E+02 0.  0.
        -12    1    1    2    0    0 -0.30500334699E+02 -0.29469241005E+02 -0.92150254971E+01  0.43400728992E+02  0.00000000000E+00 0.  1.
         11    1    3    3    0    0 -0.28843376588E+00  0.10178134606E+02  0.15181961733E+01  0.10294782075E+02  0.51100000000E-03 0. -1.
        -11    1    3    3    0    0  0.55276325880E+01  0.18206007788E+01 -0.37016097165E-01  0.58198522040E+01  0.51100000000E-03 0.  1.
        -12    1    3    3    0    0  0.25261135876E+02  0.17470505620E+02  0.77338454210E+01  0.31672636729E+02  0.00000000000E+00 0.  1.
</event>
<event>
 7    1  0.5708893E-009  0.4778727E+02  0.7816164E-02  0.1312668E+00
        -11   -1    0    0    0    0  0.00000000000E+00  0.00000000000E+00  0.45593999997E+02  0.45594000000E+02  0.51100000000E-03 0.  1.
         11   -1    0    0    0    0 -0.00000000000E+00 -0.00000000000E+00 -0.45593999997E+02  0.45594000000E+02  0.51100000000E-03 0. -1.
    9900012    2    1    2    0    0 -0.41337947315E+02 -0.32524180953E+01 -0.12814802985E+02  0.47787270890E+02  0.19999999298E+02 0.  0.
        -12    1    1    2    0    0  0.41337947315E+02  0.32524180953E+01  0.12814802985E+02  0.43400729110E+02  0.00000000000E+00 0.  1.
         11    1    3    3    0    0 -0.19994237472E+02 -0.63774438923E+01 -0.44308557161E+01  0.21449331116E+02  0.51100000000E-03 0. -1.
        -11    1    3    3    0    0 -0.79665782863E+00 -0.15708765324E+01  0.21466958838E+01  0.27768003628E+01  0.51100000000E-03 0.  1.
        -12    1    3    3    0    0 -0.20547052014E+02  0.46959023294E+01 -0.10530643152E+02  0.23561139412E+02  0.00000000000E+00 0.  1.
</event>
<event>
 7    1  0.4031943E-009  0.4778728E+02  0.7816164E-02  0.1312668E+00
        -11   -1    0    0    0    0  0.00000000000E+00  0.00000000000E+00  0.45593999997E+02  0.45594000000E+02  0.51100000000E-03 0.  1.
         11   -1    0    0    0    0 -0.00000000000E+00 -0.00000000000E+00 -0.45593999997E+02  0.45594000000E+02  0.51100000000E-03 0. -1.
    9900012    2    1    2    0    0 -0.61244333906E+01 -0.16610953034E+02 -0.39625626984E+02  0.47787276977E+02  0.20000027049E+02 0.  0.
        -12    1    1    2    0    0  0.61244333906E+01  0.16610953034E+02  0.39625626984E+02  0.43400723023E+02  0.00000000000E+00 0.  1.
         11    1    3    3    0    0 -0.24069908164E+01  0.68198078370E+00 -0.45528364687E+01  0.51949035364E+01  0.51100000000E-03 0.  1.
        -11    1    3    3    0    0 -0.18734606497E+01 -0.17432067272E+02 -0.36341608450E+02  0.40349712876E+02  0.51100000000E-03 0. -1.
         12    1    3    3    0    0 -0.18439819245E+01  0.13913345440E+00  0.12688179349E+01  0.22426605646E+01  0.00000000000E+00 0. -1.
</event>
<event>
 7    1  0.4031943E-009  0.4778727E+02  0.7816164E-02  0.1312668E+00
        -11   -1    0    0    0    0  0.00000000000E+00  0.00000000000E+00  0.45593999997E+02  0.45594000000E+02  0.51100000000E-03 0. -1.
         11   -1    0    0    0    0 -0.00000000000E+00 -0.00000000000E+00 -0.45593999997E+02  0.45594000000E+02  0.51100000000E-03 0.  1.
    9900012    2    1    2    0    0  0.26699958013E+02 -0.23515980618E+02  0.24854257758E+02  0.47787271538E+02  0.20000002249E+02 0.  0.
        -12    1    1    2    0    0 -0.26699958013E+02  0.23515980618E+02 -0.24854257758E+02  0.43400728462E+02  0.00000000000E+00 0.  1.
         11    1    3    3    0    0  0.18703806126E+02 -0.16070121515E+02  0.17572732245E+02  0.30280060897E+02  0.51100000000E-03 0. -1.
        -11    1    3    3    0    0  0.64214399857E+01 -0.10579408645E+02  0.51592875400E+01  0.13408095575E+02  0.51100000000E-03 0.  1.
        -12    1    3    3    0    0  0.15747119015E+01  0.31335495419E+01  0.21222379736E+01  0.40991150656E+01  0.00000000000E+00 0.  1.
</event>
<event>
 7    1  0.4031943E-009  0.4778727E+02  0.7816164E-02  0.1312668E+00
        -11   -1    0    0    0    0  0.00000000000E+00  0.00000000000E+00  0.45593999997E+02  0.45594000000E+02  0.51100000000E-03 0.  1.
         11   -1    0    0    0    0 -0.00000000000E+00 -0.00000000000E+00 -0.45593999997E+02  0.45594000000E+02  0.51100000000E-03 0. -1.
    9900012    2    1    2    0    0 -0.33370252183E+02 -0.83445950583E+00 -0.27737225871E+02  0.47787265531E+02  0.19999974862E+02 0.  0.
        -12    1    1    2    0    0  0.33370252183E+02  0.83445950583E+00  0.27737225871E+02  0.43400734469E+02  0.00000000000E+00 0.  1.
         11    1    3    3    0    0 -0.24213767231E+02 -0.10237219454E+01 -0.11764523819E+02  0.26939906293E+02  0.51100000000E-03 0. -1.
        -11    1    3    3    0    0 -0.13138014613E+01  0.30662202256E+01 -0.65457476225E+00  0.33994483571E+01  0.51100000000E-03 0.  1.
         12    1    3    3    0    0 -0.78426834906E+01 -0.28769577860E+01 -0.15318127290E+02  0.17447910881E+02  0.00000000000E+00 0. -1.
</event>
<event>
 7    1  0.4031943E-009  0.4778727E+02  0.7816164E-02  0.1312668E+00
        -11   -1    0    0    0    0  0.00000000000E+00  0.00000000000E+00  0.45593999997E+02  0.45594000000E+02  0.51100000000E-03 0. -1.
         11   -1    0    0    0    0 -0.00000000000E+00 -0.00000000000E+00 -0.45593999997E+02  0.45594000000E+02  0.51100000000E-03 0.  1.
    9900012    2    1    2    0    0 -0.25044405643E+02 -0.51459374859E+01  0.35070218929E+02  0.47787272099E+02  0.20000004808E+02 0.  0.
        -12    1    1    2    0    0  0.25044405643E+02  0.51459374859E+01 -0.35070218929E+02  0.43400727901E+02  0.00000000000E+00 0.  1.
         11    1    3    3    0    0 -0.21261745814E+02  0.15969954282E+00  0.18151250044E+02  0.27956309081E+02  0.51100000000E-03 0. -1.
        -11    1    3    3    0    0 -0.35896778232E+01 -0.49527691459E+01  0.49867893272E+01  0.78920071681E+01  0.51100000000E-03 0.  1.
        -12    1    3    3    0    0 -0.19298200591E+00 -0.35286788284E+00  0.11932179558E+02  0.11938955850E+02  0.00000000000E+00 0.  1.
</event>
<event>
 7    1  0.4031943E-009  0.4778727E+02  0.7816164E-02  0.1312668E+00
        -11   -1    0    0    0    0  0.00000000000E+00  0.00000000000E+00  0.45593999997E+02  0.45594000000E+02  0.51100000000E-03 0.  1.
         11   -1    0    0    0    0 -0.00000000000E+00 -0.00000000000E+00 -0.45593999997E+02  0.45594000000E+02  0.51100000000E-03 0. -1.
    9900012    2    1    2    0    0  0.24349350519E+02  0.21526305455E+02 -0.28763702359E+02  0.47787271082E+02  0.20000000172E+02 0.  0.
        -12    1    1    2    0    0 -0.24349350519E+02 -0.21526305455E+02  0.28763702359E+02  0.43400728918E+02  0.00000000000E+00 0.  1.
         11    1    3    3    0    0  0.18996588670E+02  0.88661545409E+01 -0.10375061604E+02  0.23390617371E+02  0.51100000000E-03 0. -1.
        -11    1    3    3    0    0  0.19144799816E+01  0.62999291433E+01 -0.26892536547E+01  0.71124135349E+01  0.51100000000E-03 0.  1.
         12    1    3    3    0    0  0.34382818673E+01  0.63602217712E+01 -0.15699387100E+02  0.17284240177E+02  0.00000000000E+00 0. -1.
</event>
<event>
 7    1  0.4031943E-009  0.4778729E+02  0.7816164E-02  0.1312668E+00
        -11   -1    0    0    0    0  0.00000000000E+00  0.00000000000E+00  0.45593999997E+02  0.45594000000E+02  0.51100000000E-03 0.  1.
         11   -1    0    0    0    0 -0.00000000000E+00 -0.00000000000E+00 -0.45593999997E+02  0.45594000000E+02  0.51100000000E-03 0. -1.
    9900012    2    1    2    0    0 -0.33094047376E+02 -0.27925432155E+02 -0.29284591808E+01  0.47787290259E+02  0.20000087609E+02 0.  0.
        -12    1    1    2    0    0  0.33094047376E+02  0.27925432155E+02  0.29284591808E+01  0.43400709741E+02  0.00000000000E+00 0.  1.
         11    1    3    3    0    0 -0.59091762478E+01 -0.11182600741E+02 -0.65334661489E+01  0.14235698207E+02  0.51100000000E-03 0. -1.
        -11    1    3    3    0    0 -0.77541960195E+01 -0.79902292177E+01 -0.24427760959E+01  0.11399055846E+02  0.51100000000E-03 0.  1.
        -12    1    3    3    0    0 -0.19430675109E+02 -0.87526021968E+01  0.60477830640E+01  0.22152536207E+02  0.00000000000E+00 0.  1.
</event>
<event>
 7    1  0.4031943E-009  0.4778727E+02  0.7816164E-02  0.1312668E+00
        -11   -1    0    0    0    0  0.00000000000E+00  0.00000000000E+00  0.45593999997E+02  0.45594000000E+02  0.51100000000E-03 0. -1.
         11   -1    0    0    0    0 -0.00000000000E+00 -0.00000000000E+00 -0.45593999997E+02  0.45594000000E+02  0.51100000000E-03 0.  1.
    9900012    2    1    2    0    0  0.24108867288E+02 -0.36087655588E+02  0.25852996928E+00  0.47787271832E+02  0.20000003589E+02 0.  0.
        -12    1    1    2    0    0 -0.24108867288E+02  0.36087655588E+02 -0.25852996928E+00  0.43400728168E+02  0.00000000000E+00 0.  1.
         11    1    3    3    0    0  0.20030358470E+01 -0.78944018581E+01 -0.10172480897E+01  0.82078332853E+01  0.51100000000E-03 0. -1.
        -11    1    3    3    0    0 -0.28133063072E+01 -0.25280411226E+01 -0.46701320707E-01  0.37825739345E+01  0.51100000000E-03 0.  1.
         12    1    3    3    0    0  0.24919137749E+02 -0.25665212608E+02  0.13224793797E+01  0.35796864612E+02  0.00000000000E+00 0. -1.
</event>
<event>
 7    1  0.4031943E-009  0.4778727E+02  0.7816164E-02  0.1312668E+00
        -11   -1    0    0    0    0  0.00000000000E+00  0.00000000000E+00  0.45593999997E+02  0.45594000000E+02  0.51100000000E-03 0. -1.
         11   -1    0    0    0    0 -0.00000000000E+00 -0.00000000000E+00 -0.45593999997E+02  0.45594000000E+02  0.51100000000E-03 0.  1.
    9900012    2    1    2    0    0  0.11410650835E+02  0.38010419761E+02  0.17567823388E+02  0.47787269805E+02  0.19999994348E+02 0.  0.
        -12    1    1    2    0    0 -0.11410650835E+02 -0.38010419761E+02 -0.17567823388E+02  0.43400730195E+02  0.00000000000E+00 0.  1.
         11    1    3    3    0    0  0.92574746217E+01  0.32042019752E+02  0.83761968141E+01  0.34388261652E+02  0.51100000000E-03 0. -1.
        -11    1    3    3    0    0 -0.17019568699E+01  0.22786005203E+01  0.86547403158E-01  0.28453766416E+01  0.51100000000E-03 0.  1.
        -12    1    3    3    0    0  0.38551330833E+01  0.36897994887E+01  0.91050791711E+01  0.10553631511E+02  0.00000000000E+00 0.  1.
</event>
<event>
 7    1  0.4031943E-009  0.4778727E+02  0.7816164E-02  0.1312668E+00
        -11   -1    0    0    0    0  0.00000000000E+00  0.00000000000E+00  0.45593999997E+02  0.45594000000E+02  0.51100000000E-03 0.  1.
         11   -1    0    0    0    0 -0.00000000000E+00 -0.00000000000E+00 -0.45593999997E+02  0.45594000000E+02  0.51100000000E-03 0. -1.
    9900012    2    1    2    0    0 -0.32441088193E+02  0.20140291167E+01 -0.28760084069E+02  0.47787274752E+02  0.20000016904E+02 0.  0.
        -12    1    1    2    0    0  0.32441088193E+02 -0.20140291167E+01  0.28760084069E+02  0.43400725248E+02  0.00000000000E+00 0.  1.
         11    1    3    3    0    0 -0.27339074609E+02 -0.11159478071E+01 -0.18445636509E+02  0.32998664313E+02  0.51100000000E-03 0. -1.
        -11    1    3    3    0    0 -0.58364397589E+01  0.70580039450E+00 -0.21820127210E+01  0.62708343170E+01  0.51100000000E-03 0.  1.
        -12    1    3    3    0    0  0.73442617483E+00  0.24241765293E+01 -0.81324348388E+01  0.85177761217E+01  0.00000000000E+00 0.  1.
</event>
<event>
 7    1  0.4031943E-009  0.4778727E+02  0.7816164E-02  0.1312668E+00
        -11   -1    0    0    0    0  0.00000000000E+00  0.00000000000E+00  0.45593999997E+02  0.45594000000E+02  0.51100000000E-03 0.  1.
         11   -1    0    0    0    0 -0.00000000000E+00 -0.00000000000E+00 -0.45593999997E+02  0.45594000000E+02  0.51100000000E-03 0. -1.
    9900012    2    1    2    0    0 -0.39377404423E+02 -0.11088085023E+02 -0.14494735732E+02  0.47787274516E+02  0.20000015829E+02 0.  0.
        -12    1    1    2    0    0  0.39377404423E+02  0.11088085023E+02  0.14494735732E+02  0.43400725484E+02  0.00000000000E+00 0.  1.
         11    1    3    3    0    0 -0.18788823420E+02 -0.17126928393E+01 -0.86292156292E+01  0.20746483194E+02  0.51100000000E-03 0. -1.
        -11    1    3    3    0    0 -0.58509655081E+01 -0.11394441334E+01  0.42852845002E+01  0.73413754719E+01  0.51100000000E-03 0.  1.
         12    1    3    3    0    0 -0.14737615495E+02 -0.82359480500E+01 -0.10150804603E+02  0.19699415850E+02  0.00000000000E+00 0. -1.
</event>
<event>
 7    1  0.4031943E-009  0.4778727E+02  0.7816164E-02  0.1312668E+00
        -11   -1    0    0    0    0  0.00000000000E+00  0.00000000000E+00  0.45593999997E+02  0.45594000000E+02  0.51100000000E-03 0. -1.
         11   -1    0    0    0    0 -0.00000000000E+00 -0.00000000000E+00 -0.45593999997E+02  0.45594000000E+02  0.51100000000E-03 0.  1.
    9900012    2    1    2    0    0 -0.41610897812E+02  0.82201475813E+01  0.91970306552E+01  0.47787274017E+02  0.20000013553E+02 0.  0.
        -12    1    1    2    0    0  0.41610897812E+02 -0.82201475813E+01 -0.91970306552E+01  0.43400725983E+02  0.00000000000E+00 0.  1.
         11    1    3    3    0    0 -0.37070793378E+02  0.11719897042E+02  0.98671258427E+01  0.40111842154E+02  0.51100000000E-03 0. -1.
        -11    1    3    3    0    0 -0.80457257668E+00  0.11633545431E+01 -0.93357332206E+00  0.16947832406E+01  0.51100000000E-03 0.  1.
         12    1    3    3    0    0 -0.37355318574E+01 -0.46631040042E+01  0.26347813456E+00  0.59806486219E+01  0.00000000000E+00 0. -1.
</event>
<event>
 7    1  0.4031943E-009  0.4778726E+02  0.7816164E-02  0.1312668E+00
        -11   -1    0    0    0    0  0.00000000000E+00  0.00000000000E+00  0.45593999997E+02  0.45594000000E+02  0.51100000000E-03 0.  1.
         11   -1    0    0    0    0 -0.00000000000E+00 -0.00000000000E+00 -0.45593999997E+02  0.45594000000E+02  0.51100000000E-03 0. -1.
    9900012    2    1    2    0    0 -0.30350152518E+02  0.13929478163E+02 -0.27721144763E+02  0.47787262832E+02  0.19999962554E+02 0.  0.
        -12    1    1    2    0    0  0.30350152518E+02 -0.13929478163E+02  0.27721144763E+02  0.43400737168E+02  0.00000000000E+00 0.  1.
         11    1    3    3    0    0 -0.20163643306E+02  0.16296104320E+02 -0.16742176794E+02  0.30861562038E+02  0.51100000000E-03 0. -1.
        -11    1    3    3    0    0 -0.45136756988E+01  0.19190799515E+01 -0.76209537943E+01  0.90628402375E+01  0.51100000000E-03 0.  1.
        -12    1    3    3    0    0 -0.56728335135E+01 -0.42857061085E+01 -0.33580141748E+01  0.78628605557E+01  0.00000000000E+00 0.  1.
</event>
<event>
 7    1  0.4031943E-009  0.4778728E+02  0.7816164E-02  0.1312668E+00
        -11   -1    0    0    0    0  0.00000000000E+00  0.00000000000E+00  0.45593999997E+02  0.45594000000E+02  0.51100000000E-03 0.  1.
         11   -1    0    0    0    0 -0.00000000000E+00 -0.00000000000E+00 -0.45593999997E+02  0.45594000000E+02  0.51100000000E-03 0. -1.
    9900012    2    1    2    0    0 -0.40341624684E+00 -0.40900548359E+02 -0.14512247190E+02  0.47787275130E+02  0.20000018629E+02 0.  0.
        -12    1    1    2    0    0  0.40341624684E+00  0.40900548359E+02  0.14512247190E+02  0.43400724870E+02  0.00000000000E+00 0.  1.
         11    1    3    3    0    0 -0.56972745405E+01 -0.89530518795E+01 -0.39097454390E+01  0.11309384811E+02  0.51100000000E-03 0.  1.
        -11    1    3    3    0    0 -0.11915310588E+01 -0.23655176987E+02 -0.39161982022E+01  0.24006743910E+02  0.51100000000E-03 0. -1.
         12    1    3    3    0    0  0.64853893524E+01 -0.82923194923E+01 -0.66863035486E+01  0.12471146409E+02  0.00000000000E+00 0. -1.
</event>
<event>
 7    1  0.4031943E-009  0.4778727E+02  0.7816164E-02  0.1312668E+00
        -11   -1    0    0    0    0  0.00000000000E+00  0.00000000000E+00  0.45593999997E+02  0.45594000000E+02  0.51100000000E-03 0. -1.
         11   -1    0    0    0    0 -0.00000000000E+00 -0.00000000000E+00 -0.45593999997E+02  0.45594000000E+02  0.51100000000E-03 0.  1.
    9900012    2    1    2    0    0  0.16642929992E+02  0.23534364170E+02  0.32446419960E+02  0.47787267474E+02  0.19999983719E+02 0.  0.
        -12    1    1    2    0    0 -0.16642929992E+02 -0.23534364170E+02 -0.32446419960E+02  0.43400732526E+02  0.00000000000E+00 0.  1.
         11    1    3    3    0    0  0.11546112486E+02  0.83489451721E+01  0.21401254540E+02  0.25710528878E+02  0.51100000000E-03 0. -1.
        -11    1    3    3    0    0  0.76951227896E+01  0.85672725290E+01  0.91778438244E+01  0.14725688129E+02  0.51100000000E-03 0.  1.
        -12    1    3    3    0    0 -0.25983052840E+01  0.66181464685E+01  0.18673215959E+01  0.73510504671E+01  0.00000000000E+00 0.  1.
</event>
<event>
 7    1  0.4031943E-009  0.4778727E+02  0.7816164E-02  0.1312668E+00
        -11   -1    0    0    0    0  0.00000000000E+00  0.00000000000E+00  0.45593999997E+02  0.45594000000E+02  0.51100000000E-03 0.  1.
         11   -1    0    0    0    0 -0.00000000000E+00 -0.00000000000E+00 -0.45593999997E+02  0.45594000000E+02  0.51100000000E-03 0. -1.
    9900012    2    1    2    0    0  0.29085461806E+02 -0.15594508091E+02 -0.28186352205E+02  0.47787271645E+02  0.20000002739E+02 0.  0.
        -12    1    1    2    0    0 -0.29085461806E+02  0.15594508091E+02  0.28186352205E+02  0.43400728355E+02  0.00000000000E+00 0.  1.
         11    1    3    3    0    0  0.17730734465E+02 -0.19452775726E+02 -0.21374416404E+02  0.33906564335E+02  0.51100000000E-03 0. -1.
        -11    1    3    3    0    0  0.27737529169E+01  0.84299037134E+00 -0.24399859090E+01  0.37891779461E+01  0.51100000000E-03 0.  1.
         12    1    3    3    0    0  0.85809744242E+01  0.30152772638E+01 -0.43719498925E+01  0.10091529364E+02  0.00000000000E+00 0. -1.
</event>
<event>
 7    1  0.4031943E-009  0.4778727E+02  0.7816164E-02  0.1312668E+00
        -11   -1    0    0    0    0  0.00000000000E+00  0.00000000000E+00  0.45593999997E+02  0.45594000000E+02  0.51100000000E-03 0.  1.
         11   -1    0    0    0    0 -0.00000000000E+00 -0.00000000000E+00 -0.45593999997E+02  0.45594000000E+02  0.51100000000E-03 0. -1.
    9900012    2    1    2    0    0  0.27296215017E+02  0.59504126011E+01 -0.33213442441E+02  0.47787268172E+02  0.19999986904E+02 0.  0.
        -12    1    1    2    0    0 -0.27296215017E+02 -0.59504126011E+01  0.33213442441E+02  0.43400731828E+02  0.00000000000E+00 0.  1.
         11    1    3    3    0    0  0.14774085231E+02  0.37931751247E+00 -0.17026779014E+02  0.22546145569E+02  0.51100000000E-03 0. -1.
        -11    1    3    3    0    0  0.15535209902E+02  0.46187443351E+01 -0.13486474582E+02  0.21084604404E+02  0.51100000000E-03 0.  1.
        -12    1    3    3    0    0 -0.30130801157E+01  0.95235075348E+00 -0.27001888453E+01  0.41565181994E+01  0.00000000000E+00 0.  1.
</event>
<event>
 7    1  0.4031943E-009  0.4778728E+02  0.7816164E-02  0.1312668E+00
        -11   -1    0    0    0    0  0.00000000000E+00  0.00000000000E+00  0.45593999997E+02  0.45594000000E+02  0.51100000000E-03 0.  1.
         11   -1    0    0    0    0 -0.00000000000E+00 -0.00000000000E+00 -0.45593999997E+02  0.45594000000E+02  0.51100000000E-03 0. -1.
    9900012    2    1    2    0    0  0.69108520590E+01 -0.18443874755E+02 -0.38674106502E+02  0.47787275284E+02  0.20000019329E+02 0.  0.
        -12    1    1    2    0    0 -0.69108520590E+01  0.18443874755E+02  0.38674106502E+02  0.43400724716E+02  0.00000000000E+00 0.  1.
         11    1    3    3    0    0  0.55319963979E+00  0.23877376772E+01 -0.69287078825E+01  0.73494431244E+01  0.51100000000E-03 0. -1.
        -11    1    3    3    0    0  0.29000793802E+01 -0.54269261750E+00 -0.45483913740E+00  0.29852729507E+01  0.51100000000E-03 0.  1.
         12    1    3    3    0    0  0.34575730391E+01 -0.20288919814E+02 -0.31290559482E+02  0.37452559209E+02  0.00000000000E+00 0. -1.
</event>
<event>
 7    1  0.4031943E-009  0.4778727E+02  0.7816164E-02  0.1312668E+00
        -11   -1    0    0    0    0  0.00000000000E+00  0.00000000000E+00  0.45593999997E+02  0.45594000000E+02  0.51100000000E-03 0.  1.
         11   -1    0    0    0    0 -0.00000000000E+00 -0.00000000000E+00 -0.45593999997E+02  0.45594000000E+02  0.51100000000E-03 0. -1.
    9900012    2    1    2    0    0 -0.31034306912E+02 -0.21232235789E+02 -0.21672268688E+02  0.47787271064E+02  0.20000000090E+02 0.  0.
        -12    1    1    2    0    0  0.31034306912E+02  0.21232235789E+02  0.21672268688E+02  0.43400728936E+02  0.00000000000E+00 0.  1.
         11    1    3    3    0    0 -0.13008310520E+02 -0.19199235064E+02 -0.16675437516E+02  0.28563910556E+02  0.51100000000E-03 0. -1.
        -11    1    3    3    0    0 -0.56571276987E+01 -0.39179562451E+00 -0.34821787510E+01  0.66544847077E+01  0.51100000000E-03 0.  1.
         12    1    3    3    0    0 -0.12368868694E+02 -0.16412051003E+01 -0.15146524203E+01  0.12568875801E+02  0.00000000000E+00 0. -1.
</event>
<event>
 7    1  0.4031943E-009  0.4778727E+02  0.7816164E-02  0.1312668E+00
        -11   -1    0    0    0    0  0.00000000000E+00  0.00000000000E+00  0.45593999997E+02  0.45594000000E+02  0.51100000000E-03 0.  1.
         11   -1    0    0    0    0 -0.00000000000E+00 -0.00000000000E+00 -0.45593999997E+02  0.45594000000E+02  0.51100000000E-03 0. -1.
    9900012    2    1    2    0    0  0.42398973698E+02  0.14240699621E+01  0.91609138755E+01  0.47787270871E+02  0.19999999211E+02 0.  0.
        -12    1    1    2    0    0 -0.42398973698E+02 -0.14240699621E+01 -0.91609138755E+01  0.43400729129E+02  0.00000000000E+00 0.  1.
         11    1    3    3    0    0  0.80792942497E+01  0.72320814270E+01 -0.11149264968E+01  0.10900507268E+02  0.51100000000E-03 0. -1.
        -11    1    3    3    0    0  0.66823455661E+01 -0.28093245553E+01  0.10812370583E-03  0.72488652212E+01  0.51100000000E-03 0.  1.
         12    1    3    3    0    0  0.27637333882E+02 -0.29986869095E+01  0.10275732249E+02  0.29637898382E+02  0.00000000000E+00 0. -1.
</event>
<event>
 7    1  0.4031943E-009  0.4778728E+02  0.7816164E-02  0.1312668E+00
        -11   -1    0    0    0    0  0.00000000000E+00  0.00000000000E+00  0.45593999997E+02  0.45594000000E+02  0.51100000000E-03 0. -1.
         11   -1    0    0    0    0 -0.00000000000E+00 -0.00000000000E+00 -0.45593999997E+02  0.45594000000E+02  0.51100000000E-03 0.  1.
    9900012    2    1    2    0    0  0.29300368575E+02 -0.30777142728E+02 -0.88248683020E+01  0.47787280954E+02  0.20000045181E+02 0.  0.
        -12    1    1    2    0    0 -0.29300368575E+02  0.30777142728E+02  0.88248683020E+01  0.43400719046E+02  0.00000000000E+00 0.  1.
         11    1    3    3    0    0  0.92451481270E+01 -0.89126601957E+01  0.26947638593E+01  0.13121357711E+02  0.51100000000E-03 0. -1.
        -11    1    3    3    0    0  0.46374796432E+01 -0.18638879596E+00  0.17225582355E+01  0.49505722255E+01  0.51100000000E-03 0.  1.
        -12    1    3    3    0    0  0.15417740805E+02 -0.21678093737E+02 -0.13242190397E+02  0.29715351018E+02  0.00000000000E+00 0.  1.
</event>
<event>
 7    1  0.4031943E-009  0.4778732E+02  0.7816164E-02  0.1312668E+00
        -11   -1    0    0    0    0  0.00000000000E+00  0.00000000000E+00  0.45593999997E+02  0.45594000000E+02  0.51100000000E-03 0. -1.
         11   -1    0    0    0    0 -0.00000000000E+00 -0.00000000000E+00 -0.45593999997E+02  0.45594000000E+02  0.51100000000E-03 0.  1.
    9900012    2    1    2    0    0  0.12477271295E+02  0.51789200801E+01  0.41244582970E+02  0.47787318709E+02  0.20000217320E+02 0.  0.
        -12    1    1    2    0    0 -0.12477271295E+02 -0.51789200801E+01 -0.41244582970E+02  0.43400681291E+02  0.00000000000E+00 0.  1.
         11    1    3    3    0    0  0.24770693219E+00 -0.45140664420E+01  0.96216696129E+01  0.10630836325E+02  0.51100000000E-03 0. -1.
        -11    1    3    3    0    0  0.45879910136E+00 -0.91581842372E+00 -0.64305146788E+00  0.12094360058E+01  0.51100000000E-03 0.  1.
         12    1    3    3    0    0  0.11770765262E+02  0.10608804946E+02  0.32265964825E+02  0.35947046378E+02  0.00000000000E+00 0. -1.
</event>
<event>
 7    1  0.4031943E-009  0.4778727E+02  0.7816164E-02  0.1312668E+00
        -11   -1    0    0    0    0  0.00000000000E+00  0.00000000000E+00  0.45593999997E+02  0.45594000000E+02  0.51100000000E-03 0.  1.
         11   -1    0    0    0    0 -0.00000000000E+00 -0.00000000000E+00 -0.45593999997E+02  0.45594000000E+02  0.51100000000E-03 0. -1.
    9900012    2    1    2    0    0  0.33076621879E+02 -0.15652110752E+02 -0.23336066260E+02  0.47787268734E+02  0.19999989467E+02 0.  0.
        -12    1    1    2    0    0 -0.33076621879E+02  0.15652110752E+02  0.23336066260E+02  0.43400731266E+02  0.00000000000E+00 0.  1.
         11    1    3    3    0    0  0.13384086338E+01  0.94069156461E+00 -0.11669913177E+01  0.20095042392E+01  0.51100000000E-03 0.  1.
        -11    1    3    3    0    0  0.57968302158E+01  0.29993924756E+01 -0.17733056127E+00  0.65292451450E+01  0.51100000000E-03 0. -1.
         12    1    3    3    0    0  0.25941383029E+02 -0.19592194793E+02 -0.21991744381E+02  0.39248519350E+02  0.00000000000E+00 0. -1.
</event>
<event>
 7    1  0.4031943E-009  0.4778726E+02  0.7816164E-02  0.1312668E+00
        -11   -1    0    0    0    0  0.00000000000E+00  0.00000000000E+00  0.45593999997E+02  0.45594000000E+02  0.51100000000E-03 0.  1.
         11   -1    0    0    0    0 -0.00000000000E+00 -0.00000000000E+00 -0.45593999997E+02  0.45594000000E+02  0.51100000000E-03 0. -1.
    9900012    2    1    2    0    0 -0.25064915856E+02  0.34295489867E+02 -0.88990811548E+01  0.47787259483E+02  0.19999947285E+02 0.  0.
        -12    1    1    2    0    0  0.25064915856E+02 -0.34295489867E+02  0.88990811548E+01  0.43400740517E+02  0.00000000000E+00 0.  1.
         11    1    3    3    0    0 -0.64804737822E+01  0.13508786595E+02 -0.41614319596E+01  0.15549963728E+02  0.51100000000E-03 0. -1.
        -11    1    3    3    0    0  0.66632602119E-01  0.78703458437E+01 -0.53928578981E+01  0.95409485992E+01  0.51100000000E-03 0.  1.
         12    1    3    3    0    0 -0.18651074676E+02  0.12916357428E+02  0.65520870283E+00  0.22696347156E+02  0.00000000000E+00 0. -1.
</event>
<event>
 7    1  0.4031943E-009  0.4778725E+02  0.7816164E-02  0.1312668E+00
        -11   -1    0    0    0    0  0.00000000000E+00  0.00000000000E+00  0.45593999997E+02  0.45594000000E+02  0.51100000000E-03 0.  1.
         11   -1    0    0    0    0 -0.00000000000E+00 -0.00000000000E+00 -0.45593999997E+02  0.45594000000E+02  0.51100000000E-03 0. -1.
    9900012    2    1    2    0    0 -0.33321446734E+00  0.16627243309E+02 -0.40088009286E+02  0.47787254149E+02  0.19999922966E+02 0.  0.
        -12    1    1    2    0    0  0.33321446734E+00 -0.16627243309E+02  0.40088009286E+02  0.43400745851E+02  0.00000000000E+00 0.  1.
         11    1    3    3    0    0 -0.39002610710E+01  0.65822357694E+01 -0.11249954687E+02  0.13605122009E+02  0.51100000000E-03 0. -1.
        -11    1    3    3    0    0  0.19701800574E+01  0.10558747521E+01 -0.23500365975E+02  0.23606433067E+02  0.51100000000E-03 0.  1.
        -12    1    3    3    0    0  0.15968665462E+01  0.89891327872E+01 -0.53376886241E+01  0.10575699073E+02  0.00000000000E+00 0.  1.
</event>
<event>
 7    1  0.4031943E-009  0.4778727E+02  0.7816164E-02  0.1312668E+00
        -11   -1    0    0    0    0  0.00000000000E+00  0.00000000000E+00  0.45593999997E+02  0.45594000000E+02  0.51100000000E-03 0.  1.
         11   -1    0    0    0    0 -0.00000000000E+00 -0.00000000000E+00 -0.45593999997E+02  0.45594000000E+02  0.51100000000E-03 0. -1.
    9900012    2    1    2    0    0 -0.35282320249E+02 -0.25239637158E+02  0.13198810514E+01  0.47787268532E+02  0.19999988543E+02 0.  0.
        -12    1    1    2    0    0  0.35282320249E+02  0.25239637158E+02 -0.13198810514E+01  0.43400731468E+02  0.00000000000E+00 0.  1.
         11    1    3    3    0    0 -0.14591912436E+02 -0.38653771500E+01  0.45731180848E+00  0.15102125128E+02  0.51100000000E-03 0. -1.
        -11    1    3    3    0    0 -0.30243155136E+01 -0.37881530077E+01  0.54990358049E+01  0.73304831068E+01  0.51100000000E-03 0.  1.
        -12    1    3    3    0    0 -0.17666092300E+02 -0.17586107000E+02 -0.46364665620E+01  0.25354660296E+02  0.00000000000E+00 0.  1.
</event>
<event>
 7    1  0.4031943E-009  0.4778727E+02  0.7816164E-02  0.1312668E+00
        -11   -1    0    0    0    0  0.00000000000E+00  0.00000000000E+00  0.45593999997E+02  0.45594000000E+02  0.51100000000E-03 0.  1.
         11   -1    0    0    0    0 -0.00000000000E+00 -0.00000000000E+00 -0.45593999997E+02  0.45594000000E+02  0.51100000000E-03 0. -1.
    9900012    2    1    2    0    0  0.35431408191E+02  0.48333258969E+01 -0.24594256650E+02  0.47787272059E+02  0.20000004625E+02 0.  0.
        -12    1    1    2    0    0 -0.35431408191E+02 -0.48333258969E+01  0.24594256650E+02  0.43400727941E+02  0.00000000000E+00 0.  1.
         11    1    3    3    0    0  0.32976597251E+02  0.12529927542E+01 -0.24188304278E+02  0.40915767391E+02  0.51100000000E-03 0. -1.
        -11    1    3    3    0    0  0.32973856361E+00  0.61931168087E-02 -0.22848564169E+01  0.23085352460E+01  0.51100000000E-03 0.  1.
         12    1    3    3    0    0  0.21250723766E+01  0.35741400260E+01  0.18789040451E+01  0.45629694215E+01  0.00000000000E+00 0. -1.
</event>
<event>
 7    1  0.4031943E-009  0.4778727E+02  0.7816164E-02  0.1312668E+00
        -11   -1    0    0    0    0  0.00000000000E+00  0.00000000000E+00  0.45593999997E+02  0.45594000000E+02  0.51100000000E-03 0.  1.
         11   -1    0    0    0    0 -0.00000000000E+00 -0.00000000000E+00 -0.45593999997E+02  0.45594000000E+02  0.51100000000E-03 0. -1.
    9900012    2    1    2    0    0 -0.16506708236E+02 -0.38526275329E+02 -0.11264009391E+02  0.47787271721E+02  0.20000003087E+02 0.  0.
        -12    1    1    2    0    0  0.16506708236E+02  0.38526275329E+02  0.11264009391E+02  0.43400728279E+02  0.00000000000E+00 0.  1.
         11    1    3    3    0    0 -0.52887576255E+01 -0.94656909422E+01  0.10669713648E+01  0.10895351779E+02  0.51100000000E-03 0. -1.
        -11    1    3    3    0    0 -0.49425454950E+01 -0.14548153609E+01 -0.59517912027E+01  0.78720430948E+01  0.51100000000E-03 0.  1.
         12    1    3    3    0    0 -0.62754051155E+01 -0.27605769026E+02 -0.63791895534E+01  0.29019876848E+02  0.00000000000E+00 0. -1.
</event>
<event>
 7    1  0.4031943E-009  0.4778727E+02  0.7816164E-02  0.1312668E+00
        -11   -1    0    0    0    0  0.00000000000E+00  0.00000000000E+00  0.45593999997E+02  0.45594000000E+02  0.51100000000E-03 0. -1.
         11   -1    0    0    0    0 -0.00000000000E+00 -0.00000000000E+00 -0.45593999997E+02  0.45594000000E+02  0.51100000000E-03 0.  1.
    9900012    2    1    2    0    0  0.37815619107E+02  0.69910361639E+01 -0.20117841343E+02  0.47787272179E+02  0.20000005174E+02 0.  0.
        -12    1    1    2    0    0 -0.37815619107E+02 -0.69910361639E+01  0.20117841343E+02  0.43400727821E+02  0.00000000000E+00 0.  1.
         11    1    3    3    0    0  0.21447108751E+02  0.78804354104E-01 -0.62583253997E+01  0.22341694675E+02  0.51100000000E-03 0. -1.
        -11    1    3    3    0    0  0.16306018348E+02  0.84160968390E+01 -0.91563941423E+01  0.20507473621E+02  0.51100000000E-03 0.  1.
        -12    1    3    3    0    0  0.62492007599E-01 -0.15038650292E+01 -0.47031218014E+01  0.49381038826E+01  0.00000000000E+00 0.  1.
</event>
<event>
 7    1  0.4031943E-009  0.4778727E+02  0.7816164E-02  0.1312668E+00
        -11   -1    0    0    0    0  0.00000000000E+00  0.00000000000E+00  0.45593999997E+02  0.45594000000E+02  0.51100000000E-03 0.  1.
         11   -1    0    0    0    0 -0.00000000000E+00 -0.00000000000E+00 -0.45593999997E+02  0.45594000000E+02  0.51100000000E-03 0. -1.
    9900012    2    1    2    0    0  0.34169122549E+02 -0.11762790883E+02 -0.24036036567E+02  0.47787271446E+02  0.20000001832E+02 0.  0.
        -12    1    1    2    0    0 -0.34169122549E+02  0.11762790883E+02  0.24036036567E+02  0.43400728554E+02  0.00000000000E+00 0.  1.
         11    1    3    3    0    0  0.47417339050E+01  0.20716168296E+01 -0.43242153031E+01  0.67434764745E+01  0.51100000000E-03 0. -1.
        -11    1    3    3    0    0  0.19959676346E+02 -0.91973038008E+00 -0.10559141928E+02  0.22599337653E+02  0.51100000000E-03 0.  1.
         12    1    3    3    0    0  0.94677122980E+01 -0.12914677333E+02 -0.91526793361E+01  0.18444457319E+02  0.00000000000E+00 0. -1.
</event>
<event>
 7    1  0.4031943E-009  0.4778727E+02  0.7816164E-02  0.1312668E+00
        -11   -1    0    0    0    0  0.00000000000E+00  0.00000000000E+00  0.45593999997E+02  0.45594000000E+02  0.51100000000E-03 0. -1.
         11   -1    0    0    0    0 -0.00000000000E+00 -0.00000000000E+00 -0.45593999997E+02  0.45594000000E+02  0.51100000000E-03 0.  1.
    9900012    2    1    2    0    0 -0.40281108726E+02  0.15212644170E+02  0.54434455473E+01  0.47787270026E+02  0.19999995358E+02 0.  0.
        -12    1    1    2    0    0  0.40281108726E+02 -0.15212644170E+02 -0.54434455473E+01  0.43400729974E+02  0.00000000000E+00 0.  1.
         11    1    3    3    0    0 -0.33756337583E+02  0.65030269148E+01  0.82970261176E+01  0.35364110744E+02  0.51100000000E-03 0. -1.
        -11    1    3    3    0    0 -0.59081275806E+01  0.41998420633E+01 -0.41812377535E+00  0.72608176274E+01  0.51100000000E-03 0.  1.
        -12    1    3    3    0    0 -0.61664356227E+00  0.45097751915E+01 -0.24354567949E+01  0.51623416548E+01  0.00000000000E+00 0.  1.
</event>
<event>
 7    1  0.4031943E-009  0.4778728E+02  0.7816164E-02  0.1312668E+00
        -11   -1    0    0    0    0  0.00000000000E+00  0.00000000000E+00  0.45593999997E+02  0.45594000000E+02  0.51100000000E-03 0. -1.
         11   -1    0    0    0    0 -0.00000000000E+00 -0.00000000000E+00 -0.45593999997E+02  0.45594000000E+02  0.51100000000E-03 0.  1.
    9900012    2    1    2    0    0 -0.25465433008E+02  0.30337255781E+02  0.17742195688E+02  0.47787275646E+02  0.20000020982E+02 0.  0.
        -12    1    1    2    0    0  0.25465433008E+02 -0.30337255781E+02 -0.17742195688E+02  0.43400724354E+02  0.00000000000E+00 0.  1.
         11    1    3    3    0    0 -0.44130080989E+01  0.93935261930E+01  0.16904424099E+01  0.10515254187E+02  0.51100000000E-03 0. -1.
        -11    1    3    3    0    0 -0.24483430301E+01  0.10907615488E+02  0.80365092351E+00  0.11207868409E+02  0.51100000000E-03 0.  1.
         12    1    3    3    0    0 -0.18604081879E+02  0.10036114100E+02  0.15248102355E+02  0.26064153050E+02  0.00000000000E+00 0. -1.
</event>
<event>
 7    1  0.4031943E-009  0.4778727E+02  0.7816164E-02  0.1312668E+00
        -11   -1    0    0    0    0  0.00000000000E+00  0.00000000000E+00  0.45593999997E+02  0.45594000000E+02  0.51100000000E-03 0.  1.
         11   -1    0    0    0    0 -0.00000000000E+00 -0.00000000000E+00 -0.45593999997E+02  0.45594000000E+02  0.51100000000E-03 0. -1.
    9900012    2    1    2    0    0  0.39115382121E+02 -0.14392178043E+02 -0.12102691224E+02  0.47787273714E+02  0.20000012171E+02 0.  0.
        -12    1    1    2    0    0 -0.39115382121E+02  0.14392178043E+02  0.12102691224E+02  0.43400726286E+02  0.00000000000E+00 0.  1.
         11    1    3    3    0    0  0.25731355013E+02 -0.12872771909E+02 -0.47540311457E+01  0.29161819213E+02  0.51100000000E-03 0. -1.
        -11    1    3    3    0    0  0.66256234493E+01 -0.53213828027E+01 -0.67415076532E+01  0.10847300435E+02  0.51100000000E-03 0.  1.
        -12    1    3    3    0    0  0.67584036589E+01  0.38019766690E+01 -0.60715242551E+00  0.77781540661E+01  0.00000000000E+00 0.  1.
</event>
<event>
 7    1  0.4031943E-009  0.4778726E+02  0.7816164E-02  0.1312668E+00
        -11   -1    0    0    0    0  0.00000000000E+00  0.00000000000E+00  0.45593999997E+02  0.45594000000E+02  0.51100000000E-03 0.  1.
         11   -1    0    0    0    0 -0.00000000000E+00 -0.00000000000E+00 -0.45593999997E+02  0.45594000000E+02  0.51100000000E-03 0. -1.
    9900012    2    1    2    0    0  0.77126257509E+01  0.21800785612E+02 -0.36726898004E+02  0.47787263989E+02  0.19999967833E+02 0.  0.
        -12    1    1    2    0    0 -0.77126257509E+01 -0.21800785612E+02  0.36726898004E+02  0.43400736011E+02  0.00000000000E+00 0.  1.
         11    1    3    3    0    0 -0.12646176137E+01  0.10908804088E+02 -0.25461110230E+02  0.27728494347E+02  0.51100000000E-03 0.  1.
        -11    1    3    3    0    0  0.44131621726E+01  0.74053923732E+01 -0.11425801104E+02  0.14313097767E+02  0.51100000000E-03 0. -1.
        -12    1    3    3    0    0  0.45640811920E+01  0.34865891508E+01  0.16001332976E+00  0.57456718754E+01  0.00000000000E+00 0.  1.
</event>
<event>
 7    1  0.4031943E-009  0.4778727E+02  0.7816164E-02  0.1312668E+00
        -11   -1    0    0    0    0  0.00000000000E+00  0.00000000000E+00  0.45593999997E+02  0.45594000000E+02  0.51100000000E-03 0.  1.
         11   -1    0    0    0    0 -0.00000000000E+00 -0.00000000000E+00 -0.45593999997E+02  0.45594000000E+02  0.51100000000E-03 0. -1.
    9900012    2    1    2    0    0  0.26589393109E+02  0.22500255202E+02 -0.25891429577E+02  0.47787269181E+02  0.19999991505E+02 0.  0.
        -12    1    1    2    0    0 -0.26589393109E+02 -0.22500255202E+02  0.25891429577E+02  0.43400730819E+02  0.00000000000E+00 0.  1.
         11    1    3    3    0    0  0.29307210607E+01  0.16933135219E+01 -0.12601367035E+01  0.36117006232E+01  0.51100000000E-03 0. -1.
        -11    1    3    3    0    0  0.14426229161E+02  0.11144030302E+02 -0.26085799940E+01  0.18414944720E+02  0.51100000000E-03 0.  1.
        -12    1    3    3    0    0  0.92324428864E+01  0.96629113786E+01 -0.22022712880E+02  0.25760623838E+02  0.00000000000E+00 0.  1.
</event>
<event>
 7    1  0.4031943E-009  0.4778727E+02  0.7816164E-02  0.1312668E+00
        -11   -1    0    0    0    0  0.00000000000E+00  0.00000000000E+00  0.45593999997E+02  0.45594000000E+02  0.51100000000E-03 0.  1.
         11   -1    0    0    0    0 -0.00000000000E+00 -0.00000000000E+00 -0.45593999997E+02  0.45594000000E+02  0.51100000000E-03 0. -1.
    9900012    2    1    2    0    0 -0.96035601585E+01 -0.10356187459E+02 -0.41038327472E+02  0.47787270650E+02  0.19999998200E+02 0.  0.
        -12    1    1    2    0    0  0.96035601585E+01  0.10356187459E+02  0.41038327472E+02  0.43400729350E+02  0.00000000000E+00 0.  1.
         11    1    3    3    0    0  0.27854297181E+01 -0.28664714070E+01 -0.47480174191E+01  0.62063634050E+01  0.51100000000E-03 0. -1.
        -11    1    3    3    0    0 -0.44183023081E+01  0.71490517301E+00 -0.11435514890E+01  0.46195448868E+01  0.51100000000E-03 0.  1.
        -12    1    3    3    0    0 -0.79706875686E+01 -0.82046212255E+01 -0.35146758564E+02  0.36961362358E+02  0.00000000000E+00 0.  1.
</event>
<event>
 7    1  0.4031943E-009  0.4778728E+02  0.7816164E-02  0.1312668E+00
        -11   -1    0    0    0    0  0.00000000000E+00  0.00000000000E+00  0.45593999997E+02  0.45594000000E+02  0.51100000000E-03 0. -1.
         11   -1    0    0    0    0 -0.00000000000E+00 -0.00000000000E+00 -0.45593999997E+02  0.45594000000E+02  0.51100000000E-03 0.  1.
    9900012    2    1    2    0    0 -0.11653738193E+02 -0.31561668896E+02  0.27416675186E+02  0.47787278398E+02  0.20000033527E+02 0.  0.
        -12    1    1    2    0    0  0.11653738193E+02  0.31561668896E+02 -0.27416675186E+02  0.43400721602E+02  0.00000000000E+00 0.  1.
         11    1    3    3    0    0 -0.12854970573E+02 -0.24818368024E+02  0.15654131954E+02  0.32035191701E+02  0.51100000000E-03 0. -1.
        -11    1    3    3    0    0  0.11657700942E+01 -0.59360751662E+01  0.26510760805E+01  0.66048628250E+01  0.51100000000E-03 0.  1.
         12    1    3    3    0    0  0.35462286641E-01 -0.80722570537E+00  0.91114671509E+01  0.91472238715E+01  0.00000000000E+00 0. -1.
</event>
<event>
 7    1  0.4031943E-009  0.4778727E+02  0.7816164E-02  0.1312668E+00
        -11   -1    0    0    0    0  0.00000000000E+00  0.00000000000E+00  0.45593999997E+02  0.45594000000E+02  0.51100000000E-03 0.  1.
         11   -1    0    0    0    0 -0.00000000000E+00 -0.00000000000E+00 -0.45593999997E+02  0.45594000000E+02  0.51100000000E-03 0. -1.
    9900012    2    1    2    0    0 -0.10368082468E+02  0.17941805486E+02 -0.38134207894E+02  0.47787270399E+02  0.19999997059E+02 0.  0.
        -12    1    1    2    0    0  0.10368082468E+02 -0.17941805486E+02  0.38134207894E+02  0.43400729601E+02  0.00000000000E+00 0.  1.
         11    1    3    3    0    0 -0.31998556480E+01 -0.13657671456E+01 -0.35762503667E+01  0.49893850333E+01  0.51100000000E-03 0. -1.
        -11    1    3    3    0    0 -0.60141038088E+00  0.99171131858E+01 -0.50541147733E+01  0.11146968412E+02  0.51100000000E-03 0.  1.
        -12    1    3    3    0    0 -0.65668164391E+01  0.93904594462E+01 -0.29503842754E+02  0.31650916954E+02  0.00000000000E+00 0.  1.
</event>
<event>
 7    1  0.4031943E-009  0.4778727E+02  0.7816164E-02  0.1312668E+00
        -11   -1    0    0    0    0  0.00000000000E+00  0.00000000000E+00  0.45593999997E+02  0.45594000000E+02  0.51100000000E-03 0.  1.
         11   -1    0    0    0    0 -0.00000000000E+00 -0.00000000000E+00 -0.45593999997E+02  0.45594000000E+02  0.51100000000E-03 0. -1.
    9900012    2    1    2    0    0 -0.10594519795E+02  0.64432530210E+01 -0.41591632651E+02  0.47787271138E+02  0.20000000425E+02 0.  0.
        -12    1    1    2    0    0  0.10594519795E+02 -0.64432530210E+01  0.41591632651E+02  0.43400728862E+02  0.00000000000E+00 0.  1.
         11    1    3    3    0    0 -0.53431392818E+01 -0.32797018054E+01 -0.19336796543E+02  0.20327746608E+02  0.51100000000E-03 0. -1.
        -11    1    3    3    0    0 -0.71448908348E+01  0.46222877683E+01 -0.19678374148E+02  0.21439529347E+02  0.51100000000E-03 0.  1.
        -12    1    3    3    0    0  0.18935103213E+01  0.51006670581E+01 -0.25764619602E+01  0.60199951833E+01  0.00000000000E+00 0.  1.
</event>
<event>
 7    1  0.4031943E-009  0.4778727E+02  0.7816164E-02  0.1312668E+00
        -11   -1    0    0    0    0  0.00000000000E+00  0.00000000000E+00  0.45593999997E+02  0.45594000000E+02  0.51100000000E-03 0.  1.
         11   -1    0    0    0    0 -0.00000000000E+00 -0.00000000000E+00 -0.45593999997E+02  0.45594000000E+02  0.51100000000E-03 0. -1.
    9900012    2    1    2    0    0 -0.94730503774E+01 -0.27645799300E+02 -0.32087295328E+02  0.47787269317E+02  0.19999992122E+02 0.  0.
        -12    1    1    2    0    0  0.94730503774E+01  0.27645799300E+02  0.32087295328E+02  0.43400730683E+02  0.00000000000E+00 0.  1.
         11    1    3    3    0    0 -0.31980567753E+01 -0.13332023502E+02 -0.75582932500E+01  0.15655612888E+02  0.51100000000E-03 0. -1.
        -11    1    3    3    0    0  0.25971688021E+01 -0.74142338659E+00  0.31798637528E-01  0.27011119635E+01  0.51100000000E-03 0.  1.
        -12    1    3    3    0    0 -0.88721624042E+01 -0.13572352411E+02 -0.24560800716E+02  0.29430544465E+02  0.00000000000E+00 0.  1.
</event>
<event>
 7    1  0.4031943E-009  0.4778727E+02  0.7816164E-02  0.1312668E+00
        -11   -1    0    0    0    0  0.00000000000E+00  0.00000000000E+00  0.45593999997E+02  0.45594000000E+02  0.51100000000E-03 0.  1.
         11   -1    0    0    0    0 -0.00000000000E+00 -0.00000000000E+00 -0.45593999997E+02  0.45594000000E+02  0.51100000000E-03 0. -1.
    9900012    2    1    2    0    0 -0.29732377117E+02 -0.24304452453E+02  0.20221340235E+02  0.47787271217E+02  0.20000000786E+02 0.  0.
        -12    1    1    2    0    0  0.29732377117E+02  0.24304452453E+02 -0.20221340235E+02  0.43400728783E+02  0.00000000000E+00 0.  1.
         11    1    3    3    0    0 -0.54297130722E+01 -0.39102370346E+01 -0.21209483335E+01  0.70192706037E+01  0.51100000000E-03 0. -1.
        -11    1    3    3    0    0 -0.19534873169E+02 -0.10417237823E+02  0.10295498007E+02  0.24415720204E+02  0.51100000000E-03 0.  1.
        -12    1    3    3    0    0 -0.47677908754E+01 -0.99769775947E+01  0.12046790562E+02  0.16352280410E+02  0.00000000000E+00 0.  1.
</event>
<event>
 7    1  0.4031943E-009  0.4778727E+02  0.7816164E-02  0.1312668E+00
        -11   -1    0    0    0    0  0.00000000000E+00  0.00000000000E+00  0.45593999997E+02  0.45594000000E+02  0.51100000000E-03 0.  1.
         11   -1    0    0    0    0 -0.00000000000E+00 -0.00000000000E+00 -0.45593999997E+02  0.45594000000E+02  0.51100000000E-03 0. -1.
    9900012    2    1    2    0    0  0.84313553255E+01 -0.33099776699E+02 -0.26775738966E+02  0.47787272272E+02  0.20000005596E+02 0.  0.
        -12    1    1    2    0    0 -0.84313553255E+01  0.33099776699E+02  0.26775738966E+02  0.43400727728E+02  0.00000000000E+00 0.  1.
         11    1    3    3    0    0 -0.63496109201E+00 -0.25288490418E+02 -0.13282736419E+02  0.28571699464E+02  0.51100000000E-03 0. -1.
        -11    1    3    3    0    0 -0.44228139984E+00  0.42210516642E+00 -0.22956055302E+01  0.23756242589E+01  0.51100000000E-03 0.  1.
         12    1    3    3    0    0  0.95085978174E+01 -0.82333914469E+01 -0.11197397017E+02  0.16839948549E+02  0.00000000000E+00 0. -1.
</event>
<event>
 7    1  0.4031943E-009  0.4778727E+02  0.7816164E-02  0.1312668E+00
        -11   -1    0    0    0    0  0.00000000000E+00  0.00000000000E+00  0.45593999997E+02  0.45594000000E+02  0.51100000000E-03 0.  1.
         11   -1    0    0    0    0 -0.00000000000E+00 -0.00000000000E+00 -0.45593999997E+02  0.45594000000E+02  0.51100000000E-03 0. -1.
    9900012    2    1    2    0    0  0.37527341125E+02 -0.36157594352E+00 -0.21798880795E+02  0.47787271054E+02  0.20000000045E+02 0.  0.
        -12    1    1    2    0    0 -0.37527341125E+02  0.36157594352E+00  0.21798880795E+02  0.43400728946E+02  0.00000000000E+00 0.  1.
         11    1    3    3    0    0  0.14394541911E+02 -0.55331961426E+00 -0.48498978405E+01  0.15199687784E+02  0.51100000000E-03 0. -1.
        -11    1    3    3    0    0  0.19486875349E+00  0.15557272486E+01  0.21825500596E+01  0.26873381117E+01  0.51100000000E-03 0.  1.
         12    1    3    3    0    0  0.22937930461E+02 -0.13639835779E+01 -0.19131533014E+02  0.29900245158E+02  0.00000000000E+00 0. -1.
</event>
<event>
 7    1  0.4031943E-009  0.4778727E+02  0.7816164E-02  0.1312668E+00
        -11   -1    0    0    0    0  0.00000000000E+00  0.00000000000E+00  0.45593999997E+02  0.45594000000E+02  0.51100000000E-03 0.  1.
         11   -1    0    0    0    0 -0.00000000000E+00 -0.00000000000E+00 -0.45593999997E+02  0.45594000000E+02  0.51100000000E-03 0. -1.
    9900012    2    1    2    0    0 -0.50779968896E+01  0.40184281255E+02 -0.15590409110E+02  0.47787269953E+02  0.19999995023E+02 0.  0.
        -12    1    1    2    0    0  0.50779968896E+01 -0.40184281255E+02  0.15590409110E+02  0.43400730047E+02  0.00000000000E+00 0.  1.
         11    1    3    3    0    0 -0.28234344024E+01  0.12896137612E+02 -0.43015977063E+01  0.13884735872E+02  0.51100000000E-03 0. -1.
        -11    1    3    3    0    0 -0.28594022784E+01  0.19578057856E+02  0.51305950126E+00  0.19792416758E+02  0.51100000000E-03 0.  1.
         12    1    3    3    0    0  0.60483979128E+00  0.77100857865E+01 -0.11801870905E+02  0.14110117323E+02  0.00000000000E+00 0. -1.
</event>
<event>
 7    1  0.4031943E-009  0.4778727E+02  0.7816164E-02  0.1312668E+00
        -11   -1    0    0    0    0  0.00000000000E+00  0.00000000000E+00  0.45593999997E+02  0.45594000000E+02  0.51100000000E-03 0. -1.
         11   -1    0    0    0    0 -0.00000000000E+00 -0.00000000000E+00 -0.45593999997E+02  0.45594000000E+02  0.51100000000E-03 0.  1.
    9900012    2    1    2    0    0 -0.10495041158E+02 -0.41744139519E+02  0.55591711937E+01  0.47787268929E+02  0.19999990356E+02 0.  0.
        -12    1    1    2    0    0  0.10495041158E+02  0.41744139519E+02 -0.55591711937E+01  0.43400731071E+02  0.00000000000E+00 0.  1.
         11    1    3    3    0    0 -0.11770758068E+02 -0.36261799510E+02  0.61229419438E+01  0.38612941710E+02  0.51100000000E-03 0. -1.
        -11    1    3    3    0    0 -0.19499370773E+01 -0.54791730353E+01 -0.10573100577E+01  0.59111332733E+01  0.51100000000E-03 0.  1.
        -12    1    3    3    0    0  0.32256539876E+01 -0.31669737940E-02  0.49353930754E+00  0.32631939454E+01  0.00000000000E+00 0.  1.
</event>
<event>
 7    1  0.4031943E-009  0.4778728E+02  0.7816164E-02  0.1312668E+00
        -11   -1    0    0    0    0  0.00000000000E+00  0.00000000000E+00  0.45593999997E+02  0.45594000000E+02  0.51100000000E-03 0.  1.
         11   -1    0    0    0    0 -0.00000000000E+00 -0.00000000000E+00 -0.45593999997E+02  0.45594000000E+02  0.51100000000E-03 0. -1.
    9900012    2    1    2    0    0 -0.27011258869E+02  0.33947633331E+02 -0.12540705511E+01  0.47787278722E+02  0.20000035006E+02 0.  0.
        -12    1    1    2    0    0  0.27011258869E+02 -0.33947633331E+02  0.12540705511E+01  0.43400721278E+02  0.00000000000E+00 0.  1.
         11    1    3    3    0    0 -0.38043292529E+01  0.19930148056E+00 -0.26764868208E+01  0.46557732019E+01  0.51100000000E-03 0. -1.
        -11    1    3    3    0    0 -0.23763802619E+01  0.10975629526E+01  0.34714178962E+01  0.43477085982E+01  0.51100000000E-03 0.  1.
         12    1    3    3    0    0 -0.20830549355E+02  0.32650768898E+02 -0.20490016265E+01  0.38783796922E+02  0.00000000000E+00 0. -1.
</event>
<event>
 7    1  0.4031943E-009  0.4778727E+02  0.7816164E-02  0.1312668E+00
        -11   -1    0    0    0    0  0.00000000000E+00  0.00000000000E+00  0.45593999997E+02  0.45594000000E+02  0.51100000000E-03 0.  1.
         11   -1    0    0    0    0 -0.00000000000E+00 -0.00000000000E+00 -0.45593999997E+02  0.45594000000E+02  0.51100000000E-03 0. -1.
    9900012    2    1    2    0    0  0.54781395215E+01  0.31597659444E+02 -0.29243822415E+02  0.47787271384E+02  0.20000001549E+02 0.  0.
        -12    1    1    2    0    0 -0.54781395215E+01 -0.31597659444E+02  0.29243822415E+02  0.43400728616E+02  0.00000000000E+00 0.  1.
         11    1    3    3    0    0  0.34970144788E+01  0.31250889824E+00 -0.59172405028E+01  0.68804438451E+01  0.51100000000E-03 0. -1.
        -11    1    3    3    0    0  0.19837539773E+01  0.22393749666E-01 -0.30696687053E+01  0.36549483641E+01  0.51100000000E-03 0.  1.
         12    1    3    3    0    0 -0.26289346190E-02  0.31262756796E+02 -0.20256913207E+02  0.37251879175E+02  0.00000000000E+00 0. -1.
</event>
<event>
 7    1  0.4031943E-009  0.4778727E+02  0.7816164E-02  0.1312668E+00
        -11   -1    0    0    0    0  0.00000000000E+00  0.00000000000E+00  0.45593999997E+02  0.45594000000E+02  0.51100000000E-03 0. -1.
         11   -1    0    0    0    0 -0.00000000000E+00 -0.00000000000E+00 -0.45593999997E+02  0.45594000000E+02  0.51100000000E-03 0.  1.
    9900012    2    1    2    0    0  0.52454871143E+01  0.54249419179E+01  0.42739655463E+02  0.47787270986E+02  0.19999999732E+02 0.  0.
        -12    1    1    2    0    0 -0.52454871143E+01 -0.54249419179E+01 -0.42739655463E+02  0.43400729014E+02  0.00000000000E+00 0.  1.
         11    1    3    3    0    0  0.10658273030E+02  0.14541193184E+01  0.36996548980E+02  0.38528663144E+02  0.51100000000E-03 0. -1.
        -11    1    3    3    0    0 -0.24230843449E+00  0.12540380784E+01  0.38902461644E+00  0.13351648935E+01  0.51100000000E-03 0.  1.
         12    1    3    3    0    0 -0.51704774812E+01  0.27167845212E+01  0.53540818671E+01  0.79234429485E+01  0.00000000000E+00 0. -1.
</event>
<event>
 7    1  0.4031943E-009  0.4778727E+02  0.7816164E-02  0.1312668E+00
        -11   -1    0    0    0    0  0.00000000000E+00  0.00000000000E+00  0.45593999997E+02  0.45594000000E+02  0.51100000000E-03 0.  1.
         11   -1    0    0    0    0 -0.00000000000E+00 -0.00000000000E+00 -0.45593999997E+02  0.45594000000E+02  0.51100000000E-03 0. -1.
    9900012    2    1    2    0    0 -0.35068622700E+02 -0.20754012294E+02 -0.14936063905E+02  0.47787270405E+02  0.19999997086E+02 0.  0.
        -12    1    1    2    0    0  0.35068622700E+02  0.20754012294E+02  0.14936063905E+02  0.43400729595E+02  0.00000000000E+00 0.  1.
         11    1    3    3    0    0 -0.17905676304E+02 -0.17262305691E+02 -0.10835026946E+02  0.27129287695E+02  0.51100000000E-03 0. -1.
        -11    1    3    3    0    0 -0.52143800058E+01 -0.39901130237E+01 -0.55686182114E+01  0.86093129710E+01  0.51100000000E-03 0.  1.
        -12    1    3    3    0    0 -0.11948566390E+02  0.49840642054E+00  0.14675812529E+01  0.12048669739E+02  0.00000000000E+00 0.  1.
</event>
<event>
 7    1  0.4031943E-009  0.4778723E+02  0.7816164E-02  0.1312668E+00
        -11   -1    0    0    0    0  0.00000000000E+00  0.00000000000E+00  0.45593999997E+02  0.45594000000E+02  0.51100000000E-03 0.  1.
         11   -1    0    0    0    0 -0.00000000000E+00 -0.00000000000E+00 -0.45593999997E+02  0.45594000000E+02  0.51100000000E-03 0. -1.
    9900012    2    1    2    0    0  0.38773954206E+02  0.18960543169E+02 -0.45503120561E+01  0.47787227405E+02  0.19999801030E+02 0.  0.
        -12    1    1    2    0    0 -0.38773954206E+02 -0.18960543169E+02  0.45503120561E+01  0.43400772595E+02  0.00000000000E+00 0.  1.
         11    1    3    3    0    0  0.75082278562E+01  0.41686126835E+01  0.31205649900E+01  0.91372174847E+01  0.51100000000E-03 0. -1.
        -11    1    3    3    0    0  0.18598192039E+02  0.30353290867E+01  0.18218182585E+01  0.18932115355E+02  0.51100000000E-03 0.  1.
         12    1    3    3    0    0  0.12667534311E+02  0.11756601399E+02 -0.94926953046E+01  0.19717894566E+02  0.00000000000E+00 0. -1.
</event>
<event>
 7    1  0.4031943E-009  0.4778727E+02  0.7816164E-02  0.1312668E+00
        -11   -1    0    0    0    0  0.00000000000E+00  0.00000000000E+00  0.45593999997E+02  0.45594000000E+02  0.51100000000E-03 0. -1.
         11   -1    0    0    0    0 -0.00000000000E+00 -0.00000000000E+00 -0.45593999997E+02  0.45594000000E+02  0.51100000000E-03 0.  1.
    9900012    2    1    2    0    0 -0.39098942653E+02 -0.14954409627E+02 -0.11456940020E+02  0.47787272373E+02  0.20000006059E+02 0.  0.
        -12    1    1    2    0    0  0.39098942653E+02  0.14954409627E+02  0.11456940020E+02  0.43400727627E+02  0.00000000000E+00 0.  1.
         11    1    3    3    0    0 -0.21971385396E+02 -0.64936305635E+01  0.83971924907E+00  0.22926276252E+02  0.51100000000E-03 0. -1.
        -11    1    3    3    0    0 -0.17544979997E+02 -0.62644126453E+01 -0.85502003609E+01  0.20498173464E+02  0.51100000000E-03 0.  1.
         12    1    3    3    0    0  0.41742273962E+00 -0.21963664184E+01 -0.37464589082E+01  0.43628226572E+01  0.00000000000E+00 0. -1.
</event>
<event>
 7    1  0.4031943E-009  0.4778727E+02  0.7816164E-02  0.1312668E+00
        -11   -1    0    0    0    0  0.00000000000E+00  0.00000000000E+00  0.45593999997E+02  0.45594000000E+02  0.51100000000E-03 0.  1.
         11   -1    0    0    0    0 -0.00000000000E+00 -0.00000000000E+00 -0.45593999997E+02  0.45594000000E+02  0.51100000000E-03 0. -1.
    9900012    2    1    2    0    0 -0.31650657615E+01  0.21868248280E+02 -0.37354856586E+02  0.47787271497E+02  0.20000002061E+02 0.  0.
        -12    1    1    2    0    0  0.31650657615E+01 -0.21868248280E+02  0.37354856586E+02  0.43400728503E+02  0.00000000000E+00 0.  1.
         11    1    3    3    0    0 -0.17415517612E+01  0.93870263072E+01 -0.21048927640E+02  0.23112910255E+02  0.51100000000E-03 0. -1.
        -11    1    3    3    0    0 -0.19907498052E+01  0.44193601641E+01 -0.15855719705E+02  0.16580038500E+02  0.51100000000E-03 0.  1.
        -12    1    3    3    0    0  0.56723580491E+00  0.80618618084E+01 -0.45020924116E+00  0.80943227411E+01  0.00000000000E+00 0.  1.
</event>
<event>
 7    1  0.4031943E-009  0.4778727E+02  0.7816164E-02  0.1312668E+00
        -11   -1    0    0    0    0  0.00000000000E+00  0.00000000000E+00  0.45593999997E+02  0.45594000000E+02  0.51100000000E-03 0. -1.
         11   -1    0    0    0    0 -0.00000000000E+00 -0.00000000000E+00 -0.45593999997E+02  0.45594000000E+02  0.51100000000E-03 0.  1.
    9900012    2    1    2    0    0 -0.10219676391E+02  0.21698273374E+02  0.36171348261E+02  0.47787270882E+02  0.19999999259E+02 0.  0.
        -12    1    1    2    0    0  0.10219676391E+02 -0.21698273374E+02 -0.36171348261E+02  0.43400729118E+02  0.00000000000E+00 0.  1.
         11    1    3    3    0    0 -0.12890016338E+01 -0.49639240304E-01  0.90792423646E+01  0.91704215520E+01  0.51100000000E-03 0.  1.
        -11    1    3    3    0    0 -0.10937260096E+02  0.16647845845E+02  0.26431153560E+02  0.33096530157E+02  0.51100000000E-03 0. -1.
        -12    1    3    3    0    0  0.20065853390E+01  0.51000667693E+01  0.66095233683E+00  0.55203191724E+01  0.00000000000E+00 0.  1.
</event>
<event>
 7    1  0.4031943E-009  0.4778726E+02  0.7816164E-02  0.1312668E+00
        -11   -1    0    0    0    0  0.00000000000E+00  0.00000000000E+00  0.45593999997E+02  0.45594000000E+02  0.51100000000E-03 0.  1.
         11   -1    0    0    0    0 -0.00000000000E+00 -0.00000000000E+00 -0.45593999997E+02  0.45594000000E+02  0.51100000000E-03 0. -1.
    9900012    2    1    2    0    0  0.22585606525E+02  0.10485355574E+02 -0.35546753904E+02  0.47787262487E+02  0.19999960981E+02 0.  0.
        -12    1    1    2    0    0 -0.22585606525E+02 -0.10485355574E+02  0.35546753904E+02  0.43400737513E+02  0.00000000000E+00 0.  1.
         11    1    3    3    0    0  0.17398688500E+02  0.84619764536E+01 -0.29331397507E+02  0.35137590797E+02  0.51100000000E-03 0. -1.
        -11    1    3    3    0    0  0.61768418221E+01 -0.22838414600E+01 -0.34241932347E+01  0.74225606282E+01  0.51100000000E-03 0.  1.
        -12    1    3    3    0    0 -0.98992379733E+00  0.43072205803E+01 -0.27911631621E+01  0.52271110615E+01  0.00000000000E+00 0.  1.
</event>
<event>
 7    1  0.4031943E-009  0.4778727E+02  0.7816164E-02  0.1312668E+00
        -11   -1    0    0    0    0  0.00000000000E+00  0.00000000000E+00  0.45593999997E+02  0.45594000000E+02  0.51100000000E-03 0. -1.
         11   -1    0    0    0    0 -0.00000000000E+00 -0.00000000000E+00 -0.45593999997E+02  0.45594000000E+02  0.51100000000E-03 0.  1.
    9900012    2    1    2    0    0  0.19690633342E+02  0.38574621566E+02 -0.28108553764E+01  0.47787269842E+02  0.19999994516E+02 0.  0.
        -12    1    1    2    0    0 -0.19690633342E+02 -0.38574621566E+02  0.28108553764E+01  0.43400730158E+02  0.00000000000E+00 0.  1.
         11    1    3    3    0    0  0.83634350152E+01  0.20552829066E+02  0.53363095733E+01  0.22821963719E+02  0.51100000000E-03 0. -1.
        -11    1    3    3    0    0  0.10409963718E+02  0.14845954554E+02 -0.23388783639E+01  0.18282233547E+02  0.51100000000E-03 0.  1.
        -12    1    3    3    0    0  0.91723460863E+00  0.31758379459E+01 -0.58082865858E+01  0.66830725754E+01  0.00000000000E+00 0.  1.
</event>
<event>
 7    1  0.4031943E-009  0.4778727E+02  0.7816164E-02  0.1312668E+00
        -11   -1    0    0    0    0  0.00000000000E+00  0.00000000000E+00  0.45593999997E+02  0.45594000000E+02  0.51100000000E-03 0. -1.
         11   -1    0    0    0    0 -0.00000000000E+00 -0.00000000000E+00 -0.45593999997E+02  0.45594000000E+02  0.51100000000E-03 0.  1.
    9900012    2    1    2    0    0  0.11674877673E+02  0.29693452942E+01  0.41695366253E+02  0.47787270200E+02  0.19999996152E+02 0.  0.
        -12    1    1    2    0    0 -0.11674877673E+02 -0.29693452942E+01 -0.41695366253E+02  0.43400729800E+02  0.00000000000E+00 0.  1.
         11    1    3    3    0    0  0.49731409877E+01  0.43269214989E+01  0.27236640636E+02  0.28023007946E+02  0.51100000000E-03 0. -1.
        -11    1    3    3    0    0  0.59509046512E+01 -0.26626134572E+01  0.16199831272E+02  0.17462454297E+02  0.51100000000E-03 0.  1.
         12    1    3    3    0    0  0.75083203445E+00  0.13050372526E+01 -0.17411056543E+01  0.23018079577E+01  0.00000000000E+00 0. -1.
</event>
<event>
 7    1  0.4031943E-009  0.4778727E+02  0.7816164E-02  0.1312668E+00
        -11   -1    0    0    0    0  0.00000000000E+00  0.00000000000E+00  0.45593999997E+02  0.45594000000E+02  0.51100000000E-03 0.  1.
         11   -1    0    0    0    0 -0.00000000000E+00 -0.00000000000E+00 -0.45593999997E+02  0.45594000000E+02  0.51100000000E-03 0. -1.
    9900012    2    1    2    0    0  0.19963134263E+02 -0.32976018121E+02 -0.19941884752E+02  0.47787271109E+02  0.20000000296E+02 0.  0.
        -12    1    1    2    0    0 -0.19963134263E+02  0.32976018121E+02  0.19941884752E+02  0.43400728891E+02  0.00000000000E+00 0.  1.
         11    1    3    3    0    0  0.99806333027E+01 -0.17124714727E+02 -0.83560416581E+01  0.21510284239E+02  0.51100000000E-03 0. -1.
        -11    1    3    3    0    0  0.38668885854E+01 -0.11841214953E+02  0.14017162461E+00  0.12457401304E+02  0.51100000000E-03 0.  1.
        -12    1    3    3    0    0  0.61156123753E+01 -0.40100884409E+01 -0.11726014719E+02  0.13819585566E+02  0.00000000000E+00 0.  1.
</event>
<event>
 7    1  0.4031943E-009  0.4778727E+02  0.7816164E-02  0.1312668E+00
        -11   -1    0    0    0    0  0.00000000000E+00  0.00000000000E+00  0.45593999997E+02  0.45594000000E+02  0.51100000000E-03 0.  1.
         11   -1    0    0    0    0 -0.00000000000E+00 -0.00000000000E+00 -0.45593999997E+02  0.45594000000E+02  0.51100000000E-03 0. -1.
    9900012    2    1    2    0    0 -0.21585060168E+02 -0.46333004425E+01 -0.37366304588E+02  0.47787274038E+02  0.20000013648E+02 0.  0.
        -12    1    1    2    0    0  0.21585060168E+02  0.46333004425E+01  0.37366304588E+02  0.43400725962E+02  0.00000000000E+00 0.  1.
         11    1    3    3    0    0 -0.90961522839E+01 -0.74958848544E+01 -0.12066646712E+02  0.16868083450E+02  0.51100000000E-03 0. -1.
        -11    1    3    3    0    0 -0.31632044176E+01 -0.46271173134E+01 -0.59756059717E+01  0.81929203468E+01  0.51100000000E-03 0.  1.
        -12    1    3    3    0    0 -0.93257034670E+01  0.74897017252E+01 -0.19324051904E+02  0.22726270241E+02  0.00000000000E+00 0.  1.
</event>
<event>
 7    1  0.4031943E-009  0.4778727E+02  0.7816164E-02  0.1312668E+00
        -11   -1    0    0    0    0  0.00000000000E+00  0.00000000000E+00  0.45593999997E+02  0.45594000000E+02  0.51100000000E-03 0.  1.
         11   -1    0    0    0    0 -0.00000000000E+00 -0.00000000000E+00 -0.45593999997E+02  0.45594000000E+02  0.51100000000E-03 0. -1.
    9900012    2    1    2    0    0  0.98476688478E+01  0.21193849753E+02 -0.36571400179E+02  0.47787272355E+02  0.20000005974E+02 0.  0.
        -12    1    1    2    0    0 -0.98476688478E+01 -0.21193849753E+02  0.36571400179E+02  0.43400727645E+02  0.00000000000E+00 0.  1.
         11    1    3    3    0    0  0.34221889150E+01  0.10591525563E+02 -0.20712347776E+02  0.23513679877E+02  0.51100000000E-03 0. -1.
        -11    1    3    3    0    0  0.87331427557E+01  0.90854105340E+01 -0.17103297203E+02  0.21244652090E+02  0.51100000000E-03 0.  1.
         12    1    3    3    0    0 -0.23076628229E+01  0.15169136566E+01  0.12442448001E+01  0.30289403871E+01  0.00000000000E+00 0. -1.
</event>
<event>
 7    1  0.4031943E-009  0.4778725E+02  0.7816164E-02  0.1312668E+00
        -11   -1    0    0    0    0  0.00000000000E+00  0.00000000000E+00  0.45593999997E+02  0.45594000000E+02  0.51100000000E-03 0. -1.
         11   -1    0    0    0    0 -0.00000000000E+00 -0.00000000000E+00 -0.45593999997E+02  0.45594000000E+02  0.51100000000E-03 0.  1.
    9900012    2    1    2    0    0 -0.10345010009E+01 -0.36284697167E+02  0.23790245131E+02  0.47787248806E+02  0.19999898608E+02 0.  0.
        -12    1    1    2    0    0  0.10345010009E+01  0.36284697167E+02 -0.23790245131E+02  0.43400751194E+02  0.00000000000E+00 0.  1.
         11    1    3    3    0    0  0.49840468793E+01 -0.59264624704E+01  0.79553646515E+01  0.11101869559E+02  0.51100000000E-03 0.  1.
        -11    1    3    3    0    0 -0.28402122120E+00 -0.20581251692E+02  0.14701268223E+02  0.25294186623E+02  0.51100000000E-03 0. -1.
         12    1    3    3    0    0 -0.57345266591E+01 -0.97769830039E+01  0.11336122561E+01  0.11391192625E+02  0.00000000000E+00 0. -1.
</event>
<event>
 7    1  0.4031943E-009  0.4778727E+02  0.7816164E-02  0.1312668E+00
        -11   -1    0    0    0    0  0.00000000000E+00  0.00000000000E+00  0.45593999997E+02  0.45594000000E+02  0.51100000000E-03 0. -1.
         11   -1    0    0    0    0 -0.00000000000E+00 -0.00000000000E+00 -0.45593999997E+02  0.45594000000E+02  0.51100000000E-03 0.  1.
    9900012    2    1    2    0    0 -0.20051479671E+02  0.34020227507E+02 -0.18005149962E+02  0.47787272566E+02  0.20000006939E+02 0.  0.
        -12    1    1    2    0    0  0.20051479671E+02 -0.34020227507E+02  0.18005149962E+02  0.43400727434E+02  0.00000000000E+00 0.  1.
         11    1    3    3    0    0 -0.13270191534E+02  0.19595412572E+02 -0.89707839106E+01  0.25309151338E+02  0.51100000000E-03 0. -1.
        -11    1    3    3    0    0 -0.56350681611E+01  0.98077873941E+01 -0.12298119247E+02  0.16708992310E+02  0.51100000000E-03 0.  1.
        -12    1    3    3    0    0 -0.11462199757E+01  0.46170275410E+01  0.32637531960E+01  0.57691289179E+01  0.00000000000E+00 0.  1.
</event>
<event>
 7    1  0.4031943E-009  0.4778727E+02  0.7816164E-02  0.1312668E+00
        -11   -1    0    0    0    0  0.00000000000E+00  0.00000000000E+00  0.45593999997E+02  0.45594000000E+02  0.51100000000E-03 0.  1.
         11   -1    0    0    0    0 -0.00000000000E+00 -0.00000000000E+00 -0.45593999997E+02  0.45594000000E+02  0.51100000000E-03 0. -1.
    9900012    2    1    2    0    0 -0.51421236219E+01  0.35059792114E+02 -0.25059780209E+02  0.47787273710E+02  0.20000012151E+02 0.  0.
        -12    1    1    2    0    0  0.51421236219E+01 -0.35059792114E+02  0.25059780209E+02  0.43400726290E+02  0.00000000000E+00 0.  1.
         11    1    3    3    0    0 -0.92768227117E+00  0.16141632965E+02 -0.16303294148E+02  0.22961060723E+02  0.51100000000E-03 0. -1.
        -11    1    3    3    0    0  0.30419801003E+00  0.18696019252E+02 -0.73083621575E+01  0.20076001344E+02  0.51100000000E-03 0.  1.
        -12    1    3    3    0    0 -0.45186393607E+01  0.22213989672E+00 -0.14481239039E+01  0.47502116423E+01  0.00000000000E+00 0.  1.
</event>
<event>
 7    1  0.4031943E-009  0.4778727E+02  0.7816164E-02  0.1312668E+00
        -11   -1    0    0    0    0  0.00000000000E+00  0.00000000000E+00  0.45593999997E+02  0.45594000000E+02  0.51100000000E-03 0.  1.
         11   -1    0    0    0    0 -0.00000000000E+00 -0.00000000000E+00 -0.45593999997E+02  0.45594000000E+02  0.51100000000E-03 0. -1.
    9900012    2    1    2    0    0 -0.34653675723E+02  0.20015375573E+02 -0.16796744301E+02  0.47787272823E+02  0.20000008107E+02 0.  0.
        -12    1    1    2    0    0  0.34653675723E+02 -0.20015375573E+02  0.16796744301E+02  0.43400727177E+02  0.00000000000E+00 0.  1.
         11    1    3    3    0    0 -0.89095742704E+01  0.55152830146E+01  0.55861592740E+00  0.10493374692E+02  0.51100000000E-03 0. -1.
        -11    1    3    3    0    0  0.60961188936E+00  0.40347399539E+01 -0.62173163295E-01  0.40810070957E+01  0.51100000000E-03 0.  1.
         12    1    3    3    0    0 -0.26353713342E+02  0.10465352604E+02 -0.17293187065E+02  0.33212891035E+02  0.00000000000E+00 0. -1.
</event>
<event>
 7    1  0.4031943E-009  0.4778727E+02  0.7816164E-02  0.1312668E+00
        -11   -1    0    0    0    0  0.00000000000E+00  0.00000000000E+00  0.45593999997E+02  0.45594000000E+02  0.51100000000E-03 0.  1.
         11   -1    0    0    0    0 -0.00000000000E+00 -0.00000000000E+00 -0.45593999997E+02  0.45594000000E+02  0.51100000000E-03 0. -1.
    9900012    2    1    2    0    0  0.96315456003E+01  0.15464716137E+02 -0.39391616020E+02  0.47787268111E+02  0.19999986627E+02 0.  0.
        -12    1    1    2    0    0 -0.96315456003E+01 -0.15464716137E+02  0.39391616020E+02  0.43400731889E+02  0.00000000000E+00 0.  1.
         11    1    3    3    0    0  0.60941900901E+01  0.51509204936E+01 -0.18840408548E+02  0.20460501687E+02  0.51100000000E-03 0. -1.
        -11    1    3    3    0    0  0.90762110457E+01  0.68414620431E+01 -0.14452899959E+02  0.18386667108E+02  0.51100000000E-03 0.  1.
        -12    1    3    3    0    0 -0.55388555355E+01  0.34723335999E+01 -0.60983075122E+01  0.89400993163E+01  0.00000000000E+00 0.  1.
</event>
<event>
 7    1  0.4031943E-009  0.4778726E+02  0.7816164E-02  0.1312668E+00
        -11   -1    0    0    0    0  0.00000000000E+00  0.00000000000E+00  0.45593999997E+02  0.45594000000E+02  0.51100000000E-03 0.  1.
         11   -1    0    0    0    0 -0.00000000000E+00 -0.00000000000E+00 -0.45593999997E+02  0.45594000000E+02  0.51100000000E-03 0. -1.
    9900012    2    1    2    0    0 -0.12551545172E+01 -0.21402251101E+02 -0.37735820595E+02  0.47787263589E+02  0.19999966007E+02 0.  0.
        -12    1    1    2    0    0  0.12551545172E+01  0.21402251101E+02  0.37735820595E+02  0.43400736411E+02  0.00000000000E+00 0.  1.
         11    1    3    3    0    0 -0.13272707751E+01  0.11929071393E+01 -0.52829115262E+01  0.55761841440E+01  0.51100000000E-03 0. -1.
        -11    1    3    3    0    0 -0.67653800228E+01 -0.10359544107E+02 -0.19687922342E+02  0.23253060172E+02  0.51100000000E-03 0.  1.
         12    1    3    3    0    0  0.68374962807E+01 -0.12235614133E+02 -0.12764986727E+02  0.18958019272E+02  0.00000000000E+00 0. -1.
</event>
<event>
 7    1  0.4031943E-009  0.4778727E+02  0.7816164E-02  0.1312668E+00
        -11   -1    0    0    0    0  0.00000000000E+00  0.00000000000E+00  0.45593999997E+02  0.45594000000E+02  0.51100000000E-03 0. -1.
         11   -1    0    0    0    0 -0.00000000000E+00 -0.00000000000E+00 -0.45593999997E+02  0.45594000000E+02  0.51100000000E-03 0.  1.
    9900012    2    1    2    0    0  0.30694801842E+02  0.21769603464E+02  0.21622593718E+02  0.47787273575E+02  0.20000011539E+02 0.  0.
        -12    1    1    2    0    0 -0.30694801842E+02 -0.21769603464E+02 -0.21622593718E+02  0.43400726425E+02  0.00000000000E+00 0.  1.
         11    1    3    3    0    0  0.24358612239E+02  0.17047026063E+02  0.21109092120E+02  0.36462814732E+02  0.51100000000E-03 0. -1.
        -11    1    3    3    0    0  0.75905404212E+00  0.15720898007E+00  0.34542643972E+01  0.35401723813E+01  0.51100000000E-03 0.  1.
         12    1    3    3    0    0  0.55771355606E+01  0.45653684211E+01 -0.29407627989E+01  0.77842864619E+01  0.00000000000E+00 0. -1.
</event>
<event>
 7    1  0.4031943E-009  0.4778731E+02  0.7816164E-02  0.1312668E+00
        -11   -1    0    0    0    0  0.00000000000E+00  0.00000000000E+00  0.45593999997E+02  0.45594000000E+02  0.51100000000E-03 0.  1.
         11   -1    0    0    0    0 -0.00000000000E+00 -0.00000000000E+00 -0.45593999997E+02  0.45594000000E+02  0.51100000000E-03 0. -1.
    9900012    2    1    2    0    0  0.27641751696E+01 -0.41189808675E+02 -0.13393253694E+02  0.47787305909E+02  0.20000158963E+02 0.  0.
        -12    1    1    2    0    0 -0.27641751696E+01  0.41189808675E+02  0.13393253694E+02  0.43400694091E+02  0.00000000000E+00 0.  1.
         11    1    3    3    0    0 -0.30547664599E+00 -0.63961020964E+01 -0.61906614774E+01  0.89066114655E+01  0.51100000000E-03 0. -1.
        -11    1    3    3    0    0 -0.52275143331E+01 -0.22336309618E+02 -0.19680116756E+01  0.23024133071E+02  0.51100000000E-03 0.  1.
         12    1    3    3    0    0  0.82971661487E+01 -0.12457396960E+02 -0.52345805410E+01  0.15856561373E+02  0.00000000000E+00 0. -1.
</event>
<event>
 7    1  0.4031943E-009  0.4778729E+02  0.7816164E-02  0.1312668E+00
        -11   -1    0    0    0    0  0.00000000000E+00  0.00000000000E+00  0.45593999997E+02  0.45594000000E+02  0.51100000000E-03 0.  1.
         11   -1    0    0    0    0 -0.00000000000E+00 -0.00000000000E+00 -0.45593999997E+02  0.45594000000E+02  0.51100000000E-03 0. -1.
    9900012    2    1    2    0    0  0.42561613951E+02  0.56240419390E+01  0.63640495423E+01  0.47787286222E+02  0.20000069200E+02 0.  0.
        -12    1    1    2    0    0 -0.42561613951E+02 -0.56240419390E+01 -0.63640495423E+01  0.43400713778E+02  0.00000000000E+00 0.  1.
         11    1    3    3    0    0  0.31814102354E+02  0.21997598220E+01  0.44388280770E+01  0.32197503735E+02  0.51100000000E-03 0. -1.
        -11    1    3    3    0    0  0.11735468366E+02  0.67797687876E+00  0.35110326942E+01  0.12268179215E+02  0.51100000000E-03 0.  1.
        -12    1    3    3    0    0 -0.98795676829E+00  0.27463052383E+01 -0.15858112289E+01  0.33216032712E+01  0.00000000000E+00 0.  1.
</event>
<event>
 7    1  0.4031943E-009  0.4778727E+02  0.7816164E-02  0.1312668E+00
        -11   -1    0    0    0    0  0.00000000000E+00  0.00000000000E+00  0.45593999997E+02  0.45594000000E+02  0.51100000000E-03 0.  1.
         11   -1    0    0    0    0 -0.00000000000E+00 -0.00000000000E+00 -0.45593999997E+02  0.45594000000E+02  0.51100000000E-03 0. -1.
    9900012    2    1    2    0    0 -0.22999910742E+02  0.42345019263E+01 -0.36560857704E+02  0.47787271703E+02  0.20000003002E+02 0.  0.
        -12    1    1    2    0    0  0.22999910742E+02 -0.42345019263E+01  0.36560857704E+02  0.43400728297E+02  0.00000000000E+00 0.  1.
         11    1    3    3    0    0 -0.12823169136E+02  0.60740190005E+01 -0.12984887006E+02  0.19233685667E+02  0.51100000000E-03 0. -1.
        -11    1    3    3    0    0  0.86017922100E+00  0.10846205344E+01  0.82636608736E+00  0.16122007218E+01  0.51100000000E-03 0.  1.
         12    1    3    3    0    0 -0.11036920827E+02 -0.29241376086E+01 -0.24402336785E+02  0.26941385314E+02  0.00000000000E+00 0. -1.
</event>
<event>
 7    1  0.4031943E-009  0.4778727E+02  0.7816164E-02  0.1312668E+00
        -11   -1    0    0    0    0  0.00000000000E+00  0.00000000000E+00  0.45593999997E+02  0.45594000000E+02  0.51100000000E-03 0. -1.
         11   -1    0    0    0    0 -0.00000000000E+00 -0.00000000000E+00 -0.45593999997E+02  0.45594000000E+02  0.51100000000E-03 0.  1.
    9900012    2    1    2    0    0  0.66906718408E+01 -0.38680862777E+02  0.18510789676E+02  0.47787267641E+02  0.19999984483E+02 0.  0.
        -12    1    1    2    0    0 -0.66906718408E+01  0.38680862777E+02 -0.18510789676E+02  0.43400732359E+02  0.00000000000E+00 0.  1.
         11    1    3    3    0    0 -0.30809520830E+01 -0.19033032136E+01  0.11570609359E+01  0.38017915686E+01  0.51100000000E-03 0. -1.
        -11    1    3    3    0    0 -0.60731582302E+00 -0.21783034235E+02  0.63976203805E+01  0.22711207802E+02  0.51100000000E-03 0.  1.
         12    1    3    3    0    0  0.10378939747E+02 -0.14994525328E+02  0.10956108360E+02  0.21274268271E+02  0.00000000000E+00 0. -1.
</event>
<event>
 7    1  0.4031943E-009  0.4778727E+02  0.7816164E-02  0.1312668E+00
        -11   -1    0    0    0    0  0.00000000000E+00  0.00000000000E+00  0.45593999997E+02  0.45594000000E+02  0.51100000000E-03 0.  1.
         11   -1    0    0    0    0 -0.00000000000E+00 -0.00000000000E+00 -0.45593999997E+02  0.45594000000E+02  0.51100000000E-03 0. -1.
    9900012    2    1    2    0    0  0.39420165860E+01  0.87718897276E+01 -0.42321833634E+02  0.47787272514E+02  0.20000006701E+02 0.  0.
        -12    1    1    2    0    0 -0.39420165860E+01 -0.87718897276E+01  0.42321833634E+02  0.43400727486E+02  0.00000000000E+00 0.  1.
         11    1    3    3    0    0 -0.18318869471E+01  0.53202789164E+01 -0.14231321309E+02  0.15303322646E+02  0.51100000000E-03 0. -1.
        -11    1    3    3    0    0 -0.46259903071E+01 -0.13470728518E+01 -0.94079190177E+01  0.10569925832E+02  0.51100000000E-03 0.  1.
         12    1    3    3    0    0  0.10399893840E+02  0.47986836630E+01 -0.18682593307E+02  0.21914024037E+02  0.00000000000E+00 0. -1.
</event>
<event>
 7    1  0.4031943E-009  0.4778724E+02  0.7816164E-02  0.1312668E+00
        -11   -1    0    0    0    0  0.00000000000E+00  0.00000000000E+00  0.45593999997E+02  0.45594000000E+02  0.51100000000E-03 0.  1.
         11   -1    0    0    0    0 -0.00000000000E+00 -0.00000000000E+00 -0.45593999997E+02  0.45594000000E+02  0.51100000000E-03 0. -1.
    9900012    2    1    2    0    0  0.35582445853E+02 -0.15796654694E+02  0.19182826788E+02  0.47787244293E+02  0.19999878029E+02 0.  0.
        -12    1    1    2    0    0 -0.35582445853E+02  0.15796654694E+02 -0.19182826788E+02  0.43400755707E+02  0.00000000000E+00 0.  1.
         11    1    3    3    0    0  0.14687569296E+02 -0.44579726312E+00  0.26755293749E+01  0.14935925975E+02  0.51100000000E-03 0. -1.
        -11    1    3    3    0    0  0.15974025856E+02 -0.10248324035E+02  0.55014945351E+01  0.19760164218E+02  0.51100000000E-03 0.  1.
        -12    1    3    3    0    0  0.49208507012E+01 -0.51025333955E+01  0.11005802878E+02  0.13091154100E+02  0.00000000000E+00 0.  1.
</event>
<event>
 7    1  0.4031943E-009  0.4778727E+02  0.7816164E-02  0.1312668E+00
        -11   -1    0    0    0    0  0.00000000000E+00  0.00000000000E+00  0.45593999997E+02  0.45594000000E+02  0.51100000000E-03 0.  1.
         11   -1    0    0    0    0 -0.00000000000E+00 -0.00000000000E+00 -0.45593999997E+02  0.45594000000E+02  0.51100000000E-03 0. -1.
    9900012    2    1    2    0    0  0.35928413659E+01  0.17644581839E+02 -0.39489028270E+02  0.47787272690E+02  0.20000007503E+02 0.  0.
        -12    1    1    2    0    0 -0.35928413659E+01 -0.17644581839E+02  0.39489028270E+02  0.43400727310E+02  0.00000000000E+00 0.  1.
         11    1    3    3    0    0 -0.61861952281E+01  0.74043932174E+01 -0.79088246183E+01  0.12475718714E+02  0.51100000000E-03 0.  1.
        -11    1    3    3    0    0  0.28077916621E+00  0.35678161695E+01 -0.12268264869E+02  0.12779611587E+02  0.51100000000E-03 0. -1.
        -12    1    3    3    0    0  0.94982574278E+01  0.66723724517E+01 -0.19311938783E+02  0.22531942390E+02  0.00000000000E+00 0.  1.
</event>
<event>
 7    1  0.4031943E-009  0.4778727E+02  0.7816164E-02  0.1312668E+00
        -11   -1    0    0    0    0  0.00000000000E+00  0.00000000000E+00  0.45593999997E+02  0.45594000000E+02  0.51100000000E-03 0. -1.
         11   -1    0    0    0    0 -0.00000000000E+00 -0.00000000000E+00 -0.45593999997E+02  0.45594000000E+02  0.51100000000E-03 0.  1.
    9900012    2    1    2    0    0  0.82551175520E+01  0.33349330404E+02  0.26519775641E+02  0.47787270695E+02  0.19999998405E+02 0.  0.
        -12    1    1    2    0    0 -0.82551175520E+01 -0.33349330404E+02 -0.26519775641E+02  0.43400729305E+02  0.00000000000E+00 0.  1.
         11    1    3    3    0    0  0.58958004139E+01  0.25742674114E+01  0.63252422098E+01  0.90219734261E+01  0.51100000000E-03 0. -1.
        -11    1    3    3    0    0  0.55653601790E+01  0.16230192358E+02  0.59614236502E+01  0.18164001489E+02  0.51100000000E-03 0.  1.
         12    1    3    3    0    0 -0.32060430410E+01  0.14544870634E+02  0.14233109781E+02  0.20601295779E+02  0.00000000000E+00 0. -1.
</event>
<event>
 7    1  0.4031943E-009  0.4778724E+02  0.7816164E-02  0.1312668E+00
        -11   -1    0    0    0    0  0.00000000000E+00  0.00000000000E+00  0.45593999997E+02  0.45594000000E+02  0.51100000000E-03 0.  1.
         11   -1    0    0    0    0 -0.00000000000E+00 -0.00000000000E+00 -0.45593999997E+02  0.45594000000E+02  0.51100000000E-03 0. -1.
    9900012    2    1    2    0    0  0.29710632915E+02  0.10948199059E+02 -0.29682334729E+02  0.47787242335E+02  0.19999869104E+02 0.  0.
        -12    1    1    2    0    0 -0.29710632915E+02 -0.10948199059E+02  0.29682334729E+02  0.43400757665E+02  0.00000000000E+00 0.  1.
         11    1    3    3    0    0  0.11223215683E+02  0.20084581773E+01 -0.77336963915E+01  0.13776956654E+02  0.51100000000E-03 0. -1.
        -11    1    3    3    0    0  0.10270347211E+02  0.37401252695E+01 -0.10751273304E+01  0.10982917095E+02  0.51100000000E-03 0.  1.
         12    1    3    3    0    0  0.82170700213E+01  0.51996156122E+01 -0.20873511007E+02  0.23027368587E+02  0.00000000000E+00 0. -1.
</event>
<event>
 7    1  0.4031943E-009  0.4778727E+02  0.7816164E-02  0.1312668E+00
        -11   -1    0    0    0    0  0.00000000000E+00  0.00000000000E+00  0.45593999997E+02  0.45594000000E+02  0.51100000000E-03 0.  1.
         11   -1    0    0    0    0 -0.00000000000E+00 -0.00000000000E+00 -0.45593999997E+02  0.45594000000E+02  0.51100000000E-03 0. -1.
    9900012    2    1    2    0    0 -0.25887615240E+02 -0.78872493958E+00 -0.34825746427E+02  0.47787270467E+02  0.19999997366E+02 0.  0.
        -12    1    1    2    0    0  0.25887615240E+02  0.78872493958E+00  0.34825746427E+02  0.43400729533E+02  0.00000000000E+00 0.  1.
         11    1    3    3    0    0 -0.59135692340E+01 -0.39953716623E+01 -0.35262485640E+01  0.79603847270E+01  0.51100000000E-03 0. -1.
        -11    1    3    3    0    0 -0.48773720108E+01  0.70341985617E+01 -0.15084320106E+02  0.17343742977E+02  0.51100000000E-03 0.  1.
         12    1    3    3    0    0 -0.15096673995E+02 -0.38275518390E+01 -0.16215177757E+02  0.22483142763E+02  0.00000000000E+00 0. -1.
</event>
<event>
 7    1  0.4031943E-009  0.4778727E+02  0.7816164E-02  0.1312668E+00
        -11   -1    0    0    0    0  0.00000000000E+00  0.00000000000E+00  0.45593999997E+02  0.45594000000E+02  0.51100000000E-03 0.  1.
         11   -1    0    0    0    0 -0.00000000000E+00 -0.00000000000E+00 -0.45593999997E+02  0.45594000000E+02  0.51100000000E-03 0. -1.
    9900012    2    1    2    0    0 -0.14762111119E+02  0.12807302349E+02 -0.38751466087E+02  0.47787273715E+02  0.20000012175E+02 0.  0.
        -12    1    1    2    0    0  0.14762111119E+02 -0.12807302349E+02  0.38751466087E+02  0.43400726285E+02  0.00000000000E+00 0.  1.
         11    1    3    3    0    0 -0.58811281599E+01  0.10439410586E+01 -0.26649095276E+02  0.27310286718E+02  0.51100000000E-03 0. -1.
        -11    1    3    3    0    0 -0.19449204029E-01  0.25211691892E+00  0.92823680205E+00  0.96206290550E+00  0.51100000000E-03 0.  1.
         12    1    3    3    0    0 -0.88615337552E+01  0.11511244372E+02 -0.13030607614E+02  0.19514924091E+02  0.00000000000E+00 0. -1.
</event>
<event>
 7    1  0.4031943E-009  0.4778727E+02  0.7816164E-02  0.1312668E+00
        -11   -1    0    0    0    0  0.00000000000E+00  0.00000000000E+00  0.45593999997E+02  0.45594000000E+02  0.51100000000E-03 0.  1.
         11   -1    0    0    0    0 -0.00000000000E+00 -0.00000000000E+00 -0.45593999997E+02  0.45594000000E+02  0.51100000000E-03 0. -1.
    9900012    2    1    2    0    0 -0.18126949225E+02  0.95841962812E+01 -0.38251540958E+02  0.47787268529E+02  0.19999988533E+02 0.  0.
        -12    1    1    2    0    0  0.18126949225E+02 -0.95841962812E+01  0.38251540958E+02  0.43400731471E+02  0.00000000000E+00 0.  1.
         11    1    3    3    0    0  0.13913183478E+00 -0.68607494467E+00 -0.83659070131E+01  0.83951448416E+01  0.51100000000E-03 0. -1.
        -11    1    3    3    0    0 -0.76125897359E+01 -0.28884037190E+01 -0.59974422951E+01  0.10112552243E+02  0.51100000000E-03 0.  1.
         12    1    3    3    0    0 -0.10653491324E+02  0.13158674945E+02 -0.23888191649E+02  0.29279571444E+02  0.00000000000E+00 0. -1.
</event>
<event>
 7    1  0.4031943E-009  0.4778727E+02  0.7816164E-02  0.1312668E+00
        -11   -1    0    0    0    0  0.00000000000E+00  0.00000000000E+00  0.45593999997E+02  0.45594000000E+02  0.51100000000E-03 0.  1.
         11   -1    0    0    0    0 -0.00000000000E+00 -0.00000000000E+00 -0.45593999997E+02  0.45594000000E+02  0.51100000000E-03 0. -1.
    9900012    2    1    2    0    0 -0.10412306921E+01  0.22831439365E+02 -0.36895316423E+02  0.47787272371E+02  0.20000006047E+02 0.  0.
        -12    1    1    2    0    0  0.10412306921E+01 -0.22831439365E+02  0.36895316423E+02  0.43400727629E+02  0.00000000000E+00 0.  1.
         11    1    3    3    0    0 -0.55001176259E+01  0.61427726685E+01 -0.14156432973E+02  0.16382598840E+02  0.51100000000E-03 0. -1.
        -11    1    3    3    0    0  0.28370606473E+00  0.17314770621E+02 -0.19529773204E+02  0.26101605553E+02  0.51100000000E-03 0.  1.
        -12    1    3    3    0    0  0.41751808691E+01 -0.62610392436E+00 -0.32091102457E+01  0.53030679783E+01  0.00000000000E+00 0.  1.
</event>
<event>
 7    1  0.4031943E-009  0.4778727E+02  0.7816164E-02  0.1312668E+00
        -11   -1    0    0    0    0  0.00000000000E+00  0.00000000000E+00  0.45593999997E+02  0.45594000000E+02  0.51100000000E-03 0.  1.
         11   -1    0    0    0    0 -0.00000000000E+00 -0.00000000000E+00 -0.45593999997E+02  0.45594000000E+02  0.51100000000E-03 0. -1.
    9900012    2    1    2    0    0 -0.10218522351E+02 -0.15931183799E+01 -0.42150524883E+02  0.47787274509E+02  0.20000015796E+02 0.  0.
        -12    1    1    2    0    0  0.10218522351E+02  0.15931183799E+01  0.42150524883E+02  0.43400725491E+02  0.00000000000E+00 0.  1.
         11    1    3    3    0    0  0.14177892867E+01 -0.13612462204E+01 -0.69229530007E+00  0.20838403916E+01  0.51100000000E-03 0.  1.
        -11    1    3    3    0    0 -0.93189577180E+01 -0.72809095505E+00 -0.84206234783E+01  0.12580937541E+02  0.51100000000E-03 0. -1.
         12    1    3    3    0    0 -0.23173539197E+01  0.49621879553E+00 -0.33037606105E+02  0.33122496576E+02  0.00000000000E+00 0. -1.
</event>
<event>
 7    1  0.4031943E-009  0.4778728E+02  0.7816164E-02  0.1312668E+00
        -11   -1    0    0    0    0  0.00000000000E+00  0.00000000000E+00  0.45593999997E+02  0.45594000000E+02  0.51100000000E-03 0.  1.
         11   -1    0    0    0    0 -0.00000000000E+00 -0.00000000000E+00 -0.45593999997E+02  0.45594000000E+02  0.51100000000E-03 0. -1.
    9900012    2    1    2    0    0 -0.12929128856E+02 -0.21489764026E+02 -0.35421042096E+02  0.47787279337E+02  0.20000037810E+02 0.  0.
        -12    1    1    2    0    0  0.12929128856E+02  0.21489764026E+02  0.35421042096E+02  0.43400720663E+02  0.00000000000E+00 0.  1.
         11    1    3    3    0    0 -0.65633237939E+01 -0.21036625267E+02 -0.25643112225E+02  0.33811034097E+02  0.51100000000E-03 0. -1.
        -11    1    3    3    0    0 -0.71227936829E+00 -0.27876399787E+01 -0.63338191917E+01  0.69566906186E+01  0.51100000000E-03 0.  1.
        -12    1    3    3    0    0 -0.56535256938E+01  0.23345012201E+01 -0.34441106800E+01  0.70195546221E+01  0.00000000000E+00 0.  1.
</event>
<event>
 7    1  0.4346616E-009  0.4778727E+02  0.7816164E-02  0.1312668E+00
        -11   -1    0    0    0    0  0.00000000000E+00  0.00000000000E+00  0.45593999997E+02  0.45594000000E+02  0.51100000000E-03 0.  1.
         11   -1    0    0    0    0 -0.00000000000E+00 -0.00000000000E+00 -0.45593999997E+02  0.45594000000E+02  0.51100000000E-03 0. -1.
    9900012    2    1    2    0    0 -0.16540575455E+01 -0.42434795069E+02 -0.89540887054E+01  0.47787269090E+02  0.19999991091E+02 0.  0.
        -12    1    1    2    0    0  0.16540575455E+01  0.42434795069E+02  0.89540887054E+01  0.43400730910E+02  0.00000000000E+00 0.  1.
         11    1    3    3    0    0 -0.20460732829E+00 -0.85451446344E+01 -0.79997053136E+01  0.11707119473E+02  0.51100000000E-03 0. -1.
        -11    1    3    3    0    0  0.41599441482E+01 -0.60393966380E+01  0.17586134498E+01  0.75413638418E+01  0.51100000000E-03 0.  1.
         12    1    3    3    0    0 -0.56093943654E+01 -0.27850253797E+02 -0.27129968416E+01  0.28538785776E+02  0.00000000000E+00 0. -1.
</event>
<event>
 7    1  0.4031943E-009  0.4778727E+02  0.7816164E-02  0.1312668E+00
        -11   -1    0    0    0    0  0.00000000000E+00  0.00000000000E+00  0.45593999997E+02  0.45594000000E+02  0.51100000000E-03 0.  1.
         11   -1    0    0    0    0 -0.00000000000E+00 -0.00000000000E+00 -0.45593999997E+02  0.45594000000E+02  0.51100000000E-03 0. -1.
    9900012    2    1    2    0    0 -0.33179323200E+02  0.23928988271E+02 -0.14496872896E+02  0.47787270842E+02  0.19999999076E+02 0.  0.
        -12    1    1    2    0    0  0.33179323200E+02 -0.23928988271E+02  0.14496872896E+02  0.43400729158E+02  0.00000000000E+00 0.  1.
         11    1    3    3    0    0 -0.33486182440E+02  0.23188685984E+02 -0.14446435342E+02  0.43217346823E+02  0.51100000000E-03 0.  1.
        -11    1    3    3    0    0 -0.86604951616E+00  0.77786550282E+00 -0.19885488629E+01  0.23042229376E+01  0.51100000000E-03 0. -1.
        -12    1    3    3    0    0  0.11729087564E+01 -0.37563215338E-01  0.19381113084E+01  0.22657010813E+01  0.00000000000E+00 0.  1.
</event>
<event>
 7    1  0.4031943E-009  0.4778732E+02  0.7816164E-02  0.1312668E+00
        -11   -1    0    0    0    0  0.00000000000E+00  0.00000000000E+00  0.45593999997E+02  0.45594000000E+02  0.51100000000E-03 0.  1.
         11   -1    0    0    0    0 -0.00000000000E+00 -0.00000000000E+00 -0.45593999997E+02  0.45594000000E+02  0.51100000000E-03 0. -1.
    9900012    2    1    2    0    0 -0.11992047719E+02  0.37136352869E+02 -0.18992122576E+02  0.47787324512E+02  0.20000243779E+02 0.  0.
        -12    1    1    2    0    0  0.11992047719E+02 -0.37136352869E+02  0.18992122576E+02  0.43400675488E+02  0.00000000000E+00 0.  1.
         11    1    3    3    0    0 -0.12194540869E+02  0.13672701003E+02 -0.80553677945E+01  0.20013458729E+02  0.51100000000E-03 0. -1.
        -11    1    3    3    0    0 -0.26633641067E+01  0.22237547171E+02 -0.99203959789E+01  0.24495229519E+02  0.51100000000E-03 0.  1.
        -12    1    3    3    0    0  0.28658572568E+01  0.12261046949E+01 -0.10163588025E+01  0.32786362644E+01  0.00000000000E+00 0.  1.
</event>
<event>
 7    1  0.4031943E-009  0.4778727E+02  0.7816164E-02  0.1312668E+00
        -11   -1    0    0    0    0  0.00000000000E+00  0.00000000000E+00  0.45593999997E+02  0.45594000000E+02  0.51100000000E-03 0. -1.
         11   -1    0    0    0    0 -0.00000000000E+00 -0.00000000000E+00 -0.45593999997E+02  0.45594000000E+02  0.51100000000E-03 0.  1.
    9900012    2    1    2    0    0 -0.20479431217E+02  0.27075235433E+02  0.27039744784E+02  0.47787271035E+02  0.19999999956E+02 0.  0.
        -12    1    1    2    0    0  0.20479431217E+02 -0.27075235433E+02 -0.27039744784E+02  0.43400728965E+02  0.00000000000E+00 0.  1.
         11    1    3    3    0    0 -0.96345391897E+01  0.58334385532E+01  0.14202476106E+02  0.18126325567E+02  0.51100000000E-03 0. -1.
        -11    1    3    3    0    0 -0.77440652436E+01  0.48198073273E+01  0.83273412734E+01  0.12350939321E+02  0.51100000000E-03 0.  1.
        -12    1    3    3    0    0 -0.31008267837E+01  0.16421989553E+02  0.45099274042E+01  0.17310006147E+02  0.00000000000E+00 0.  1.
</event>
<event>
 7    1  0.4031943E-009  0.4778727E+02  0.7816164E-02  0.1312668E+00
        -11   -1    0    0    0    0  0.00000000000E+00  0.00000000000E+00  0.45593999997E+02  0.45594000000E+02  0.51100000000E-03 0.  1.
         11   -1    0    0    0    0 -0.00000000000E+00 -0.00000000000E+00 -0.45593999997E+02  0.45594000000E+02  0.51100000000E-03 0. -1.
    9900012    2    1    2    0    0 -0.40361969391E+02  0.25413251828E+01 -0.15750447017E+02  0.47787268577E+02  0.19999988750E+02 0.  0.
        -12    1    1    2    0    0  0.40361969391E+02 -0.25413251828E+01  0.15750447017E+02  0.43400731423E+02  0.00000000000E+00 0.  1.
         11    1    3    3    0    0 -0.14106189577E+02  0.11595055796E+01 -0.10386333701E+01  0.14191821487E+02  0.51100000000E-03 0. -1.
        -11    1    3    3    0    0 -0.12667307200E+02 -0.55501669373E+01 -0.11545907197E+02  0.18015909580E+02  0.51100000000E-03 0.  1.
         12    1    3    3    0    0 -0.13588472614E+02  0.69319865405E+01 -0.31659064498E+01  0.15579537510E+02  0.00000000000E+00 0. -1.
</event>
<event>
 7    1  0.4031943E-009  0.4778726E+02  0.7816164E-02  0.1312668E+00
        -11   -1    0    0    0    0  0.00000000000E+00  0.00000000000E+00  0.45593999997E+02  0.45594000000E+02  0.51100000000E-03 0.  1.
         11   -1    0    0    0    0 -0.00000000000E+00 -0.00000000000E+00 -0.45593999997E+02  0.45594000000E+02  0.51100000000E-03 0. -1.
    9900012    2    1    2    0    0 -0.27092278772E+02  0.54897887828E+01 -0.33458857211E+02  0.47787257198E+02  0.19999936867E+02 0.  0.
        -12    1    1    2    0    0  0.27092278772E+02 -0.54897887828E+01  0.33458857211E+02  0.43400742802E+02  0.00000000000E+00 0.  1.
         11    1    3    3    0    0 -0.12898818137E+02  0.33355828412E+00 -0.53980056253E+01  0.13986752141E+02  0.51100000000E-03 0. -1.
        -11    1    3    3    0    0 -0.40085005066E+01 -0.35520591100E+01 -0.95348407544E+01  0.10936104823E+02  0.51100000000E-03 0.  1.
        -12    1    3    3    0    0 -0.10184960128E+02  0.87082896087E+01 -0.18526010831E+02  0.22864400234E+02  0.00000000000E+00 0.  1.
</event>
<event>
 7    1  0.4031943E-009  0.4778727E+02  0.7816164E-02  0.1312668E+00
        -11   -1    0    0    0    0  0.00000000000E+00  0.00000000000E+00  0.45593999997E+02  0.45594000000E+02  0.51100000000E-03 0. -1.
         11   -1    0    0    0    0 -0.00000000000E+00 -0.00000000000E+00 -0.45593999997E+02  0.45594000000E+02  0.51100000000E-03 0.  1.
    9900012    2    1    2    0    0 -0.89220224741E+01  0.15495531910E+02  0.39546291982E+02  0.47787271853E+02  0.20000003685E+02 0.  0.
        -12    1    1    2    0    0  0.89220224741E+01 -0.15495531910E+02 -0.39546291982E+02  0.43400728147E+02  0.00000000000E+00 0.  1.
         11    1    3    3    0    0 -0.87651120497E+01  0.83439297528E+01  0.17658142653E+02  0.21406969780E+02  0.51100000000E-03 0. -1.
        -11    1    3    3    0    0 -0.13277913674E+00  0.72247205506E+01  0.35659282431E+01  0.80579191997E+01  0.51100000000E-03 0.  1.
         12    1    3    3    0    0 -0.24131287565E-01 -0.73118393026E-01  0.18322221086E+02  0.18322382873E+02  0.00000000000E+00 0. -1.
</event>
<event>
 7    1  0.4031943E-009  0.4778726E+02  0.7816164E-02  0.1312668E+00
        -11   -1    0    0    0    0  0.00000000000E+00  0.00000000000E+00  0.45593999997E+02  0.45594000000E+02  0.51100000000E-03 0.  1.
         11   -1    0    0    0    0 -0.00000000000E+00 -0.00000000000E+00 -0.45593999997E+02  0.45594000000E+02  0.51100000000E-03 0. -1.
    9900012    2    1    2    0    0 -0.25328282261E+02  0.10321577946E+02 -0.33698182837E+02  0.47787258300E+02  0.19999941892E+02 0.  0.
        -12    1    1    2    0    0  0.25328282261E+02 -0.10321577946E+02  0.33698182837E+02  0.43400741700E+02  0.00000000000E+00 0.  1.
         11    1    3    3    0    0 -0.93286973814E+01  0.11735175282E+02 -0.14646382965E+02  0.20958422363E+02  0.51100000000E-03 0. -1.
        -11    1    3    3    0    0  0.86465109383E+00 -0.73869384302E+00 -0.41859977661E+01  0.43377260940E+01  0.51100000000E-03 0.  1.
         12    1    3    3    0    0 -0.16864235973E+02 -0.67490349331E+00 -0.14865802107E+02  0.22491109843E+02  0.00000000000E+00 0. -1.
</event>
<event>
 7    1  0.4031943E-009  0.4778727E+02  0.7816164E-02  0.1312668E+00
        -11   -1    0    0    0    0  0.00000000000E+00  0.00000000000E+00  0.45593999997E+02  0.45594000000E+02  0.51100000000E-03 0.  1.
         11   -1    0    0    0    0 -0.00000000000E+00 -0.00000000000E+00 -0.45593999997E+02  0.45594000000E+02  0.51100000000E-03 0. -1.
    9900012    2    1    2    0    0  0.34646991688E+02 -0.91276967066E+01 -0.24492740678E+02  0.47787271595E+02  0.20000002509E+02 0.  0.
        -12    1    1    2    0    0 -0.34646991688E+02  0.91276967066E+01  0.24492740678E+02  0.43400728405E+02  0.00000000000E+00 0.  1.
         11    1    3    3    0    0  0.55514034730E+01 -0.79535050144E+00 -0.92218617778E+01  0.10793210729E+02  0.51100000000E-03 0. -1.
        -11    1    3    3    0    0 -0.93599871431E+00 -0.30627109296E+01 -0.15751085908E+01  0.35689296947E+01  0.51100000000E-03 0.  1.
         12    1    3    3    0    0  0.30031586929E+02 -0.52696352756E+01 -0.13695770310E+02  0.33425131171E+02  0.00000000000E+00 0. -1.
</event>
<event>
 7    1  0.4031943E-009  0.4778726E+02  0.7816164E-02  0.1312668E+00
        -11   -1    0    0    0    0  0.00000000000E+00  0.00000000000E+00  0.45593999997E+02  0.45594000000E+02  0.51100000000E-03 0.  1.
         11   -1    0    0    0    0 -0.00000000000E+00 -0.00000000000E+00 -0.45593999997E+02  0.45594000000E+02  0.51100000000E-03 0. -1.
    9900012    2    1    2    0    0 -0.25297509657E+02 -0.13228409618E+02 -0.32690508265E+02  0.47787260991E+02  0.19999954164E+02 0.  0.
        -12    1    1    2    0    0  0.25297509657E+02  0.13228409618E+02  0.32690508265E+02  0.43400739009E+02  0.00000000000E+00 0.  1.
         11    1    3    3    0    0 -0.12102915013E+02 -0.16776075746E+01 -0.13845320827E+02  0.18465855735E+02  0.51100000000E-03 0. -1.
        -11    1    3    3    0    0 -0.22928875887E+00  0.17745084215E+01 -0.71188768525E+01  0.73402902786E+01  0.51100000000E-03 0.  1.
         12    1    3    3    0    0 -0.12965305886E+02 -0.13325310465E+02 -0.11726310586E+02  0.21981114977E+02  0.00000000000E+00 0. -1.
</event>
<event>
 7    1  0.4031943E-009  0.4778727E+02  0.7816164E-02  0.1312668E+00
        -11   -1    0    0    0    0  0.00000000000E+00  0.00000000000E+00  0.45593999997E+02  0.45594000000E+02  0.51100000000E-03 0. -1.
         11   -1    0    0    0    0 -0.00000000000E+00 -0.00000000000E+00 -0.45593999997E+02  0.45594000000E+02  0.51100000000E-03 0.  1.
    9900012    2    1    2    0    0  0.37180112732E+02  0.53035284589E+00  0.22382618187E+02  0.47787266667E+02  0.19999980043E+02 0.  0.
        -12    1    1    2    0    0 -0.37180112732E+02 -0.53035284589E+00 -0.22382618187E+02  0.43400733333E+02  0.00000000000E+00 0.  1.
         11    1    3    3    0    0  0.25197467360E+01 -0.18034316753E+01 -0.92573458304E+00  0.32339564314E+01  0.51100000000E-03 0. -1.
        -11    1    3    3    0    0 -0.60541371465E+00  0.76290946774E-01  0.44626796131E+01  0.45042042210E+01  0.51100000000E-03 0.  1.
        -12    1    3    3    0    0  0.35265779711E+02  0.22574935744E+01  0.18845673157E+02  0.40049106015E+02  0.00000000000E+00 0.  1.
</event>
<event>
 7    1  0.4031943E-009  0.4778727E+02  0.7816164E-02  0.1312668E+00
        -11   -1    0    0    0    0  0.00000000000E+00  0.00000000000E+00  0.45593999997E+02  0.45594000000E+02  0.51100000000E-03 0. -1.
         11   -1    0    0    0    0 -0.00000000000E+00 -0.00000000000E+00 -0.45593999997E+02  0.45594000000E+02  0.51100000000E-03 0.  1.
    9900012    2    1    2    0    0  0.19777433262E+02 -0.18652276085E+02  0.33831480463E+02  0.47787270283E+02  0.19999996529E+02 0.  0.
        -12    1    1    2    0    0 -0.19777433262E+02  0.18652276085E+02 -0.33831480463E+02  0.43400729717E+02  0.00000000000E+00 0.  1.
         11    1    3    3    0    0  0.76443494039E+01 -0.34572095146E+01  0.77980305079E+01  0.11454154508E+02  0.51100000000E-03 0. -1.
        -11    1    3    3    0    0 -0.80391600324E+00  0.15829857470E+01  0.89292316857E+01  0.91040267779E+01  0.51100000000E-03 0.  1.
        -12    1    3    3    0    0  0.12936999862E+02 -0.16778052317E+02  0.17104218270E+02  0.27229088997E+02  0.00000000000E+00 0.  1.
</event>
<event>
 7    1  0.4031943E-009  0.4778727E+02  0.7816164E-02  0.1312668E+00
        -11   -1    0    0    0    0  0.00000000000E+00  0.00000000000E+00  0.45593999997E+02  0.45594000000E+02  0.51100000000E-03 0.  1.
         11   -1    0    0    0    0 -0.00000000000E+00 -0.00000000000E+00 -0.45593999997E+02  0.45594000000E+02  0.51100000000E-03 0. -1.
    9900012    2    1    2    0    0  0.32918778873E+01  0.20496170594E+01 -0.43227143168E+02  0.47787270783E+02  0.19999998808E+02 0.  0.
        -12    1    1    2    0    0 -0.32918778873E+01 -0.20496170594E+01  0.43227143168E+02  0.43400729217E+02  0.00000000000E+00 0.  1.
         11    1    3    3    0    0 -0.54268287754E-01 -0.38749487168E+01 -0.15319774880E+02  0.15802331323E+02  0.51100000000E-03 0. -1.
        -11    1    3    3    0    0 -0.33938635187E+00 -0.80651046552E+00  0.14212245844E+01  0.16689882586E+01  0.51100000000E-03 0.  1.
         12    1    3    3    0    0  0.36855325269E+01  0.67310762417E+01 -0.29328592872E+02  0.30315951201E+02  0.00000000000E+00 0. -1.
</event>
<event>
 7    1  0.4031943E-009  0.4778726E+02  0.7816164E-02  0.1312668E+00
        -11   -1    0    0    0    0  0.00000000000E+00  0.00000000000E+00  0.45593999997E+02  0.45594000000E+02  0.51100000000E-03 0.  1.
         11   -1    0    0    0    0 -0.00000000000E+00 -0.00000000000E+00 -0.45593999997E+02  0.45594000000E+02  0.51100000000E-03 0. -1.
    9900012    2    1    2    0    0  0.43657827156E+01  0.42515355444E+02 -0.75503937749E+01  0.47787263216E+02  0.19999964308E+02 0.  0.
        -12    1    1    2    0    0 -0.43657827156E+01 -0.42515355444E+02  0.75503937749E+01  0.43400736784E+02  0.00000000000E+00 0.  1.
         11    1    3    3    0    0  0.63945318359E+00  0.23996886965E+02 -0.47926939287E+01  0.24479162562E+02  0.51100000000E-03 0. -1.
        -11    1    3    3    0    0  0.91210961287E+00  0.19961018897E+02 -0.23532480754E+01  0.20119940261E+02  0.51100000000E-03 0.  1.
         12    1    3    3    0    0  0.28142199191E+01 -0.14425504176E+01 -0.40445177088E+00  0.31881603936E+01  0.00000000000E+00 0. -1.
</event>
<event>
 7    1  0.4031943E-009  0.4778730E+02  0.7816164E-02  0.1312668E+00
        -11   -1    0    0    0    0  0.00000000000E+00  0.00000000000E+00  0.45593999997E+02  0.45594000000E+02  0.51100000000E-03 0.  1.
         11   -1    0    0    0    0 -0.00000000000E+00 -0.00000000000E+00 -0.45593999997E+02  0.45594000000E+02  0.51100000000E-03 0. -1.
    9900012    2    1    2    0    0 -0.30933823944E+02 -0.25000200686E+02 -0.17369785109E+02  0.47787298014E+02  0.20000122964E+02 0.  0.
        -12    1    1    2    0    0  0.30933823944E+02  0.25000200686E+02  0.17369785109E+02  0.43400701986E+02  0.00000000000E+00 0.  1.
         11    1    3    3    0    0 -0.23603333507E+02 -0.10170320927E+02 -0.97354491013E+01  0.27483299472E+02  0.51100000000E-03 0. -1.
        -11    1    3    3    0    0 -0.44194254631E+01 -0.13748614861E+01 -0.14121819307E+00  0.46304976373E+01  0.51100000000E-03 0.  1.
        -12    1    3    3    0    0 -0.29110649736E+01 -0.13455018273E+02 -0.74931178151E+01  0.15673500904E+02  0.00000000000E+00 0.  1.
</event>
<event>
 7    1  0.4031943E-009  0.4778728E+02  0.7816164E-02  0.1312668E+00
        -11   -1    0    0    0    0  0.00000000000E+00  0.00000000000E+00  0.45593999997E+02  0.45594000000E+02  0.51100000000E-03 0. -1.
         11   -1    0    0    0    0 -0.00000000000E+00 -0.00000000000E+00 -0.45593999997E+02  0.45594000000E+02  0.51100000000E-03 0.  1.
    9900012    2    1    2    0    0  0.19268195168E+02 -0.11865726059E+02  0.37034632363E+02  0.47787276571E+02  0.20000025197E+02 0.  0.
        -12    1    1    2    0    0 -0.19268195168E+02  0.11865726059E+02 -0.37034632363E+02  0.43400723429E+02  0.00000000000E+00 0.  1.
         11    1    3    3    0    0 -0.13521905105E+01  0.27630495772E+00  0.34883861074E-01  0.13805726171E+01  0.51100000000E-03 0.  1.
        -11    1    3    3    0    0  0.18637490395E+02 -0.99491239750E+01  0.37835520312E+02  0.43334371042E+02  0.51100000000E-03 0. -1.
         12    1    3    3    0    0  0.19828952838E+01 -0.21929070422E+01 -0.83577181006E+00  0.30723329118E+01  0.00000000000E+00 0. -1.
</event>
<event>
 7    1  0.4031943E-009  0.4778727E+02  0.7816164E-02  0.1312668E+00
        -11   -1    0    0    0    0  0.00000000000E+00  0.00000000000E+00  0.45593999997E+02  0.45594000000E+02  0.51100000000E-03 0.  1.
         11   -1    0    0    0    0 -0.00000000000E+00 -0.00000000000E+00 -0.45593999997E+02  0.45594000000E+02  0.51100000000E-03 0. -1.
    9900012    2    1    2    0    0 -0.16319094199E+02 -0.19128654295E+02 -0.35375206337E+02  0.47787268739E+02  0.19999989487E+02 0.  0.
        -12    1    1    2    0    0  0.16319094199E+02  0.19128654295E+02  0.35375206337E+02  0.43400731261E+02  0.00000000000E+00 0.  1.
         11    1    3    3    0    0  0.21447371608E+01  0.10693380518E+01 -0.18347240611E+01  0.30182103968E+01  0.51100000000E-03 0. -1.
        -11    1    3    3    0    0 -0.29208531217E+01  0.78006582243E+00 -0.13213707495E+01  0.32993797242E+01  0.51100000000E-03 0.  1.
         12    1    3    3    0    0 -0.15542978238E+02 -0.20978058169E+02 -0.32219111527E+02  0.41469678618E+02  0.00000000000E+00 0. -1.
</event>
<event>
 7    1  0.4031943E-009  0.4778727E+02  0.7816164E-02  0.1312668E+00
        -11   -1    0    0    0    0  0.00000000000E+00  0.00000000000E+00  0.45593999997E+02  0.45594000000E+02  0.51100000000E-03 0. -1.
         11   -1    0    0    0    0 -0.00000000000E+00 -0.00000000000E+00 -0.45593999997E+02  0.45594000000E+02  0.51100000000E-03 0.  1.
    9900012    2    1    2    0    0  0.45645670271E+01  0.42078493495E+02  0.96014752895E+01  0.47787271726E+02  0.20000003108E+02 0.  0.
        -12    1    1    2    0    0 -0.45645670271E+01 -0.42078493495E+02 -0.96014752895E+01  0.43400728274E+02  0.00000000000E+00 0.  1.
         11    1    3    3    0    0  0.39474643217E+01  0.31658430693E+02  0.43143535156E+01  0.32193980105E+02  0.51100000000E-03 0. -1.
        -11    1    3    3    0    0 -0.10428793121E+01  0.74223716941E+01 -0.18113413785E+01  0.77110412186E+01  0.51100000000E-03 0.  1.
        -12    1    3    3    0    0  0.16599820176E+01  0.29976911082E+01  0.70984631523E+01  0.78822504022E+01  0.00000000000E+00 0.  1.
</event>
<event>
 7    1  0.4031943E-009  0.4778727E+02  0.7816164E-02  0.1312668E+00
        -11   -1    0    0    0    0  0.00000000000E+00  0.00000000000E+00  0.45593999997E+02  0.45594000000E+02  0.51100000000E-03 0.  1.
         11   -1    0    0    0    0 -0.00000000000E+00 -0.00000000000E+00 -0.45593999997E+02  0.45594000000E+02  0.51100000000E-03 0. -1.
    9900012    2    1    2    0    0 -0.59598760528E+01 -0.29863536845E+02 -0.30923651248E+02  0.47787272333E+02  0.20000005877E+02 0.  0.
        -12    1    1    2    0    0  0.59598760528E+01  0.29863536845E+02  0.30923651248E+02  0.43400727667E+02  0.00000000000E+00 0.  1.
         11    1    3    3    0    0  0.11858063405E+01 -0.19525600957E+02 -0.17335924789E+02  0.26137894291E+02  0.51100000000E-03 0. -1.
        -11    1    3    3    0    0 -0.44904748828E+01 -0.12235869206E+02 -0.12850334624E+02  0.18303331940E+02  0.51100000000E-03 0.  1.
        -12    1    3    3    0    0 -0.26552075106E+01  0.18979333174E+01 -0.73739183472E+00  0.33460461024E+01  0.00000000000E+00 0.  1.
</event>
<event>
 7    1  0.4031943E-009  0.4778727E+02  0.7816164E-02  0.1312668E+00
        -11   -1    0    0    0    0  0.00000000000E+00  0.00000000000E+00  0.45593999997E+02  0.45594000000E+02  0.51100000000E-03 0.  1.
         11   -1    0    0    0    0 -0.00000000000E+00 -0.00000000000E+00 -0.45593999997E+02  0.45594000000E+02  0.51100000000E-03 0. -1.
    9900012    2    1    2    0    0  0.41661227557E+02  0.85059289219E+01 -0.86956661923E+01  0.47787270525E+02  0.19999997633E+02 0.  0.
        -12    1    1    2    0    0 -0.41661227557E+02 -0.85059289219E+01  0.86956661923E+01  0.43400729475E+02  0.00000000000E+00 0.  1.
         11    1    3    3    0    0  0.17539597527E+02 -0.25322864800E+00  0.25897632769E+01  0.17731567338E+02  0.51100000000E-03 0. -1.
        -11    1    3    3    0    0  0.42200254087E+01 -0.69268201534E+00  0.15603541488E+01  0.45522662659E+01  0.51100000000E-03 0.  1.
         12    1    3    3    0    0  0.19901604621E+02  0.94518395852E+01 -0.12845783618E+02  0.25503436921E+02  0.00000000000E+00 0. -1.
</event>
<event>
 7    1 -0.4031943E-009  0.4778727E+02  0.7816164E-02  0.1312668E+00
        -11   -1    0    0    0    0  0.00000000000E+00  0.00000000000E+00  0.45593999997E+02  0.45594000000E+02  0.51100000000E-03 0.  1.
         11   -1    0    0    0    0 -0.00000000000E+00 -0.00000000000E+00 -0.45593999997E+02  0.45594000000E+02  0.51100000000E-03 0. -1.
    9900012    2    1    2    0    0 -0.41914085937E+02 -0.95626612830E+01 -0.59488190691E+01  0.47787267990E+02  0.19999986072E+02 0.  0.
        -12    1    1    2    0    0  0.41914085937E+02  0.95626612830E+01  0.59488190691E+01  0.43400732010E+02  0.00000000000E+00 0.  1.
         11    1    3    3    0    0 -0.32912955228E+01 -0.45025368385E+01 -0.13562908149E+01  0.57397725770E+01  0.51100000000E-03 0. -1.
        -11    1    3    3    0    0 -0.30650696891E+02 -0.84408584297E+01  0.87992658568E+00  0.31803892561E+02  0.51100000000E-03 0.  1.
        -12    1    3    3    0    0 -0.79720935225E+01  0.33807339852E+01 -0.54724548399E+01  0.10243602852E+02  0.00000000000E+00 0.  1.
</event>
<event>
 7    1  0.4225630E-009  0.4778727E+02  0.7816164E-02  0.1312668E+00
        -11   -1    0    0    0    0  0.00000000000E+00  0.00000000000E+00  0.45593999997E+02  0.45594000000E+02  0.51100000000E-03 0. -1.
         11   -1    0    0    0    0 -0.00000000000E+00 -0.00000000000E+00 -0.45593999997E+02  0.45594000000E+02  0.51100000000E-03 0.  1.
    9900012    2    1    2    0    0 -0.23270318670E+02 -0.39809682563E+01  0.36417957764E+02  0.47787268590E+02  0.19999988807E+02 0.  0.
        -12    1    1    2    0    0  0.23270318670E+02  0.39809682563E+01 -0.36417957764E+02  0.43400731410E+02  0.00000000000E+00 0.  1.
         11    1    3    3    0    0 -0.11152811201E+02 -0.68048090976E+01  0.22737666604E+02  0.26223884292E+02  0.51100000000E-03 0. -1.
        -11    1    3    3    0    0  0.16863006818E+00 -0.29791946553E+01  0.34081648765E+01  0.45298592672E+01  0.51100000000E-03 0.  1.
        -12    1    3    3    0    0 -0.12286137537E+02  0.58030354967E+01  0.10272126284E+02  0.17033525030E+02  0.00000000000E+00 0.  1.
</event>
<event>
 7    1  0.4031943E-009  0.4778727E+02  0.7816164E-02  0.1312668E+00
        -11   -1    0    0    0    0  0.00000000000E+00  0.00000000000E+00  0.45593999997E+02  0.45594000000E+02  0.51100000000E-03 0. -1.
         11   -1    0    0    0    0 -0.00000000000E+00 -0.00000000000E+00 -0.45593999997E+02  0.45594000000E+02  0.51100000000E-03 0.  1.
    9900012    2    1    2    0    0 -0.18467769300E+02 -0.82239470938E+01  0.38404838611E+02  0.47787269160E+02  0.19999991409E+02 0.  0.
        -12    1    1    2    0    0  0.18467769300E+02  0.82239470938E+01 -0.38404838611E+02  0.43400730840E+02  0.00000000000E+00 0.  1.
         11    1    3    3    0    0 -0.17844819770E+02 -0.12124561821E+02  0.25614432925E+02  0.33489427679E+02  0.51100000000E-03 0.  1.
        -11    1    3    3    0    0 -0.26246440898E+01  0.88604463373E+00  0.54009482689E+01  0.60699319729E+01  0.51100000000E-03 0. -1.
        -12    1    3    3    0    0  0.20016945590E+01  0.30145700936E+01  0.73894574166E+01  0.82279095078E+01  0.00000000000E+00 0.  1.
</event>
<event>
 7    1  0.4031943E-009  0.4778727E+02  0.7816164E-02  0.1312668E+00
        -11   -1    0    0    0    0  0.00000000000E+00  0.00000000000E+00  0.45593999997E+02  0.45594000000E+02  0.51100000000E-03 0.  1.
         11   -1    0    0    0    0 -0.00000000000E+00 -0.00000000000E+00 -0.45593999997E+02  0.45594000000E+02  0.51100000000E-03 0. -1.
    9900012    2    1    2    0    0 -0.19622838588E+02  0.38697381391E+02  0.10393414508E+01  0.47787270151E+02  0.19999995928E+02 0.  0.
        -12    1    1    2    0    0  0.19622838588E+02 -0.38697381391E+02 -0.10393414508E+01  0.43400729849E+02  0.00000000000E+00 0.  1.
         11    1    3    3    0    0 -0.27427280844E+01  0.10736912587E+02  0.18077274399E+01  0.11228166725E+02  0.51100000000E-03 0. -1.
        -11    1    3    3    0    0  0.28847565072E+01  0.69865336691E+01 -0.16067032660E+01  0.77275460828E+01  0.51100000000E-03 0.  1.
         12    1    3    3    0    0 -0.19764867011E+02  0.20973935134E+02  0.83831727683E+00  0.28831557344E+02  0.00000000000E+00 0. -1.
</event>
<event>
 7    1  0.4031943E-009  0.4778728E+02  0.7816164E-02  0.1312668E+00
        -11   -1    0    0    0    0  0.00000000000E+00  0.00000000000E+00  0.45593999997E+02  0.45594000000E+02  0.51100000000E-03 0.  1.
         11   -1    0    0    0    0 -0.00000000000E+00 -0.00000000000E+00 -0.45593999997E+02  0.45594000000E+02  0.51100000000E-03 0. -1.
    9900012    2    1    2    0    0  0.22080195216E+02 -0.93850210611E+01 -0.36166408584E+02  0.47787277069E+02  0.20000027467E+02 0.  0.
        -12    1    1    2    0    0 -0.22080195216E+02  0.93850210611E+01  0.36166408584E+02  0.43400722931E+02  0.00000000000E+00 0.  1.
         11    1    3    3    0    0  0.16411569287E+02 -0.65836776685E+01 -0.33249791157E+02  0.37659434812E+02  0.51100000000E-03 0. -1.
        -11    1    3    3    0    0 -0.17016840200E+01  0.21407794069E+00 -0.26980843310E+00  0.17361897132E+01  0.51100000000E-03 0.  1.
        -12    1    3    3    0    0  0.73703099490E+01 -0.30154213333E+01 -0.26468089940E+01  0.83916525436E+01  0.00000000000E+00 0.  1.
</event>
<event>
 7    1  0.4031943E-009  0.4778727E+02  0.7816164E-02  0.1312668E+00
        -11   -1    0    0    0    0  0.00000000000E+00  0.00000000000E+00  0.45593999997E+02  0.45594000000E+02  0.51100000000E-03 0.  1.
         11   -1    0    0    0    0 -0.00000000000E+00 -0.00000000000E+00 -0.45593999997E+02  0.45594000000E+02  0.51100000000E-03 0. -1.
    9900012    2    1    2    0    0 -0.40965446438E+02  0.45722465948E+00 -0.14326419904E+02  0.47787272316E+02  0.20000005799E+02 0.  0.
        -12    1    1    2    0    0  0.40965446438E+02 -0.45722465948E+00  0.14326419904E+02  0.43400727684E+02  0.00000000000E+00 0.  1.
         11    1    3    3    0    0 -0.21790084175E+02 -0.30270175484E+01 -0.26972140322E+01  0.22164060264E+02  0.51100000000E-03 0. -1.
        -11    1    3    3    0    0 -0.48453929645E+01 -0.11989847132E+01  0.19252780443E+01  0.53499619749E+01  0.51100000000E-03 0.  1.
        -12    1    3    3    0    0 -0.14329969298E+02  0.46832269210E+01 -0.13554483916E+02  0.20273250077E+02  0.00000000000E+00 0.  1.
</event>
<event>
 7    1  0.4031943E-009  0.4778725E+02  0.7816164E-02  0.1312668E+00
        -11   -1    0    0    0    0  0.00000000000E+00  0.00000000000E+00  0.45593999997E+02  0.45594000000E+02  0.51100000000E-03 0.  1.
         11   -1    0    0    0    0 -0.00000000000E+00 -0.00000000000E+00 -0.45593999997E+02  0.45594000000E+02  0.51100000000E-03 0. -1.
    9900012    2    1    2    0    0  0.13671957902E+02  0.10125332702E+02 -0.39927182903E+02  0.47787254271E+02  0.19999923525E+02 0.  0.
        -12    1    1    2    0    0 -0.13671957902E+02 -0.10125332702E+02  0.39927182903E+02  0.43400745729E+02  0.00000000000E+00 0.  1.
         11    1    3    3    0    0  0.45380607594E+01  0.49377011891E+00 -0.73595277988E+01  0.86602802535E+01  0.51100000000E-03 0. -1.
        -11    1    3    3    0    0  0.10938692442E+02  0.95747151796E+01 -0.13078875058E+02  0.19554721582E+02  0.51100000000E-03 0.  1.
         12    1    3    3    0    0 -0.18047952997E+01  0.56847403711E-01 -0.19488780047E+02  0.19572252436E+02  0.00000000000E+00 0. -1.
</event>
<event>
 7    1  0.4031943E-009  0.4778725E+02  0.7816164E-02  0.1312668E+00
        -11   -1    0    0    0    0  0.00000000000E+00  0.00000000000E+00  0.45593999997E+02  0.45594000000E+02  0.51100000000E-03 0. -1.
         11   -1    0    0    0    0 -0.00000000000E+00 -0.00000000000E+00 -0.45593999997E+02  0.45594000000E+02  0.51100000000E-03 0.  1.
    9900012    2    1    2    0    0 -0.21133778372E+02 -0.32906677612E+02  0.18818575715E+02  0.47787253328E+02  0.19999919223E+02 0.  0.
        -12    1    1    2    0    0  0.21133778372E+02  0.32906677612E+02 -0.18818575715E+02  0.43400746672E+02  0.00000000000E+00 0.  1.
         11    1    3    3    0    0 -0.77584539444E+00 -0.10365322238E+02  0.37249810243E+00  0.10400990158E+02  0.51100000000E-03 0. -1.
        -11    1    3    3    0    0  0.16373625425E+00  0.10659417393E+01  0.12158720741E-01  0.10785126092E+01  0.51100000000E-03 0.  1.
        -12    1    3    3    0    0 -0.20521669232E+02 -0.23607297114E+02  0.18433918892E+02  0.36307750561E+02  0.00000000000E+00 0.  1.
</event>
<event>
 7    1  0.4031943E-009  0.4778727E+02  0.7816164E-02  0.1312668E+00
        -11   -1    0    0    0    0  0.00000000000E+00  0.00000000000E+00  0.45593999997E+02  0.45594000000E+02  0.51100000000E-03 0.  1.
         11   -1    0    0    0    0 -0.00000000000E+00 -0.00000000000E+00 -0.45593999997E+02  0.45594000000E+02  0.51100000000E-03 0. -1.
    9900012    2    1    2    0    0  0.71355434990E+01 -0.34375537674E+02 -0.25515281868E+02  0.47787272124E+02  0.20000004920E+02 0.  0.
        -12    1    1    2    0    0 -0.71355434990E+01  0.34375537674E+02  0.25515281868E+02  0.43400727876E+02  0.00000000000E+00 0.  1.
         11    1    3    3    0    0  0.14170856035E+01 -0.30825551200E+02 -0.20650957234E+02  0.37130644666E+02  0.51100000000E-03 0. -1.
        -11    1    3    3    0    0 -0.98398642334E+00 -0.12566869288E+00  0.76921315436E+00  0.12552732928E+01  0.51100000000E-03 0.  1.
         12    1    3    3    0    0  0.67024443188E+01 -0.34243177812E+01 -0.56335377881E+01  0.94013541644E+01  0.00000000000E+00 0. -1.
</event>
<event>
 7    1  0.4031943E-009  0.4778727E+02  0.7816164E-02  0.1312668E+00
        -11   -1    0    0    0    0  0.00000000000E+00  0.00000000000E+00  0.45593999997E+02  0.45594000000E+02  0.51100000000E-03 0.  1.
         11   -1    0    0    0    0 -0.00000000000E+00 -0.00000000000E+00 -0.45593999997E+02  0.45594000000E+02  0.51100000000E-03 0. -1.
    9900012    2    1    2    0    0 -0.10921326925E+02  0.29415061770E+02 -0.29985032469E+02  0.47787269442E+02  0.19999992695E+02 0.  0.
        -12    1    1    2    0    0  0.10921326925E+02 -0.29415061770E+02  0.29985032469E+02  0.43400730558E+02  0.00000000000E+00 0.  1.
         11    1    3    3    0    0 -0.61188104199E+01  0.11692755566E+02 -0.19408721979E+02  0.23470382673E+02  0.51100000000E-03 0. -1.
        -11    1    3    3    0    0 -0.25699904351E+01  0.42043454442E+01 -0.93399836151E+01  0.10560145153E+02  0.51100000000E-03 0.  1.
        -12    1    3    3    0    0 -0.22325260703E+01  0.13517960761E+02 -0.12363268751E+01  0.13756741617E+02  0.00000000000E+00 0.  1.
</event>
<event>
 7    1  0.4031943E-009  0.4778727E+02  0.7816164E-02  0.1312668E+00
        -11   -1    0    0    0    0  0.00000000000E+00  0.00000000000E+00  0.45593999997E+02  0.45594000000E+02  0.51100000000E-03 0.  1.
         11   -1    0    0    0    0 -0.00000000000E+00 -0.00000000000E+00 -0.45593999997E+02  0.45594000000E+02  0.51100000000E-03 0. -1.
    9900012    2    1    2    0    0  0.27938196064E+02 -0.23476205020E+02 -0.23493586553E+02  0.47787267166E+02  0.19999982316E+02 0.  0.
        -12    1    1    2    0    0 -0.27938196064E+02  0.23476205020E+02  0.23493586553E+02  0.43400732834E+02  0.00000000000E+00 0.  1.
         11    1    3    3    0    0  0.88702829287E+01 -0.56909634636E+01 -0.12314753003E+02  0.16208705258E+02  0.51100000000E-03 0. -1.
        -11    1    3    3    0    0  0.10355880186E+02 -0.52731780021E+01 -0.11471642818E+02  0.16329398332E+02  0.51100000000E-03 0.  1.
        -12    1    3    3    0    0  0.87120329487E+01 -0.12512063554E+02  0.29280926808E+00  0.15249163576E+02  0.00000000000E+00 0.  1.
</event>
<event>
 7    1  0.4031943E-009  0.4778727E+02  0.7816164E-02  0.1312668E+00
        -11   -1    0    0    0    0  0.00000000000E+00  0.00000000000E+00  0.45593999997E+02  0.45594000000E+02  0.51100000000E-03 0. -1.
         11   -1    0    0    0    0 -0.00000000000E+00 -0.00000000000E+00 -0.45593999997E+02  0.45594000000E+02  0.51100000000E-03 0.  1.
    9900012    2    1    2    0    0 -0.39189151326E+02  0.17439136107E+02  0.66113709450E+01  0.47787271025E+02  0.19999999911E+02 0.  0.
        -12    1    1    2    0    0  0.39189151326E+02 -0.17439136107E+02 -0.66113709450E+01  0.43400728975E+02  0.00000000000E+00 0.  1.
         11    1    3    3    0    0 -0.13559143826E+01  0.58634169192E+01  0.12019410218E+01  0.61370045024E+01  0.51100000000E-03 0. -1.
        -11    1    3    3    0    0 -0.10789771728E+02  0.69763095731E+01 -0.25241785300E+01  0.13094256249E+02  0.51100000000E-03 0.  1.
        -12    1    3    3    0    0 -0.27043465215E+02  0.45994096149E+01  0.79336084531E+01  0.28556010274E+02  0.00000000000E+00 0.  1.
</event>
<event>
 7    1  0.4031943E-009  0.4778731E+02  0.7816164E-02  0.1312668E+00
        -11   -1    0    0    0    0  0.00000000000E+00  0.00000000000E+00  0.45593999997E+02  0.45594000000E+02  0.51100000000E-03 0. -1.
         11   -1    0    0    0    0 -0.00000000000E+00 -0.00000000000E+00 -0.45593999997E+02  0.45594000000E+02  0.51100000000E-03 0.  1.
    9900012    2    1    2    0    0  0.21462473106E+02 -0.37345862273E+02  0.53168229869E+01  0.47787311211E+02  0.20000183133E+02 0.  0.
        -12    1    1    2    0    0 -0.21462473106E+02  0.37345862273E+02 -0.53168229869E+01  0.43400688789E+02  0.00000000000E+00 0.  1.
         11    1    3    3    0    0  0.15153784411E+02 -0.27273017662E+02 -0.30269749817E+01  0.31346726339E+02  0.51100000000E-03 0. -1.
        -11    1    3    3    0    0  0.48697692480E+01 -0.28716926177E+01  0.46867199760E+00  0.56728233467E+01  0.51100000000E-03 0.  1.
        -12    1    3    3    0    0  0.14389194468E+01 -0.72011519932E+01  0.78751259710E+01  0.10767761525E+02  0.00000000000E+00 0.  1.
</event>
<event>
 7    1  0.4031943E-009  0.4778727E+02  0.7816164E-02  0.1312668E+00
        -11   -1    0    0    0    0  0.00000000000E+00  0.00000000000E+00  0.45593999997E+02  0.45594000000E+02  0.51100000000E-03 0.  1.
         11   -1    0    0    0    0 -0.00000000000E+00 -0.00000000000E+00 -0.45593999997E+02  0.45594000000E+02  0.51100000000E-03 0. -1.
    9900012    2    1    2    0    0  0.41681403467E+02 -0.34861065885E+00 -0.12089772793E+02  0.47787268087E+02  0.19999986515E+02 0.  0.
        -12    1    1    2    0    0 -0.41681403467E+02  0.34861065885E+00  0.12089772793E+02  0.43400731913E+02  0.00000000000E+00 0.  1.
         11    1    3    3    0    0  0.17939595757E+02  0.56439317720E+01 -0.50158057570E+01  0.19463847755E+02  0.51100000000E-03 0. -1.
        -11    1    3    3    0    0  0.45810283301E+01  0.23399090308E+01 -0.52495991078E+01  0.73497813497E+01  0.51100000000E-03 0.  1.
        -12    1    3    3    0    0  0.19160779380E+02 -0.83324514617E+01 -0.18243679284E+01  0.20973638982E+02  0.00000000000E+00 0.  1.
</event>
<event>
 7    1  0.4031943E-009  0.4778727E+02  0.7816164E-02  0.1312668E+00
        -11   -1    0    0    0    0  0.00000000000E+00  0.00000000000E+00  0.45593999997E+02  0.45594000000E+02  0.51100000000E-03 0. -1.
         11   -1    0    0    0    0 -0.00000000000E+00 -0.00000000000E+00 -0.45593999997E+02  0.45594000000E+02  0.51100000000E-03 0.  1.
    9900012    2    1    2    0    0 -0.29350772786E+02 -0.24316165575E+02  0.20757638752E+02  0.47787270306E+02  0.19999996635E+02 0.  0.
        -12    1    1    2    0    0  0.29350772786E+02  0.24316165575E+02 -0.20757638752E+02  0.43400729694E+02  0.00000000000E+00 0.  1.
         11    1    3    3    0    0 -0.53323823671E+01 -0.70575922437E+01 -0.16889312916E+01  0.90053539162E+01  0.51100000000E-03 0. -1.
        -11    1    3    3    0    0 -0.11435265274E+01  0.15514543008E+01  0.21012960442E+01  0.28513345459E+01  0.51100000000E-03 0.  1.
         12    1    3    3    0    0 -0.22874863891E+02 -0.18810027632E+02  0.20345273999E+02  0.35930581844E+02  0.00000000000E+00 0. -1.
</event>
<event>
 7    1  0.4031943E-009  0.4778727E+02  0.7816164E-02  0.1312668E+00
        -11   -1    0    0    0    0  0.00000000000E+00  0.00000000000E+00  0.45593999997E+02  0.45594000000E+02  0.51100000000E-03 0.  1.
         11   -1    0    0    0    0 -0.00000000000E+00 -0.00000000000E+00 -0.45593999997E+02  0.45594000000E+02  0.51100000000E-03 0. -1.
    9900012    2    1    2    0    0 -0.22292041961E+02  0.11187510072E+02 -0.35517988553E+02  0.47787273885E+02  0.20000012952E+02 0.  0.
        -12    1    1    2    0    0  0.22292041961E+02 -0.11187510072E+02  0.35517988553E+02  0.43400726115E+02  0.00000000000E+00 0.  1.
         11    1    3    3    0    0 -0.12030846756E+01  0.26004901237E+01 -0.60813280251E+01  0.67225376481E+01  0.51100000000E-03 0. -1.
        -11    1    3    3    0    0  0.21842184612E+01  0.32468888410E+01 -0.82974725193E+01  0.91739385163E+01  0.51100000000E-03 0.  1.
         12    1    3    3    0    0 -0.23273175747E+02  0.53401311074E+01 -0.21139188009E+02  0.31890797721E+02  0.00000000000E+00 0. -1.
</event>
<event>
 7    1  0.4031943E-009  0.4778727E+02  0.7816164E-02  0.1312668E+00
        -11   -1    0    0    0    0  0.00000000000E+00  0.00000000000E+00  0.45593999997E+02  0.45594000000E+02  0.51100000000E-03 0.  1.
         11   -1    0    0    0    0 -0.00000000000E+00 -0.00000000000E+00 -0.45593999997E+02  0.45594000000E+02  0.51100000000E-03 0. -1.
    9900012    2    1    2    0    0 -0.37095481645E+02  0.69210135038E+01 -0.21439404814E+02  0.47787271145E+02  0.20000000458E+02 0.  0.
        -12    1    1    2    0    0  0.37095481645E+02 -0.69210135038E+01  0.21439404814E+02  0.43400728855E+02  0.00000000000E+00 0.  1.
         11    1    3    3    0    0 -0.15466391847E+02  0.77117225872E+01 -0.59102127557E+01  0.18265009091E+02  0.51100000000E-03 0. -1.
        -11    1    3    3    0    0 -0.15638719595E+02  0.52735552272E+01 -0.91087051945E+01  0.18850688207E+02  0.51100000000E-03 0.  1.
        -12    1    3    3    0    0 -0.59903702028E+01 -0.60642643106E+01 -0.64204868639E+01  0.10671573847E+02  0.00000000000E+00 0.  1.
</event>
<event>
 7    1  0.4031943E-009  0.4778727E+02  0.7816164E-02  0.1312668E+00
        -11   -1    0    0    0    0  0.00000000000E+00  0.00000000000E+00  0.45593999997E+02  0.45594000000E+02  0.51100000000E-03 0.  1.
         11   -1    0    0    0    0 -0.00000000000E+00 -0.00000000000E+00 -0.45593999997E+02  0.45594000000E+02  0.51100000000E-03 0. -1.
    9900012    2    1    2    0    0  0.10742726042E+02  0.42031963684E+02  0.12373418832E+01  0.47787272484E+02  0.20000006563E+02 0.  0.
        -12    1    1    2    0    0 -0.10742726042E+02 -0.42031963684E+02 -0.12373418832E+01  0.43400727516E+02  0.00000000000E+00 0.  1.
         11    1    3    3    0    0  0.39529197222E+01  0.36734303256E+02  0.89770098561E+00  0.36957279085E+02  0.51100000000E-03 0. -1.
        -11    1    3    3    0    0  0.28473911146E+01  0.42983348749E+01  0.30046626136E+01  0.59675218089E+01  0.51100000000E-03 0.  1.
         12    1    3    3    0    0  0.39424152055E+01  0.99932555301E+00 -0.26650217160E+01  0.48624715897E+01  0.00000000000E+00 0. -1.
</event>
<event>
 7    1  0.4031943E-009  0.4778729E+02  0.7816164E-02  0.1312668E+00
        -11   -1    0    0    0    0  0.00000000000E+00  0.00000000000E+00  0.45593999997E+02  0.45594000000E+02  0.51100000000E-03 0. -1.
         11   -1    0    0    0    0 -0.00000000000E+00 -0.00000000000E+00 -0.45593999997E+02  0.45594000000E+02  0.51100000000E-03 0.  1.
    9900012    2    1    2    0    0  0.36568969622E+02 -0.75307533668E+01  0.22127354762E+02  0.47787290164E+02  0.20000087175E+02 0.  0.
        -12    1    1    2    0    0 -0.36568969622E+02  0.75307533668E+01 -0.22127354762E+02  0.43400709836E+02  0.00000000000E+00 0.  1.
         11    1    3    3    0    0  0.78413262124E+01 -0.56807301678E+01  0.95862018218E-01  0.96832991174E+01  0.51100000000E-03 0. -1.
        -11    1    3    3    0    0  0.21215806520E+02 -0.60837492678E+01  0.12989306780E+02  0.25609461968E+02  0.51100000000E-03 0.  1.
        -12    1    3    3    0    0  0.75118368901E+01  0.42337260688E+01  0.90421859636E+01  0.12494529078E+02  0.00000000000E+00 0.  1.
</event>
<event>
 7    1  0.4031943E-009  0.4778727E+02  0.7816164E-02  0.1312668E+00
        -11   -1    0    0    0    0  0.00000000000E+00  0.00000000000E+00  0.45593999997E+02  0.45594000000E+02  0.51100000000E-03 0.  1.
         11   -1    0    0    0    0 -0.00000000000E+00 -0.00000000000E+00 -0.45593999997E+02  0.45594000000E+02  0.51100000000E-03 0. -1.
    9900012    2    1    2    0    0  0.19091945525E+02  0.10823794901E+02 -0.37442842871E+02  0.47787269566E+02  0.19999993257E+02 0.  0.
        -12    1    1    2    0    0 -0.19091945525E+02 -0.10823794901E+02  0.37442842871E+02  0.43400730434E+02  0.00000000000E+00 0.  1.
         11    1    3    3    0    0  0.38204342228E+01 -0.23934499188E+01 -0.12230070917E+01  0.46711954329E+01  0.51100000000E-03 0. -1.
        -11    1    3    3    0    0  0.16939600189E+01  0.78971784556E+01 -0.80934238935E+01  0.11434091074E+02  0.51100000000E-03 0.  1.
        -12    1    3    3    0    0  0.13577551283E+02  0.53200663644E+01 -0.28126411886E+02  0.31681983059E+02  0.00000000000E+00 0.  1.
</event>
<event>
 7    1  0.4031943E-009  0.4778727E+02  0.7816164E-02  0.1312668E+00
        -11   -1    0    0    0    0  0.00000000000E+00  0.00000000000E+00  0.45593999997E+02  0.45594000000E+02  0.51100000000E-03 0. -1.
         11   -1    0    0    0    0 -0.00000000000E+00 -0.00000000000E+00 -0.45593999997E+02  0.45594000000E+02  0.51100000000E-03 0.  1.
    9900012    2    1    2    0    0  0.11342578040E+02  0.13987748222E+02  0.39488127279E+02  0.47787269903E+02  0.19999994795E+02 0.  0.
        -12    1    1    2    0    0 -0.11342578040E+02 -0.13987748222E+02 -0.39488127279E+02  0.43400730097E+02  0.00000000000E+00 0.  1.
         11    1    3    3    0    0  0.31719581738E+01  0.29879576558E+01  0.13766543489E+02  0.14439769025E+02  0.51100000000E-03 0. -1.
        -11    1    3    3    0    0 -0.12762116892E+01  0.25425497482E+01  0.18577299025E+02  0.18793863755E+02  0.51100000000E-03 0.  1.
         12    1    3    3    0    0  0.94468315555E+01  0.84572408184E+01  0.71442847652E+01  0.14553637123E+02  0.00000000000E+00 0. -1.
</event>
<event>
 7    1  0.4031943E-009  0.4778727E+02  0.7816164E-02  0.1312668E+00
        -11   -1    0    0    0    0  0.00000000000E+00  0.00000000000E+00  0.45593999997E+02  0.45594000000E+02  0.51100000000E-03 0. -1.
         11   -1    0    0    0    0 -0.00000000000E+00 -0.00000000000E+00 -0.45593999997E+02  0.45594000000E+02  0.51100000000E-03 0.  1.
    9900012    2    1    2    0    0  0.42508684653E+02 -0.41361796073E+01  0.77153607880E+01  0.47787273684E+02  0.20000012033E+02 0.  0.
        -12    1    1    2    0    0 -0.42508684653E+02  0.41361796073E+01 -0.77153607880E+01  0.43400726316E+02  0.00000000000E+00 0.  1.
         11    1    3    3    0    0  0.16248086125E+01 -0.31212301388E+01  0.24510790339E+01  0.42883410892E+01  0.51100000000E-03 0. -1.
        -11    1    3    3    0    0  0.19575705231E+01  0.34222862209E+01  0.11397037629E+01  0.41040285402E+01  0.51100000000E-03 0.  1.
         12    1    3    3    0    0  0.38926305518E+02 -0.44372356894E+01  0.41245779913E+01  0.39394904054E+02  0.00000000000E+00 0. -1.
</event>
<event>
 7    1  0.4031943E-009  0.4778731E+02  0.7816164E-02  0.1312668E+00
        -11   -1    0    0    0    0  0.00000000000E+00  0.00000000000E+00  0.45593999997E+02  0.45594000000E+02  0.51100000000E-03 0.  1.
         11   -1    0    0    0    0 -0.00000000000E+00 -0.00000000000E+00 -0.45593999997E+02  0.45594000000E+02  0.51100000000E-03 0. -1.
    9900012    2    1    2    0    0  0.17343738541E+02 -0.65570935892E+01 -0.39240532079E+02  0.47787307600E+02  0.20000166670E+02 0.  0.
        -12    1    1    2    0    0 -0.17343738541E+02  0.65570935892E+01  0.39240532079E+02  0.43400692400E+02  0.00000000000E+00 0.  1.
         11    1    3    3    0    0  0.34011087110E+00 -0.49435398882E+01 -0.97330729928E+01  0.10921857542E+02  0.51100000000E-03 0. -1.
        -11    1    3    3    0    0 -0.23404691560E+01 -0.12409440719E+01 -0.48176971730E+01  0.54979945772E+01  0.51100000000E-03 0.  1.
         12    1    3    3    0    0  0.19344096826E+02 -0.37260962910E+00 -0.24689761914E+02  0.31367455480E+02  0.00000000000E+00 0. -1.
</event>
<event>
 7    1  0.4031943E-009  0.4778727E+02  0.7816164E-02  0.1312668E+00
        -11   -1    0    0    0    0  0.00000000000E+00  0.00000000000E+00  0.45593999997E+02  0.45594000000E+02  0.51100000000E-03 0. -1.
         11   -1    0    0    0    0 -0.00000000000E+00 -0.00000000000E+00 -0.45593999997E+02  0.45594000000E+02  0.51100000000E-03 0.  1.
    9900012    2    1    2    0    0  0.16830882028E+02  0.24191869492E+02  0.31860603996E+02  0.47787271592E+02  0.20000002497E+02 0.  0.
        -12    1    1    2    0    0 -0.16830882028E+02 -0.24191869492E+02 -0.31860603996E+02  0.43400728408E+02  0.00000000000E+00 0.  1.
         11    1    3    3    0    0  0.42144835248E+01  0.51611750812E+01  0.42343989799E+01  0.78949182758E+01  0.51100000000E-03 0. -1.
        -11    1    3    3    0    0  0.75190861447E+01  0.13292521085E+02  0.51101511025E+01  0.16104080781E+02  0.51100000000E-03 0.  1.
         12    1    3    3    0    0  0.50973123584E+01  0.57381733260E+01  0.22516053914E+02  0.23788272536E+02  0.00000000000E+00 0. -1.
</event>
<event>
 7    1  0.4031943E-009  0.4778727E+02  0.7816164E-02  0.1312668E+00
        -11   -1    0    0    0    0  0.00000000000E+00  0.00000000000E+00  0.45593999997E+02  0.45594000000E+02  0.51100000000E-03 0.  1.
         11   -1    0    0    0    0 -0.00000000000E+00 -0.00000000000E+00 -0.45593999997E+02  0.45594000000E+02  0.51100000000E-03 0. -1.
    9900012    2    1    2    0    0 -0.27220930362E+02 -0.12075819551E+02 -0.31572438562E+02  0.47787270232E+02  0.19999996297E+02 0.  0.
        -12    1    1    2    0    0  0.27220930362E+02  0.12075819551E+02  0.31572438562E+02  0.43400729768E+02  0.00000000000E+00 0.  1.
         11    1    3    3    0    0  0.22280114999E+01 -0.14271271420E+01 -0.30750274990E+01  0.40566638392E+01  0.51100000000E-03 0. -1.
        -11    1    3    3    0    0 -0.15529753085E+01  0.13140845299E+00 -0.62909864256E+01  0.64811658641E+01  0.51100000000E-03 0.  1.
         12    1    3    3    0    0 -0.27895966553E+02 -0.10780100862E+02 -0.22206424637E+02  0.37249440529E+02  0.00000000000E+00 0. -1.
</event>
<event>
 7    1  0.4031943E-009  0.4778727E+02  0.7816164E-02  0.1312668E+00
        -11   -1    0    0    0    0  0.00000000000E+00  0.00000000000E+00  0.45593999997E+02  0.45594000000E+02  0.51100000000E-03 0.  1.
         11   -1    0    0    0    0 -0.00000000000E+00 -0.00000000000E+00 -0.45593999997E+02  0.45594000000E+02  0.51100000000E-03 0. -1.
    9900012    2    1    2    0    0  0.18790597730E+02 -0.19982702732E+02 -0.33633735011E+02  0.47787273021E+02  0.20000009012E+02 0.  0.
        -12    1    1    2    0    0 -0.18790597730E+02  0.19982702732E+02  0.33633735011E+02  0.43400726979E+02  0.00000000000E+00 0.  1.
         11    1    3    3    0    0  0.59865799742E+01 -0.77850448049E+01 -0.10884166130E+02  0.14659847714E+02  0.51100000000E-03 0. -1.
        -11    1    3    3    0    0  0.55736526165E+01 -0.13898897848E+02 -0.89222463039E+01  0.17431335126E+02  0.51100000000E-03 0.  1.
         12    1    3    3    0    0  0.72303651393E+01  0.17012399215E+01 -0.13827322577E+02  0.15696090181E+02  0.00000000000E+00 0. -1.
</event>
<event>
 7    1  0.4031943E-009  0.4778727E+02  0.7816164E-02  0.1312668E+00
        -11   -1    0    0    0    0  0.00000000000E+00  0.00000000000E+00  0.45593999997E+02  0.45594000000E+02  0.51100000000E-03 0.  1.
         11   -1    0    0    0    0 -0.00000000000E+00 -0.00000000000E+00 -0.45593999997E+02  0.45594000000E+02  0.51100000000E-03 0. -1.
    9900012    2    1    2    0    0 -0.36359877586E+01 -0.43247160067E+02 -0.29391977459E+00  0.47787266715E+02  0.19999980260E+02 0.  0.
        -12    1    1    2    0    0  0.36359877586E+01  0.43247160067E+02  0.29391977459E+00  0.43400733285E+02  0.00000000000E+00 0.  1.
         11    1    3    3    0    0 -0.25600365577E+01 -0.22270625286E+02 -0.51789176717E+01  0.23007731881E+02  0.51100000000E-03 0. -1.
        -11    1    3    3    0    0 -0.74947180871E+00  0.26444631098E+00 -0.22369982634E+01  0.23739842744E+01  0.51100000000E-03 0.  1.
         12    1    3    3    0    0 -0.32647939221E+00 -0.21240981092E+02  0.71219961605E+01  0.22405550559E+02  0.00000000000E+00 0. -1.
</event>
<event>
 7    1  0.4031943E-009  0.4778727E+02  0.7816164E-02  0.1312668E+00
        -11   -1    0    0    0    0  0.00000000000E+00  0.00000000000E+00  0.45593999997E+02  0.45594000000E+02  0.51100000000E-03 0.  1.
         11   -1    0    0    0    0 -0.00000000000E+00 -0.00000000000E+00 -0.45593999997E+02  0.45594000000E+02  0.51100000000E-03 0. -1.
    9900012    2    1    2    0    0 -0.22319992079E+02  0.25950151940E+02 -0.26683906224E+02  0.47787270934E+02  0.19999999495E+02 0.  0.
        -12    1    1    2    0    0  0.22319992079E+02 -0.25950151940E+02  0.26683906224E+02  0.43400729066E+02  0.00000000000E+00 0.  1.
         11    1    3    3    0    0 -0.14712188555E+02  0.23739802398E+02 -0.24590732716E+02  0.37211971806E+02  0.51100000000E-03 0. -1.
        -11    1    3    3    0    0 -0.31839046323E+01  0.40901528044E+01  0.32715499427E+00  0.51936142831E+01  0.51100000000E-03 0.  1.
        -12    1    3    3    0    0 -0.44238988909E+01 -0.18798032617E+01 -0.24203285029E+01  0.53816848441E+01  0.00000000000E+00 0.  1.
</event>
<event>
 7    1  0.5256646E-009  0.4778727E+02  0.7816164E-02  0.1312668E+00
        -11   -1    0    0    0    0  0.00000000000E+00  0.00000000000E+00  0.45593999997E+02  0.45594000000E+02  0.51100000000E-03 0. -1.
         11   -1    0    0    0    0 -0.00000000000E+00 -0.00000000000E+00 -0.45593999997E+02  0.45594000000E+02  0.51100000000E-03 0.  1.
    9900012    2    1    2    0    0 -0.19658608006E+02 -0.29998464300E+02  0.24438798249E+02  0.47787267415E+02  0.19999983450E+02 0.  0.
        -12    1    1    2    0    0  0.19658608006E+02  0.29998464300E+02 -0.24438798249E+02  0.43400732585E+02  0.00000000000E+00 0.  1.
         11    1    3    3    0    0 -0.94603521107E+01 -0.16900255259E+02  0.14906069566E+02  0.24439881342E+02  0.51100000000E-03 0. -1.
        -11    1    3    3    0    0 -0.84782538617E+00 -0.11505689838E+02  0.33065469165E+01  0.12001373226E+02  0.51100000000E-03 0.  1.
        -12    1    3    3    0    0 -0.93504305087E+01 -0.15925192031E+01  0.62261817669E+01  0.11346012846E+02  0.00000000000E+00 0.  1.
</event>
<event>
 7    1  0.4031943E-009  0.4778727E+02  0.7816164E-02  0.1312668E+00
        -11   -1    0    0    0    0  0.00000000000E+00  0.00000000000E+00  0.45593999997E+02  0.45594000000E+02  0.51100000000E-03 0. -1.
         11   -1    0    0    0    0 -0.00000000000E+00 -0.00000000000E+00 -0.45593999997E+02  0.45594000000E+02  0.51100000000E-03 0.  1.
    9900012    2    1    2    0    0  0.22445379490E+02  0.20633032868E+02  0.30888611239E+02  0.47787269476E+02  0.19999992847E+02 0.  0.
        -12    1    1    2    0    0 -0.22445379490E+02 -0.20633032868E+02 -0.30888611239E+02  0.43400730524E+02  0.00000000000E+00 0.  1.
         11    1    3    3    0    0  0.75373055247E+01  0.64026705314E+01  0.12094186758E+02  0.15622884436E+02  0.51100000000E-03 0.  1.
        -11    1    3    3    0    0  0.32738402675E+01  0.51820815136E+01  0.16039063029E+02  0.17170426378E+02  0.51100000000E-03 0. -1.
        -12    1    3    3    0    0  0.11634233698E+02  0.90482808233E+01  0.27553614515E+01  0.14993958661E+02  0.00000000000E+00 0.  1.
</event>
<event>
 7    1  0.4031943E-009  0.4778727E+02  0.7816164E-02  0.1312668E+00
        -11   -1    0    0    0    0  0.00000000000E+00  0.00000000000E+00  0.45593999997E+02  0.45594000000E+02  0.51100000000E-03 0.  1.
         11   -1    0    0    0    0 -0.00000000000E+00 -0.00000000000E+00 -0.45593999997E+02  0.45594000000E+02  0.51100000000E-03 0. -1.
    9900012    2    1    2    0    0  0.16784256343E+01 -0.80636539593E+01 -0.42612012819E+02  0.47787271156E+02  0.20000000507E+02 0.  0.
        -12    1    1    2    0    0 -0.16784256343E+01  0.80636539593E+01  0.42612012819E+02  0.43400728844E+02  0.00000000000E+00 0.  1.
         11    1    3    3    0    0 -0.26723746414E+01 -0.15264247447E+01 -0.43351165252E+00  0.31079722231E+01  0.51100000000E-03 0. -1.
        -11    1    3    3    0    0  0.50276184088E+00 -0.75896614728E+01 -0.11794084823E+02  0.14034107304E+02  0.51100000000E-03 0.  1.
         12    1    3    3    0    0  0.38480384349E+01  0.10524322582E+01 -0.30384416343E+02  0.30645191629E+02  0.00000000000E+00 0. -1.
</event>
<event>
 7    1  0.4031943E-009  0.4778726E+02  0.7816164E-02  0.1312668E+00
        -11   -1    0    0    0    0  0.00000000000E+00  0.00000000000E+00  0.45593999997E+02  0.45594000000E+02  0.51100000000E-03 0. -1.
         11   -1    0    0    0    0 -0.00000000000E+00 -0.00000000000E+00 -0.45593999997E+02  0.45594000000E+02  0.51100000000E-03 0.  1.
    9900012    2    1    2    0    0 -0.17499929621E+02  0.39175491036E+02 -0.65312792324E+01  0.47787259879E+02  0.19999949091E+02 0.  0.
        -12    1    1    2    0    0  0.17499929621E+02 -0.39175491036E+02  0.65312792324E+01  0.43400740121E+02  0.00000000000E+00 0.  1.
         11    1    3    3    0    0 -0.36035660163E+01  0.16464624044E+01 -0.17213004918E+01  0.43196530101E+01  0.51100000000E-03 0. -1.
        -11    1    3    3    0    0  0.78713339158E+00  0.16316621040E+02  0.27914500772E+01  0.16572383502E+02  0.51100000000E-03 0.  1.
         12    1    3    3    0    0 -0.14683496996E+02  0.21212407592E+02 -0.76014288178E+01  0.26895223367E+02  0.00000000000E+00 0. -1.
</event>
<event>
 7    1  0.4031943E-009  0.4778727E+02  0.7816164E-02  0.1312668E+00
        -11   -1    0    0    0    0  0.00000000000E+00  0.00000000000E+00  0.45593999997E+02  0.45594000000E+02  0.51100000000E-03 0.  1.
         11   -1    0    0    0    0 -0.00000000000E+00 -0.00000000000E+00 -0.45593999997E+02  0.45594000000E+02  0.51100000000E-03 0. -1.
    9900012    2    1    2    0    0 -0.30412283579E+02  0.30295450610E+02  0.63954890537E+01  0.47787267283E+02  0.19999982849E+02 0.  0.
        -12    1    1    2    0    0  0.30412283579E+02 -0.30295450610E+02 -0.63954890537E+01  0.43400732717E+02  0.00000000000E+00 0.  1.
         11    1    3    3    0    0 -0.24226341463E+02  0.18562786910E+02  0.32155063476E+01  0.30689284121E+02  0.51100000000E-03 0. -1.
        -11    1    3    3    0    0 -0.86783179302E+01  0.11154183749E+02  0.19752613845E+01  0.14269922039E+02  0.51100000000E-03 0.  1.
        -12    1    3    3    0    0  0.24923758138E+01  0.57847995156E+00  0.12047213216E+01  0.28280611228E+01  0.00000000000E+00 0.  1.
</event>
<event>
 7    1  0.4031943E-009  0.4778726E+02  0.7816164E-02  0.1312668E+00
        -11   -1    0    0    0    0  0.00000000000E+00  0.00000000000E+00  0.45593999997E+02  0.45594000000E+02  0.51100000000E-03 0.  1.
         11   -1    0    0    0    0 -0.00000000000E+00 -0.00000000000E+00 -0.45593999997E+02  0.45594000000E+02  0.51100000000E-03 0. -1.
    9900012    2    1    2    0    0  0.58910757231E+01 -0.36292240056E+02 -0.23060632042E+02  0.47787260241E+02  0.19999950745E+02 0.  0.
        -12    1    1    2    0    0 -0.58910757231E+01  0.36292240056E+02  0.23060632042E+02  0.43400739759E+02  0.00000000000E+00 0.  1.
         11    1    3    3    0    0 -0.21431236394E+01 -0.21157847716E+02 -0.99125525541E+01  0.23462868480E+02  0.51100000000E-03 0. -1.
        -11    1    3    3    0    0 -0.23998134729E+01 -0.28618060207E+01 -0.35091131886E+00  0.37512901008E+01  0.51100000000E-03 0.  1.
        -12    1    3    3    0    0  0.10434012835E+02 -0.12272586318E+02 -0.12797168169E+02  0.20573101660E+02  0.00000000000E+00 0.  1.
</event>
<event>
 7    1  0.4031943E-009  0.4778727E+02  0.7816164E-02  0.1312668E+00
        -11   -1    0    0    0    0  0.00000000000E+00  0.00000000000E+00  0.45593999997E+02  0.45594000000E+02  0.51100000000E-03 0.  1.
         11   -1    0    0    0    0 -0.00000000000E+00 -0.00000000000E+00 -0.45593999997E+02  0.45594000000E+02  0.51100000000E-03 0. -1.
    9900012    2    1    2    0    0 -0.27376403643E+02  0.32832505075E+02  0.74954851722E+01  0.47787272311E+02  0.20000005777E+02 0.  0.
        -12    1    1    2    0    0  0.27376403643E+02 -0.32832505075E+02 -0.74954851722E+01  0.43400727689E+02  0.00000000000E+00 0.  1.
         11    1    3    3    0    0 -0.10470949553E+02  0.54641139741E+01  0.14346202000E+01  0.11897708243E+02  0.51100000000E-03 0. -1.
        -11    1    3    3    0    0 -0.17540995466E+02  0.23205504711E+02  0.93404656611E+01  0.30552025626E+02  0.51100000000E-03 0.  1.
        -12    1    3    3    0    0  0.63554137669E+00  0.41628863903E+01 -0.32796006889E+01  0.53375384419E+01  0.00000000000E+00 0.  1.
</event>
<event>
 7    1  0.4031943E-009  0.4778727E+02  0.7816164E-02  0.1312668E+00
        -11   -1    0    0    0    0  0.00000000000E+00  0.00000000000E+00  0.45593999997E+02  0.45594000000E+02  0.51100000000E-03 0. -1.
         11   -1    0    0    0    0 -0.00000000000E+00 -0.00000000000E+00 -0.45593999997E+02  0.45594000000E+02  0.51100000000E-03 0.  1.
    9900012    2    1    2    0    0 -0.29071274445E+02  0.32138028966E+02 -0.23730985261E+01  0.47787268436E+02  0.19999988108E+02 0.  0.
        -12    1    1    2    0    0  0.29071274445E+02 -0.32138028966E+02  0.23730985261E+01  0.43400731564E+02  0.00000000000E+00 0.  1.
         11    1    3    3    0    0  0.29004348100E+00  0.10111292141E+01  0.13522950370E+01  0.17132453522E+01  0.51100000000E-03 0. -1.
        -11    1    3    3    0    0 -0.13114585767E+02  0.17592911450E+02 -0.98602011740E+01  0.24056734204E+02  0.51100000000E-03 0.  1.
         12    1    3    3    0    0 -0.16246732159E+02  0.13533988302E+02  0.61348076108E+01  0.22017288880E+02  0.00000000000E+00 0. -1.
</event>
<event>
 7    1  0.4031943E-009  0.4778727E+02  0.7816164E-02  0.1312668E+00
        -11   -1    0    0    0    0  0.00000000000E+00  0.00000000000E+00  0.45593999997E+02  0.45594000000E+02  0.51100000000E-03 0. -1.
         11   -1    0    0    0    0 -0.00000000000E+00 -0.00000000000E+00 -0.45593999997E+02  0.45594000000E+02  0.51100000000E-03 0.  1.
    9900012    2    1    2    0    0 -0.71926041978E+01 -0.41802528172E+02  0.91890371774E+01  0.47787270502E+02  0.19999997527E+02 0.  0.
        -12    1    1    2    0    0  0.71926041978E+01  0.41802528172E+02 -0.91890371774E+01  0.43400729498E+02  0.00000000000E+00 0.  1.
         11    1    3    3    0    0  0.91684373393E+00 -0.71200979790E+01 -0.94596736390E-01  0.71795087901E+01  0.51100000000E-03 0. -1.
        -11    1    3    3    0    0 -0.28891897423E+01 -0.11445695842E+02 -0.50187464404E+01  0.12827282906E+02  0.51100000000E-03 0.  1.
         12    1    3    3    0    0 -0.52202581895E+01 -0.23236734351E+02  0.14302380354E+02  0.27780478805E+02  0.00000000000E+00 0. -1.
</event>
<event>
 7    1  0.4031943E-009  0.4778727E+02  0.7816164E-02  0.1312668E+00
        -11   -1    0    0    0    0  0.00000000000E+00  0.00000000000E+00  0.45593999997E+02  0.45594000000E+02  0.51100000000E-03 0.  1.
         11   -1    0    0    0    0 -0.00000000000E+00 -0.00000000000E+00 -0.45593999997E+02  0.45594000000E+02  0.51100000000E-03 0. -1.
    9900012    2    1    2    0    0 -0.21621600287E+02 -0.23113439136E+02 -0.29696779880E+02  0.47787269558E+02  0.19999993224E+02 0.  0.
        -12    1    1    2    0    0  0.21621600287E+02  0.23113439136E+02  0.29696779880E+02  0.43400730442E+02  0.00000000000E+00 0.  1.
         11    1    3    3    0    0 -0.65967395591E+01 -0.28754282403E+01 -0.92614929177E+01  0.11728610817E+02  0.51100000000E-03 0. -1.
        -11    1    3    3    0    0  0.30454951956E+01 -0.16779749316E+01 -0.83756790479E+00  0.35766130785E+01  0.51100000000E-03 0.  1.
        -12    1    3    3    0    0 -0.18070355923E+02 -0.18560035964E+02 -0.19597719057E+02  0.32482045662E+02  0.00000000000E+00 0.  1.
</event>
<event>
 7    1  0.4031943E-009  0.4778727E+02  0.7816164E-02  0.1312668E+00
        -11   -1    0    0    0    0  0.00000000000E+00  0.00000000000E+00  0.45593999997E+02  0.45594000000E+02  0.51100000000E-03 0.  1.
         11   -1    0    0    0    0 -0.00000000000E+00 -0.00000000000E+00 -0.45593999997E+02  0.45594000000E+02  0.51100000000E-03 0. -1.
    9900012    2    1    2    0    0  0.18116195597E+02 -0.70305728390E+01 -0.38807183492E+02  0.47787274338E+02  0.20000015018E+02 0.  0.
        -12    1    1    2    0    0 -0.18116195597E+02  0.70305728390E+01  0.38807183492E+02  0.43400725662E+02  0.00000000000E+00 0.  1.
         11    1    3    3    0    0  0.63722530937E+01  0.10446397529E+01 -0.11028425197E+02  0.12779790463E+02  0.51100000000E-03 0. -1.
        -11    1    3    3    0    0 -0.77500065300E+00  0.17714067992E+01  0.95358800336E+00  0.21558845984E+01  0.51100000000E-03 0.  1.
         12    1    3    3    0    0  0.12518943157E+02 -0.98466193911E+01 -0.28732346299E+02  0.32851599276E+02  0.00000000000E+00 0. -1.
</event>
<event>
 7    1  0.4031943E-009  0.4778728E+02  0.7816164E-02  0.1312668E+00
        -11   -1    0    0    0    0  0.00000000000E+00  0.00000000000E+00  0.45593999997E+02  0.45594000000E+02  0.51100000000E-03 0. -1.
         11   -1    0    0    0    0 -0.00000000000E+00 -0.00000000000E+00 -0.45593999997E+02  0.45594000000E+02  0.51100000000E-03 0.  1.
    9900012    2    1    2    0    0 -0.11664328752E+02  0.14077466887E+02  0.39362301727E+02  0.47787280692E+02  0.20000043988E+02 0.  0.
        -12    1    1    2    0    0  0.11664328752E+02 -0.14077466887E+02 -0.39362301727E+02  0.43400719308E+02  0.00000000000E+00 0.  1.
         11    1    3    3    0    0  0.58818313587E+00  0.41266837063E+01  0.23811874170E+02  0.24173970083E+02  0.51100000000E-03 0. -1.
        -11    1    3    3    0    0 -0.52318925680E+01 -0.31867477853E+00  0.57173777828E+01  0.77564594004E+01  0.51100000000E-03 0.  1.
        -12    1    3    3    0    0 -0.70206193195E+01  0.10269457959E+02  0.98330497740E+01  0.15856851209E+02  0.00000000000E+00 0.  1.
</event>
<event>
 7    1  0.4031943E-009  0.4778727E+02  0.7816164E-02  0.1312668E+00
        -11   -1    0    0    0    0  0.00000000000E+00  0.00000000000E+00  0.45593999997E+02  0.45594000000E+02  0.51100000000E-03 0. -1.
         11   -1    0    0    0    0 -0.00000000000E+00 -0.00000000000E+00 -0.45593999997E+02  0.45594000000E+02  0.51100000000E-03 0.  1.
    9900012    2    1    2    0    0 -0.87288547498E+00 -0.35459867288E+02  0.25009180509E+02  0.47787271586E+02  0.20000002469E+02 0.  0.
        -12    1    1    2    0    0  0.87288547498E+00  0.35459867288E+02 -0.25009180509E+02  0.43400728414E+02  0.00000000000E+00 0.  1.
         11    1    3    3    0    0  0.36268674718E+01 -0.18990246109E+02  0.14872270864E+02  0.24391967035E+02  0.51100000000E-03 0. -1.
        -11    1    3    3    0    0 -0.85722252436E+00 -0.50895865822E+00  0.65635414644E+01  0.66388211444E+01  0.51100000000E-03 0.  1.
         12    1    3    3    0    0 -0.36425304224E+01 -0.15960662521E+02  0.35733681807E+01  0.16756483407E+02  0.00000000000E+00 0. -1.
</event>
<event>
 7    1  0.4031943E-009  0.4778727E+02  0.7816164E-02  0.1312668E+00
        -11   -1    0    0    0    0  0.00000000000E+00  0.00000000000E+00  0.45593999997E+02  0.45594000000E+02  0.51100000000E-03 0. -1.
         11   -1    0    0    0    0 -0.00000000000E+00 -0.00000000000E+00 -0.45593999997E+02  0.45594000000E+02  0.51100000000E-03 0.  1.
    9900012    2    1    2    0    0 -0.23346600564E+02  0.10706833342E+02  0.34984618102E+02  0.47787267958E+02  0.19999985925E+02 0.  0.
        -12    1    1    2    0    0  0.23346600564E+02 -0.10706833342E+02 -0.34984618102E+02  0.43400732042E+02  0.00000000000E+00 0.  1.
         11    1    3    3    0    0 -0.18659691558E+02  0.46749173102E+01  0.23380340104E+02  0.30276711257E+02  0.51100000000E-03 0. -1.
        -11    1    3    3    0    0  0.54961942197E+00  0.41139445435E+01  0.11170886326E+02  0.11917018201E+02  0.51100000000E-03 0.  1.
        -12    1    3    3    0    0 -0.52365284279E+01  0.19179714881E+01  0.43339167082E+00  0.55935384995E+01  0.00000000000E+00 0.  1.
</event>
<event>
 7    1  0.4031943E-009  0.4778727E+02  0.7816164E-02  0.1312668E+00
        -11   -1    0    0    0    0  0.00000000000E+00  0.00000000000E+00  0.45593999997E+02  0.45594000000E+02  0.51100000000E-03 0.  1.
         11   -1    0    0    0    0 -0.00000000000E+00 -0.00000000000E+00 -0.45593999997E+02  0.45594000000E+02  0.51100000000E-03 0. -1.
    9900012    2    1    2    0    0  0.34419080790E+02 -0.26389434880E+02 -0.15962581247E+01  0.47787269180E+02  0.19999991498E+02 0.  0.
        -12    1    1    2    0    0 -0.34419080790E+02  0.26389434880E+02  0.15962581247E+01  0.43400730820E+02  0.00000000000E+00 0.  1.
         11    1    3    3    0    0  0.10051500361E+02 -0.35854751835E+01 -0.30122110001E+01  0.11088809998E+02  0.51100000000E-03 0. -1.
        -11    1    3    3    0    0  0.13342669609E+02 -0.10343461432E+02 -0.67291159262E+01  0.18174020692E+02  0.51100000000E-03 0.  1.
        -12    1    3    3    0    0  0.11024910820E+02 -0.12460498265E+02  0.81450688016E+01  0.18524438490E+02  0.00000000000E+00 0.  1.
</event>
<event>
 7    1  0.4031943E-009  0.4778727E+02  0.7816164E-02  0.1312668E+00
        -11   -1    0    0    0    0  0.00000000000E+00  0.00000000000E+00  0.45593999997E+02  0.45594000000E+02  0.51100000000E-03 0.  1.
         11   -1    0    0    0    0 -0.00000000000E+00 -0.00000000000E+00 -0.45593999997E+02  0.45594000000E+02  0.51100000000E-03 0. -1.
    9900012    2    1    2    0    0  0.21644522753E+02  0.51979230852E+00 -0.37614728051E+02  0.47787270564E+02  0.19999997810E+02 0.  0.
        -12    1    1    2    0    0 -0.21644522753E+02 -0.51979230852E+00  0.37614728051E+02  0.43400729436E+02  0.00000000000E+00 0.  1.
         11    1    3    3    0    0  0.71902939980E+01  0.15280224246E+01 -0.58036716424E+01  0.93657773357E+01  0.51100000000E-03 0. -1.
        -11    1    3    3    0    0  0.43016502702E+01  0.62107308779E+01 -0.56111848558E+01  0.94107793956E+01  0.51100000000E-03 0.  1.
         12    1    3    3    0    0  0.10152578484E+02 -0.72189609940E+01 -0.26199871553E+02  0.29010713833E+02  0.00000000000E+00 0. -1.
</event>
<event>
 7    1  0.4031943E-009  0.4778727E+02  0.7816164E-02  0.1312668E+00
        -11   -1    0    0    0    0  0.00000000000E+00  0.00000000000E+00  0.45593999997E+02  0.45594000000E+02  0.51100000000E-03 0.  1.
         11   -1    0    0    0    0 -0.00000000000E+00 -0.00000000000E+00 -0.45593999997E+02  0.45594000000E+02  0.51100000000E-03 0. -1.
    9900012    2    1    2    0    0  0.14994330582E+02 -0.40669092932E+02 -0.21951529381E+01  0.47787265376E+02  0.19999974155E+02 0.  0.
        -12    1    1    2    0    0 -0.14994330582E+02  0.40669092932E+02  0.21951529381E+01  0.43400734624E+02  0.00000000000E+00 0.  1.
         11    1    3    3    0    0  0.11678521275E+02 -0.27798427563E+02  0.35343535153E+01  0.30358394048E+02  0.51100000000E-03 0. -1.
        -11    1    3    3    0    0  0.45793096623E+01 -0.64090763441E+01  0.10873321758E+01  0.79516431063E+01  0.51100000000E-03 0.  1.
        -12    1    3    3    0    0 -0.12635003553E+01 -0.64615890245E+01 -0.68168386292E+01  0.94772282217E+01  0.00000000000E+00 0.  1.
</event>
<event>
 7    1  0.4031943E-009  0.4778727E+02  0.7816164E-02  0.1312668E+00
        -11   -1    0    0    0    0  0.00000000000E+00  0.00000000000E+00  0.45593999997E+02  0.45594000000E+02  0.51100000000E-03 0.  1.
         11   -1    0    0    0    0 -0.00000000000E+00 -0.00000000000E+00 -0.45593999997E+02  0.45594000000E+02  0.51100000000E-03 0. -1.
    9900012    2    1    2    0    0  0.42067997284E+02  0.10503421337E+02  0.18934151684E+01  0.47787271017E+02  0.19999999873E+02 0.  0.
        -12    1    1    2    0    0 -0.42067997284E+02 -0.10503421337E+02 -0.18934151684E+01  0.43400728983E+02  0.00000000000E+00 0.  1.
         11    1    3    3    0    0  0.17626316994E+02  0.50716998105E+01 -0.30568412005E+01  0.18594447239E+02  0.51100000000E-03 0. -1.
        -11    1    3    3    0    0  0.25377044603E+02  0.52622899565E+01  0.70748987972E+01  0.26865224391E+02  0.51100000000E-03 0.  1.
        -12    1    3    3    0    0 -0.93536431248E+00  0.16943157013E+00 -0.21246424283E+01  0.23275993861E+01  0.00000000000E+00 0.  1.
</event>
<event>
 7    1  0.4031943E-009  0.4778727E+02  0.7816164E-02  0.1312668E+00
        -11   -1    0    0    0    0  0.00000000000E+00  0.00000000000E+00  0.45593999997E+02  0.45594000000E+02  0.51100000000E-03 0.  1.
         11   -1    0    0    0    0 -0.00000000000E+00 -0.00000000000E+00 -0.45593999997E+02  0.45594000000E+02  0.51100000000E-03 0. -1.
    9900012    2    1    2    0    0 -0.13186560716E+02  0.24314358051E+01 -0.41277428281E+02  0.47787270178E+02  0.19999996050E+02 0.  0.
        -12    1    1    2    0    0  0.13186560716E+02 -0.24314358051E+01  0.41277428281E+02  0.43400729822E+02  0.00000000000E+00 0.  1.
         11    1    3    3    0    0  0.15953999808E+01 -0.24868044308E+01 -0.11509052876E+02  0.11882247083E+02  0.51100000000E-03 0. -1.
        -11    1    3    3    0    0 -0.67628367518E+01 -0.88647662156E+00 -0.22801297749E+02  0.23799600439E+02  0.51100000000E-03 0.  1.
        -12    1    3    3    0    0 -0.80191239447E+01  0.58047168574E+01 -0.69670776561E+01  0.12105422657E+02  0.00000000000E+00 0.  1.
</event>
<event>
 7    1  0.4031943E-009  0.4778727E+02  0.7816164E-02  0.1312668E+00
        -11   -1    0    0    0    0  0.00000000000E+00  0.00000000000E+00  0.45593999997E+02  0.45594000000E+02  0.51100000000E-03 0.  1.
         11   -1    0    0    0    0 -0.00000000000E+00 -0.00000000000E+00 -0.45593999997E+02  0.45594000000E+02  0.51100000000E-03 0. -1.
    9900012    2    1    2    0    0  0.14435266787E+01 -0.81437211033E+01 -0.42605386885E+02  0.47787274726E+02  0.20000016785E+02 0.  0.
        -12    1    1    2    0    0 -0.14435266787E+01  0.81437211033E+01  0.42605386885E+02  0.43400725274E+02  0.00000000000E+00 0.  1.
         11    1    3    3    0    0  0.39646404734E+01 -0.69280603423E+01 -0.34019424189E+02  0.34943348675E+02  0.51100000000E-03 0. -1.
        -11    1    3    3    0    0  0.20224742554E+01 -0.12206892017E+01 -0.79039685682E+01  0.82494365643E+01  0.51100000000E-03 0.  1.
        -12    1    3    3    0    0 -0.45435880502E+01  0.50284406755E-02 -0.68199412811E+00  0.45944894869E+01  0.00000000000E+00 0.  1.
</event>
<event>
 7    1  0.4031943E-009  0.4778728E+02  0.7816164E-02  0.1312668E+00
        -11   -1    0    0    0    0  0.00000000000E+00  0.00000000000E+00  0.45593999997E+02  0.45594000000E+02  0.51100000000E-03 0. -1.
         11   -1    0    0    0    0 -0.00000000000E+00 -0.00000000000E+00 -0.45593999997E+02  0.45594000000E+02  0.51100000000E-03 0.  1.
    9900012    2    1    2    0    0 -0.43112218924E+02  0.11880785416E+01  0.48525820015E+01  0.47787279922E+02  0.20000040476E+02 0.  0.
        -12    1    1    2    0    0  0.43112218924E+02 -0.11880785416E+01 -0.48525820015E+01  0.43400720078E+02  0.00000000000E+00 0.  1.
         11    1    3    3    0    0 -0.14435268731E+02  0.36442700201E+01 -0.54047100713E+00  0.14897979611E+02  0.51100000000E-03 0. -1.
        -11    1    3    3    0    0 -0.13941347907E+02 -0.29715990338E+01  0.10033549275E+02  0.17431686482E+02  0.51100000000E-03 0.  1.
        -12    1    3    3    0    0 -0.14735602286E+02  0.51540755529E+00 -0.46404962666E+01  0.15457613829E+02  0.00000000000E+00 0.  1.
</event>
<event>
 7    1  0.4031943E-009  0.4778727E+02  0.7816164E-02  0.1312668E+00
        -11   -1    0    0    0    0  0.00000000000E+00  0.00000000000E+00  0.45593999997E+02  0.45594000000E+02  0.51100000000E-03 0. -1.
         11   -1    0    0    0    0 -0.00000000000E+00 -0.00000000000E+00 -0.45593999997E+02  0.45594000000E+02  0.51100000000E-03 0.  1.
    9900012    2    1    2    0    0  0.42200181925E+02 -0.82836023314E+01  0.58437945307E+01  0.47787270091E+02  0.19999995655E+02 0.  0.
        -12    1    1    2    0    0 -0.42200181925E+02  0.82836023314E+01 -0.58437945307E+01  0.43400729909E+02  0.00000000000E+00 0.  1.
         11    1    3    3    0    0  0.21374453109E+02 -0.91574210597E+01  0.52296044097E+01  0.23834310745E+02  0.51100000000E-03 0. -1.
        -11    1    3    3    0    0  0.13558248421E+01 -0.30185087096E+01 -0.20910542572E+01  0.39143535865E+01  0.51100000000E-03 0.  1.
         12    1    3    3    0    0  0.19469903974E+02  0.38923274380E+01  0.27052443782E+01  0.20038605760E+02  0.00000000000E+00 0. -1.
</event>
<event>
 7    1  0.4031943E-009  0.4778729E+02  0.7816164E-02  0.1312668E+00
        -11   -1    0    0    0    0  0.00000000000E+00  0.00000000000E+00  0.45593999997E+02  0.45594000000E+02  0.51100000000E-03 0. -1.
         11   -1    0    0    0    0 -0.00000000000E+00 -0.00000000000E+00 -0.45593999997E+02  0.45594000000E+02  0.51100000000E-03 0.  1.
    9900012    2    1    2    0    0  0.46278011437E+01 -0.43139513202E+02  0.10898867460E+01  0.47787285768E+02  0.20000067131E+02 0.  0.
        -12    1    1    2    0    0 -0.46278011437E+01  0.43139513202E+02 -0.10898867460E+01  0.43400714232E+02  0.00000000000E+00 0.  1.
         11    1    3    3    0    0 -0.57826946765E+01 -0.19414874762E+02  0.50681018054E+01  0.20882111386E+02  0.51100000000E-03 0. -1.
        -11    1    3    3    0    0  0.38950878849E+01 -0.62399082612E+01  0.13966824920E+01  0.74872482918E+01  0.51100000000E-03 0.  1.
         12    1    3    3    0    0  0.65154079353E+01 -0.17484730178E+02 -0.53748975514E+01  0.19417926090E+02  0.00000000000E+00 0. -1.
</event>
<event>
 7    1  0.4031943E-009  0.4778728E+02  0.7816164E-02  0.1312668E+00
        -11   -1    0    0    0    0  0.00000000000E+00  0.00000000000E+00  0.45593999997E+02  0.45594000000E+02  0.51100000000E-03 0.  1.
         11   -1    0    0    0    0 -0.00000000000E+00 -0.00000000000E+00 -0.45593999997E+02  0.45594000000E+02  0.51100000000E-03 0. -1.
    9900012    2    1    2    0    0 -0.29382513051E+02  0.22238884022E+02 -0.22928644821E+02  0.47787276630E+02  0.20000025467E+02 0.  0.
        -12    1    1    2    0    0  0.29382513051E+02 -0.22238884022E+02  0.22928644821E+02  0.43400723370E+02  0.00000000000E+00 0.  1.
         11    1    3    3    0    0 -0.20366351657E+02  0.99050542911E+01 -0.16050843798E+02  0.27758385530E+02  0.51100000000E-03 0. -1.
        -11    1    3    3    0    0 -0.45610483644E+01  0.27944734042E+01 -0.78024704597E+01  0.94599571524E+01  0.51100000000E-03 0.  1.
        -12    1    3    3    0    0 -0.44551130296E+01  0.95393563264E+01  0.92466943691E+00  0.10568933948E+02  0.00000000000E+00 0.  1.
</event>
<event>
 7    1  0.4031943E-009  0.4778727E+02  0.7816164E-02  0.1312668E+00
        -11   -1    0    0    0    0  0.00000000000E+00  0.00000000000E+00  0.45593999997E+02  0.45594000000E+02  0.51100000000E-03 0.  1.
         11   -1    0    0    0    0 -0.00000000000E+00 -0.00000000000E+00 -0.45593999997E+02  0.45594000000E+02  0.51100000000E-03 0. -1.
    9900012    2    1    2    0    0 -0.11058128978E+02 -0.33624972536E+02 -0.25113783782E+02  0.47787272697E+02  0.20000007537E+02 0.  0.
        -12    1    1    2    0    0  0.11058128978E+02  0.33624972536E+02  0.25113783782E+02  0.43400727303E+02  0.00000000000E+00 0.  1.
         11    1    3    3    0    0  0.16032392039E+01 -0.38013593314E+01 -0.89931772533E+00  0.42224970508E+01  0.51100000000E-03 0. -1.
        -11    1    3    3    0    0 -0.86348029467E+01 -0.76365043557E+01 -0.16153001762E+01  0.11639811666E+02  0.51100000000E-03 0.  1.
         12    1    3    3    0    0 -0.40265652350E+01 -0.22187108849E+02 -0.22599165880E+02  0.31924963981E+02  0.00000000000E+00 0. -1.
</event>
<event>
 7    1  0.4031943E-009  0.4778727E+02  0.7816164E-02  0.1312668E+00
        -11   -1    0    0    0    0  0.00000000000E+00  0.00000000000E+00  0.45593999997E+02  0.45594000000E+02  0.51100000000E-03 0.  1.
         11   -1    0    0    0    0 -0.00000000000E+00 -0.00000000000E+00 -0.45593999997E+02  0.45594000000E+02  0.51100000000E-03 0. -1.
    9900012    2    1    2    0    0  0.12498907949E+02  0.23346127411E+02 -0.34385444313E+02  0.47787272522E+02  0.20000006735E+02 0.  0.
        -12    1    1    2    0    0 -0.12498907949E+02 -0.23346127411E+02  0.34385444313E+02  0.43400727478E+02  0.00000000000E+00 0.  1.
         11    1    3    3    0    0  0.12442432782E+01  0.11237503765E+02 -0.13048588415E+02  0.17265436342E+02  0.51100000000E-03 0. -1.
        -11    1    3    3    0    0 -0.30538093133E+01  0.41376456574E+01 -0.74257565398E+01  0.90325922834E+01  0.51100000000E-03 0.  1.
         12    1    3    3    0    0  0.14308473984E+02  0.79709779887E+01 -0.13911099359E+02  0.21489243896E+02  0.00000000000E+00 0. -1.
</event>
<event>
 7    1  0.4031943E-009  0.4778727E+02  0.7816164E-02  0.1312668E+00
        -11   -1    0    0    0    0  0.00000000000E+00  0.00000000000E+00  0.45593999997E+02  0.45594000000E+02  0.51100000000E-03 0. -1.
         11   -1    0    0    0    0 -0.00000000000E+00 -0.00000000000E+00 -0.45593999997E+02  0.45594000000E+02  0.51100000000E-03 0.  1.
    9900012    2    1    2    0    0 -0.20258202560E+02 -0.37811915246E+02 -0.65945165512E+01  0.47787270120E+02  0.19999995785E+02 0.  0.
        -12    1    1    2    0    0  0.20258202560E+02  0.37811915246E+02  0.65945165512E+01  0.43400729880E+02  0.00000000000E+00 0.  1.
         11    1    3    3    0    0 -0.40037865152E+01 -0.16785046537E+02 -0.12790540821E+01  0.17303296602E+02  0.51100000000E-03 0. -1.
        -11    1    3    3    0    0  0.18968220598E+01 -0.41061699595E+01 -0.32771376523E+01  0.55855346311E+01  0.51100000000E-03 0.  1.
        -12    1    3    3    0    0 -0.18151238105E+02 -0.16920698750E+02 -0.20383248168E+01  0.24898438887E+02  0.00000000000E+00 0.  1.
</event>
<event>
 7    1  0.4031943E-009  0.4778727E+02  0.7816164E-02  0.1312668E+00
        -11   -1    0    0    0    0  0.00000000000E+00  0.00000000000E+00  0.45593999997E+02  0.45594000000E+02  0.51100000000E-03 0.  1.
         11   -1    0    0    0    0 -0.00000000000E+00 -0.00000000000E+00 -0.45593999997E+02  0.45594000000E+02  0.51100000000E-03 0. -1.
    9900012    2    1    2    0    0 -0.41021481842E+02  0.16242191470E+01 -0.14079172873E+02  0.47787272251E+02  0.20000005501E+02 0.  0.
        -12    1    1    2    0    0  0.41021481842E+02 -0.16242191470E+01  0.14079172873E+02  0.43400727749E+02  0.00000000000E+00 0.  1.
         11    1    3    3    0    0 -0.21358920400E+02  0.52864848358E+01 -0.94520288162E+01  0.23947677374E+02  0.51100000000E-03 0. -1.
        -11    1    3    3    0    0 -0.22243961867E+01 -0.35903711115E+01 -0.48089057245E+01  0.64003341821E+01  0.51100000000E-03 0.  1.
         12    1    3    3    0    0 -0.17438165255E+02 -0.71894577277E-01  0.18176166821E+00  0.17439260695E+02  0.00000000000E+00 0. -1.
</event>
<event>
 7    1  0.4476961E-009  0.4778727E+02  0.7816164E-02  0.1312668E+00
        -11   -1    0    0    0    0  0.00000000000E+00  0.00000000000E+00  0.45593999997E+02  0.45594000000E+02  0.51100000000E-03 0.  1.
         11   -1    0    0    0    0 -0.00000000000E+00 -0.00000000000E+00 -0.45593999997E+02  0.45594000000E+02  0.51100000000E-03 0. -1.
    9900012    2    1    2    0    0  0.55739671638E+01  0.39423253546E+02 -0.17273136697E+02  0.47787270957E+02  0.19999999601E+02 0.  0.
        -12    1    1    2    0    0 -0.55739671638E+01 -0.39423253546E+02  0.17273136697E+02  0.43400729043E+02  0.00000000000E+00 0.  1.
         11    1    3    3    0    0  0.49208476473E+01  0.15934703343E+02 -0.10050512512E+02  0.19471577086E+02  0.51100000000E-03 0. -1.
        -11    1    3    3    0    0 -0.32262957719E+01  0.15891490993E+02 -0.10342062399E+02  0.19232959349E+02  0.51100000000E-03 0.  1.
        -12    1    3    3    0    0  0.38794152885E+01  0.75970592099E+01  0.31194382140E+01  0.90827345216E+01  0.00000000000E+00 0.  1.
</event>
<event>
 7    1  0.4031943E-009  0.4778727E+02  0.7816164E-02  0.1312668E+00
        -11   -1    0    0    0    0  0.00000000000E+00  0.00000000000E+00  0.45593999997E+02  0.45594000000E+02  0.51100000000E-03 0.  1.
         11   -1    0    0    0    0 -0.00000000000E+00 -0.00000000000E+00 -0.45593999997E+02  0.45594000000E+02  0.51100000000E-03 0. -1.
    9900012    2    1    2    0    0  0.14917919083E+02 -0.34272798335E+02 -0.22055708818E+02  0.47787270663E+02  0.19999998261E+02 0.  0.
        -12    1    1    2    0    0 -0.14917919083E+02  0.34272798335E+02  0.22055708818E+02  0.43400729337E+02  0.00000000000E+00 0.  1.
         11    1    3    3    0    0  0.16210009429E+01 -0.53956152237E+01 -0.74274608861E+01  0.93224183116E+01  0.51100000000E-03 0. -1.
        -11    1    3    3    0    0  0.83614806264E+01 -0.28594610335E+01 -0.17122579056E+01  0.90012611929E+01  0.51100000000E-03 0.  1.
         12    1    3    3    0    0  0.49354375141E+01 -0.26017722078E+02 -0.12915990026E+02  0.29463591158E+02  0.00000000000E+00 0. -1.
</event>
<event>
 7    1  0.4031943E-009  0.4778727E+02  0.7816164E-02  0.1312668E+00
        -11   -1    0    0    0    0  0.00000000000E+00  0.00000000000E+00  0.45593999997E+02  0.45594000000E+02  0.51100000000E-03 0. -1.
         11   -1    0    0    0    0 -0.00000000000E+00 -0.00000000000E+00 -0.45593999997E+02  0.45594000000E+02  0.51100000000E-03 0.  1.
    9900012    2    1    2    0    0  0.10140124453E+02 -0.40925755163E+02 -0.10290002981E+02  0.47787265894E+02  0.19999976515E+02 0.  0.
        -12    1    1    2    0    0 -0.10140124453E+02  0.40925755163E+02  0.10290002981E+02  0.43400734106E+02  0.00000000000E+00 0.  1.
         11    1    3    3    0    0 -0.21321595919E+01 -0.46052740492E+01 -0.88843407215E+00  0.51520839429E+01  0.51100000000E-03 0.  1.
        -11    1    3    3    0    0  0.19162382280E+01 -0.46297692135E+01  0.42872378832E+01  0.65944780570E+01  0.51100000000E-03 0. -1.
         12    1    3    3    0    0  0.10356045817E+02 -0.31690711901E+02 -0.13688806792E+02  0.36040703894E+02  0.00000000000E+00 0. -1.
</event>
<event>
 7    1  0.4031943E-009  0.4778727E+02  0.7816164E-02  0.1312668E+00
        -11   -1    0    0    0    0  0.00000000000E+00  0.00000000000E+00  0.45593999997E+02  0.45594000000E+02  0.51100000000E-03 0. -1.
         11   -1    0    0    0    0 -0.00000000000E+00 -0.00000000000E+00 -0.45593999997E+02  0.45594000000E+02  0.51100000000E-03 0.  1.
    9900012    2    1    2    0    0 -0.39676650163E+02  0.68814452665E+01  0.16187409292E+02  0.47787273316E+02  0.20000010355E+02 0.  0.
        -12    1    1    2    0    0  0.39676650163E+02 -0.68814452665E+01 -0.16187409292E+02  0.43400726684E+02  0.00000000000E+00 0.  1.
         11    1    3    3    0    0 -0.70461628961E+01  0.52324276955E+01  0.43788605091E+01  0.98082175121E+01  0.51100000000E-03 0. -1.
        -11    1    3    3    0    0 -0.17800552333E+02  0.65425986951E+01  0.10081499674E+01  0.18991619933E+02  0.51100000000E-03 0.  1.
         12    1    3    3    0    0 -0.14829934934E+02 -0.48935811241E+01  0.10800398816E+02  0.18987435871E+02  0.00000000000E+00 0. -1.
</event>
<event>
 7    1  0.4211482E-009  0.4778727E+02  0.7816164E-02  0.1312668E+00
        -11   -1    0    0    0    0  0.00000000000E+00  0.00000000000E+00  0.45593999997E+02  0.45594000000E+02  0.51100000000E-03 0.  1.
         11   -1    0    0    0    0 -0.00000000000E+00 -0.00000000000E+00 -0.45593999997E+02  0.45594000000E+02  0.51100000000E-03 0. -1.
    9900012    2    1    2    0    0 -0.28894725462E+02  0.20859039003E+01 -0.32316666510E+02  0.47787273175E+02  0.20000009715E+02 0.  0.
        -12    1    1    2    0    0  0.28894725462E+02 -0.20859039003E+01  0.32316666510E+02  0.43400726825E+02  0.00000000000E+00 0.  1.
         11    1    3    3    0    0 -0.77226603484E+01  0.55039794409E+01 -0.11900875141E+02  0.15217230429E+02  0.51100000000E-03 0. -1.
        -11    1    3    3    0    0 -0.64455581005E+00 -0.21789543201E+01 -0.85084582065E+01  0.88066540431E+01  0.51100000000E-03 0.  1.
        -12    1    3    3    0    0 -0.20527509304E+02 -0.12391212204E+01 -0.11907333162E+02  0.23763388703E+02  0.00000000000E+00 0.  1.
</event>
<event>
 7    1  0.4031943E-009  0.4778727E+02  0.7816164E-02  0.1312668E+00
        -11   -1    0    0    0    0  0.00000000000E+00  0.00000000000E+00  0.45593999997E+02  0.45594000000E+02  0.51100000000E-03 0. -1.
         11   -1    0    0    0    0 -0.00000000000E+00 -0.00000000000E+00 -0.45593999997E+02  0.45594000000E+02  0.51100000000E-03 0.  1.
    9900012    2    1    2    0    0  0.25840998893E+02 -0.28740704764E+02 -0.19744313790E+02  0.47787271191E+02  0.20000000670E+02 0.  0.
        -12    1    1    2    0    0 -0.25840998893E+02  0.28740704764E+02  0.19744313790E+02  0.43400728809E+02  0.00000000000E+00 0.  1.
         11    1    3    3    0    0  0.90782234345E+01 -0.14298777971E+02 -0.24737009763E+01  0.17116903604E+02  0.51100000000E-03 0. -1.
        -11    1    3    3    0    0  0.16671060589E+02 -0.16162343353E+02 -0.14399458996E+02  0.27321969612E+02  0.51100000000E-03 0.  1.
         12    1    3    3    0    0  0.91714868747E-01  0.17204165606E+01 -0.28711538176E+01  0.33483979756E+01  0.00000000000E+00 0. -1.
</event>
<event>
 7    1  0.4031943E-009  0.4778730E+02  0.7816164E-02  0.1312668E+00
        -11   -1    0    0    0    0  0.00000000000E+00  0.00000000000E+00  0.45593999997E+02  0.45594000000E+02  0.51100000000E-03 0.  1.
         11   -1    0    0    0    0 -0.00000000000E+00 -0.00000000000E+00 -0.45593999997E+02  0.45594000000E+02  0.51100000000E-03 0. -1.
    9900012    2    1    2    0    0  0.37667767276E+02  0.14936841182E+02 -0.15545115655E+02  0.47787302577E+02  0.20000143769E+02 0.  0.
        -12    1    1    2    0    0 -0.37667767276E+02 -0.14936841182E+02  0.15545115655E+02  0.43400697423E+02  0.00000000000E+00 0.  1.
         11    1    3    3    0    0  0.24916494443E+02  0.15595075065E+02 -0.73036436090E+01  0.30288302558E+02  0.51100000000E-03 0. -1.
        -11    1    3    3    0    0  0.11012079850E+02  0.29765763306E+01 -0.60928013952E+01  0.12932445181E+02  0.51100000000E-03 0.  1.
        -12    1    3    3    0    0  0.17391929833E+01 -0.36348102134E+01 -0.21486706504E+01  0.45665548376E+01  0.00000000000E+00 0.  1.
</event>
<event>
 7    1  0.4031943E-009  0.4778727E+02  0.7816164E-02  0.1312668E+00
        -11   -1    0    0    0    0  0.00000000000E+00  0.00000000000E+00  0.45593999997E+02  0.45594000000E+02  0.51100000000E-03 0.  1.
         11   -1    0    0    0    0 -0.00000000000E+00 -0.00000000000E+00 -0.45593999997E+02  0.45594000000E+02  0.51100000000E-03 0. -1.
    9900012    2    1    2    0    0  0.12327739610E+01  0.43379828505E+02 -0.54240963886E+00  0.47787268889E+02  0.19999990171E+02 0.  0.
        -12    1    1    2    0    0 -0.12327739610E+01 -0.43379828505E+02  0.54240963886E+00  0.43400731111E+02  0.00000000000E+00 0.  1.
         11    1    3    3    0    0 -0.45660680986E+01  0.26880186408E+02  0.27517711003E+00  0.27266630190E+02  0.51100000000E-03 0. -1.
        -11    1    3    3    0    0  0.27389049670E+01  0.98346339564E+01  0.48014423709E+01  0.11281643257E+02  0.51100000000E-03 0.  1.
         12    1    3    3    0    0  0.30599370926E+01  0.66650081412E+01 -0.56190291198E+01  0.92389954422E+01  0.00000000000E+00 0. -1.
</event>
<event>
 7    1  0.4031943E-009  0.4778727E+02  0.7816164E-02  0.1312668E+00
        -11   -1    0    0    0    0  0.00000000000E+00  0.00000000000E+00  0.45593999997E+02  0.45594000000E+02  0.51100000000E-03 0.  1.
         11   -1    0    0    0    0 -0.00000000000E+00 -0.00000000000E+00 -0.45593999997E+02  0.45594000000E+02  0.51100000000E-03 0. -1.
    9900012    2    1    2    0    0 -0.32994923048E+01 -0.36544067580E+02 -0.23179040878E+02  0.47787268891E+02  0.19999990182E+02 0.  0.
        -12    1    1    2    0    0  0.32994923048E+01  0.36544067580E+02  0.23179040878E+02  0.43400731109E+02  0.00000000000E+00 0.  1.
         11    1    3    3    0    0 -0.67516052603E+00 -0.57041193846E+01  0.62926108358E+00  0.57783033376E+01  0.51100000000E-03 0. -1.
        -11    1    3    3    0    0  0.44414483344E+00  0.14894988781E+01  0.27520322025E+00  0.15784830105E+01  0.51100000000E-03 0.  1.
         12    1    3    3    0    0 -0.30684766123E+01 -0.32329447074E+02 -0.24083505182E+02  0.40430482543E+02  0.00000000000E+00 0. -1.
</event>
<event>
 7    1  0.4031943E-009  0.4778727E+02  0.7816164E-02  0.1312668E+00
        -11   -1    0    0    0    0  0.00000000000E+00  0.00000000000E+00  0.45593999997E+02  0.45594000000E+02  0.51100000000E-03 0.  1.
         11   -1    0    0    0    0 -0.00000000000E+00 -0.00000000000E+00 -0.45593999997E+02  0.45594000000E+02  0.51100000000E-03 0. -1.
    9900012    2    1    2    0    0 -0.90422666646E+01  0.29402117801E+02 -0.30616603726E+02  0.47787267963E+02  0.19999985952E+02 0.  0.
        -12    1    1    2    0    0  0.90422666646E+01 -0.29402117801E+02  0.30616603726E+02  0.43400732037E+02  0.00000000000E+00 0.  1.
         11    1    3    3    0    0 -0.41243382306E+01  0.57688591749E+01 -0.11335759951E+01  0.71815664599E+01  0.51100000000E-03 0. -1.
        -11    1    3    3    0    0 -0.67409888836E+01  0.21403438010E+02 -0.18000482466E+02  0.28767437478E+02  0.51100000000E-03 0.  1.
        -12    1    3    3    0    0  0.18230604495E+01  0.22298206164E+01 -0.11482545265E+02  0.11838264026E+02  0.00000000000E+00 0.  1.
</event>
<event>
 7    1  0.4031943E-009  0.4778727E+02  0.7816164E-02  0.1312668E+00
        -11   -1    0    0    0    0  0.00000000000E+00  0.00000000000E+00  0.45593999997E+02  0.45594000000E+02  0.51100000000E-03 0.  1.
         11   -1    0    0    0    0 -0.00000000000E+00 -0.00000000000E+00 -0.45593999997E+02  0.45594000000E+02  0.51100000000E-03 0. -1.
    9900012    2    1    2    0    0 -0.51694214309E+00  0.34769523289E+02 -0.25969908035E+02  0.47787273021E+02  0.20000009014E+02 0.  0.
        -12    1    1    2    0    0  0.51694214309E+00 -0.34769523289E+02  0.25969908035E+02  0.43400726979E+02  0.00000000000E+00 0.  1.
         11    1    3    3    0    0  0.12225343830E+00  0.21293678114E+02 -0.77495773676E+01  0.22660353553E+02  0.51100000000E-03 0. -1.
        -11    1    3    3    0    0 -0.78859597278E-02  0.14500481665E+02 -0.12089533814E+02  0.18879111706E+02  0.51100000000E-03 0.  1.
        -12    1    3    3    0    0 -0.63130962165E+00 -0.10246364900E+01 -0.61307968532E+01  0.62478077620E+01  0.00000000000E+00 0.  1.
</event>
<event>
 7    1  0.4031943E-009  0.4778727E+02  0.7816164E-02  0.1312668E+00
        -11   -1    0    0    0    0  0.00000000000E+00  0.00000000000E+00  0.45593999997E+02  0.45594000000E+02  0.51100000000E-03 0. -1.
         11   -1    0    0    0    0 -0.00000000000E+00 -0.00000000000E+00 -0.45593999997E+02  0.45594000000E+02  0.51100000000E-03 0.  1.
    9900012    2    1    2    0    0 -0.24397099440E+02  0.32878991478E+02 -0.14400570188E+02  0.47787274621E+02  0.20000016306E+02 0.  0.
        -12    1    1    2    0    0  0.24397099440E+02 -0.32878991478E+02  0.14400570188E+02  0.43400725379E+02  0.00000000000E+00 0.  1.
         11    1    3    3    0    0 -0.70437775802E+01  0.49652287470E+00  0.37105887819E+00  0.70709986930E+01  0.51100000000E-03 0. -1.
        -11    1    3    3    0    0 -0.99821727764E+00  0.31517810840E+01  0.13155877426E+01  0.35582204969E+01  0.51100000000E-03 0.  1.
        -12    1    3    3    0    0 -0.16355104582E+02  0.29230687520E+02 -0.16087216809E+02  0.37158055431E+02  0.00000000000E+00 0.  1.
</event>
<event>
 7    1  0.4031943E-009  0.4778727E+02  0.7816164E-02  0.1312668E+00
        -11   -1    0    0    0    0  0.00000000000E+00  0.00000000000E+00  0.45593999997E+02  0.45594000000E+02  0.51100000000E-03 0. -1.
         11   -1    0    0    0    0 -0.00000000000E+00 -0.00000000000E+00 -0.45593999997E+02  0.45594000000E+02  0.51100000000E-03 0.  1.
    9900012    2    1    2    0    0 -0.29939433484E+02  0.25168421527E+02  0.18809681184E+02  0.47787271600E+02  0.20000002531E+02 0.  0.
        -12    1    1    2    0    0  0.29939433484E+02 -0.25168421527E+02 -0.18809681184E+02  0.43400728400E+02  0.00000000000E+00 0.  1.
         11    1    3    3    0    0 -0.56986074666E+01  0.26608335469E+01  0.10765029677E+02  0.12467558960E+02  0.51100000000E-03 0. -1.
        -11    1    3    3    0    0 -0.59462307308E+01  0.11564341692E+01  0.29772948486E+01  0.67497618305E+01  0.51100000000E-03 0.  1.
        -12    1    3    3    0    0 -0.18294595286E+02  0.21351153810E+02  0.50673566581E+01  0.28569950809E+02  0.00000000000E+00 0.  1.
</event>
<event>
 7    1  0.4031943E-009  0.4778727E+02  0.7816164E-02  0.1312668E+00
        -11   -1    0    0    0    0  0.00000000000E+00  0.00000000000E+00  0.45593999997E+02  0.45594000000E+02  0.51100000000E-03 0.  1.
         11   -1    0    0    0    0 -0.00000000000E+00 -0.00000000000E+00 -0.45593999997E+02  0.45594000000E+02  0.51100000000E-03 0. -1.
    9900012    2    1    2    0    0  0.19478857755E+02 -0.20022034851E+02 -0.33216194765E+02  0.47787269895E+02  0.19999994759E+02 0.  0.
        -12    1    1    2    0    0 -0.19478857755E+02  0.20022034851E+02  0.33216194765E+02  0.43400730105E+02  0.00000000000E+00 0.  1.
         11    1    3    3    0    0  0.35135014550E+01 -0.64922057328E+01 -0.67958484384E+01  0.10033792105E+02  0.51100000000E-03 0. -1.
        -11    1    3    3    0    0 -0.35747435032E+01 -0.35062386159E+01 -0.49249668535E+01  0.70233751939E+01  0.51100000000E-03 0.  1.
        -12    1    3    3    0    0  0.19540099803E+02 -0.10023590502E+02 -0.21495379473E+02  0.30730102596E+02  0.00000000000E+00 0.  1.
</event>
<event>
 7    1  0.4031943E-009  0.4778727E+02  0.7816164E-02  0.1312668E+00
        -11   -1    0    0    0    0  0.00000000000E+00  0.00000000000E+00  0.45593999997E+02  0.45594000000E+02  0.51100000000E-03 0. -1.
         11   -1    0    0    0    0 -0.00000000000E+00 -0.00000000000E+00 -0.45593999997E+02  0.45594000000E+02  0.51100000000E-03 0.  1.
    9900012    2    1    2    0    0 -0.30812817202E+02 -0.27741974381E+02 -0.12828729690E+02  0.47787272449E+02  0.20000006405E+02 0.  0.
        -12    1    1    2    0    0  0.30812817202E+02  0.27741974381E+02  0.12828729690E+02  0.43400727551E+02  0.00000000000E+00 0.  1.
         11    1    3    3    0    0 -0.10640100830E+02 -0.95402838670E+01 -0.97163872674E+01  0.17281115234E+02  0.51100000000E-03 0. -1.
        -11    1    3    3    0    0  0.11244225682E+01 -0.16604509443E+01 -0.29161952202E+01  0.35391550226E+01  0.51100000000E-03 0.  1.
         12    1    3    3    0    0 -0.21297138941E+02 -0.16541239569E+02 -0.19614720205E+00  0.26967002193E+02  0.00000000000E+00 0. -1.
</event>
<event>
 7    1  0.4031943E-009  0.4778727E+02  0.7816164E-02  0.1312668E+00
        -11   -1    0    0    0    0  0.00000000000E+00  0.00000000000E+00  0.45593999997E+02  0.45594000000E+02  0.51100000000E-03 0. -1.
         11   -1    0    0    0    0 -0.00000000000E+00 -0.00000000000E+00 -0.45593999997E+02  0.45594000000E+02  0.51100000000E-03 0.  1.
    9900012    2    1    2    0    0 -0.16393605995E+02  0.36042002846E+02 -0.17772081934E+02  0.47787272092E+02  0.20000004775E+02 0.  0.
        -12    1    1    2    0    0  0.16393605995E+02 -0.36042002846E+02  0.17772081934E+02  0.43400727908E+02  0.00000000000E+00 0.  1.
         11    1    3    3    0    0 -0.35338033431E+01  0.10565964762E+02 -0.73362897578E+01  0.13339734821E+02  0.51100000000E-03 0. -1.
        -11    1    3    3    0    0 -0.10784484550E+02  0.24060331694E+02 -0.29258824294E+01  0.26528578109E+02  0.51100000000E-03 0.  1.
        -12    1    3    3    0    0 -0.20753181026E+01  0.14157063906E+01 -0.75099097468E+01  0.79189591625E+01  0.00000000000E+00 0.  1.
</event>
<event>
 7    1  0.4031943E-009  0.4778727E+02  0.7816164E-02  0.1312668E+00
        -11   -1    0    0    0    0  0.00000000000E+00  0.00000000000E+00  0.45593999997E+02  0.45594000000E+02  0.51100000000E-03 0.  1.
         11   -1    0    0    0    0 -0.00000000000E+00 -0.00000000000E+00 -0.45593999997E+02  0.45594000000E+02  0.51100000000E-03 0. -1.
    9900012    2    1    2    0    0  0.25803007469E+02  0.10237210281E+02 -0.33362071302E+02  0.47787268781E+02  0.19999989678E+02 0.  0.
        -12    1    1    2    0    0 -0.25803007469E+02 -0.10237210281E+02  0.33362071302E+02  0.43400731219E+02  0.00000000000E+00 0.  1.
         11    1    3    3    0    0  0.12267477745E+02  0.32146900866E+00 -0.17517381035E+02  0.21388150718E+02  0.51100000000E-03 0. -1.
        -11    1    3    3    0    0  0.27937196234E+01 -0.28454132624E+01 -0.11010532100E+01  0.41368544089E+01  0.51100000000E-03 0.  1.
         12    1    3    3    0    0  0.10741810101E+02  0.12761154535E+02 -0.14743637057E+02  0.22262263654E+02  0.00000000000E+00 0. -1.
</event>
<event>
 7    1  0.4031943E-009  0.4778727E+02  0.7816164E-02  0.1312668E+00
        -11   -1    0    0    0    0  0.00000000000E+00  0.00000000000E+00  0.45593999997E+02  0.45594000000E+02  0.51100000000E-03 0. -1.
         11   -1    0    0    0    0 -0.00000000000E+00 -0.00000000000E+00 -0.45593999997E+02  0.45594000000E+02  0.51100000000E-03 0.  1.
    9900012    2    1    2    0    0  0.17970315024E+01  0.25541608792E+02  0.35043117522E+02  0.47787272039E+02  0.20000004536E+02 0.  0.
        -12    1    1    2    0    0 -0.17970315024E+01 -0.25541608792E+02 -0.35043117522E+02  0.43400727961E+02  0.00000000000E+00 0.  1.
         11    1    3    3    0    0 -0.24702074981E+01  0.22420979445E+02  0.33376763047E+02  0.40284122878E+02  0.51100000000E-03 0. -1.
        -11    1    3    3    0    0  0.29753284983E+01  0.23007536962E+01  0.34842719262E+01  0.51270067642E+01  0.51100000000E-03 0.  1.
         12    1    3    3    0    0  0.12919105022E+01  0.81987565106E+00 -0.18179174515E+01  0.23761423967E+01  0.00000000000E+00 0. -1.
</event>
<event>
 7    1  0.4031943E-009  0.4778727E+02  0.7816164E-02  0.1312668E+00
        -11   -1    0    0    0    0  0.00000000000E+00  0.00000000000E+00  0.45593999997E+02  0.45594000000E+02  0.51100000000E-03 0. -1.
         11   -1    0    0    0    0 -0.00000000000E+00 -0.00000000000E+00 -0.45593999997E+02  0.45594000000E+02  0.51100000000E-03 0.  1.
    9900012    2    1    2    0    0 -0.44656898256E+00  0.40627048890E+02  0.15259976828E+02  0.47787269382E+02  0.19999992422E+02 0.  0.
        -12    1    1    2    0    0  0.44656898256E+00 -0.40627048890E+02 -0.15259976828E+02  0.43400730618E+02  0.00000000000E+00 0.  1.
         11    1    3    3    0    0 -0.49829781736E+00  0.15186163910E+00  0.31835414429E+01  0.32258795780E+01  0.51100000000E-03 0.  1.
        -11    1    3    3    0    0 -0.85561064685E+00  0.16992536060E+02  0.12409553762E+02  0.21058855053E+02  0.51100000000E-03 0. -1.
        -12    1    3    3    0    0  0.90733948165E+00  0.23482651191E+02 -0.33311837668E+00  0.23502534751E+02  0.00000000000E+00 0.  1.
</event>
<event>
 7    1  0.4031943E-009  0.4778727E+02  0.7816164E-02  0.1312668E+00
        -11   -1    0    0    0    0  0.00000000000E+00  0.00000000000E+00  0.45593999997E+02  0.45594000000E+02  0.51100000000E-03 0.  1.
         11   -1    0    0    0    0 -0.00000000000E+00 -0.00000000000E+00 -0.45593999997E+02  0.45594000000E+02  0.51100000000E-03 0. -1.
    9900012    2    1    2    0    0  0.22317507499E+01 -0.30073815682E+02 -0.31212313921E+02  0.47787266810E+02  0.19999980695E+02 0.  0.
        -12    1    1    2    0    0 -0.22317507499E+01  0.30073815682E+02  0.31212313921E+02  0.43400733190E+02  0.00000000000E+00 0.  1.
         11    1    3    3    0    0  0.45678649854E+01 -0.35947801945E+01 -0.66137459087E+01  0.88050820768E+01  0.51100000000E-03 0. -1.
        -11    1    3    3    0    0  0.16489568776E+01  0.13320132577E+01 -0.13286992495E+01  0.25017513984E+01  0.51100000000E-03 0.  1.
         12    1    3    3    0    0 -0.39850711131E+01 -0.27811048745E+02 -0.23269868763E+02  0.36480433335E+02  0.00000000000E+00 0. -1.
</event>
<event>
 7    1  0.4031943E-009  0.4778727E+02  0.7816164E-02  0.1312668E+00
        -11   -1    0    0    0    0  0.00000000000E+00  0.00000000000E+00  0.45593999997E+02  0.45594000000E+02  0.51100000000E-03 0.  1.
         11   -1    0    0    0    0 -0.00000000000E+00 -0.00000000000E+00 -0.45593999997E+02  0.45594000000E+02  0.51100000000E-03 0. -1.
    9900012    2    1    2    0    0 -0.22211343910E+00 -0.12840153703E+00 -0.43399969136E+02  0.47787272559E+02  0.20000006907E+02 0.  0.
        -12    1    1    2    0    0  0.22211343910E+00  0.12840153703E+00  0.43399969136E+02  0.43400727441E+02  0.00000000000E+00 0.  1.
         11    1    3    3    0    0 -0.63212250085E+01  0.11891322032E+01 -0.14856411390E+02  0.16189035816E+02  0.51100000000E-03 0. -1.
        -11    1    3    3    0    0 -0.36618992673E+01 -0.59129527464E-01 -0.89951012846E+01  0.97120981217E+01  0.51100000000E-03 0.  1.
        -12    1    3    3    0    0  0.97610108367E+01 -0.12584042128E+01 -0.19548456462E+02  0.21886138621E+02  0.00000000000E+00 0.  1.
</event>
<event>
 7    1  0.4031943E-009  0.4778723E+02  0.7816164E-02  0.1312668E+00
        -11   -1    0    0    0    0  0.00000000000E+00  0.00000000000E+00  0.45593999997E+02  0.45594000000E+02  0.51100000000E-03 0. -1.
         11   -1    0    0    0    0 -0.00000000000E+00 -0.00000000000E+00 -0.45593999997E+02  0.45594000000E+02  0.51100000000E-03 0.  1.
    9900012    2    1    2    0    0 -0.12079526070E+02 -0.40635465641E+02  0.92989692208E+01  0.47787229886E+02  0.19999812342E+02 0.  0.
        -12    1    1    2    0    0  0.12079526070E+02  0.40635465641E+02 -0.92989692208E+01  0.43400770114E+02  0.00000000000E+00 0.  1.
         11    1    3    3    0    0 -0.41422498684E+01 -0.32306439086E+01  0.82922960495E+00  0.53181684850E+01  0.51100000000E-03 0. -1.
        -11    1    3    3    0    0 -0.87015329191E+01 -0.75339325421E+01  0.43559393887E+01  0.12306543906E+02  0.51100000000E-03 0.  1.
        -12    1    3    3    0    0  0.76425671736E+00 -0.29870889190E+02  0.41138002272E+01  0.30162517495E+02  0.00000000000E+00 0.  1.
</event>
<event>
 7    1  0.4031943E-009  0.4778727E+02  0.7816164E-02  0.1312668E+00
        -11   -1    0    0    0    0  0.00000000000E+00  0.00000000000E+00  0.45593999997E+02  0.45594000000E+02  0.51100000000E-03 0. -1.
         11   -1    0    0    0    0 -0.00000000000E+00 -0.00000000000E+00 -0.45593999997E+02  0.45594000000E+02  0.51100000000E-03 0.  1.
    9900012    2    1    2    0    0  0.14323771963E+02 -0.29717302051E+02  0.28201675181E+02  0.47787274575E+02  0.20000016097E+02 0.  0.
        -12    1    1    2    0    0 -0.14323771963E+02  0.29717302051E+02 -0.28201675181E+02  0.43400725425E+02  0.00000000000E+00 0.  1.
         11    1    3    3    0    0 -0.10633883256E+01 -0.14559785012E+02  0.49702771010E+01  0.15421471689E+02  0.51100000000E-03 0. -1.
        -11    1    3    3    0    0  0.77009250704E+01 -0.10902557079E+02  0.16905724815E+02  0.21540044790E+02  0.51100000000E-03 0.  1.
        -12    1    3    3    0    0  0.76862352185E+01 -0.42549599597E+01  0.63256732649E+01  0.10825758096E+02  0.00000000000E+00 0.  1.
</event>
<event>
 7    1  0.4031943E-009  0.4778727E+02  0.7816164E-02  0.1312668E+00
        -11   -1    0    0    0    0  0.00000000000E+00  0.00000000000E+00  0.45593999997E+02  0.45594000000E+02  0.51100000000E-03 0. -1.
         11   -1    0    0    0    0 -0.00000000000E+00 -0.00000000000E+00 -0.45593999997E+02  0.45594000000E+02  0.51100000000E-03 0.  1.
    9900012    2    1    2    0    0  0.28858068255E+02  0.29068438236E+02  0.14347860123E+02  0.47787270801E+02  0.19999998891E+02 0.  0.
        -12    1    1    2    0    0 -0.28858068255E+02 -0.29068438236E+02 -0.14347860123E+02  0.43400729199E+02  0.00000000000E+00 0.  1.
         11    1    3    3    0    0 -0.42200066535E-01  0.39959001084E+00 -0.17881625841E+01  0.18327516773E+01  0.51100000000E-03 0. -1.
        -11    1    3    3    0    0  0.86448371762E+00 -0.36530059254E+00 -0.16109298025E+01  0.18643689846E+01  0.51100000000E-03 0.  1.
         12    1    3    3    0    0  0.28035784604E+02  0.29034148818E+02  0.17746952510E+02  0.44090150139E+02  0.00000000000E+00 0. -1.
</event>
<event>
 7    1  0.4031943E-009  0.4778726E+02  0.7816164E-02  0.1312668E+00
        -11   -1    0    0    0    0  0.00000000000E+00  0.00000000000E+00  0.45593999997E+02  0.45594000000E+02  0.51100000000E-03 0. -1.
         11   -1    0    0    0    0 -0.00000000000E+00 -0.00000000000E+00 -0.45593999997E+02  0.45594000000E+02  0.51100000000E-03 0.  1.
    9900012    2    1    2    0    0  0.28514635363E+02  0.27664123983E+02  0.17470997313E+02  0.47787263454E+02  0.19999965390E+02 0.  0.
        -12    1    1    2    0    0 -0.28514635363E+02 -0.27664123983E+02 -0.17470997313E+02  0.43400736546E+02  0.00000000000E+00 0.  1.
         11    1    3    3    0    0  0.13702425598E+01  0.68553099721E+01  0.26731778882E+01  0.74845654363E+01  0.51100000000E-03 0. -1.
        -11    1    3    3    0    0  0.55396421638E+01  0.23824203539E+01 -0.30564723568E+01  0.67605906232E+01  0.51100000000E-03 0.  1.
         12    1    3    3    0    0  0.21604750639E+02  0.18426393657E+02  0.17854291782E+02  0.33542107394E+02  0.00000000000E+00 0. -1.
</event>
<event>
 7    1  0.4031943E-009  0.4778724E+02  0.7816164E-02  0.1312668E+00
        -11   -1    0    0    0    0  0.00000000000E+00  0.00000000000E+00  0.45593999997E+02  0.45594000000E+02  0.51100000000E-03 0.  1.
         11   -1    0    0    0    0 -0.00000000000E+00 -0.00000000000E+00 -0.45593999997E+02  0.45594000000E+02  0.51100000000E-03 0. -1.
    9900012    2    1    2    0    0  0.20898580871E+02 -0.28503166889E+01 -0.37930867799E+02  0.47787242868E+02  0.19999871533E+02 0.  0.
        -12    1    1    2    0    0 -0.20898580871E+02  0.28503166889E+01  0.37930867799E+02  0.43400757132E+02  0.00000000000E+00 0.  1.
         11    1    3    3    0    0  0.79194192007E+01 -0.89568756663E+01 -0.96914955743E+01  0.15390513601E+02  0.51100000000E-03 0. -1.
        -11    1    3    3    0    0  0.62270526715E+00  0.12556425252E+01 -0.84630740032E+01  0.85783461020E+01  0.51100000000E-03 0.  1.
         12    1    3    3    0    0  0.12356456403E+02  0.48509164523E+01 -0.19776298221E+02  0.23818383165E+02  0.00000000000E+00 0. -1.
</event>
<event>
 7    1  0.4031943E-009  0.4778727E+02  0.7816164E-02  0.1312668E+00
        -11   -1    0    0    0    0  0.00000000000E+00  0.00000000000E+00  0.45593999997E+02  0.45594000000E+02  0.51100000000E-03 0. -1.
         11   -1    0    0    0    0 -0.00000000000E+00 -0.00000000000E+00 -0.45593999997E+02  0.45594000000E+02  0.51100000000E-03 0.  1.
    9900012    2    1    2    0    0  0.41934488742E+02  0.27963626472E+01  0.10830628062E+02  0.47787268505E+02  0.19999988422E+02 0.  0.
        -12    1    1    2    0    0 -0.41934488742E+02 -0.27963626472E+01 -0.10830628062E+02  0.43400731495E+02  0.00000000000E+00 0.  1.
         11    1    3    3    0    0  0.13711072612E+02 -0.17439212900E+01 -0.13070478011E+01  0.13883196601E+02  0.51100000000E-03 0. -1.
        -11    1    3    3    0    0  0.11581029347E+02  0.78989681355E+01  0.20831207473E+01  0.14172273306E+02  0.51100000000E-03 0.  1.
        -12    1    3    3    0    0  0.16642386782E+02 -0.33586841984E+01  0.10054555115E+02  0.19731798598E+02  0.00000000000E+00 0.  1.
</event>
<event>
 7    1  0.4031943E-009  0.4778727E+02  0.7816164E-02  0.1312668E+00
        -11   -1    0    0    0    0  0.00000000000E+00  0.00000000000E+00  0.45593999997E+02  0.45594000000E+02  0.51100000000E-03 0. -1.
         11   -1    0    0    0    0 -0.00000000000E+00 -0.00000000000E+00 -0.45593999997E+02  0.45594000000E+02  0.51100000000E-03 0.  1.
    9900012    2    1    2    0    0  0.19413998703E+02  0.28913352607E+02  0.25898613900E+02  0.47787268363E+02  0.19999987776E+02 0.  0.
        -12    1    1    2    0    0 -0.19413998703E+02 -0.28913352607E+02 -0.25898613900E+02  0.43400731637E+02  0.00000000000E+00 0.  1.
         11    1    3    3    0    0  0.17447177036E+02  0.14878509194E+02  0.71594248415E+01  0.24021477612E+02  0.51100000000E-03 0.  1.
        -11    1    3    3    0    0  0.25150008419E-01  0.82161214409E+01  0.84434231087E+01  0.11781200198E+02  0.51100000000E-03 0. -1.
        -12    1    3    3    0    0  0.19416716591E+01  0.58187219724E+01  0.10295765950E+02  0.11984590553E+02  0.00000000000E+00 0.  1.
</event>
<event>
 7    1  0.4031943E-009  0.4778727E+02  0.7816164E-02  0.1312668E+00
        -11   -1    0    0    0    0  0.00000000000E+00  0.00000000000E+00  0.45593999997E+02  0.45594000000E+02  0.51100000000E-03 0. -1.
         11   -1    0    0    0    0 -0.00000000000E+00 -0.00000000000E+00 -0.45593999997E+02  0.45594000000E+02  0.51100000000E-03 0.  1.
    9900012    2    1    2    0    0  0.30504603334E+02 -0.30693861708E+02  0.33134943961E+01  0.47787271709E+02  0.20000003029E+02 0.  0.
        -12    1    1    2    0    0 -0.30504603334E+02  0.30693861708E+02 -0.33134943961E+01  0.43400728291E+02  0.00000000000E+00 0.  1.
         11    1    3    3    0    0  0.21836809420E+02 -0.19574320554E+02  0.20023814217E+01  0.29394043656E+02  0.51100000000E-03 0. -1.
        -11    1    3    3    0    0  0.88642325038E+01 -0.19255316947E+01 -0.20341520188E+00  0.90732391236E+01  0.51100000000E-03 0.  1.
        -12    1    3    3    0    0 -0.19643859029E+00 -0.91940094588E+01  0.15145281762E+01  0.93199889295E+01  0.00000000000E+00 0.  1.
</event>
<event>
 7    1  0.4031943E-009  0.4778727E+02  0.7816164E-02  0.1312668E+00
        -11   -1    0    0    0    0  0.00000000000E+00  0.00000000000E+00  0.45593999997E+02  0.45594000000E+02  0.51100000000E-03 0. -1.
         11   -1    0    0    0    0 -0.00000000000E+00 -0.00000000000E+00 -0.45593999997E+02  0.45594000000E+02  0.51100000000E-03 0.  1.
    9900012    2    1    2    0    0 -0.28680216320E+02 -0.17344172772E+02  0.27572593439E+02  0.47787273666E+02  0.20000011955E+02 0.  0.
        -12    1    1    2    0    0  0.28680216320E+02  0.17344172772E+02 -0.27572593439E+02  0.43400726334E+02  0.00000000000E+00 0.  1.
         11    1    3    3    0    0 -0.57728416897E+01 -0.20691137832E+01  0.75502767164E+01  0.97269528516E+01  0.51100000000E-03 0. -1.
        -11    1    3    3    0    0 -0.18601374852E+01 -0.27414048523E+01 -0.29807262764E+01  0.44564718584E+01  0.51100000000E-03 0.  1.
        -12    1    3    3    0    0 -0.21047237145E+02 -0.12533654137E+02  0.23003042999E+02  0.33603848956E+02  0.00000000000E+00 0.  1.
</event>
<event>
 7    1  0.4727881E-009  0.4778727E+02  0.7816164E-02  0.1312668E+00
        -11   -1    0    0    0    0  0.00000000000E+00  0.00000000000E+00  0.45593999997E+02  0.45594000000E+02  0.51100000000E-03 0.  1.
         11   -1    0    0    0    0 -0.00000000000E+00 -0.00000000000E+00 -0.45593999997E+02  0.45594000000E+02  0.51100000000E-03 0. -1.
    9900012    2    1    2    0    0 -0.35025932038E+02 -0.12725956306E+02 -0.22245391815E+02  0.47787270328E+02  0.19999996734E+02 0.  0.
        -12    1    1    2    0    0  0.35025932038E+02  0.12725956306E+02  0.22245391815E+02  0.43400729672E+02  0.00000000000E+00 0.  1.
         11    1    3    3    0    0 -0.12600946017E+02 -0.24545031594E+01 -0.12948235352E+02  0.18233628966E+02  0.51100000000E-03 0. -1.
        -11    1    3    3    0    0 -0.18223724834E+02 -0.12592238005E+02 -0.10633939379E+02  0.24571309932E+02  0.51100000000E-03 0.  1.
        -12    1    3    3    0    0 -0.42012611872E+01  0.23207848585E+01  0.13367829149E+01  0.49823314305E+01  0.00000000000E+00 0.  1.
</event>
<event>
 7    1  0.4031943E-009  0.4778725E+02  0.7816164E-02  0.1312668E+00
        -11   -1    0    0    0    0  0.00000000000E+00  0.00000000000E+00  0.45593999997E+02  0.45594000000E+02  0.51100000000E-03 0.  1.
         11   -1    0    0    0    0 -0.00000000000E+00 -0.00000000000E+00 -0.45593999997E+02  0.45594000000E+02  0.51100000000E-03 0. -1.
    9900012    2    1    2    0    0  0.10800517719E+02  0.16742987234E+01 -0.42002030949E+02  0.47787250432E+02  0.19999906018E+02 0.  0.
        -12    1    1    2    0    0 -0.10800517719E+02 -0.16742987234E+01  0.42002030949E+02  0.43400749568E+02  0.00000000000E+00 0.  1.
         11    1    3    3    0    0 -0.18541789419E+01  0.17862254097E+01 -0.28464359251E+01  0.38380696319E+01  0.51100000000E-03 0. -1.
        -11    1    3    3    0    0  0.39796655352E-01  0.59143176556E+01 -0.13304427303E+02  0.14559825659E+02  0.51100000000E-03 0.  1.
         12    1    3    3    0    0  0.12614900006E+02 -0.60262443418E+01 -0.25851167721E+02  0.29389355140E+02  0.00000000000E+00 0. -1.
</event>
<event>
 7    1  0.4031943E-009  0.4778727E+02  0.7816164E-02  0.1312668E+00
        -11   -1    0    0    0    0  0.00000000000E+00  0.00000000000E+00  0.45593999997E+02  0.45594000000E+02  0.51100000000E-03 0. -1.
         11   -1    0    0    0    0 -0.00000000000E+00 -0.00000000000E+00 -0.45593999997E+02  0.45594000000E+02  0.51100000000E-03 0.  1.
    9900012    2    1    2    0    0  0.17016273942E+02 -0.35625808320E+02  0.18024201663E+02  0.47787266792E+02  0.19999980614E+02 0.  0.
        -12    1    1    2    0    0 -0.17016273942E+02  0.35625808320E+02 -0.18024201663E+02  0.43400733208E+02  0.00000000000E+00 0.  1.
         11    1    3    3    0    0  0.50850685381E+01 -0.92760098173E+01  0.54301315051E+01  0.11890694201E+02  0.51100000000E-03 0. -1.
        -11    1    3    3    0    0  0.21172076352E+01  0.14792609010E+01  0.46792360984E+01  0.53447199842E+01  0.51100000000E-03 0.  1.
        -12    1    3    3    0    0  0.98139977692E+01 -0.27829059404E+02  0.79148340597E+01  0.30551852607E+02  0.00000000000E+00 0.  1.
</event>
<event>
 7    1  0.4031943E-009  0.4778727E+02  0.7816164E-02  0.1312668E+00
        -11   -1    0    0    0    0  0.00000000000E+00  0.00000000000E+00  0.45593999997E+02  0.45594000000E+02  0.51100000000E-03 0. -1.
         11   -1    0    0    0    0 -0.00000000000E+00 -0.00000000000E+00 -0.45593999997E+02  0.45594000000E+02  0.51100000000E-03 0.  1.
    9900012    2    1    2    0    0  0.41265681672E+02  0.12683465125E+02  0.44605964694E+01  0.47787266225E+02  0.19999978024E+02 0.  0.
        -12    1    1    2    0    0 -0.41265681672E+02 -0.12683465125E+02 -0.44605964694E+01  0.43400733775E+02  0.00000000000E+00 0.  1.
         11    1    3    3    0    0  0.24524064491E+02  0.24160109800E+01  0.74282275750E+00  0.24653978058E+02  0.51100000000E-03 0. -1.
        -11    1    3    3    0    0  0.22176839918E+01 -0.25522519409E+01 -0.12496470852E+00  0.33834492307E+01  0.51100000000E-03 0.  1.
        -12    1    3    3    0    0  0.14523933189E+02  0.12819706086E+02  0.38427384204E+01  0.19749838935E+02  0.00000000000E+00 0.  1.
</event>
<event>
 7    1  0.4031943E-009  0.4778728E+02  0.7816164E-02  0.1312668E+00
        -11   -1    0    0    0    0  0.00000000000E+00  0.00000000000E+00  0.45593999997E+02  0.45594000000E+02  0.51100000000E-03 0.  1.
         11   -1    0    0    0    0 -0.00000000000E+00 -0.00000000000E+00 -0.45593999997E+02  0.45594000000E+02  0.51100000000E-03 0. -1.
    9900012    2    1    2    0    0  0.42447593986E+02 -0.89178239318E+01 -0.15154673119E+01  0.47787280420E+02  0.20000042747E+02 0.  0.
        -12    1    1    2    0    0 -0.42447593986E+02  0.89178239318E+01  0.15154673119E+01  0.43400719580E+02  0.00000000000E+00 0.  1.
         11    1    3    3    0    0  0.97857200428E+00 -0.18956684248E+01  0.17771180334E+01  0.27765645517E+01  0.51100000000E-03 0.  1.
        -11    1    3    3    0    0  0.21927145089E+02  0.21724149858E+01 -0.69537591195E+01  0.23105710220E+02  0.51100000000E-03 0. -1.
         12    1    3    3    0    0  0.19541876893E+02 -0.91945704929E+01  0.36611737742E+01  0.21905005648E+02  0.00000000000E+00 0. -1.
</event>
<event>
 7    1  0.4031943E-009  0.4778727E+02  0.7816164E-02  0.1312668E+00
        -11   -1    0    0    0    0  0.00000000000E+00  0.00000000000E+00  0.45593999997E+02  0.45594000000E+02  0.51100000000E-03 0. -1.
         11   -1    0    0    0    0 -0.00000000000E+00 -0.00000000000E+00 -0.45593999997E+02  0.45594000000E+02  0.51100000000E-03 0.  1.
    9900012    2    1    2    0    0  0.32009331680E+02 -0.25459311975E+02  0.14520653042E+02  0.47787271370E+02  0.20000001484E+02 0.  0.
        -12    1    1    2    0    0 -0.32009331680E+02  0.25459311975E+02 -0.14520653042E+02  0.43400728630E+02  0.00000000000E+00 0.  1.
         11    1    3    3    0    0  0.78111231448E+00 -0.40577714290E+01 -0.22440912968E+01  0.47022963994E+01  0.51100000000E-03 0. -1.
        -11    1    3    3    0    0  0.98628233205E+01 -0.76147214296E+01 -0.29682701186E+00  0.12463842619E+02  0.51100000000E-03 0.  1.
         12    1    3    3    0    0  0.21365396045E+02 -0.13786819117E+02  0.17061571351E+02  0.30621132351E+02  0.00000000000E+00 0. -1.
</event>
<event>
 7    1  0.4031943E-009  0.4778727E+02  0.7816164E-02  0.1312668E+00
        -11   -1    0    0    0    0  0.00000000000E+00  0.00000000000E+00  0.45593999997E+02  0.45594000000E+02  0.51100000000E-03 0.  1.
         11   -1    0    0    0    0 -0.00000000000E+00 -0.00000000000E+00 -0.45593999997E+02  0.45594000000E+02  0.51100000000E-03 0. -1.
    9900012    2    1    2    0    0 -0.31693328558E+02 -0.13271441700E+02 -0.26514622049E+02  0.47787269335E+02  0.19999992206E+02 0.  0.
        -12    1    1    2    0    0  0.31693328558E+02  0.13271441700E+02  0.26514622049E+02  0.43400730665E+02  0.00000000000E+00 0.  1.
         11    1    3    3    0    0 -0.27482774080E+02 -0.61377351071E+01 -0.14974656454E+02  0.31893808170E+02  0.51100000000E-03 0. -1.
        -11    1    3    3    0    0 -0.26664650698E+01 -0.85587756823E+00 -0.15961412662E+00  0.28050025509E+01  0.51100000000E-03 0.  1.
        -12    1    3    3    0    0 -0.15440894081E+01 -0.62778290246E+01 -0.11380351468E+02  0.13088458615E+02  0.00000000000E+00 0.  1.
</event>
<event>
 7    1  0.4031943E-009  0.4778727E+02  0.7816164E-02  0.1312668E+00
        -11   -1    0    0    0    0  0.00000000000E+00  0.00000000000E+00  0.45593999997E+02  0.45594000000E+02  0.51100000000E-03 0.  1.
         11   -1    0    0    0    0 -0.00000000000E+00 -0.00000000000E+00 -0.45593999997E+02  0.45594000000E+02  0.51100000000E-03 0. -1.
    9900012    2    1    2    0    0 -0.40716958522E+01  0.43198999952E+02  0.94379305722E+00  0.47787273631E+02  0.20000011795E+02 0.  0.
        -12    1    1    2    0    0  0.40716958522E+01 -0.43198999952E+02 -0.94379305722E+00  0.43400726369E+02  0.00000000000E+00 0.  1.
         11    1    3    3    0    0 -0.63853455977E+01  0.17192579997E+02  0.28492090905E+01  0.18560049516E+02  0.51100000000E-03 0. -1.
        -11    1    3    3    0    0  0.37764801839E+01  0.16404537245E+02  0.47046095429E+01  0.17478672604E+02  0.51100000000E-03 0.  1.
         12    1    3    3    0    0 -0.14628304384E+01  0.96018827109E+01 -0.66100255762E+01  0.11748551511E+02  0.00000000000E+00 0. -1.
</event>
<event>
 7    1  0.4031943E-009  0.4778727E+02  0.7816164E-02  0.1312668E+00
        -11   -1    0    0    0    0  0.00000000000E+00  0.00000000000E+00  0.45593999997E+02  0.45594000000E+02  0.51100000000E-03 0.  1.
         11   -1    0    0    0    0 -0.00000000000E+00 -0.00000000000E+00 -0.45593999997E+02  0.45594000000E+02  0.51100000000E-03 0. -1.
    9900012    2    1    2    0    0  0.36245343706E+02 -0.16883733480E+02 -0.16877133805E+02  0.47787273715E+02  0.20000012175E+02 0.  0.
        -12    1    1    2    0    0 -0.36245343706E+02  0.16883733480E+02  0.16877133805E+02  0.43400726285E+02  0.00000000000E+00 0.  1.
         11    1    3    3    0    0  0.15417867206E+02 -0.25543059276E+01 -0.14989710745E+02  0.21654711645E+02  0.51100000000E-03 0. -1.
        -11    1    3    3    0    0  0.95584906405E+01 -0.31147482056E+01  0.45005387735E+00  0.10063247411E+02  0.51100000000E-03 0.  1.
         12    1    3    3    0    0  0.11268985860E+02 -0.11214679347E+02 -0.23374769382E+01  0.16069314659E+02  0.00000000000E+00 0. -1.
</event>
<event>
 7    1  0.4031943E-009  0.4778727E+02  0.7816164E-02  0.1312668E+00
        -11   -1    0    0    0    0  0.00000000000E+00  0.00000000000E+00  0.45593999997E+02  0.45594000000E+02  0.51100000000E-03 0.  1.
         11   -1    0    0    0    0 -0.00000000000E+00 -0.00000000000E+00 -0.45593999997E+02  0.45594000000E+02  0.51100000000E-03 0. -1.
    9900012    2    1    2    0    0 -0.13522354347E+02 -0.22411906642E+02 -0.34619006207E+02  0.47787271698E+02  0.20000002979E+02 0.  0.
        -12    1    1    2    0    0  0.13522354347E+02  0.22411906642E+02  0.34619006207E+02  0.43400728302E+02  0.00000000000E+00 0.  1.
         11    1    3    3    0    0 -0.92389921090E+01 -0.18912736874E+02 -0.19812313918E+02  0.28906372556E+02  0.51100000000E-03 0. -1.
        -11    1    3    3    0    0 -0.36054727847E+01 -0.60199674531E+01 -0.47076043942E+01  0.84499101493E+01  0.51100000000E-03 0.  1.
        -12    1    3    3    0    0 -0.67788945330E+00  0.25207976850E+01 -0.10099087894E+02  0.10430988993E+02  0.00000000000E+00 0.  1.
</event>
<event>
 7    1  0.4031943E-009  0.4778727E+02  0.7816164E-02  0.1312668E+00
        -11   -1    0    0    0    0  0.00000000000E+00  0.00000000000E+00  0.45593999997E+02  0.45594000000E+02  0.51100000000E-03 0.  1.
         11   -1    0    0    0    0 -0.00000000000E+00 -0.00000000000E+00 -0.45593999997E+02  0.45594000000E+02  0.51100000000E-03 0. -1.
    9900012    2    1    2    0    0  0.26719711802E+02 -0.98779521631E+01 -0.32743034142E+02  0.47787271635E+02  0.20000002694E+02 0.  0.
        -12    1    1    2    0    0 -0.26719711802E+02  0.98779521631E+01  0.32743034142E+02  0.43400728365E+02  0.00000000000E+00 0.  1.
         11    1    3    3    0    0  0.11880613682E+01  0.12614948912E+01 -0.25113608665E+01  0.30511953131E+01  0.51100000000E-03 0. -1.
        -11    1    3    3    0    0  0.11881586941E+02 -0.32049783199E+01 -0.21106730934E+01  0.12485949521E+02  0.51100000000E-03 0.  1.
        -12    1    3    3    0    0  0.13650063493E+02 -0.79344687344E+01 -0.28121000182E+02  0.32250126802E+02  0.00000000000E+00 0.  1.
</event>
<event>
 7    1  0.4031943E-009  0.4778727E+02  0.7816164E-02  0.1312668E+00
        -11   -1    0    0    0    0  0.00000000000E+00  0.00000000000E+00  0.45593999997E+02  0.45594000000E+02  0.51100000000E-03 0.  1.
         11   -1    0    0    0    0 -0.00000000000E+00 -0.00000000000E+00 -0.45593999997E+02  0.45594000000E+02  0.51100000000E-03 0. -1.
    9900012    2    1    2    0    0 -0.28024333898E+02 -0.22277746100E+02 -0.24534916390E+02  0.47787269776E+02  0.19999994215E+02 0.  0.
        -12    1    1    2    0    0  0.28024333898E+02  0.22277746100E+02  0.24534916390E+02  0.43400730224E+02  0.00000000000E+00 0.  1.
         11    1    3    3    0    0 -0.14305218884E+01 -0.33014694119E+01  0.17415324550E+01  0.39973777284E+01  0.51100000000E-03 0. -1.
        -11    1    3    3    0    0 -0.11287967450E+02 -0.13975966223E+02 -0.87265567655E+01  0.19972446877E+02  0.51100000000E-03 0.  1.
         12    1    3    3    0    0 -0.15305844559E+02 -0.50003104656E+01 -0.17549892080E+02  0.23817445170E+02  0.00000000000E+00 0. -1.
</event>
<event>
 7    1  0.4031943E-009  0.4778726E+02  0.7816164E-02  0.1312668E+00
        -11   -1    0    0    0    0  0.00000000000E+00  0.00000000000E+00  0.45593999997E+02  0.45594000000E+02  0.51100000000E-03 0.  1.
         11   -1    0    0    0    0 -0.00000000000E+00 -0.00000000000E+00 -0.45593999997E+02  0.45594000000E+02  0.51100000000E-03 0. -1.
    9900012    2    1    2    0    0 -0.11761269721E+02 -0.72664156772E+01 -0.41139954900E+02  0.47787260935E+02  0.19999953906E+02 0.  0.
        -12    1    1    2    0    0  0.11761269721E+02  0.72664156772E+01  0.41139954900E+02  0.43400739065E+02  0.00000000000E+00 0.  1.
         11    1    3    3    0    0 -0.33732211917E+01 -0.26861527013E+01 -0.27894015382E+02  0.28225345559E+02  0.51100000000E-03 0. -1.
        -11    1    3    3    0    0  0.14871577297E+01 -0.34630116882E+01 -0.66192825429E+01  0.76170197394E+01  0.51100000000E-03 0.  1.
         12    1    3    3    0    0 -0.98752062589E+01 -0.11172512877E+01 -0.66266569750E+01  0.11944895636E+02  0.00000000000E+00 0. -1.
</event>
<event>
 7    1  0.4031943E-009  0.4778726E+02  0.7816164E-02  0.1312668E+00
        -11   -1    0    0    0    0  0.00000000000E+00  0.00000000000E+00  0.45593999997E+02  0.45594000000E+02  0.51100000000E-03 0.  1.
         11   -1    0    0    0    0 -0.00000000000E+00 -0.00000000000E+00 -0.45593999997E+02  0.45594000000E+02  0.51100000000E-03 0. -1.
    9900012    2    1    2    0    0 -0.22942912060E+02  0.36701797844E+02 -0.31977253926E+01  0.47787255462E+02  0.19999928952E+02 0.  0.
        -12    1    1    2    0    0  0.22942912060E+02 -0.36701797844E+02  0.31977253926E+01  0.43400744538E+02  0.00000000000E+00 0.  1.
         11    1    3    3    0    0 -0.86201961933E+01  0.97429388582E+01 -0.80043666288E+01  0.15274243857E+02  0.51100000000E-03 0. -1.
        -11    1    3    3    0    0 -0.14846423055E+01 -0.68560639980E+00  0.61025347006E+00  0.17454593864E+01  0.51100000000E-03 0.  1.
        -12    1    3    3    0    0 -0.12838073562E+02  0.27644465386E+02  0.41963877661E+01  0.30767552218E+02  0.00000000000E+00 0.  1.
</event>
<event>
 7    1  0.4031943E-009  0.4778726E+02  0.7816164E-02  0.1312668E+00
        -11   -1    0    0    0    0  0.00000000000E+00  0.00000000000E+00  0.45593999997E+02  0.45594000000E+02  0.51100000000E-03 0.  1.
         11   -1    0    0    0    0 -0.00000000000E+00 -0.00000000000E+00 -0.45593999997E+02  0.45594000000E+02  0.51100000000E-03 0. -1.
    9900012    2    1    2    0    0  0.33752655668E+02  0.24349524240E+02 -0.12307834758E+02  0.47787263925E+02  0.19999967542E+02 0.  0.
        -12    1    1    2    0    0 -0.33752655668E+02 -0.24349524240E+02  0.12307834758E+02  0.43400736075E+02  0.00000000000E+00 0.  1.
         11    1    3    3    0    0  0.81417794701E+01  0.28064196213E+01 -0.71199632725E+01  0.11174007396E+02  0.51100000000E-03 0. -1.
        -11    1    3    3    0    0  0.23052681596E+02  0.15696978734E+02 -0.88447827598E+01  0.29258356968E+02  0.51100000000E-03 0.  1.
        -12    1    3    3    0    0  0.25581946028E+01  0.58461258850E+01  0.36569112747E+01  0.73548995616E+01  0.00000000000E+00 0.  1.
</event>
<event>
 7    1  0.4031943E-009  0.4778727E+02  0.7816164E-02  0.1312668E+00
        -11   -1    0    0    0    0  0.00000000000E+00  0.00000000000E+00  0.45593999997E+02  0.45594000000E+02  0.51100000000E-03 0.  1.
         11   -1    0    0    0    0 -0.00000000000E+00 -0.00000000000E+00 -0.45593999997E+02  0.45594000000E+02  0.51100000000E-03 0. -1.
    9900012    2    1    2    0    0  0.27670420793E+02 -0.11688826966E+02 -0.31326386226E+02  0.47787270321E+02  0.19999996702E+02 0.  0.
        -12    1    1    2    0    0 -0.27670420793E+02  0.11688826966E+02  0.31326386226E+02  0.43400729679E+02  0.00000000000E+00 0.  1.
         11    1    3    3    0    0  0.51349079611E+01 -0.76910527758E+01 -0.11763504603E+02  0.14963275489E+02  0.51100000000E-03 0. -1.
        -11    1    3    3    0    0  0.26112777798E+01  0.32374889228E+01 -0.71162598586E+01  0.82426488950E+01  0.51100000000E-03 0.  1.
        -12    1    3    3    0    0  0.19924235052E+02 -0.72352631132E+01 -0.12446621764E+02  0.24581345937E+02  0.00000000000E+00 0.  1.
</event>
<event>
 7    1  0.4031943E-009  0.4778727E+02  0.7816164E-02  0.1312668E+00
        -11   -1    0    0    0    0  0.00000000000E+00  0.00000000000E+00  0.45593999997E+02  0.45594000000E+02  0.51100000000E-03 0. -1.
         11   -1    0    0    0    0 -0.00000000000E+00 -0.00000000000E+00 -0.45593999997E+02  0.45594000000E+02  0.51100000000E-03 0.  1.
    9900012    2    1    2    0    0  0.39512008765E+02  0.40139007603E+01 -0.17501801420E+02  0.47787270871E+02  0.19999999210E+02 0.  0.
        -12    1    1    2    0    0 -0.39512008765E+02 -0.40139007603E+01  0.17501801420E+02  0.43400729129E+02  0.00000000000E+00 0.  1.
         11    1    3    3    0    0  0.14943136970E+02  0.54292372397E+01 -0.12417457605E+01  0.15947284794E+02  0.51100000000E-03 0. -1.
        -11    1    3    3    0    0  0.10020250932E+02  0.42847137431E+01 -0.28884982687E+01  0.11274201662E+02  0.51100000000E-03 0.  1.
        -12    1    3    3    0    0  0.14548620863E+02 -0.57000502226E+01 -0.13371557391E+02  0.20565784415E+02  0.00000000000E+00 0.  1.
</event>
<event>
 7    1  0.4031943E-009  0.4778726E+02  0.7816164E-02  0.1312668E+00
        -11   -1    0    0    0    0  0.00000000000E+00  0.00000000000E+00  0.45593999997E+02  0.45594000000E+02  0.51100000000E-03 0.  1.
         11   -1    0    0    0    0 -0.00000000000E+00 -0.00000000000E+00 -0.45593999997E+02  0.45594000000E+02  0.51100000000E-03 0. -1.
    9900012    2    1    2    0    0  0.28694135309E+01 -0.38352588940E+02 -0.20111432560E+02  0.47787258854E+02  0.19999944420E+02 0.  0.
        -12    1    1    2    0    0 -0.28694135309E+01  0.38352588940E+02  0.20111432560E+02  0.43400741146E+02  0.00000000000E+00 0.  1.
         11    1    3    3    0    0 -0.23343686400E+01 -0.41314424766E+01 -0.65803450497E+01  0.81128931411E+01  0.51100000000E-03 0. -1.
        -11    1    3    3    0    0 -0.31326955380E+01 -0.15090763111E+02 -0.12552375713E+01  0.15463522698E+02  0.51100000000E-03 0.  1.
         12    1    3    3    0    0  0.83364777089E+01 -0.19130383352E+02 -0.12275849939E+02  0.24210843015E+02  0.00000000000E+00 0. -1.
</event>
<event>
 7    1  0.4031943E-009  0.4778727E+02  0.7816164E-02  0.1312668E+00
        -11   -1    0    0    0    0  0.00000000000E+00  0.00000000000E+00  0.45593999997E+02  0.45594000000E+02  0.51100000000E-03 0. -1.
         11   -1    0    0    0    0 -0.00000000000E+00 -0.00000000000E+00 -0.45593999997E+02  0.45594000000E+02  0.51100000000E-03 0.  1.
    9900012    2    1    2    0    0 -0.32464705457E+02 -0.28704111941E+02  0.23958589267E+01  0.47787270942E+02  0.19999999535E+02 0.  0.
        -12    1    1    2    0    0  0.32464705457E+02  0.28704111941E+02 -0.23958589267E+01  0.43400729058E+02  0.00000000000E+00 0.  1.
         11    1    3    3    0    0 -0.15951417808E+02 -0.11702132099E+02  0.82579992660E+01  0.21437867849E+02  0.51100000000E-03 0. -1.
        -11    1    3    3    0    0 -0.14122535457E+02 -0.97207672665E+01 -0.79706357126E+00  0.17163176704E+02  0.51100000000E-03 0.  1.
        -12    1    3    3    0    0 -0.23907521914E+01 -0.72812125752E+01 -0.50650767681E+01  0.91862263892E+01  0.00000000000E+00 0.  1.
</event>
<event>
 7    1  0.4031943E-009  0.4778727E+02  0.7816164E-02  0.1312668E+00
        -11   -1    0    0    0    0  0.00000000000E+00  0.00000000000E+00  0.45593999997E+02  0.45594000000E+02  0.51100000000E-03 0.  1.
         11   -1    0    0    0    0 -0.00000000000E+00 -0.00000000000E+00 -0.45593999997E+02  0.45594000000E+02  0.51100000000E-03 0. -1.
    9900012    2    1    2    0    0  0.13439280113E+01  0.11697470229E+02 -0.41773030906E+02  0.47787273470E+02  0.20000011060E+02 0.  0.
        -12    1    1    2    0    0 -0.13439280113E+01 -0.11697470229E+02  0.41773030906E+02  0.43400726530E+02  0.00000000000E+00 0.  1.
         11    1    3    3    0    0  0.32160017605E+01  0.91683852452E+01 -0.15217257250E+02  0.18054552717E+02  0.51100000000E-03 0. -1.
        -11    1    3    3    0    0 -0.44270084529E+01  0.64304982021E+01 -0.21405561076E+02  0.22784814158E+02  0.51100000000E-03 0.  1.
        -12    1    3    3    0    0  0.25549347038E+01 -0.39014132184E+01 -0.51502125791E+01  0.69479065949E+01  0.00000000000E+00 0.  1.
</event>
<event>
 7    1  0.4031943E-009  0.4778728E+02  0.7816164E-02  0.1312668E+00
        -11   -1    0    0    0    0  0.00000000000E+00  0.00000000000E+00  0.45593999997E+02  0.45594000000E+02  0.51100000000E-03 0.  1.
         11   -1    0    0    0    0 -0.00000000000E+00 -0.00000000000E+00 -0.45593999997E+02  0.45594000000E+02  0.51100000000E-03 0. -1.
    9900012    2    1    2    0    0  0.17490434800E+02 -0.29179550719E+02 -0.26949222986E+02  0.47787284462E+02  0.20000061177E+02 0.  0.
        -12    1    1    2    0    0 -0.17490434800E+02  0.29179550719E+02  0.26949222986E+02  0.43400715538E+02  0.00000000000E+00 0.  1.
         11    1    3    3    0    0  0.10126600497E+02 -0.22559972011E+02 -0.21576916481E+02  0.32818648660E+02  0.51100000000E-03 0. -1.
        -11    1    3    3    0    0  0.71239122517E+01 -0.89326031308E+01 -0.34033264211E+01  0.11921583597E+02  0.51100000000E-03 0.  1.
         12    1    3    3    0    0  0.23992205179E+00  0.23130244235E+01 -0.19689800843E+01  0.30470522062E+01  0.00000000000E+00 0. -1.
</event>
<event>
 7    1  0.4031943E-009  0.4778728E+02  0.7816164E-02  0.1312668E+00
        -11   -1    0    0    0    0  0.00000000000E+00  0.00000000000E+00  0.45593999997E+02  0.45594000000E+02  0.51100000000E-03 0. -1.
         11   -1    0    0    0    0 -0.00000000000E+00 -0.00000000000E+00 -0.45593999997E+02  0.45594000000E+02  0.51100000000E-03 0.  1.
    9900012    2    1    2    0    0 -0.37542572231E+01  0.31629405439E+02  0.29480651797E+02  0.47787279199E+02  0.20000037178E+02 0.  0.
        -12    1    1    2    0    0  0.37542572231E+01 -0.31629405439E+02 -0.29480651797E+02  0.43400720801E+02  0.00000000000E+00 0.  1.
         11    1    3    3    0    0 -0.27013754957E+01  0.10034108007E+02  0.18417828507E+02  0.21147036678E+02  0.51100000000E-03 0. -1.
        -11    1    3    3    0    0  0.31828287113E+01  0.17703539217E+01  0.33555195134E+01  0.49521776099E+01  0.51100000000E-03 0.  1.
        -12    1    3    3    0    0 -0.42357104388E+01  0.19824943510E+02  0.77073037762E+01  0.21688064911E+02  0.00000000000E+00 0.  1.
</event>
<event>
 7    1  0.4031943E-009  0.4778728E+02  0.7816164E-02  0.1312668E+00
        -11   -1    0    0    0    0  0.00000000000E+00  0.00000000000E+00  0.45593999997E+02  0.45594000000E+02  0.51100000000E-03 0.  1.
         11   -1    0    0    0    0 -0.00000000000E+00 -0.00000000000E+00 -0.45593999997E+02  0.45594000000E+02  0.51100000000E-03 0. -1.
    9900012    2    1    2    0    0 -0.83715564010E+01 -0.19071705996E+02 -0.38076369834E+02  0.47787275744E+02  0.20000021428E+02 0.  0.
        -12    1    1    2    0    0  0.83715564010E+01  0.19071705996E+02  0.38076369834E+02  0.43400724256E+02  0.00000000000E+00 0.  1.
         11    1    3    3    0    0  0.41649954623E+00 -0.44808959268E+01 -0.11900505402E+02  0.12722968571E+02  0.51100000000E-03 0. -1.
        -11    1    3    3    0    0  0.11076546725E+00 -0.14270943994E+02 -0.18041602459E+02  0.23003728633E+02  0.51100000000E-03 0.  1.
        -12    1    3    3    0    0 -0.88988214145E+01 -0.31986607512E+00 -0.81342619740E+01  0.12060578541E+02  0.00000000000E+00 0.  1.
</event>
<event>
 7    1  0.4031943E-009  0.4778727E+02  0.7816164E-02  0.1312668E+00
        -11   -1    0    0    0    0  0.00000000000E+00  0.00000000000E+00  0.45593999997E+02  0.45594000000E+02  0.51100000000E-03 0.  1.
         11   -1    0    0    0    0 -0.00000000000E+00 -0.00000000000E+00 -0.45593999997E+02  0.45594000000E+02  0.51100000000E-03 0. -1.
    9900012    2    1    2    0    0 -0.31652699443E+02 -0.38020650648E+01 -0.29449525294E+02  0.47787267048E+02  0.19999981776E+02 0.  0.
        -12    1    1    2    0    0  0.31652699443E+02  0.38020650648E+01  0.29449525294E+02  0.43400732952E+02  0.00000000000E+00 0.  1.
         11    1    3    3    0    0  0.15214204807E+00  0.11220704449E+01 -0.22221500104E+00  0.11539363301E+01  0.51100000000E-03 0. -1.
        -11    1    3    3    0    0 -0.40312317557E+01  0.13414436315E+01  0.17180657816E+01  0.45827994475E+01  0.51100000000E-03 0.  1.
         12    1    3    3    0    0 -0.27773609735E+02 -0.62655791413E+01 -0.30945376074E+02  0.42050531270E+02  0.00000000000E+00 0. -1.
</event>
<event>
 7    1  0.4031943E-009  0.4778727E+02  0.7816164E-02  0.1312668E+00
        -11   -1    0    0    0    0  0.00000000000E+00  0.00000000000E+00  0.45593999997E+02  0.45594000000E+02  0.51100000000E-03 0. -1.
         11   -1    0    0    0    0 -0.00000000000E+00 -0.00000000000E+00 -0.45593999997E+02  0.45594000000E+02  0.51100000000E-03 0.  1.
    9900012    2    1    2    0    0  0.10791788486E+02  0.41212589953E+02 -0.82875244428E+01  0.47787270390E+02  0.19999997014E+02 0.  0.
        -12    1    1    2    0    0 -0.10791788486E+02 -0.41212589953E+02  0.82875244428E+01  0.43400729610E+02  0.00000000000E+00 0.  1.
         11    1    3    3    0    0  0.57274408656E+01  0.10268120002E+02 -0.66497597223E+01  0.13507670853E+02  0.51100000000E-03 0.  1.
        -11    1    3    3    0    0  0.34415817957E+01  0.95631620877E+01 -0.67943853404E+01  0.12225474501E+02  0.51100000000E-03 0. -1.
         12    1    3    3    0    0  0.16227658248E+01  0.21381307863E+02  0.51566206199E+01  0.22054125036E+02  0.00000000000E+00 0. -1.
</event>
<event>
 7    1  0.4031943E-009  0.4778727E+02  0.7816164E-02  0.1312668E+00
        -11   -1    0    0    0    0  0.00000000000E+00  0.00000000000E+00  0.45593999997E+02  0.45594000000E+02  0.51100000000E-03 0. -1.
         11   -1    0    0    0    0 -0.00000000000E+00 -0.00000000000E+00 -0.45593999997E+02  0.45594000000E+02  0.51100000000E-03 0.  1.
    9900012    2    1    2    0    0 -0.13356524743E+02 -0.12629184219E+02  0.39315773223E+02  0.47787273377E+02  0.20000010636E+02 0.  0.
        -12    1    1    2    0    0  0.13356524743E+02  0.12629184219E+02 -0.39315773223E+02  0.43400726623E+02  0.00000000000E+00 0.  1.
         11    1    3    3    0    0 -0.10531561061E+02 -0.26111601727E+01  0.15460379800E+02  0.18887966531E+02  0.51100000000E-03 0. -1.
        -11    1    3    3    0    0 -0.49728337041E-01  0.16233235954E+01  0.11804082231E+02  0.11915284721E+02  0.51100000000E-03 0.  1.
        -12    1    3    3    0    0 -0.27752353443E+01 -0.11641347641E+02  0.12051311193E+02  0.16984022126E+02  0.00000000000E+00 0.  1.
</event>
<event>
 7    1  0.4031943E-009  0.4778727E+02  0.7816164E-02  0.1312668E+00
        -11   -1    0    0    0    0  0.00000000000E+00  0.00000000000E+00  0.45593999997E+02  0.45594000000E+02  0.51100000000E-03 0.  1.
         11   -1    0    0    0    0 -0.00000000000E+00 -0.00000000000E+00 -0.45593999997E+02  0.45594000000E+02  0.51100000000E-03 0. -1.
    9900012    2    1    2    0    0  0.38988287593E+02 -0.14075909018E+01 -0.19014610558E+02  0.47787270787E+02  0.19999998827E+02 0.  0.
        -12    1    1    2    0    0 -0.38988287593E+02  0.14075909018E+01  0.19014610558E+02  0.43400729213E+02  0.00000000000E+00 0.  1.
         11    1    3    3    0    0  0.25904130174E+01  0.18596146128E+01 -0.53013244301E+00  0.32325604058E+01  0.51100000000E-03 0.  1.
        -11    1    3    3    0    0  0.27854160083E+02 -0.24195300189E+01 -0.21694386611E+02  0.35388624869E+02  0.51100000000E-03 0. -1.
         12    1    3    3    0    0  0.85437144917E+01 -0.84767549560E+00  0.32099084959E+01  0.91660855120E+01  0.00000000000E+00 0. -1.
</event>
<event>
 7    1  0.4031943E-009  0.4778728E+02  0.7816164E-02  0.1312668E+00
        -11   -1    0    0    0    0  0.00000000000E+00  0.00000000000E+00  0.45593999997E+02  0.45594000000E+02  0.51100000000E-03 0.  1.
         11   -1    0    0    0    0 -0.00000000000E+00 -0.00000000000E+00 -0.45593999997E+02  0.45594000000E+02  0.51100000000E-03 0. -1.
    9900012    2    1    2    0    0 -0.18655513416E+02  0.26338532841E+02 -0.29015095236E+02  0.47787282902E+02  0.20000054064E+02 0.  0.
        -12    1    1    2    0    0  0.18655513416E+02 -0.26338532841E+02  0.29015095236E+02  0.43400717098E+02  0.00000000000E+00 0.  1.
         11    1    3    3    0    0 -0.97556356788E+01  0.98793410920E+00 -0.12306149642E+02  0.15734985243E+02  0.51100000000E-03 0.  1.
        -11    1    3    3    0    0 -0.65540716172E+01  0.12544662065E+02 -0.10532261857E+02  0.17642362120E+02  0.51100000000E-03 0. -1.
        -12    1    3    3    0    0 -0.23458061200E+01  0.12805936667E+02 -0.61766837367E+01  0.14409935540E+02  0.00000000000E+00 0.  1.
</event>
<event>
 7    1  0.4031943E-009  0.4778728E+02  0.7816164E-02  0.1312668E+00
        -11   -1    0    0    0    0  0.00000000000E+00  0.00000000000E+00  0.45593999997E+02  0.45594000000E+02  0.51100000000E-03 0.  1.
         11   -1    0    0    0    0 -0.00000000000E+00 -0.00000000000E+00 -0.45593999997E+02  0.45594000000E+02  0.51100000000E-03 0. -1.
    9900012    2    1    2    0    0 -0.10001868420E+02  0.42223463123E+02 -0.87446230578E+00  0.47787275417E+02  0.20000019936E+02 0.  0.
        -12    1    1    2    0    0  0.10001868420E+02 -0.42223463123E+02  0.87446230578E+00  0.43400724583E+02  0.00000000000E+00 0.  1.
         11    1    3    3    0    0 -0.90349695986E+00  0.11602477522E+02  0.21142142252E+01  0.11828089172E+02  0.51100000000E-03 0. -1.
        -11    1    3    3    0    0 -0.13523872534E+02  0.26666717417E+02 -0.25127535129E+01  0.30005380794E+02  0.51100000000E-03 0.  1.
        -12    1    3    3    0    0  0.44255010741E+01  0.39542681841E+01 -0.47592301806E+00  0.59538054510E+01  0.00000000000E+00 0.  1.
</event>
<event>
 7    1  0.4031943E-009  0.4778728E+02  0.7816164E-02  0.1312668E+00
        -11   -1    0    0    0    0  0.00000000000E+00  0.00000000000E+00  0.45593999997E+02  0.45594000000E+02  0.51100000000E-03 0.  1.
         11   -1    0    0    0    0 -0.00000000000E+00 -0.00000000000E+00 -0.45593999997E+02  0.45594000000E+02  0.51100000000E-03 0. -1.
    9900012    2    1    2    0    0  0.33933165582E+02  0.40276922573E+01 -0.26757070889E+02  0.47787275653E+02  0.20000021011E+02 0.  0.
        -12    1    1    2    0    0 -0.33933165582E+02 -0.40276922573E+01  0.26757070889E+02  0.43400724347E+02  0.00000000000E+00 0.  1.
         11    1    3    3    0    0  0.23833230565E+02 -0.13509152992E+01 -0.15881315730E+02  0.28671659193E+02  0.51100000000E-03 0. -1.
        -11    1    3    3    0    0  0.61788605177E+01 -0.26257517727E+01 -0.36514589307E+01  0.76423845920E+01  0.51100000000E-03 0.  1.
         12    1    3    3    0    0  0.39210744990E+01  0.80043593293E+01 -0.72242962275E+01  0.11473231867E+02  0.00000000000E+00 0. -1.
</event>
<event>
 7    1  0.4031943E-009  0.4778727E+02  0.7816164E-02  0.1312668E+00
        -11   -1    0    0    0    0  0.00000000000E+00  0.00000000000E+00  0.45593999997E+02  0.45594000000E+02  0.51100000000E-03 0.  1.
         11   -1    0    0    0    0 -0.00000000000E+00 -0.00000000000E+00 -0.45593999997E+02  0.45594000000E+02  0.51100000000E-03 0. -1.
    9900012    2    1    2    0    0 -0.28409363114E+02  0.32601426653E+02  0.36984915653E+01  0.47787265303E+02  0.19999973825E+02 0.  0.
        -12    1    1    2    0    0  0.28409363114E+02 -0.32601426653E+02 -0.36984915653E+01  0.43400734697E+02  0.00000000000E+00 0.  1.
         11    1    3    3    0    0 -0.14569654772E+02  0.22937593219E+02  0.39350983354E+01  0.27457112413E+02  0.51100000000E-03 0. -1.
        -11    1    3    3    0    0 -0.12132872779E+01  0.41989063379E+01  0.40098175591E+01  0.59314009788E+01  0.51100000000E-03 0.  1.
         12    1    3    3    0    0 -0.12626421064E+02  0.54649270959E+01 -0.42464243292E+01  0.14398751912E+02  0.00000000000E+00 0. -1.
</event>
<event>
 7    1  0.4031943E-009  0.4778728E+02  0.7816164E-02  0.1312668E+00
        -11   -1    0    0    0    0  0.00000000000E+00  0.00000000000E+00  0.45593999997E+02  0.45594000000E+02  0.51100000000E-03 0.  1.
         11   -1    0    0    0    0 -0.00000000000E+00 -0.00000000000E+00 -0.45593999997E+02  0.45594000000E+02  0.51100000000E-03 0. -1.
    9900012    2    1    2    0    0  0.52359415672E+01 -0.32043638131E+02 -0.28799529183E+02  0.47787277542E+02  0.20000029625E+02 0.  0.
        -12    1    1    2    0    0 -0.52359415672E+01  0.32043638131E+02  0.28799529183E+02  0.43400722458E+02  0.00000000000E+00 0.  1.
         11    1    3    3    0    0  0.23128809268E+01 -0.14513833817E+01 -0.38750301057E+00  0.27579142021E+01  0.51100000000E-03 0. -1.
        -11    1    3    3    0    0 -0.62227044868E+01 -0.12977270821E+02 -0.16443577302E+02  0.21852296077E+02  0.51100000000E-03 0.  1.
         12    1    3    3    0    0  0.91457651273E+01 -0.17614983928E+02 -0.11968448870E+02  0.23177067263E+02  0.00000000000E+00 0. -1.
</event>
<event>
 7    1  0.4031943E-009  0.4778727E+02  0.7816164E-02  0.1312668E+00
        -11   -1    0    0    0    0  0.00000000000E+00  0.00000000000E+00  0.45593999997E+02  0.45594000000E+02  0.51100000000E-03 0.  1.
         11   -1    0    0    0    0 -0.00000000000E+00 -0.00000000000E+00 -0.45593999997E+02  0.45594000000E+02  0.51100000000E-03 0. -1.
    9900012    2    1    2    0    0  0.23256936510E+02  0.14166758308E+02 -0.33794096032E+02  0.47787273470E+02  0.20000011057E+02 0.  0.
        -12    1    1    2    0    0 -0.23256936510E+02 -0.14166758308E+02  0.33794096032E+02  0.43400726530E+02  0.00000000000E+00 0.  1.
         11    1    3    3    0    0  0.12552491410E+02  0.67895063016E+00 -0.79626832735E+01  0.14880535599E+02  0.51100000000E-03 0.  1.
        -11    1    3    3    0    0  0.37294082156E+01  0.51916141936E+01 -0.19537212862E+01  0.66841881108E+01  0.51100000000E-03 0. -1.
         12    1    3    3    0    0  0.69750368845E+01  0.82961934840E+01 -0.23877691472E+02  0.26222549759E+02  0.00000000000E+00 0. -1.
</event>
<event>
 7    1  0.4031943E-009  0.4778727E+02  0.7816164E-02  0.1312668E+00
        -11   -1    0    0    0    0  0.00000000000E+00  0.00000000000E+00  0.45593999997E+02  0.45594000000E+02  0.51100000000E-03 0.  1.
         11   -1    0    0    0    0 -0.00000000000E+00 -0.00000000000E+00 -0.45593999997E+02  0.45594000000E+02  0.51100000000E-03 0. -1.
    9900012    2    1    2    0    0 -0.14369132970E+02  0.19558302752E+02 -0.35980886446E+02  0.47787269842E+02  0.19999994516E+02 0.  0.
        -12    1    1    2    0    0  0.14369132970E+02 -0.19558302752E+02  0.35980886446E+02  0.43400730158E+02  0.00000000000E+00 0.  1.
         11    1    3    3    0    0  0.30778141082E+01  0.17774927948E+01 -0.79990651616E+00  0.36431128195E+01  0.51100000000E-03 0. -1.
        -11    1    3    3    0    0 -0.28522013938E+01  0.86132190652E+01 -0.15701723361E+02  0.18134682578E+02  0.51100000000E-03 0.  1.
         12    1    3    3    0    0 -0.14594745684E+02  0.91675908924E+01 -0.19479256569E+02  0.26009474444E+02  0.00000000000E+00 0. -1.
</event>
<event>
 7    1  0.4031943E-009  0.4778724E+02  0.7816164E-02  0.1312668E+00
        -11   -1    0    0    0    0  0.00000000000E+00  0.00000000000E+00  0.45593999997E+02  0.45594000000E+02  0.51100000000E-03 0.  1.
         11   -1    0    0    0    0 -0.00000000000E+00 -0.00000000000E+00 -0.45593999997E+02  0.45594000000E+02  0.51100000000E-03 0. -1.
    9900012    2    1    2    0    0 -0.61138463045E+01  0.11544932355E+02 -0.41387935252E+02  0.47787242355E+02  0.19999869192E+02 0.  0.
        -12    1    1    2    0    0  0.61138463045E+01 -0.11544932355E+02  0.41387935252E+02  0.43400757645E+02  0.00000000000E+00 0.  1.
         11    1    3    3    0    0  0.33195684522E+01  0.12383449703E+02 -0.20220350297E+02  0.23942262376E+02  0.51100000000E-03 0. -1.
        -11    1    3    3    0    0 -0.80880210906E+00 -0.11634944038E+01 -0.59785744348E+00  0.15379576922E+01  0.51100000000E-03 0.  1.
         12    1    3    3    0    0 -0.86246126476E+01  0.32497705594E+00 -0.20569727512E+02  0.22307022287E+02  0.00000000000E+00 0. -1.
</event>
<event>
 7    1  0.4031943E-009  0.4778727E+02  0.7816164E-02  0.1312668E+00
        -11   -1    0    0    0    0  0.00000000000E+00  0.00000000000E+00  0.45593999997E+02  0.45594000000E+02  0.51100000000E-03 0.  1.
         11   -1    0    0    0    0 -0.00000000000E+00 -0.00000000000E+00 -0.45593999997E+02  0.45594000000E+02  0.51100000000E-03 0. -1.
    9900012    2    1    2    0    0  0.40719830206E+02 -0.53874532873E+01 -0.14017636823E+02  0.47787269971E+02  0.19999995108E+02 0.  0.
        -12    1    1    2    0    0 -0.40719830206E+02  0.53874532873E+01  0.14017636823E+02  0.43400730029E+02  0.00000000000E+00 0.  1.
         11    1    3    3    0    0  0.25607052393E+02  0.26385843282E+01 -0.12870485871E+02  0.28780769036E+02  0.51100000000E-03 0.  1.
        -11    1    3    3    0    0  0.52246467997E+01 -0.33240269026E+01 -0.43859971266E+01  0.75883502876E+01  0.51100000000E-03 0. -1.
         12    1    3    3    0    0  0.98881310133E+01 -0.47020107129E+01  0.32388461738E+01  0.11418150648E+02  0.00000000000E+00 0. -1.
</event>
<event>
 7    1  0.4031943E-009  0.4778728E+02  0.7816164E-02  0.1312668E+00
        -11   -1    0    0    0    0  0.00000000000E+00  0.00000000000E+00  0.45593999997E+02  0.45594000000E+02  0.51100000000E-03 0. -1.
         11   -1    0    0    0    0 -0.00000000000E+00 -0.00000000000E+00 -0.45593999997E+02  0.45594000000E+02  0.51100000000E-03 0.  1.
    9900012    2    1    2    0    0  0.35853589377E+02  0.34030755315E+01  0.24219039081E+02  0.47787278252E+02  0.20000032860E+02 0.  0.
        -12    1    1    2    0    0 -0.35853589377E+02 -0.34030755315E+01 -0.24219039081E+02  0.43400721748E+02  0.00000000000E+00 0.  1.
         11    1    3    3    0    0  0.10848760855E+02 -0.19699094235E+01  0.28744908995E+01  0.11394685314E+02  0.51100000000E-03 0. -1.
        -11    1    3    3    0    0  0.13282138993E+02 -0.33847346602E+01  0.53482751791E+01  0.14713112948E+02  0.51100000000E-03 0.  1.
        -12    1    3    3    0    0  0.11722689529E+02  0.87577196152E+01  0.15996273002E+02  0.21679479989E+02  0.00000000000E+00 0.  1.
</event>
<event>
 7    1  0.4031943E-009  0.4778727E+02  0.7816164E-02  0.1312668E+00
        -11   -1    0    0    0    0  0.00000000000E+00  0.00000000000E+00  0.45593999997E+02  0.45594000000E+02  0.51100000000E-03 0. -1.
         11   -1    0    0    0    0 -0.00000000000E+00 -0.00000000000E+00 -0.45593999997E+02  0.45594000000E+02  0.51100000000E-03 0.  1.
    9900012    2    1    2    0    0 -0.39370242438E+02 -0.15426321325E+02  0.97793627643E+01  0.47787270567E+02  0.19999997822E+02 0.  0.
        -12    1    1    2    0    0  0.39370242438E+02  0.15426321325E+02 -0.97793627643E+01  0.43400729433E+02  0.00000000000E+00 0.  1.
         11    1    3    3    0    0 -0.30434789926E+02 -0.11284020161E+02  0.12780305117E+02  0.34884692172E+02  0.51100000000E-03 0. -1.
        -11    1    3    3    0    0 -0.68033389039E+01 -0.53965303071E+01  0.40490265727E+00  0.86932103403E+01  0.51100000000E-03 0.  1.
        -12    1    3    3    0    0 -0.21321136087E+01  0.12542291438E+01 -0.34058450096E+01  0.42093680541E+01  0.00000000000E+00 0.  1.
</event>
<event>
 7    1  0.4031943E-009  0.4778727E+02  0.7816164E-02  0.1312668E+00
        -11   -1    0    0    0    0  0.00000000000E+00  0.00000000000E+00  0.45593999997E+02  0.45594000000E+02  0.51100000000E-03 0.  1.
         11   -1    0    0    0    0 -0.00000000000E+00 -0.00000000000E+00 -0.45593999997E+02  0.45594000000E+02  0.51100000000E-03 0. -1.
    9900012    2    1    2    0    0  0.43378568446E+02 -0.10317971062E+01  0.92641655220E+00  0.47787273586E+02  0.20000011586E+02 0.  0.
        -12    1    1    2    0    0 -0.43378568446E+02  0.10317971062E+01 -0.92641655220E+00  0.43400726414E+02  0.00000000000E+00 0.  1.
         11    1    3    3    0    0  0.58754616722E+01 -0.41638792937E+01  0.43462907667E+00  0.72144191262E+01  0.51100000000E-03 0. -1.
        -11    1    3    3    0    0  0.55567316921E+01 -0.38202566316E+01  0.37516069588E+01  0.77166173200E+01  0.51100000000E-03 0.  1.
         12    1    3    3    0    0  0.31946375081E+02  0.69523388190E+01 -0.32598194833E+01  0.32856237139E+02  0.00000000000E+00 0. -1.
</event>
<event>
 7    1  0.4031943E-009  0.4778728E+02  0.7816164E-02  0.1312668E+00
        -11   -1    0    0    0    0  0.00000000000E+00  0.00000000000E+00  0.45593999997E+02  0.45594000000E+02  0.51100000000E-03 0. -1.
         11   -1    0    0    0    0 -0.00000000000E+00 -0.00000000000E+00 -0.45593999997E+02  0.45594000000E+02  0.51100000000E-03 0.  1.
    9900012    2    1    2    0    0 -0.25945275159E+01  0.31381471998E+02  0.29867939312E+02  0.47787283916E+02  0.20000058688E+02 0.  0.
        -12    1    1    2    0    0  0.25945275159E+01 -0.31381471998E+02 -0.29867939312E+02  0.43400716084E+02  0.00000000000E+00 0.  1.
         11    1    3    3    0    0  0.21811049402E+01  0.76977142996E+01  0.68251187506E+01  0.10516381051E+02  0.51100000000E-03 0. -1.
        -11    1    3    3    0    0 -0.40290299963E+01 -0.90276432057E+00  0.62380222675E+01  0.74807077340E+01  0.51100000000E-03 0.  1.
        -12    1    3    3    0    0 -0.74660245979E+00  0.24586522019E+02  0.16804798294E+02  0.29790195131E+02  0.00000000000E+00 0.  1.
</event>
<event>
 7    1  0.4031943E-009  0.4778727E+02  0.7816164E-02  0.1312668E+00
        -11   -1    0    0    0    0  0.00000000000E+00  0.00000000000E+00  0.45593999997E+02  0.45594000000E+02  0.51100000000E-03 0. -1.
         11   -1    0    0    0    0 -0.00000000000E+00 -0.00000000000E+00 -0.45593999997E+02  0.45594000000E+02  0.51100000000E-03 0.  1.
    9900012    2    1    2    0    0 -0.21943839989E+02 -0.27541351307E+02  0.25368583154E+02  0.47787272396E+02  0.20000006164E+02 0.  0.
        -12    1    1    2    0    0  0.21943839989E+02  0.27541351307E+02 -0.25368583154E+02  0.43400727604E+02  0.00000000000E+00 0.  1.
         11    1    3    3    0    0 -0.10185028081E+02 -0.18328625082E+02  0.11878150198E+02  0.24099040371E+02  0.51100000000E-03 0. -1.
        -11    1    3    3    0    0 -0.11411563719E+02 -0.10340198953E+02  0.66962018474E+01  0.16792338144E+02  0.51100000000E-03 0.  1.
        -12    1    3    3    0    0 -0.34724818876E+00  0.11274727284E+01  0.67942311091E+01  0.68958938812E+01  0.00000000000E+00 0.  1.
</event>
<event>
 7    1  0.4031943E-009  0.4778727E+02  0.7816164E-02  0.1312668E+00
        -11   -1    0    0    0    0  0.00000000000E+00  0.00000000000E+00  0.45593999997E+02  0.45594000000E+02  0.51100000000E-03 0.  1.
         11   -1    0    0    0    0 -0.00000000000E+00 -0.00000000000E+00 -0.45593999997E+02  0.45594000000E+02  0.51100000000E-03 0. -1.
    9900012    2    1    2    0    0  0.80354613526E+00  0.13856102621E+02 -0.41121600551E+02  0.47787270765E+02  0.19999998727E+02 0.  0.
        -12    1    1    2    0    0 -0.80354613526E+00 -0.13856102621E+02  0.41121600551E+02  0.43400729235E+02  0.00000000000E+00 0.  1.
         11    1    3    3    0    0 -0.49435689836E+01 -0.14972503769E+01 -0.32024967548E+01  0.60775503875E+01  0.51100000000E-03 0. -1.
        -11    1    3    3    0    0  0.33945656962E+01  0.85079903826E+01 -0.14092988011E+02  0.16808369580E+02  0.51100000000E-03 0.  1.
         12    1    3    3    0    0  0.23525494227E+01  0.68453626154E+01 -0.23826115785E+02  0.24901350797E+02  0.00000000000E+00 0. -1.
</event>
<event>
 7    1  0.4031943E-009  0.4778725E+02  0.7816164E-02  0.1312668E+00
        -11   -1    0    0    0    0  0.00000000000E+00  0.00000000000E+00  0.45593999997E+02  0.45594000000E+02  0.51100000000E-03 0. -1.
         11   -1    0    0    0    0 -0.00000000000E+00 -0.00000000000E+00 -0.45593999997E+02  0.45594000000E+02  0.51100000000E-03 0.  1.
    9900012    2    1    2    0    0  0.86242582556E+01  0.36464316212E+02 -0.21899795561E+02  0.47787248476E+02  0.19999897099E+02 0.  0.
        -12    1    1    2    0    0 -0.86242582556E+01 -0.36464316212E+02  0.21899795561E+02  0.43400751524E+02  0.00000000000E+00 0.  1.
         11    1    3    3    0    0 -0.16676562359E+01  0.23793986240E+01 -0.55888257663E+01  0.62990149103E+01  0.51100000000E-03 0. -1.
        -11    1    3    3    0    0  0.49816421371E+01  0.38850699180E+01 -0.70294554825E+01  0.94511253981E+01  0.51100000000E-03 0.  1.
         12    1    3    3    0    0  0.53102723545E+01  0.30199847670E+02 -0.92815143118E+01  0.32037108167E+02  0.00000000000E+00 0. -1.
</event>
<event>
 7    1  0.4031943E-009  0.4778727E+02  0.7816164E-02  0.1312668E+00
        -11   -1    0    0    0    0  0.00000000000E+00  0.00000000000E+00  0.45593999997E+02  0.45594000000E+02  0.51100000000E-03 0. -1.
         11   -1    0    0    0    0 -0.00000000000E+00 -0.00000000000E+00 -0.45593999997E+02  0.45594000000E+02  0.51100000000E-03 0.  1.
    9900012    2    1    2    0    0 -0.15959304872E+02  0.39457741670E+02  0.84858972171E+01  0.47787271420E+02  0.20000001714E+02 0.  0.
        -12    1    1    2    0    0  0.15959304872E+02 -0.39457741670E+02 -0.84858972171E+01  0.43400728580E+02  0.00000000000E+00 0.  1.
         11    1    3    3    0    0  0.38844201330E+01  0.11013907282E+02  0.26305799897E+01  0.11971416989E+02  0.51100000000E-03 0. -1.
        -11    1    3    3    0    0 -0.14182282656E+00  0.17190072143E+01 -0.88167395336E+00  0.19371238313E+01  0.51100000000E-03 0.  1.
        -12    1    3    3    0    0 -0.19701902178E+02  0.26724827173E+02  0.67369911808E+01  0.33878730600E+02  0.00000000000E+00 0.  1.
</event>
<event>
 7    1  0.4031943E-009  0.4778726E+02  0.7816164E-02  0.1312668E+00
        -11   -1    0    0    0    0  0.00000000000E+00  0.00000000000E+00  0.45593999997E+02  0.45594000000E+02  0.51100000000E-03 0.  1.
         11   -1    0    0    0    0 -0.00000000000E+00 -0.00000000000E+00 -0.45593999997E+02  0.45594000000E+02  0.51100000000E-03 0. -1.
    9900012    2    1    2    0    0 -0.21492447292E+02  0.21281798834E+02 -0.31125295736E+02  0.47787259374E+02  0.19999946790E+02 0.  0.
        -12    1    1    2    0    0  0.21492447292E+02 -0.21281798834E+02  0.31125295736E+02  0.43400740626E+02  0.00000000000E+00 0.  1.
         11    1    3    3    0    0 -0.14435428429E+02  0.23247213235E+02 -0.27068015755E+02  0.38490154511E+02  0.51100000000E-03 0. -1.
        -11    1    3    3    0    0 -0.32226690645E+01  0.83173431329E+00 -0.28938268172E+01  0.44103981426E+01  0.51100000000E-03 0.  1.
        -12    1    3    3    0    0 -0.38343497990E+01 -0.27971487142E+01 -0.11634531642E+01  0.48867067208E+01  0.00000000000E+00 0.  1.
</event>
<event>
 7    1  0.4031943E-009  0.4778727E+02  0.7816164E-02  0.1312668E+00
        -11   -1    0    0    0    0  0.00000000000E+00  0.00000000000E+00  0.45593999997E+02  0.45594000000E+02  0.51100000000E-03 0.  1.
         11   -1    0    0    0    0 -0.00000000000E+00 -0.00000000000E+00 -0.45593999997E+02  0.45594000000E+02  0.51100000000E-03 0. -1.
    9900012    2    1    2    0    0  0.11499033358E+02  0.12232397488E+02 -0.40022042162E+02  0.47787272180E+02  0.20000005178E+02 0.  0.
        -12    1    1    2    0    0 -0.11499033358E+02 -0.12232397488E+02  0.40022042162E+02  0.43400727820E+02  0.00000000000E+00 0.  1.
         11    1    3    3    0    0  0.47849446407E+01  0.28757744479E+01 -0.15502134613E+02  0.16476709371E+02  0.51100000000E-03 0. -1.
        -11    1    3    3    0    0  0.44761038817E+01  0.84092773502E+01 -0.26509854527E+02  0.28169555176E+02  0.51100000000E-03 0.  1.
        -12    1    3    3    0    0  0.22379848355E+01  0.94734568951E+00  0.19899469773E+01  0.31410076332E+01  0.00000000000E+00 0.  1.
</event>
<event>
 7    1  0.4031943E-009  0.4778727E+02  0.7816164E-02  0.1312668E+00
        -11   -1    0    0    0    0  0.00000000000E+00  0.00000000000E+00  0.45593999997E+02  0.45594000000E+02  0.51100000000E-03 0.  1.
         11   -1    0    0    0    0 -0.00000000000E+00 -0.00000000000E+00 -0.45593999997E+02  0.45594000000E+02  0.51100000000E-03 0. -1.
    9900012    2    1    2    0    0 -0.31106506084E+02  0.27168611341E+02  0.13336997840E+02  0.47787266431E+02  0.19999978965E+02 0.  0.
        -12    1    1    2    0    0  0.31106506084E+02 -0.27168611341E+02 -0.13336997840E+02  0.43400733569E+02  0.00000000000E+00 0.  1.
         11    1    3    3    0    0  0.37427400829E+00  0.42179899301E+01  0.85059710191E-01  0.42354168035E+01  0.51100000000E-03 0. -1.
        -11    1    3    3    0    0 -0.11072371758E+02  0.14215293687E+02  0.11295700662E+02  0.21266519336E+02  0.51100000000E-03 0.  1.
        -12    1    3    3    0    0 -0.20408408334E+02  0.87353277239E+01  0.19562374682E+01  0.22285330292E+02  0.00000000000E+00 0.  1.
</event>
<event>
 7    1  0.4031943E-009  0.4778727E+02  0.7816164E-02  0.1312668E+00
        -11   -1    0    0    0    0  0.00000000000E+00  0.00000000000E+00  0.45593999997E+02  0.45594000000E+02  0.51100000000E-03 0.  1.
         11   -1    0    0    0    0 -0.00000000000E+00 -0.00000000000E+00 -0.45593999997E+02  0.45594000000E+02  0.51100000000E-03 0. -1.
    9900012    2    1    2    0    0 -0.41821873851E+02 -0.10657661891E+02 -0.45791090628E+01  0.47787272711E+02  0.20000007598E+02 0.  0.
        -12    1    1    2    0    0  0.41821873851E+02  0.10657661891E+02  0.45791090628E+01  0.43400727289E+02  0.00000000000E+00 0.  1.
         11    1    3    3    0    0 -0.70014364966E+01 -0.26171988491E+01  0.10593366050E+01  0.75493070633E+01  0.51100000000E-03 0.  1.
        -11    1    3    3    0    0 -0.11483366632E+02 -0.11114631057E+02  0.21356576106E+00  0.15982751432E+02  0.51100000000E-03 0. -1.
         12    1    3    3    0    0 -0.23337070723E+02  0.30741680148E+01 -0.58520114289E+01  0.24255214216E+02  0.00000000000E+00 0. -1.
</event>
<event>
 7    1  0.4031943E-009  0.4778726E+02  0.7816164E-02  0.1312668E+00
        -11   -1    0    0    0    0  0.00000000000E+00  0.00000000000E+00  0.45593999997E+02  0.45594000000E+02  0.51100000000E-03 0.  1.
         11   -1    0    0    0    0 -0.00000000000E+00 -0.00000000000E+00 -0.45593999997E+02  0.45594000000E+02  0.51100000000E-03 0. -1.
    9900012    2    1    2    0    0 -0.14424506284E+02  0.20206153009E+02 -0.35598726804E+02  0.47787258636E+02  0.19999943423E+02 0.  0.
        -12    1    1    2    0    0  0.14424506284E+02 -0.20206153009E+02  0.35598726804E+02  0.43400741364E+02  0.00000000000E+00 0.  1.
         11    1    3    3    0    0 -0.30833512358E+01  0.64314384328E+01 -0.37691922113E+01  0.80670481184E+01  0.51100000000E-03 0. -1.
        -11    1    3    3    0    0 -0.21487230278E+01  0.13502713250E+02 -0.13507053771E+02  0.19219281401E+02  0.51100000000E-03 0.  1.
         12    1    3    3    0    0 -0.91924320204E+01  0.27200132641E+00 -0.18322480821E+02  0.20500929116E+02  0.00000000000E+00 0. -1.
</event>
<event>
 7    1  0.4031943E-009  0.4778727E+02  0.7816164E-02  0.1312668E+00
        -11   -1    0    0    0    0  0.00000000000E+00  0.00000000000E+00  0.45593999997E+02  0.45594000000E+02  0.51100000000E-03 0.  1.
         11   -1    0    0    0    0 -0.00000000000E+00 -0.00000000000E+00 -0.45593999997E+02  0.45594000000E+02  0.51100000000E-03 0. -1.
    9900012    2    1    2    0    0  0.21117472282E+02 -0.12161733501E+02 -0.35913342350E+02  0.47787267793E+02  0.19999985177E+02 0.  0.
        -12    1    1    2    0    0 -0.21117472282E+02  0.12161733501E+02  0.35913342350E+02  0.43400732207E+02  0.00000000000E+00 0.  1.
         11    1    3    3    0    0  0.76904119387E+01 -0.11495048530E+02 -0.17996552945E+02  0.22697015104E+02  0.51100000000E-03 0. -1.
        -11    1    3    3    0    0  0.10634466448E+02 -0.51925523005E+01 -0.96959005951E+01  0.15299181829E+02  0.51100000000E-03 0.  1.
         12    1    3    3    0    0  0.27925938951E+01  0.45258673299E+01 -0.82208888104E+01  0.97910708599E+01  0.00000000000E+00 0. -1.
</event>
<event>
 7    1  0.4031943E-009  0.4778727E+02  0.7816164E-02  0.1312668E+00
        -11   -1    0    0    0    0  0.00000000000E+00  0.00000000000E+00  0.45593999997E+02  0.45594000000E+02  0.51100000000E-03 0.  1.
         11   -1    0    0    0    0 -0.00000000000E+00 -0.00000000000E+00 -0.45593999997E+02  0.45594000000E+02  0.51100000000E-03 0. -1.
    9900012    2    1    2    0    0 -0.20062421461E+02 -0.45064744361E+01 -0.38220603273E+02  0.47787267503E+02  0.19999983855E+02 0.  0.
        -12    1    1    2    0    0  0.20062421461E+02  0.45064744361E+01  0.38220603273E+02  0.43400732497E+02  0.00000000000E+00 0.  1.
         11    1    3    3    0    0 -0.15600559356E+02 -0.36949155040E+01 -0.16789881365E+02  0.23214865266E+02  0.51100000000E-03 0. -1.
        -11    1    3    3    0    0 -0.46256542056E+01 -0.50404692288E+01 -0.81880164429E+01  0.10669893177E+02  0.51100000000E-03 0.  1.
         12    1    3    3    0    0  0.16379210071E+00  0.42289102967E+01 -0.13242705465E+02  0.13902509061E+02  0.00000000000E+00 0. -1.
</event>
<event>
 7    1  0.4031943E-009  0.4778727E+02  0.7816164E-02  0.1312668E+00
        -11   -1    0    0    0    0  0.00000000000E+00  0.00000000000E+00  0.45593999997E+02  0.45594000000E+02  0.51100000000E-03 0.  1.
         11   -1    0    0    0    0 -0.00000000000E+00 -0.00000000000E+00 -0.45593999997E+02  0.45594000000E+02  0.51100000000E-03 0. -1.
    9900012    2    1    2    0    0  0.14035036866E+02  0.19463022020E+02 -0.36163958249E+02  0.47787270027E+02  0.19999995361E+02 0.  0.
        -12    1    1    2    0    0 -0.14035036866E+02 -0.19463022020E+02  0.36163958249E+02  0.43400729973E+02  0.00000000000E+00 0.  1.
         11    1    3    3    0    0 -0.11204583426E+01 -0.19174803130E+01 -0.19071557729E+01  0.29273539335E+01  0.51100000000E-03 0. -1.
        -11    1    3    3    0    0 -0.11645137651E+00  0.93806863117E+01 -0.13429595419E+02  0.16381845744E+02  0.51100000000E-03 0.  1.
         12    1    3    3    0    0  0.15271946585E+02  0.11999816021E+02 -0.20827207057E+02  0.28478070349E+02  0.00000000000E+00 0. -1.
</event>
<event>
 7    1  0.4031943E-009  0.4778726E+02  0.7816164E-02  0.1312668E+00
        -11   -1    0    0    0    0  0.00000000000E+00  0.00000000000E+00  0.45593999997E+02  0.45594000000E+02  0.51100000000E-03 0.  1.
         11   -1    0    0    0    0 -0.00000000000E+00 -0.00000000000E+00 -0.45593999997E+02  0.45594000000E+02  0.51100000000E-03 0. -1.
    9900012    2    1    2    0    0  0.19310483070E+02 -0.20960032044E+02 -0.32732342377E+02  0.47787263403E+02  0.19999965160E+02 0.  0.
        -12    1    1    2    0    0 -0.19310483070E+02  0.20960032044E+02  0.32732342377E+02  0.43400736597E+02  0.00000000000E+00 0.  1.
         11    1    3    3    0    0  0.13071308335E+02 -0.11352853459E+02 -0.19281307971E+02  0.25913610721E+02  0.51100000000E-03 0. -1.
        -11    1    3    3    0    0  0.25268750187E+00 -0.85408228037E+01 -0.13278943937E+02  0.15790498963E+02  0.51100000000E-03 0.  1.
        -12    1    3    3    0    0  0.59864872335E+01 -0.10663557815E+01 -0.17209046826E+00  0.60831537198E+01  0.00000000000E+00 0.  1.
</event>
<event>
 7    1  0.4031943E-009  0.4778727E+02  0.7816164E-02  0.1312668E+00
        -11   -1    0    0    0    0  0.00000000000E+00  0.00000000000E+00  0.45593999997E+02  0.45594000000E+02  0.51100000000E-03 0.  1.
         11   -1    0    0    0    0 -0.00000000000E+00 -0.00000000000E+00 -0.45593999997E+02  0.45594000000E+02  0.51100000000E-03 0. -1.
    9900012    2    1    2    0    0 -0.22675882591E+02  0.22775909532E+02 -0.29166514020E+02  0.47787271361E+02  0.20000001445E+02 0.  0.
        -12    1    1    2    0    0  0.22675882591E+02 -0.22775909532E+02  0.29166514020E+02  0.43400728639E+02  0.00000000000E+00 0.  1.
         11    1    3    3    0    0  0.10348515081E+01 -0.18299050063E+01 -0.43282192967E+01  0.48117515020E+01  0.51100000000E-03 0. -1.
        -11    1    3    3    0    0 -0.14975329816E+01 -0.42314628152E+00 -0.65995390649E+00  0.16903245920E+01  0.51100000000E-03 0.  1.
        -12    1    3    3    0    0 -0.22213201118E+02  0.25028960820E+02 -0.24178340817E+02  0.41285195267E+02  0.00000000000E+00 0.  1.
</event>
<event>
 7    1  0.4031943E-009  0.4778727E+02  0.7816164E-02  0.1312668E+00
        -11   -1    0    0    0    0  0.00000000000E+00  0.00000000000E+00  0.45593999997E+02  0.45594000000E+02  0.51100000000E-03 0.  1.
         11   -1    0    0    0    0 -0.00000000000E+00 -0.00000000000E+00 -0.45593999997E+02  0.45594000000E+02  0.51100000000E-03 0. -1.
    9900012    2    1    2    0    0 -0.37754741163E+02 -0.61846028436E+01 -0.20492770924E+02  0.47787268983E+02  0.19999990601E+02 0.  0.
        -12    1    1    2    0    0  0.37754741163E+02  0.61846028436E+01  0.20492770924E+02  0.43400731017E+02  0.00000000000E+00 0.  1.
         11    1    3    3    0    0 -0.20213806897E+02 -0.43949996092E+01 -0.39394400004E+01  0.21057853609E+02  0.51100000000E-03 0. -1.
        -11    1    3    3    0    0 -0.92166202611E+01 -0.66019734464E+01 -0.81921241879E+01  0.13987245669E+02  0.51100000000E-03 0.  1.
         12    1    3    3    0    0 -0.83243140052E+01  0.48123702121E+01 -0.83612067360E+01  0.12742169705E+02  0.00000000000E+00 0. -1.
</event>
<event>
 7    1  0.4031943E-009  0.4778728E+02  0.7816164E-02  0.1312668E+00
        -11   -1    0    0    0    0  0.00000000000E+00  0.00000000000E+00  0.45593999997E+02  0.45594000000E+02  0.51100000000E-03 0. -1.
         11   -1    0    0    0    0 -0.00000000000E+00 -0.00000000000E+00 -0.45593999997E+02  0.45594000000E+02  0.51100000000E-03 0.  1.
    9900012    2    1    2    0    0  0.43384401984E+02 -0.54022289485E+00 -0.10605007836E+01  0.47787276064E+02  0.20000022886E+02 0.  0.
        -12    1    1    2    0    0 -0.43384401984E+02  0.54022289485E+00  0.10605007836E+01  0.43400723936E+02  0.00000000000E+00 0.  1.
         11    1    3    3    0    0  0.14557411774E+02  0.19599114474E+01 -0.46440215303E+01  0.15405402515E+02  0.51100000000E-03 0. -1.
        -11    1    3    3    0    0  0.30041554779E+02 -0.75518150701E+00  0.35002558418E+01  0.30254208036E+02  0.51100000000E-03 0.  1.
        -12    1    3    3    0    0 -0.12145645690E+01 -0.17449528353E+01  0.83264904948E-01  0.21276655127E+01  0.00000000000E+00 0.  1.
</event>
<event>
 7    1  0.4031943E-009  0.4778726E+02  0.7816164E-02  0.1312668E+00
        -11   -1    0    0    0    0  0.00000000000E+00  0.00000000000E+00  0.45593999997E+02  0.45594000000E+02  0.51100000000E-03 0.  1.
         11   -1    0    0    0    0 -0.00000000000E+00 -0.00000000000E+00 -0.45593999997E+02  0.45594000000E+02  0.51100000000E-03 0. -1.
    9900012    2    1    2    0    0  0.50699060289E+01 -0.18114319050E+02 -0.39112550275E+02  0.47787261633E+02  0.19999957089E+02 0.  0.
        -12    1    1    2    0    0 -0.50699060289E+01  0.18114319050E+02  0.39112550275E+02  0.43400738367E+02  0.00000000000E+00 0.  1.
         11    1    3    3    0    0  0.79334744045E+01 -0.15840033240E+02 -0.38994332536E+02  0.42829950262E+02  0.51100000000E-03 0. -1.
        -11    1    3    3    0    0 -0.16246161176E+00 -0.21102213581E+01 -0.61932813914E+00  0.22052200708E+01  0.51100000000E-03 0.  1.
         12    1    3    3    0    0 -0.27011067639E+01 -0.16406445125E+00  0.50111040042E+00  0.27520913007E+01  0.00000000000E+00 0. -1.
</event>
<event>
 7    1  0.4031943E-009  0.4778727E+02  0.7816164E-02  0.1312668E+00
        -11   -1    0    0    0    0  0.00000000000E+00  0.00000000000E+00  0.45593999997E+02  0.45594000000E+02  0.51100000000E-03 0.  1.
         11   -1    0    0    0    0 -0.00000000000E+00 -0.00000000000E+00 -0.45593999997E+02  0.45594000000E+02  0.51100000000E-03 0. -1.
    9900012    2    1    2    0    0 -0.22853196587E+02 -0.21585821148E+02 -0.29923352756E+02  0.47787270639E+02  0.19999998152E+02 0.  0.
        -12    1    1    2    0    0  0.22853196587E+02  0.21585821148E+02  0.29923352756E+02  0.43400729361E+02  0.00000000000E+00 0.  1.
         11    1    3    3    0    0 -0.22798801045E+02 -0.21564933467E+02 -0.21942968038E+02  0.38292630245E+02  0.51100000000E-03 0. -1.
        -11    1    3    3    0    0 -0.21726174679E+01 -0.89641941356E+00 -0.60758907818E+01  0.65146207473E+01  0.51100000000E-03 0.  1.
         12    1    3    3    0    0  0.21182219254E+01  0.87553173278E+00 -0.19044939363E+01  0.29800196465E+01  0.00000000000E+00 0. -1.
</event>
<event>
 7    1  0.4031943E-009  0.4778727E+02  0.7816164E-02  0.1312668E+00
        -11   -1    0    0    0    0  0.00000000000E+00  0.00000000000E+00  0.45593999997E+02  0.45594000000E+02  0.51100000000E-03 0.  1.
         11   -1    0    0    0    0 -0.00000000000E+00 -0.00000000000E+00 -0.45593999997E+02  0.45594000000E+02  0.51100000000E-03 0. -1.
    9900012    2    1    2    0    0  0.75899436311E+01  0.28319317946E+02 -0.32000504451E+02  0.47787270762E+02  0.19999998712E+02 0.  0.
        -12    1    1    2    0    0 -0.75899436311E+01 -0.28319317946E+02  0.32000504451E+02  0.43400729238E+02  0.00000000000E+00 0.  1.
         11    1    3    3    0    0 -0.19887299777E+01  0.69532539188E+01 -0.88738633536E+00  0.72863050823E+01  0.51100000000E-03 0. -1.
        -11    1    3    3    0    0  0.21088946990E+01 -0.51632847735E+00 -0.66953783031E+00  0.22720724274E+01  0.51100000000E-03 0.  1.
         12    1    3    3    0    0  0.74697789098E+01  0.21882392505E+02 -0.30443580286E+02  0.38228893252E+02  0.00000000000E+00 0. -1.
</event>
<event>
 7    1  0.4031943E-009  0.4778727E+02  0.7816164E-02  0.1312668E+00
        -11   -1    0    0    0    0  0.00000000000E+00  0.00000000000E+00  0.45593999997E+02  0.45594000000E+02  0.51100000000E-03 0. -1.
         11   -1    0    0    0    0 -0.00000000000E+00 -0.00000000000E+00 -0.45593999997E+02  0.45594000000E+02  0.51100000000E-03 0.  1.
    9900012    2    1    2    0    0 -0.41300782378E+02 -0.23668227019E+01  0.13125044913E+02  0.47787270988E+02  0.19999999745E+02 0.  0.
        -12    1    1    2    0    0  0.41300782378E+02  0.23668227019E+01 -0.13125044913E+02  0.43400729012E+02  0.00000000000E+00 0.  1.
         11    1    3    3    0    0 -0.24349300144E+02 -0.20871499799E-01  0.61545843608E+01  0.25115090325E+02  0.51100000000E-03 0. -1.
        -11    1    3    3    0    0 -0.13922470054E+02  0.39175772111E+01  0.34238618014E+01  0.14862887119E+02  0.51100000000E-03 0.  1.
        -12    1    3    3    0    0 -0.30290121808E+01 -0.62635284132E+01  0.35465987507E+01  0.78092935451E+01  0.00000000000E+00 0.  1.
</event>
<event>
 7    1  0.4031943E-009  0.4778727E+02  0.7816164E-02  0.1312668E+00
        -11   -1    0    0    0    0  0.00000000000E+00  0.00000000000E+00  0.45593999997E+02  0.45594000000E+02  0.51100000000E-03 0. -1.
         11   -1    0    0    0    0 -0.00000000000E+00 -0.00000000000E+00 -0.45593999997E+02  0.45594000000E+02  0.51100000000E-03 0.  1.
    9900012    2    1    2    0    0  0.32632487482E+02 -0.28538352895E+02 -0.20752207730E+01  0.47787269977E+02  0.19999995135E+02 0.  0.
        -12    1    1    2    0    0 -0.32632487482E+02  0.28538352895E+02  0.20752207730E+01  0.43400730023E+02  0.00000000000E+00 0.  1.
         11    1    3    3    0    0  0.14611281748E+01 -0.17227366108E+01  0.26084530394E+01  0.34506150891E+01  0.51100000000E-03 0. -1.
        -11    1    3    3    0    0  0.62903994304E+01 -0.18791712496E+00 -0.47647663563E+01  0.78935059720E+01  0.51100000000E-03 0.  1.
         12    1    3    3    0    0  0.24880959877E+02 -0.26627699159E+02  0.81092543870E-01  0.36443148916E+02  0.00000000000E+00 0. -1.
</event>
<event>
 7    1  0.4031943E-009  0.4778727E+02  0.7816164E-02  0.1312668E+00
        -11   -1    0    0    0    0  0.00000000000E+00  0.00000000000E+00  0.45593999997E+02  0.45594000000E+02  0.51100000000E-03 0.  1.
         11   -1    0    0    0    0 -0.00000000000E+00 -0.00000000000E+00 -0.45593999997E+02  0.45594000000E+02  0.51100000000E-03 0. -1.
    9900012    2    1    2    0    0  0.74262320654E+01  0.22912182585E+01 -0.42699236620E+02  0.47787269456E+02  0.19999992758E+02 0.  0.
        -12    1    1    2    0    0 -0.74262320654E+01 -0.22912182585E+01  0.42699236620E+02  0.43400730544E+02  0.00000000000E+00 0.  1.
         11    1    3    3    0    0  0.37736659096E+01  0.96875197524E+00 -0.23633905692E+02  0.23952881524E+02  0.51100000000E-03 0. -1.
        -11    1    3    3    0    0  0.10170218441E+01  0.70335095286E+01 -0.14211922874E+02  0.15889724408E+02  0.51100000000E-03 0.  1.
        -12    1    3    3    0    0  0.26355443117E+01 -0.57110432453E+01 -0.48534080543E+01  0.79446635240E+01  0.00000000000E+00 0.  1.
</event>
<event>
 7    1  0.4031943E-009  0.4778727E+02  0.7816164E-02  0.1312668E+00
        -11   -1    0    0    0    0  0.00000000000E+00  0.00000000000E+00  0.45593999997E+02  0.45594000000E+02  0.51100000000E-03 0.  1.
         11   -1    0    0    0    0 -0.00000000000E+00 -0.00000000000E+00 -0.45593999997E+02  0.45594000000E+02  0.51100000000E-03 0. -1.
    9900012    2    1    2    0    0  0.90361127090E+01 -0.41479197654E+02 -0.90248596497E+01  0.47787271174E+02  0.20000000591E+02 0.  0.
        -12    1    1    2    0    0 -0.90361127090E+01  0.41479197654E+02  0.90248596497E+01  0.43400728826E+02  0.00000000000E+00 0.  1.
         11    1    3    3    0    0  0.12638629166E+02 -0.30997473693E+02 -0.70473487355E+01  0.34208821187E+02  0.51100000000E-03 0. -1.
        -11    1    3    3    0    0  0.14332998756E+01 -0.44692704074E+01  0.15994042986E+01  0.49585099455E+01  0.51100000000E-03 0.  1.
        -12    1    3    3    0    0 -0.50358163329E+01 -0.60124535535E+01 -0.35769152128E+01  0.86199400411E+01  0.00000000000E+00 0.  1.
</event>
<event>
 7    1  0.4031943E-009  0.4778727E+02  0.7816164E-02  0.1312668E+00
        -11   -1    0    0    0    0  0.00000000000E+00  0.00000000000E+00  0.45593999997E+02  0.45594000000E+02  0.51100000000E-03 0.  1.
         11   -1    0    0    0    0 -0.00000000000E+00 -0.00000000000E+00 -0.45593999997E+02  0.45594000000E+02  0.51100000000E-03 0. -1.
    9900012    2    1    2    0    0  0.14799324096E+02  0.37685568040E+01 -0.40625136694E+02  0.47787265612E+02  0.19999975230E+02 0.  0.
        -12    1    1    2    0    0 -0.14799324096E+02 -0.37685568040E+01  0.40625136694E+02  0.43400734388E+02  0.00000000000E+00 0.  1.
         11    1    3    3    0    0 -0.18047559475E+01  0.98184484586E+00 -0.75846099488E+01  0.78579559472E+01  0.51100000000E-03 0. -1.
        -11    1    3    3    0    0  0.96547096741E+01 -0.58614837282E+01 -0.15613120370E+02  0.19270182624E+02  0.51100000000E-03 0.  1.
         12    1    3    3    0    0  0.69493703690E+01  0.86481956863E+01 -0.17427406374E+02  0.20659127041E+02  0.00000000000E+00 0. -1.
</event>
<event>
 7    1  0.4031943E-009  0.4778725E+02  0.7816164E-02  0.1312668E+00
        -11   -1    0    0    0    0  0.00000000000E+00  0.00000000000E+00  0.45593999997E+02  0.45594000000E+02  0.51100000000E-03 0.  1.
         11   -1    0    0    0    0 -0.00000000000E+00 -0.00000000000E+00 -0.45593999997E+02  0.45594000000E+02  0.51100000000E-03 0. -1.
    9900012    2    1    2    0    0  0.39828543619E+02 -0.12855229037E+02 -0.11491516228E+02  0.47787254089E+02  0.19999922695E+02 0.  0.
        -12    1    1    2    0    0 -0.39828543619E+02  0.12855229037E+02  0.11491516228E+02  0.43400745911E+02  0.00000000000E+00 0.  1.
         11    1    3    3    0    0  0.17830604531E+02 -0.12024882493E+02 -0.24661174087E+01  0.21647401512E+02  0.51100000000E-03 0.  1.
        -11    1    3    3    0    0  0.13512800504E+02 -0.55338515598E+01 -0.71503375387E+01  0.16258739733E+02  0.51100000000E-03 0. -1.
        -12    1    3    3    0    0  0.84851385845E+01  0.47035050158E+01 -0.18750612804E+01  0.98811128441E+01  0.00000000000E+00 0.  1.
</event>
<event>
 7    1  0.4031943E-009  0.4778727E+02  0.7816164E-02  0.1312668E+00
        -11   -1    0    0    0    0  0.00000000000E+00  0.00000000000E+00  0.45593999997E+02  0.45594000000E+02  0.51100000000E-03 0.  1.
         11   -1    0    0    0    0 -0.00000000000E+00 -0.00000000000E+00 -0.45593999997E+02  0.45594000000E+02  0.51100000000E-03 0. -1.
    9900012    2    1    2    0    0 -0.12148342952E+02  0.24615161967E+02 -0.33617475793E+02  0.47787272888E+02  0.20000008406E+02 0.  0.
        -12    1    1    2    0    0  0.12148342952E+02 -0.24615161967E+02  0.33617475793E+02  0.43400727112E+02  0.00000000000E+00 0.  1.
         11    1    3    3    0    0 -0.63409922367E+01  0.71487144911E+01 -0.25502355414E+02  0.27233847200E+02  0.51100000000E-03 0. -1.
        -11    1    3    3    0    0 -0.21808364471E+01  0.66192356063E+01 -0.53516019383E+01  0.87869204610E+01  0.51100000000E-03 0.  1.
        -12    1    3    3    0    0 -0.36265142678E+01  0.10847211870E+02 -0.27635184414E+01  0.11766505227E+02  0.00000000000E+00 0.  1.
</event>
<event>
 7    1  0.4031943E-009  0.4778726E+02  0.7816164E-02  0.1312668E+00
        -11   -1    0    0    0    0  0.00000000000E+00  0.00000000000E+00  0.45593999997E+02  0.45594000000E+02  0.51100000000E-03 0.  1.
         11   -1    0    0    0    0 -0.00000000000E+00 -0.00000000000E+00 -0.45593999997E+02  0.45594000000E+02  0.51100000000E-03 0. -1.
    9900012    2    1    2    0    0  0.10095614384E+02  0.40667161092E+02 -0.11308604304E+02  0.47787263228E+02  0.19999964361E+02 0.  0.
        -12    1    1    2    0    0 -0.10095614384E+02 -0.40667161092E+02  0.11308604304E+02  0.43400736772E+02  0.00000000000E+00 0.  1.
         11    1    3    3    0    0  0.21362802613E+01  0.16667089554E+02 -0.43727736748E+01  0.17363084905E+02  0.51100000000E-03 0. -1.
        -11    1    3    3    0    0  0.83421350582E+01  0.85563560284E+01 -0.88323070805E+01  0.14859747455E+02  0.51100000000E-03 0.  1.
        -12    1    3    3    0    0 -0.38280093574E+00  0.15443715509E+02  0.18964764508E+01  0.15564430867E+02  0.00000000000E+00 0.  1.
</event>
<event>
 7    1  0.4031943E-009  0.4778727E+02  0.7816164E-02  0.1312668E+00
        -11   -1    0    0    0    0  0.00000000000E+00  0.00000000000E+00  0.45593999997E+02  0.45594000000E+02  0.51100000000E-03 0. -1.
         11   -1    0    0    0    0 -0.00000000000E+00 -0.00000000000E+00 -0.45593999997E+02  0.45594000000E+02  0.51100000000E-03 0.  1.
    9900012    2    1    2    0    0  0.42595374135E+02  0.11528479682E+01  0.82418436133E+01  0.47787274864E+02  0.20000017417E+02 0.  0.
        -12    1    1    2    0    0 -0.42595374135E+02 -0.11528479682E+01 -0.82418436133E+01  0.43400725136E+02  0.00000000000E+00 0.  1.
         11    1    3    3    0    0  0.17785419951E+02 -0.25770961296E+01  0.10004534789E+02  0.20568259622E+02  0.51100000000E-03 0.  1.
        -11    1    3    3    0    0  0.16214757547E+02 -0.12066779694E+01  0.24607280997E+01  0.16444744360E+02  0.51100000000E-03 0. -1.
        -12    1    3    3    0    0  0.85951966377E+01  0.49366220671E+01 -0.42234192753E+01  0.10774270882E+02  0.00000000000E+00 0.  1.
</event>
<event>
 7    1  0.4031943E-009  0.4778727E+02  0.7816164E-02  0.1312668E+00
        -11   -1    0    0    0    0  0.00000000000E+00  0.00000000000E+00  0.45593999997E+02  0.45594000000E+02  0.51100000000E-03 0. -1.
         11   -1    0    0    0    0 -0.00000000000E+00 -0.00000000000E+00 -0.45593999997E+02  0.45594000000E+02  0.51100000000E-03 0.  1.
    9900012    2    1    2    0    0  0.17949420739E+02  0.74790987525E+01  0.38800833681E+02  0.47787270544E+02  0.19999997718E+02 0.  0.
        -12    1    1    2    0    0 -0.17949420739E+02 -0.74790987525E+01 -0.38800833681E+02  0.43400729456E+02  0.00000000000E+00 0.  1.
         11    1    3    3    0    0  0.58601623501E+01  0.16794666509E+01  0.29536130592E+01  0.67739162502E+01  0.51100000000E-03 0. -1.
        -11    1    3    3    0    0  0.64107143326E+01 -0.37675414961E+01  0.75011622066E+01  0.10562152332E+02  0.51100000000E-03 0.  1.
         12    1    3    3    0    0  0.56785440563E+01  0.95671735976E+01  0.28346058415E+02  0.30451201961E+02  0.00000000000E+00 0. -1.
</event>
<event>
 7    1  0.4031943E-009  0.4778727E+02  0.7816164E-02  0.1312668E+00
        -11   -1    0    0    0    0  0.00000000000E+00  0.00000000000E+00  0.45593999997E+02  0.45594000000E+02  0.51100000000E-03 0.  1.
         11   -1    0    0    0    0 -0.00000000000E+00 -0.00000000000E+00 -0.45593999997E+02  0.45594000000E+02  0.51100000000E-03 0. -1.
    9900012    2    1    2    0    0 -0.61091838162E+01 -0.15447654366E+02 -0.40095772839E+02  0.47787272450E+02  0.20000006408E+02 0.  0.
        -12    1    1    2    0    0  0.61091838162E+01  0.15447654366E+02  0.40095772839E+02  0.43400727550E+02  0.00000000000E+00 0.  1.
         11    1    3    3    0    0 -0.34311795475E+01 -0.54947442874E+01 -0.22106758050E+02  0.23036361684E+02  0.51100000000E-03 0. -1.
        -11    1    3    3    0    0 -0.33156734601E+00 -0.55123133009E+01 -0.18861488250E+02  0.19653276421E+02  0.51100000000E-03 0.  1.
        -12    1    3    3    0    0 -0.23464369227E+01 -0.44405967774E+01  0.87247346102E+00  0.50976343446E+01  0.00000000000E+00 0.  1.
</event>
<event>
 7    1  0.4031943E-009  0.4778727E+02  0.7816164E-02  0.1312668E+00
        -11   -1    0    0    0    0  0.00000000000E+00  0.00000000000E+00  0.45593999997E+02  0.45594000000E+02  0.51100000000E-03 0. -1.
         11   -1    0    0    0    0 -0.00000000000E+00 -0.00000000000E+00 -0.45593999997E+02  0.45594000000E+02  0.51100000000E-03 0.  1.
    9900012    2    1    2    0    0 -0.25774068559E+02 -0.19882808272E+02  0.28705306684E+02  0.47787270666E+02  0.19999998276E+02 0.  0.
        -12    1    1    2    0    0  0.25774068559E+02  0.19882808272E+02 -0.28705306684E+02  0.43400729334E+02  0.00000000000E+00 0.  1.
         11    1    3    3    0    0 -0.17071080037E+02 -0.82145052347E+01  0.18498473951E+02  0.26478168529E+02  0.51100000000E-03 0. -1.
        -11    1    3    3    0    0 -0.29044363185E+01 -0.29715281134E+00  0.77885470407E+01  0.83177830813E+01  0.51100000000E-03 0.  1.
        -12    1    3    3    0    0 -0.57985522034E+01 -0.11371150226E+02  0.24182856925E+01  0.12991319056E+02  0.00000000000E+00 0.  1.
</event>
<event>
 7    1  0.4031943E-009  0.4778727E+02  0.7816164E-02  0.1312668E+00
        -11   -1    0    0    0    0  0.00000000000E+00  0.00000000000E+00  0.45593999997E+02  0.45594000000E+02  0.51100000000E-03 0.  1.
         11   -1    0    0    0    0 -0.00000000000E+00 -0.00000000000E+00 -0.45593999997E+02  0.45594000000E+02  0.51100000000E-03 0. -1.
    9900012    2    1    2    0    0 -0.32638655463E+02  0.97767228170E+01 -0.26884137594E+02  0.47787274273E+02  0.20000014719E+02 0.  0.
        -12    1    1    2    0    0  0.32638655463E+02 -0.97767228170E+01  0.26884137594E+02  0.43400725727E+02  0.00000000000E+00 0.  1.
         11    1    3    3    0    0 -0.30447059283E+01  0.19614508386E+01 -0.84315069085E+01  0.91764825827E+01  0.51100000000E-03 0. -1.
        -11    1    3    3    0    0 -0.16958841472E+01  0.46904164470E+01 -0.62621348330E+01  0.80056456589E+01  0.51100000000E-03 0.  1.
        -12    1    3    3    0    0 -0.27898065388E+02  0.31248555314E+01 -0.12190495852E+02  0.30605146031E+02  0.00000000000E+00 0.  1.
</event>
<event>
 7    1  0.4031943E-009  0.4778727E+02  0.7816164E-02  0.1312668E+00
        -11   -1    0    0    0    0  0.00000000000E+00  0.00000000000E+00  0.45593999997E+02  0.45594000000E+02  0.51100000000E-03 0.  1.
         11   -1    0    0    0    0 -0.00000000000E+00 -0.00000000000E+00 -0.45593999997E+02  0.45594000000E+02  0.51100000000E-03 0. -1.
    9900012    2    1    2    0    0 -0.28281943533E+01 -0.22739738817E+01 -0.43248738453E+02  0.47787273989E+02  0.20000013424E+02 0.  0.
        -12    1    1    2    0    0  0.28281943533E+01  0.22739738817E+01  0.43248738453E+02  0.43400726011E+02  0.00000000000E+00 0.  1.
         11    1    3    3    0    0 -0.53594960430E+01 -0.12193177661E+01 -0.29685587925E+02  0.30190148466E+02  0.51100000000E-03 0. -1.
        -11    1    3    3    0    0 -0.25023627404E+01  0.12477651317E+01 -0.11259735569E+02  0.11601740492E+02  0.51100000000E-03 0.  1.
        -12    1    3    3    0    0  0.50336644301E+01 -0.23024212473E+01 -0.23034149591E+01  0.59953850308E+01  0.00000000000E+00 0.  1.
</event>
<event>
 7    1  0.4031943E-009  0.4778727E+02  0.7816164E-02  0.1312668E+00
        -11   -1    0    0    0    0  0.00000000000E+00  0.00000000000E+00  0.45593999997E+02  0.45594000000E+02  0.51100000000E-03 0.  1.
         11   -1    0    0    0    0 -0.00000000000E+00 -0.00000000000E+00 -0.45593999997E+02  0.45594000000E+02  0.51100000000E-03 0. -1.
    9900012    2    1    2    0    0  0.33237649910E+02  0.18856446946E+02  0.20574658101E+02  0.47787268221E+02  0.19999987125E+02 0.  0.
        -12    1    1    2    0    0 -0.33237649910E+02 -0.18856446946E+02 -0.20574658101E+02  0.43400731779E+02  0.00000000000E+00 0.  1.
         11    1    3    3    0    0  0.22538549073E+02  0.12030151238E+02  0.17416285666E+02  0.30919859958E+02  0.51100000000E-03 0. -1.
        -11    1    3    3    0    0  0.15512845465E+01 -0.54170190179E+00  0.47387176651E+01  0.50155129414E+01  0.51100000000E-03 0.  1.
         12    1    3    3    0    0  0.91478162905E+01  0.73679976097E+01 -0.15803452300E+01  0.11851895321E+02  0.00000000000E+00 0. -1.
</event>
<event>
 7    1  0.4031943E-009  0.4778727E+02  0.7816164E-02  0.1312668E+00
        -11   -1    0    0    0    0  0.00000000000E+00  0.00000000000E+00  0.45593999997E+02  0.45594000000E+02  0.51100000000E-03 0.  1.
         11   -1    0    0    0    0 -0.00000000000E+00 -0.00000000000E+00 -0.45593999997E+02  0.45594000000E+02  0.51100000000E-03 0. -1.
    9900012    2    1    2    0    0  0.12612145451E+02 -0.15174274445E+02 -0.38656157399E+02  0.47787270482E+02  0.19999997437E+02 0.  0.
        -12    1    1    2    0    0 -0.12612145451E+02  0.15174274445E+02  0.38656157399E+02  0.43400729518E+02  0.00000000000E+00 0.  1.
         11    1    3    3    0    0  0.88121565296E+00 -0.11962241396E+02 -0.18509101911E+02  0.22055806810E+02  0.51100000000E-03 0. -1.
        -11    1    3    3    0    0 -0.17909062529E+01 -0.14525312665E+01 -0.37878916429E+01  0.44345592392E+01  0.51100000000E-03 0.  1.
        -12    1    3    3    0    0  0.13521836051E+02 -0.17595017825E+01 -0.16359163845E+02  0.21296904433E+02  0.00000000000E+00 0.  1.
</event>
<event>
 7    1  0.4031943E-009  0.4778727E+02  0.7816164E-02  0.1312668E+00
        -11   -1    0    0    0    0  0.00000000000E+00  0.00000000000E+00  0.45593999997E+02  0.45594000000E+02  0.51100000000E-03 0. -1.
         11   -1    0    0    0    0 -0.00000000000E+00 -0.00000000000E+00 -0.45593999997E+02  0.45594000000E+02  0.51100000000E-03 0.  1.
    9900012    2    1    2    0    0 -0.36185435214E+02 -0.21321581089E+02  0.10937457039E+02  0.47787268344E+02  0.19999987689E+02 0.  0.
        -12    1    1    2    0    0  0.36185435214E+02  0.21321581089E+02 -0.10937457039E+02  0.43400731656E+02  0.00000000000E+00 0.  1.
         11    1    3    3    0    0 -0.15310502280E+02 -0.74662635601E+01 -0.21354236066E+01  0.17167312133E+02  0.51100000000E-03 0.  1.
        -11    1    3    3    0    0 -0.18720462279E+02 -0.93947148351E+01  0.56469594095E+01  0.21693421251E+02  0.51100000000E-03 0. -1.
        -12    1    3    3    0    0 -0.21544706557E+01 -0.44606026937E+01  0.74259212358E+01  0.89265349603E+01  0.00000000000E+00 0.  1.
</event>
<event>
 7    1  0.4031943E-009  0.4778727E+02  0.7816164E-02  0.1312668E+00
        -11   -1    0    0    0    0  0.00000000000E+00  0.00000000000E+00  0.45593999997E+02  0.45594000000E+02  0.51100000000E-03 0. -1.
         11   -1    0    0    0    0 -0.00000000000E+00 -0.00000000000E+00 -0.45593999997E+02  0.45594000000E+02  0.51100000000E-03 0.  1.
    9900012    2    1    2    0    0  0.61683155209E+00 -0.38694276510E+02  0.19646767476E+02  0.47787274337E+02  0.20000015014E+02 0.  0.
        -12    1    1    2    0    0 -0.61683155209E+00  0.38694276510E+02 -0.19646767476E+02  0.43400725663E+02  0.00000000000E+00 0.  1.
         11    1    3    3    0    0  0.62641826528E+01 -0.74259008026E+01  0.39453709135E+01  0.10485701643E+02  0.51100000000E-03 0. -1.
        -11    1    3    3    0    0 -0.17301007036E+01 -0.30079795281E+01  0.64225832549E+01  0.73000524117E+01  0.51100000000E-03 0.  1.
         12    1    3    3    0    0 -0.39172503971E+01 -0.28260396179E+02  0.92788133075E+01  0.30001520283E+02  0.00000000000E+00 0. -1.
</event>
<event>
 7    1  0.4031943E-009  0.4778727E+02  0.7816164E-02  0.1312668E+00
        -11   -1    0    0    0    0  0.00000000000E+00  0.00000000000E+00  0.45593999997E+02  0.45594000000E+02  0.51100000000E-03 0.  1.
         11   -1    0    0    0    0 -0.00000000000E+00 -0.00000000000E+00 -0.45593999997E+02  0.45594000000E+02  0.51100000000E-03 0. -1.
    9900012    2    1    2    0    0  0.32971082759E+02  0.21713411711E+02 -0.18029388826E+02  0.47787269501E+02  0.19999992963E+02 0.  0.
        -12    1    1    2    0    0 -0.32971082759E+02 -0.21713411711E+02  0.18029388826E+02  0.43400730499E+02  0.00000000000E+00 0.  1.
         11    1    3    3    0    0  0.63864442551E+01  0.20766323347E+01 -0.51385086178E+01  0.84559649452E+01  0.51100000000E-03 0. -1.
        -11    1    3    3    0    0  0.38562193450E+01  0.12597819837E+02 -0.27069094251E+01  0.13450013055E+02  0.51100000000E-03 0.  1.
        -12    1    3    3    0    0  0.22728419159E+02  0.70389595388E+01 -0.10183970783E+02  0.25881291501E+02  0.00000000000E+00 0.  1.
</event>
<event>
 7    1  0.4031943E-009  0.4778727E+02  0.7816164E-02  0.1312668E+00
        -11   -1    0    0    0    0  0.00000000000E+00  0.00000000000E+00  0.45593999997E+02  0.45594000000E+02  0.51100000000E-03 0.  1.
         11   -1    0    0    0    0 -0.00000000000E+00 -0.00000000000E+00 -0.45593999997E+02  0.45594000000E+02  0.51100000000E-03 0. -1.
    9900012    2    1    2    0    0 -0.17678697594E+02 -0.36232760673E+01 -0.39470984934E+02  0.47787272705E+02  0.20000007573E+02 0.  0.
        -12    1    1    2    0    0  0.17678697594E+02  0.36232760673E+01  0.39470984934E+02  0.43400727295E+02  0.00000000000E+00 0.  1.
         11    1    3    3    0    0 -0.11887989362E+02  0.34550546704E+01 -0.31862378413E+02  0.34182932177E+02  0.51100000000E-03 0. -1.
        -11    1    3    3    0    0  0.13717478420E+01 -0.99299489840E+00 -0.21458271322E+01  0.27335517834E+01  0.51100000000E-03 0.  1.
        -12    1    3    3    0    0 -0.71624560738E+01 -0.60853358394E+01 -0.54627793890E+01  0.10870788745E+02  0.00000000000E+00 0.  1.
</event>
<event>
 7    1  0.4031943E-009  0.4778727E+02  0.7816164E-02  0.1312668E+00
        -11   -1    0    0    0    0  0.00000000000E+00  0.00000000000E+00  0.45593999997E+02  0.45594000000E+02  0.51100000000E-03 0.  1.
         11   -1    0    0    0    0 -0.00000000000E+00 -0.00000000000E+00 -0.45593999997E+02  0.45594000000E+02  0.51100000000E-03 0. -1.
    9900012    2    1    2    0    0 -0.39790758303E+02 -0.13336183261E+02 -0.11066393512E+02  0.47787270793E+02  0.19999998856E+02 0.  0.
        -12    1    1    2    0    0  0.39790758303E+02  0.13336183261E+02  0.11066393512E+02  0.43400729207E+02  0.00000000000E+00 0.  1.
         11    1    3    3    0    0 -0.15917643313E+02 -0.64484409085E+01  0.44640850305E+01  0.17744909530E+02  0.51100000000E-03 0. -1.
        -11    1    3    3    0    0 -0.56887522601E+01  0.46392924988E+00 -0.14249988459E+01  0.58828355916E+01  0.51100000000E-03 0.  1.
         12    1    3    3    0    0 -0.18184362730E+02 -0.73516716027E+01 -0.14105479696E+02  0.24159525672E+02  0.00000000000E+00 0. -1.
</event>
<event>
 7    1  0.4031943E-009  0.4778727E+02  0.7816164E-02  0.1312668E+00
        -11   -1    0    0    0    0  0.00000000000E+00  0.00000000000E+00  0.45593999997E+02  0.45594000000E+02  0.51100000000E-03 0. -1.
         11   -1    0    0    0    0 -0.00000000000E+00 -0.00000000000E+00 -0.45593999997E+02  0.45594000000E+02  0.51100000000E-03 0.  1.
    9900012    2    1    2    0    0 -0.82529115441E+00  0.17092801684E+02  0.39884558900E+02  0.47787274044E+02  0.20000013675E+02 0.  0.
        -12    1    1    2    0    0  0.82529115441E+00 -0.17092801684E+02 -0.39884558900E+02  0.43400725956E+02  0.00000000000E+00 0.  1.
         11    1    3    3    0    0 -0.38603395902E+01 -0.21383804349E+00  0.50749715046E+01  0.63799125773E+01  0.51100000000E-03 0. -1.
        -11    1    3    3    0    0 -0.14281545127E+01  0.17248618388E+01 -0.72249043498E+00  0.23530334390E+01  0.51100000000E-03 0.  1.
         12    1    3    3    0    0  0.44632029485E+01  0.15581777888E+02  0.35532077830E+02  0.39054328027E+02  0.00000000000E+00 0. -1.
</event>
<event>
 7    1  0.4031943E-009  0.4778727E+02  0.7816164E-02  0.1312668E+00
        -11   -1    0    0    0    0  0.00000000000E+00  0.00000000000E+00  0.45593999997E+02  0.45594000000E+02  0.51100000000E-03 0. -1.
         11   -1    0    0    0    0 -0.00000000000E+00 -0.00000000000E+00 -0.45593999997E+02  0.45594000000E+02  0.51100000000E-03 0.  1.
    9900012    2    1    2    0    0 -0.35284959749E+02  0.14441225019E+02 -0.20737546552E+02  0.47787271877E+02  0.20000003797E+02 0.  0.
        -12    1    1    2    0    0  0.35284959749E+02 -0.14441225019E+02  0.20737546552E+02  0.43400728123E+02  0.00000000000E+00 0.  1.
         11    1    3    3    0    0 -0.13673637057E+02 -0.35155126725E+01 -0.61623872979E+01  0.15404616100E+02  0.51100000000E-03 0. -1.
        -11    1    3    3    0    0 -0.54989534206E+01  0.53742231329E+01 -0.79798579829E+00  0.77303004210E+01  0.51100000000E-03 0.  1.
         12    1    3    3    0    0 -0.16112369272E+02  0.12582514559E+02 -0.13777173456E+02  0.24652355356E+02  0.00000000000E+00 0. -1.
</event>
<event>
 7    1  0.4031943E-009  0.4778730E+02  0.7816164E-02  0.1312668E+00
        -11   -1    0    0    0    0  0.00000000000E+00  0.00000000000E+00  0.45593999997E+02  0.45594000000E+02  0.51100000000E-03 0.  1.
         11   -1    0    0    0    0 -0.00000000000E+00 -0.00000000000E+00 -0.45593999997E+02  0.45594000000E+02  0.51100000000E-03 0. -1.
    9900012    2    1    2    0    0  0.13443330361E+02 -0.32169635398E+02 -0.25845931414E+02  0.47787300196E+02  0.20000132912E+02 0.  0.
        -12    1    1    2    0    0 -0.13443330361E+02  0.32169635398E+02  0.25845931414E+02  0.43400699804E+02  0.00000000000E+00 0.  1.
         11    1    3    3    0    0  0.82878259330E+00  0.80205256881E+00  0.27750635905E-01  0.11536634124E+01  0.51100000000E-03 0. -1.
        -11    1    3    3    0    0  0.76222156743E+01 -0.27649478220E+01 -0.66086607921E+01  0.10460282308E+02  0.51100000000E-03 0.  1.
         12    1    3    3    0    0  0.49923320933E+01 -0.30206740145E+02 -0.19265021258E+02  0.36173354475E+02  0.00000000000E+00 0. -1.
</event>
<event>
 7    1  0.4031943E-009  0.4778723E+02  0.7816164E-02  0.1312668E+00
        -11   -1    0    0    0    0  0.00000000000E+00  0.00000000000E+00  0.45593999997E+02  0.45594000000E+02  0.51100000000E-03 0.  1.
         11   -1    0    0    0    0 -0.00000000000E+00 -0.00000000000E+00 -0.45593999997E+02  0.45594000000E+02  0.51100000000E-03 0. -1.
    9900012    2    1    2    0    0 -0.19324417719E+02  0.38223700692E+02  0.70101704370E+01  0.47787229220E+02  0.19999809305E+02 0.  0.
        -12    1    1    2    0    0  0.19324417719E+02 -0.38223700692E+02 -0.70101704370E+01  0.43400770780E+02  0.00000000000E+00 0.  1.
         11    1    3    3    0    0 -0.12885757382E+02  0.14007693321E+02  0.38897963962E+01  0.19426495612E+02  0.51100000000E-03 0. -1.
        -11    1    3    3    0    0 -0.69414125528E+01  0.42263807556E+01  0.17828685984E+01  0.83201035583E+01  0.51100000000E-03 0.  1.
        -12    1    3    3    0    0  0.50275221578E+00  0.19989626614E+02  0.13375054423E+01  0.20040630050E+02  0.00000000000E+00 0.  1.
</event>
<event>
 7    1  0.4031943E-009  0.4778727E+02  0.7816164E-02  0.1312668E+00
        -11   -1    0    0    0    0  0.00000000000E+00  0.00000000000E+00  0.45593999997E+02  0.45594000000E+02  0.51100000000E-03 0. -1.
         11   -1    0    0    0    0 -0.00000000000E+00 -0.00000000000E+00 -0.45593999997E+02  0.45594000000E+02  0.51100000000E-03 0.  1.
    9900012    2    1    2    0    0 -0.59603013639E+01  0.63599535422E+01  0.42516457544E+02  0.47787270012E+02  0.19999995292E+02 0.  0.
        -12    1    1    2    0    0  0.59603013639E+01 -0.63599535422E+01 -0.42516457544E+02  0.43400729988E+02  0.00000000000E+00 0.  1.
         11    1    3    3    0    0  0.11328432865E+01  0.23683258312E+00 -0.11601018021E+01  0.16386763062E+01  0.51100000000E-03 0. -1.
        -11    1    3    3    0    0 -0.71693675556E+01  0.87368255967E+01  0.27026008944E+02  0.29293977408E+02  0.51100000000E-03 0.  1.
         12    1    3    3    0    0  0.76222905251E-01 -0.26137046377E+01  0.16650550402E+02  0.16854616298E+02  0.00000000000E+00 0. -1.
</event>
<event>
 7    1  0.4031943E-009  0.4778727E+02  0.7816164E-02  0.1312668E+00
        -11   -1    0    0    0    0  0.00000000000E+00  0.00000000000E+00  0.45593999997E+02  0.45594000000E+02  0.51100000000E-03 0.  1.
         11   -1    0    0    0    0 -0.00000000000E+00 -0.00000000000E+00 -0.45593999997E+02  0.45594000000E+02  0.51100000000E-03 0. -1.
    9900012    2    1    2    0    0  0.51310561124E+00 -0.43206496408E+02 -0.40692276092E+01  0.47787271636E+02  0.20000002697E+02 0.  0.
        -12    1    1    2    0    0 -0.51310561124E+00  0.43206496408E+02  0.40692276092E+01  0.43400728364E+02  0.00000000000E+00 0.  1.
         11    1    3    3    0    0 -0.32074341565E+01 -0.88549591505E+01 -0.52075098840E+01  0.10761788647E+02  0.51100000000E-03 0. -1.
        -11    1    3    3    0    0 -0.58643168862E+00 -0.14244599879E+02  0.66576649542E+01  0.15734580730E+02  0.51100000000E-03 0.  1.
         12    1    3    3    0    0  0.43069714563E+01 -0.20106937378E+02 -0.55193826794E+01  0.21290902259E+02  0.00000000000E+00 0. -1.
</event>
<event>
 7    1  0.4031943E-009  0.4778727E+02  0.7816164E-02  0.1312668E+00
        -11   -1    0    0    0    0  0.00000000000E+00  0.00000000000E+00  0.45593999997E+02  0.45594000000E+02  0.51100000000E-03 0.  1.
         11   -1    0    0    0    0 -0.00000000000E+00 -0.00000000000E+00 -0.45593999997E+02  0.45594000000E+02  0.51100000000E-03 0. -1.
    9900012    2    1    2    0    0  0.19516864397E+02 -0.17472089882E+02 -0.34604068690E+02  0.47787268548E+02  0.19999988616E+02 0.  0.
        -12    1    1    2    0    0 -0.19516864397E+02  0.17472089882E+02  0.34604068690E+02  0.43400731452E+02  0.00000000000E+00 0.  1.
         11    1    3    3    0    0  0.10432126235E+02 -0.14031879069E+01 -0.91545348565E+01  0.13950043111E+02  0.51100000000E-03 0. -1.
        -11    1    3    3    0    0  0.47611563122E-01 -0.41772407941E+01  0.17096399803E+00  0.41810090244E+01  0.51100000000E-03 0.  1.
         12    1    3    3    0    0  0.90371265984E+01 -0.11891661181E+02 -0.25620497831E+02  0.29656216413E+02  0.00000000000E+00 0. -1.
</event>
<event>
 7    1  0.4031943E-009  0.4778727E+02  0.7816164E-02  0.1312668E+00
        -11   -1    0    0    0    0  0.00000000000E+00  0.00000000000E+00  0.45593999997E+02  0.45594000000E+02  0.51100000000E-03 0.  1.
         11   -1    0    0    0    0 -0.00000000000E+00 -0.00000000000E+00 -0.45593999997E+02  0.45594000000E+02  0.51100000000E-03 0. -1.
    9900012    2    1    2    0    0 -0.45633932018E+01 -0.43138944707E+02  0.13528453537E+01  0.47787270760E+02  0.19999998705E+02 0.  0.
        -12    1    1    2    0    0  0.45633932018E+01  0.43138944707E+02 -0.13528453537E+01  0.43400729240E+02  0.00000000000E+00 0.  1.
         11    1    3    3    0    0 -0.31614710179E+00 -0.98138010607E+00 -0.84836298673E+00  0.13352063215E+01  0.51100000000E-03 0. -1.
        -11    1    3    3    0    0 -0.10345795251E+02 -0.13182002768E+02  0.16295113855E+01  0.16836151103E+02  0.51100000000E-03 0.  1.
         12    1    3    3    0    0  0.60985491513E+01 -0.28975561833E+02  0.57169695493E+00  0.29615913336E+02  0.00000000000E+00 0. -1.
</event>
<event>
 7    1  0.4031943E-009  0.4778724E+02  0.7816164E-02  0.1312668E+00
        -11   -1    0    0    0    0  0.00000000000E+00  0.00000000000E+00  0.45593999997E+02  0.45594000000E+02  0.51100000000E-03 0.  1.
         11   -1    0    0    0    0 -0.00000000000E+00 -0.00000000000E+00 -0.45593999997E+02  0.45594000000E+02  0.51100000000E-03 0. -1.
    9900012    2    1    2    0    0  0.24908078977E+02 -0.19607131571E+02 -0.29644120540E+02  0.47787240913E+02  0.19999862618E+02 0.  0.
        -12    1    1    2    0    0 -0.24908078977E+02  0.19607131571E+02  0.29644120540E+02  0.43400759087E+02  0.00000000000E+00 0.  1.
         11    1    3    3    0    0  0.11134286625E+02 -0.77497081789E+01 -0.17884904127E+02  0.22447719514E+02  0.51100000000E-03 0. -1.
        -11    1    3    3    0    0  0.76797119170E+01  0.35158717377E+00 -0.81944764976E+01  0.11236148539E+02  0.51100000000E-03 0.  1.
         12    1    3    3    0    0  0.60940804348E+01 -0.12209010566E+02 -0.35647399154E+01  0.14103372859E+02  0.00000000000E+00 0. -1.
</event>
<event>
 7    1  0.4031943E-009  0.4778728E+02  0.7816164E-02  0.1312668E+00
        -11   -1    0    0    0    0  0.00000000000E+00  0.00000000000E+00  0.45593999997E+02  0.45594000000E+02  0.51100000000E-03 0.  1.
         11   -1    0    0    0    0 -0.00000000000E+00 -0.00000000000E+00 -0.45593999997E+02  0.45594000000E+02  0.51100000000E-03 0. -1.
    9900012    2    1    2    0    0  0.30216344511E+02 -0.31150232143E+02  0.50771832573E+00  0.47787283231E+02  0.20000055563E+02 0.  0.
        -12    1    1    2    0    0 -0.30216344511E+02  0.31150232143E+02 -0.50771832573E+00  0.43400716769E+02  0.00000000000E+00 0.  1.
         11    1    3    3    0    0  0.27729480363E+02 -0.27485349647E+02 -0.55691544940E+01  0.39438357072E+02  0.51100000000E-03 0. -1.
        -11    1    3    3    0    0 -0.35400708999E+00 -0.15293148224E+01  0.34908663895E+00  0.16081003042E+01  0.51100000000E-03 0.  1.
        -12    1    3    3    0    0  0.28408712375E+01 -0.21355676734E+01  0.57277861808E+01  0.67408258551E+01  0.00000000000E+00 0.  1.
</event>
<event>
 7    1  0.4031943E-009  0.4778727E+02  0.7816164E-02  0.1312668E+00
        -11   -1    0    0    0    0  0.00000000000E+00  0.00000000000E+00  0.45593999997E+02  0.45594000000E+02  0.51100000000E-03 0. -1.
         11   -1    0    0    0    0 -0.00000000000E+00 -0.00000000000E+00 -0.45593999997E+02  0.45594000000E+02  0.51100000000E-03 0.  1.
    9900012    2    1    2    0    0  0.41733751509E+02  0.94239836087E+01  0.72873929148E+01  0.47787267546E+02  0.19999984047E+02 0.  0.
        -12    1    1    2    0    0 -0.41733751509E+02 -0.94239836087E+01 -0.72873929148E+01  0.43400732454E+02  0.00000000000E+00 0.  1.
         11    1    3    3    0    0  0.32290227240E+02  0.12859471986E+02  0.86799847918E+01  0.35824111032E+02  0.51100000000E-03 0. -1.
        -11    1    3    3    0    0  0.85663674634E+01 -0.15585096269E+01  0.10388374614E+01  0.87687392086E+01  0.51100000000E-03 0.  1.
        -12    1    3    3    0    0  0.87715680568E+00 -0.18769787504E+01 -0.24314293385E+01  0.31944173051E+01  0.00000000000E+00 0.  1.
</event>
<event>
 7    1  0.4031943E-009  0.4778727E+02  0.7816164E-02  0.1312668E+00
        -11   -1    0    0    0    0  0.00000000000E+00  0.00000000000E+00  0.45593999997E+02  0.45594000000E+02  0.51100000000E-03 0. -1.
         11   -1    0    0    0    0 -0.00000000000E+00 -0.00000000000E+00 -0.45593999997E+02  0.45594000000E+02  0.51100000000E-03 0.  1.
    9900012    2    1    2    0    0 -0.24774376671E+02  0.13401078925E+02  0.33019154808E+02  0.47787271434E+02  0.20000001777E+02 0.  0.
        -12    1    1    2    0    0  0.24774376671E+02 -0.13401078925E+02 -0.33019154808E+02  0.43400728566E+02  0.00000000000E+00 0.  1.
         11    1    3    3    0    0 -0.61843326856E+01  0.28684064469E+01  0.15224574533E+02  0.16681168912E+02  0.51100000000E-03 0. -1.
        -11    1    3    3    0    0 -0.29957692567E+01  0.56699974686E+01 -0.67643284186E+00  0.64483382653E+01  0.51100000000E-03 0.  1.
        -12    1    3    3    0    0 -0.15594274729E+02  0.48626750092E+01  0.18471013117E+02  0.24657764257E+02  0.00000000000E+00 0.  1.
</event>
<event>
 7    1  0.4031943E-009  0.4778727E+02  0.7816164E-02  0.1312668E+00
        -11   -1    0    0    0    0  0.00000000000E+00  0.00000000000E+00  0.45593999997E+02  0.45594000000E+02  0.51100000000E-03 0.  1.
         11   -1    0    0    0    0 -0.00000000000E+00 -0.00000000000E+00 -0.45593999997E+02  0.45594000000E+02  0.51100000000E-03 0. -1.
    9900012    2    1    2    0    0 -0.27146495900E+02  0.39782581410E+01 -0.33628327437E+02  0.47787272083E+02  0.20000004736E+02 0.  0.
        -12    1    1    2    0    0  0.27146495900E+02 -0.39782581410E+01  0.33628327437E+02  0.43400727917E+02  0.00000000000E+00 0.  1.
         11    1    3    3    0    0  0.85865929836E+00  0.78248946174E-02  0.23085951322E+00  0.88918692950E+00  0.51100000000E-03 0. -1.
        -11    1    3    3    0    0  0.11193549691E+01  0.27908866672E+01 -0.15478588496E+01  0.33819921963E+01  0.51100000000E-03 0.  1.
         12    1    3    3    0    0 -0.29124510167E+02  0.11795465791E+01 -0.32311328101E+02  0.43516092957E+02  0.00000000000E+00 0. -1.
</event>
<event>
 7    1  0.4031943E-009  0.4778727E+02  0.7816164E-02  0.1312668E+00
        -11   -1    0    0    0    0  0.00000000000E+00  0.00000000000E+00  0.45593999997E+02  0.45594000000E+02  0.51100000000E-03 0.  1.
         11   -1    0    0    0    0 -0.00000000000E+00 -0.00000000000E+00 -0.45593999997E+02  0.45594000000E+02  0.51100000000E-03 0. -1.
    9900012    2    1    2    0    0 -0.50712779542E+01  0.30670022569E+02 -0.30286225114E+02  0.47787267562E+02  0.19999984122E+02 0.  0.
        -12    1    1    2    0    0  0.50712779542E+01 -0.30670022569E+02  0.30286225114E+02  0.43400732438E+02  0.00000000000E+00 0.  1.
         11    1    3    3    0    0 -0.57736175686E+01  0.31350214673E+02 -0.26351256790E+02  0.41358909011E+02  0.51100000000E-03 0. -1.
        -11    1    3    3    0    0 -0.19487729000E+01 -0.49760682529E+00 -0.29989041297E+01  0.36109215733E+01  0.51100000000E-03 0.  1.
         12    1    3    3    0    0  0.26511125144E+01 -0.18258527875E+00 -0.93606419407E+00  0.28174369777E+01  0.00000000000E+00 0. -1.
</event>
<event>
 7    1  0.4031943E-009  0.4778728E+02  0.7816164E-02  0.1312668E+00
        -11   -1    0    0    0    0  0.00000000000E+00  0.00000000000E+00  0.45593999997E+02  0.45594000000E+02  0.51100000000E-03 0.  1.
         11   -1    0    0    0    0 -0.00000000000E+00 -0.00000000000E+00 -0.45593999997E+02  0.45594000000E+02  0.51100000000E-03 0. -1.
    9900012    2    1    2    0    0  0.45350249964E+01 -0.90387585250E+01 -0.42206126777E+02  0.47787277138E+02  0.20000027785E+02 0.  0.
        -12    1    1    2    0    0 -0.45350249964E+01  0.90387585250E+01  0.42206126777E+02  0.43400722862E+02  0.00000000000E+00 0.  1.
         11    1    3    3    0    0  0.48241307473E+01 -0.30687797990E-01 -0.36335150007E+02  0.36654008041E+02  0.51100000000E-03 0. -1.
        -11    1    3    3    0    0 -0.94875279084E+00 -0.12366667244E+01 -0.40865968284E+00  0.16113595014E+01  0.51100000000E-03 0.  1.
         12    1    3    3    0    0  0.65964703993E+00 -0.77714040026E+01 -0.54623170875E+01  0.95219095960E+01  0.00000000000E+00 0. -1.
</event>
<event>
 7    1  0.4031943E-009  0.4778728E+02  0.7816164E-02  0.1312668E+00
        -11   -1    0    0    0    0  0.00000000000E+00  0.00000000000E+00  0.45593999997E+02  0.45594000000E+02  0.51100000000E-03 0.  1.
         11   -1    0    0    0    0 -0.00000000000E+00 -0.00000000000E+00 -0.45593999997E+02  0.45594000000E+02  0.51100000000E-03 0. -1.
    9900012    2    1    2    0    0  0.11678462669E+01 -0.20701093515E+02 -0.38127729520E+02  0.47787275398E+02  0.20000019850E+02 0.  0.
        -12    1    1    2    0    0 -0.11678462669E+01  0.20701093515E+02  0.38127729520E+02  0.43400724602E+02  0.00000000000E+00 0.  1.
         11    1    3    3    0    0 -0.28560691491E+01 -0.12986837644E+02 -0.14893870599E+02  0.19966032772E+02  0.51100000000E-03 0. -1.
        -11    1    3    3    0    0 -0.13373809379E+01 -0.89706511424E+01 -0.18314766459E+02  0.20437510621E+02  0.51100000000E-03 0.  1.
        -12    1    3    3    0    0  0.53612963540E+01  0.12563952707E+01 -0.49190924624E+01  0.73837320052E+01  0.00000000000E+00 0.  1.
</event>
<event>
 7    1  0.4031943E-009  0.4778727E+02  0.7816164E-02  0.1312668E+00
        -11   -1    0    0    0    0  0.00000000000E+00  0.00000000000E+00  0.45593999997E+02  0.45594000000E+02  0.51100000000E-03 0. -1.
         11   -1    0    0    0    0 -0.00000000000E+00 -0.00000000000E+00 -0.45593999997E+02  0.45594000000E+02  0.51100000000E-03 0.  1.
    9900012    2    1    2    0    0 -0.39625599522E+02  0.16138545245E+02  0.72789182503E+01  0.47787269235E+02  0.19999991748E+02 0.  0.
        -12    1    1    2    0    0  0.39625599522E+02 -0.16138545245E+02 -0.72789182503E+01  0.43400730765E+02  0.00000000000E+00 0.  1.
         11    1    3    3    0    0 -0.91498589925E+01  0.24415624599E+01 -0.15091819462E+01  0.95895139207E+01  0.51100000000E-03 0.  1.
        -11    1    3    3    0    0 -0.23757759996E+02  0.17303814870E+02  0.55359822666E+01  0.29908197355E+02  0.51100000000E-03 0. -1.
         12    1    3    3    0    0 -0.67179805329E+01 -0.36068320849E+01  0.32521179299E+01  0.82895579592E+01  0.00000000000E+00 0. -1.
</event>
<event>
 7    1  0.4031943E-009  0.4778727E+02  0.7816164E-02  0.1312668E+00
        -11   -1    0    0    0    0  0.00000000000E+00  0.00000000000E+00  0.45593999997E+02  0.45594000000E+02  0.51100000000E-03 0. -1.
         11   -1    0    0    0    0 -0.00000000000E+00 -0.00000000000E+00 -0.45593999997E+02  0.45594000000E+02  0.51100000000E-03 0.  1.
    9900012    2    1    2    0    0  0.31889527315E+02  0.29209645580E+02  0.36712733384E+01  0.47787267342E+02  0.19999983121E+02 0.  0.
        -12    1    1    2    0    0 -0.31889527315E+02 -0.29209645580E+02 -0.36712733384E+01  0.43400732658E+02  0.00000000000E+00 0.  1.
         11    1    3    3    0    0  0.18350829918E+01  0.74775181529E+01  0.52554990140E+01  0.93220747402E+01  0.51100000000E-03 0. -1.
        -11    1    3    3    0    0  0.97834235247E+01  0.29772156996E+01  0.25541210149E+01  0.10540527672E+02  0.51100000000E-03 0.  1.
         12    1    3    3    0    0  0.20271020799E+02  0.18754911727E+02 -0.41383466905E+01  0.27924664930E+02  0.00000000000E+00 0. -1.
</event>
<event>
 7    1  0.4031943E-009  0.4778726E+02  0.7816164E-02  0.1312668E+00
        -11   -1    0    0    0    0  0.00000000000E+00  0.00000000000E+00  0.45593999997E+02  0.45594000000E+02  0.51100000000E-03 0.  1.
         11   -1    0    0    0    0 -0.00000000000E+00 -0.00000000000E+00 -0.45593999997E+02  0.45594000000E+02  0.51100000000E-03 0. -1.
    9900012    2    1    2    0    0  0.21750239943E+02  0.11685812904E+02 -0.35693035333E+02  0.47787263462E+02  0.19999965427E+02 0.  0.
        -12    1    1    2    0    0 -0.21750239943E+02 -0.11685812904E+02  0.35693035333E+02  0.43400736538E+02  0.00000000000E+00 0.  1.
         11    1    3    3    0    0  0.18136727212E+02  0.99401213343E+01 -0.19373572107E+02  0.28338704673E+02  0.51100000000E-03 0. -1.
        -11    1    3    3    0    0  0.34289655014E+01  0.47094607508E+01 -0.15194721821E+02  0.16273180281E+02  0.51100000000E-03 0.  1.
        -12    1    3    3    0    0  0.18454722982E+00 -0.29637691810E+01 -0.11247414044E+01  0.31753785074E+01  0.00000000000E+00 0.  1.
</event>
<event>
 7    1  0.4031943E-009  0.4778727E+02  0.7816164E-02  0.1312668E+00
        -11   -1    0    0    0    0  0.00000000000E+00  0.00000000000E+00  0.45593999997E+02  0.45594000000E+02  0.51100000000E-03 0.  1.
         11   -1    0    0    0    0 -0.00000000000E+00 -0.00000000000E+00 -0.45593999997E+02  0.45594000000E+02  0.51100000000E-03 0. -1.
    9900012    2    1    2    0    0  0.36470832374E+02 -0.14767350254E+02 -0.18314666751E+02  0.47787271138E+02  0.20000000425E+02 0.  0.
        -12    1    1    2    0    0 -0.36470832374E+02  0.14767350254E+02  0.18314666751E+02  0.43400728862E+02  0.00000000000E+00 0.  1.
         11    1    3    3    0    0  0.12756543273E+02 -0.94318718952E+01 -0.49957824373E+01  0.16632722151E+02  0.51100000000E-03 0. -1.
        -11    1    3    3    0    0  0.19312508751E+01  0.65090043035E+00 -0.75760464968E+01  0.78453732923E+01  0.51100000000E-03 0.  1.
         12    1    3    3    0    0  0.21783038226E+02 -0.59863787892E+01 -0.57428378166E+01  0.23309175694E+02  0.00000000000E+00 0. -1.
</event>
<event>
 7    1  0.4031943E-009  0.4778727E+02  0.7816164E-02  0.1312668E+00
        -11   -1    0    0    0    0  0.00000000000E+00  0.00000000000E+00  0.45593999997E+02  0.45594000000E+02  0.51100000000E-03 0.  1.
         11   -1    0    0    0    0 -0.00000000000E+00 -0.00000000000E+00 -0.45593999997E+02  0.45594000000E+02  0.51100000000E-03 0. -1.
    9900012    2    1    2    0    0  0.25994036879E+02  0.22162533082E+01 -0.34684605526E+02  0.47787267374E+02  0.19999983263E+02 0.  0.
        -12    1    1    2    0    0 -0.25994036879E+02 -0.22162533082E+01  0.34684605526E+02  0.43400732626E+02  0.00000000000E+00 0.  1.
         11    1    3    3    0    0  0.29350176985E+01 -0.61263974842E+01 -0.73936839738E+01  0.10040599484E+02  0.51100000000E-03 0.  1.
        -11    1    3    3    0    0  0.46957339988E+01 -0.10254708278E+01 -0.89266148253E+01  0.10138341122E+02  0.51100000000E-03 0. -1.
        -12    1    3    3    0    0  0.18363285182E+02  0.93681216202E+01 -0.18364306727E+02  0.27608326768E+02  0.00000000000E+00 0.  1.
</event>
<event>
 7    1  0.4031943E-009  0.4778728E+02  0.7816164E-02  0.1312668E+00
        -11   -1    0    0    0    0  0.00000000000E+00  0.00000000000E+00  0.45593999997E+02  0.45594000000E+02  0.51100000000E-03 0.  1.
         11   -1    0    0    0    0 -0.00000000000E+00 -0.00000000000E+00 -0.45593999997E+02  0.45594000000E+02  0.51100000000E-03 0. -1.
    9900012    2    1    2    0    0 -0.35839288632E+02 -0.23593234410E+02 -0.65212928404E+01  0.47787279040E+02  0.20000036455E+02 0.  0.
        -12    1    1    2    0    0  0.35839288632E+02  0.23593234410E+02  0.65212928404E+01  0.43400720960E+02  0.00000000000E+00 0.  1.
         11    1    3    3    0    0 -0.12422764610E+01 -0.49451714932E+01 -0.22079650144E+00  0.51035990496E+01  0.51100000000E-03 0. -1.
        -11    1    3    3    0    0 -0.16146862089E+02 -0.85969568055E+01  0.48126142144E+01  0.18915339740E+02  0.51100000000E-03 0.  1.
         12    1    3    3    0    0 -0.18450150081E+02 -0.10051106111E+02 -0.11113110553E+02  0.23768340250E+02  0.00000000000E+00 0. -1.
</event>
<event>
 7    1  0.4031943E-009  0.4778727E+02  0.7816164E-02  0.1312668E+00
        -11   -1    0    0    0    0  0.00000000000E+00  0.00000000000E+00  0.45593999997E+02  0.45594000000E+02  0.51100000000E-03 0. -1.
         11   -1    0    0    0    0 -0.00000000000E+00 -0.00000000000E+00 -0.45593999997E+02  0.45594000000E+02  0.51100000000E-03 0.  1.
    9900012    2    1    2    0    0  0.22962949710E+02 -0.18146061028E+02  0.32047568775E+02  0.47787271266E+02  0.20000001012E+02 0.  0.
        -12    1    1    2    0    0 -0.22962949710E+02  0.18146061028E+02 -0.32047568775E+02  0.43400728734E+02  0.00000000000E+00 0.  1.
         11    1    3    3    0    0  0.32238728529E+01 -0.53592438512E+01  0.57275350714E+01  0.84805370752E+01  0.51100000000E-03 0. -1.
        -11    1    3    3    0    0  0.97673420541E+01 -0.17708565319E+01  0.21507784393E+02  0.23688007376E+02  0.51100000000E-03 0.  1.
        -12    1    3    3    0    0  0.99717348028E+01 -0.11015960645E+02  0.48122493103E+01  0.15618726815E+02  0.00000000000E+00 0.  1.
</event>
<event>
 7    1  0.4031943E-009  0.4778727E+02  0.7816164E-02  0.1312668E+00
        -11   -1    0    0    0    0  0.00000000000E+00  0.00000000000E+00  0.45593999997E+02  0.45594000000E+02  0.51100000000E-03 0.  1.
         11   -1    0    0    0    0 -0.00000000000E+00 -0.00000000000E+00 -0.45593999997E+02  0.45594000000E+02  0.51100000000E-03 0. -1.
    9900012    2    1    2    0    0 -0.10740211306E+01 -0.31169482427E+02 -0.30181670012E+02  0.47787270043E+02  0.19999995432E+02 0.  0.
        -12    1    1    2    0    0  0.10740211306E+01  0.31169482427E+02  0.30181670012E+02  0.43400729957E+02  0.00000000000E+00 0.  1.
         11    1    3    3    0    0 -0.38066909856E+00  0.10821078360E+01 -0.20280354863E+01  0.23299773660E+01  0.51100000000E-03 0. -1.
        -11    1    3    3    0    0 -0.58409025917E+01 -0.18249197959E+02 -0.22375915257E+02  0.29458970673E+02  0.51100000000E-03 0.  1.
         12    1    3    3    0    0  0.51475505597E+01 -0.14002392304E+02 -0.57777192679E+01  0.15998322003E+02  0.00000000000E+00 0. -1.
</event>
<event>
 7    1  0.4031943E-009  0.4778727E+02  0.7816164E-02  0.1312668E+00
        -11   -1    0    0    0    0  0.00000000000E+00  0.00000000000E+00  0.45593999997E+02  0.45594000000E+02  0.51100000000E-03 0.  1.
         11   -1    0    0    0    0 -0.00000000000E+00 -0.00000000000E+00 -0.45593999997E+02  0.45594000000E+02  0.51100000000E-03 0. -1.
    9900012    2    1    2    0    0 -0.10997788548E+02  0.33275070821E+02 -0.25601596026E+02  0.47787269474E+02  0.19999992840E+02 0.  0.
        -12    1    1    2    0    0  0.10997788548E+02 -0.33275070821E+02  0.25601596026E+02  0.43400730526E+02  0.00000000000E+00 0.  1.
         11    1    3    3    0    0 -0.78125229929E+01  0.14924157022E+02 -0.21590721470E+02  0.27384762774E+02  0.51100000000E-03 0. -1.
        -11    1    3    3    0    0  0.19744545489E+01  0.47736084015E+01 -0.26728224217E+01  0.58163380142E+01  0.51100000000E-03 0.  1.
         12    1    3    3    0    0 -0.51597201043E+01  0.13577305397E+02 -0.13380521341E+01  0.14586168685E+02  0.00000000000E+00 0. -1.
</event>
<event>
 7    1  0.4031943E-009  0.4778727E+02  0.7816164E-02  0.1312668E+00
        -11   -1    0    0    0    0  0.00000000000E+00  0.00000000000E+00  0.45593999997E+02  0.45594000000E+02  0.51100000000E-03 0. -1.
         11   -1    0    0    0    0 -0.00000000000E+00 -0.00000000000E+00 -0.45593999997E+02  0.45594000000E+02  0.51100000000E-03 0.  1.
    9900012    2    1    2    0    0  0.10721209979E+02  0.29998268945E+02  0.29475122652E+02  0.47787270300E+02  0.19999996608E+02 0.  0.
        -12    1    1    2    0    0 -0.10721209979E+02 -0.29998268945E+02 -0.29475122652E+02  0.43400729700E+02  0.00000000000E+00 0.  1.
         11    1    3    3    0    0  0.27686718979E+01  0.10018072046E+02  0.15257488790E+02  0.18461264205E+02  0.51100000000E-03 0. -1.
        -11    1    3    3    0    0 -0.62527522741E+00  0.14049321596E+02  0.12381602569E+02  0.18737088591E+02  0.51100000000E-03 0.  1.
        -12    1    3    3    0    0  0.85778133086E+01  0.59308753033E+01  0.18360312924E+01  0.10588917505E+02  0.00000000000E+00 0.  1.
</event>
<event>
 7    1  0.4031943E-009  0.4778725E+02  0.7816164E-02  0.1312668E+00
        -11   -1    0    0    0    0  0.00000000000E+00  0.00000000000E+00  0.45593999997E+02  0.45594000000E+02  0.51100000000E-03 0.  1.
         11   -1    0    0    0    0 -0.00000000000E+00 -0.00000000000E+00 -0.45593999997E+02  0.45594000000E+02  0.51100000000E-03 0. -1.
    9900012    2    1    2    0    0  0.32418560450E+02 -0.49053324640E+01  0.28435886505E+02  0.47787251279E+02  0.19999909880E+02 0.  0.
        -12    1    1    2    0    0 -0.32418560450E+02  0.49053324640E+01 -0.28435886505E+02  0.43400748721E+02  0.00000000000E+00 0.  1.
         11    1    3    3    0    0  0.14900909345E+02 -0.51612324969E+00  0.11678716549E+02  0.18939268809E+02  0.51100000000E-03 0. -1.
        -11    1    3    3    0    0  0.12699274093E+02 -0.48617507006E+01  0.19118656181E+02  0.23461270144E+02  0.51100000000E-03 0.  1.
         12    1    3    3    0    0  0.48183770117E+01  0.47254148630E+00 -0.23614862249E+01  0.53867123251E+01  0.00000000000E+00 0. -1.
</event>
<event>
 7    1  0.5635737E-009  0.4778727E+02  0.7816164E-02  0.1312668E+00
        -11   -1    0    0    0    0  0.00000000000E+00  0.00000000000E+00  0.45593999997E+02  0.45594000000E+02  0.51100000000E-03 0.  1.
         11   -1    0    0    0    0 -0.00000000000E+00 -0.00000000000E+00 -0.45593999997E+02  0.45594000000E+02  0.51100000000E-03 0. -1.
    9900012    2    1    2    0    0 -0.11316680376E+02 -0.41759849111E+02 -0.34162841075E+01  0.47787271324E+02  0.20000001274E+02 0.  0.
        -12    1    1    2    0    0  0.11316680376E+02  0.41759849111E+02  0.34162841075E+01  0.43400728676E+02  0.00000000000E+00 0.  1.
         11    1    3    3    0    0 -0.42847113458E+01 -0.22843949581E+02 -0.38720940631E+00  0.23245531079E+02  0.51100000000E-03 0. -1.
        -11    1    3    3    0    0 -0.71176446684E+01 -0.19016465367E+02 -0.63064843509E+01  0.21261668933E+02  0.51100000000E-03 0.  1.
        -12    1    3    3    0    0  0.85675637782E-01  0.10056583634E+00  0.32774096497E+01  0.32800713124E+01  0.00000000000E+00 0.  1.
</event>
<event>
 7    1  0.4031943E-009  0.4778727E+02  0.7816164E-02  0.1312668E+00
        -11   -1    0    0    0    0  0.00000000000E+00  0.00000000000E+00  0.45593999997E+02  0.45594000000E+02  0.51100000000E-03 0.  1.
         11   -1    0    0    0    0 -0.00000000000E+00 -0.00000000000E+00 -0.45593999997E+02  0.45594000000E+02  0.51100000000E-03 0. -1.
    9900012    2    1    2    0    0  0.31655458465E+02 -0.29516947164E+02  0.32101106116E+01  0.47787273846E+02  0.20000012773E+02 0.  0.
        -12    1    1    2    0    0 -0.31655458465E+02  0.29516947164E+02 -0.32101106116E+01  0.43400726154E+02  0.00000000000E+00 0.  1.
         11    1    3    3    0    0  0.69764601731E+01  0.25515699160E+00  0.44478772457E+01  0.82776635527E+01  0.51100000000E-03 0.  1.
        -11    1    3    3    0    0  0.36416656848E+01 -0.30888985572E+01 -0.27252987250E+01  0.54982066766E+01  0.51100000000E-03 0. -1.
         12    1    3    3    0    0  0.21037332608E+02 -0.26683205599E+02  0.14875320909E+01  0.34011403617E+02  0.00000000000E+00 0. -1.
</event>
<event>
 7    1  0.5488277E-009  0.4778727E+02  0.7816164E-02  0.1312668E+00
        -11   -1    0    0    0    0  0.00000000000E+00  0.00000000000E+00  0.45593999997E+02  0.45594000000E+02  0.51100000000E-03 0. -1.
         11   -1    0    0    0    0 -0.00000000000E+00 -0.00000000000E+00 -0.45593999997E+02  0.45594000000E+02  0.51100000000E-03 0.  1.
    9900012    2    1    2    0    0 -0.43375281636E+02 -0.14854363272E+01 -0.44111024398E-01  0.47787268165E+02  0.19999986870E+02 0.  0.
        -12    1    1    2    0    0  0.43375281636E+02  0.14854363272E+01  0.44111024398E-01  0.43400731835E+02  0.00000000000E+00 0.  1.
         11    1    3    3    0    0 -0.19508121799E+02 -0.21664983587E+01 -0.10224570664E+01  0.19654667384E+02  0.51100000000E-03 0. -1.
        -11    1    3    3    0    0 -0.80417266551E+01 -0.61417485917E+01  0.35180104631E+01  0.10712928696E+02  0.51100000000E-03 0.  1.
        -12    1    3    3    0    0 -0.15825433182E+02  0.68228106231E+01 -0.25396644211E+01  0.17419672085E+02  0.00000000000E+00 0.  1.
</event>
<event>
 7    1  0.4031943E-009  0.4778726E+02  0.7816164E-02  0.1312668E+00
        -11   -1    0    0    0    0  0.00000000000E+00  0.00000000000E+00  0.45593999997E+02  0.45594000000E+02  0.51100000000E-03 0.  1.
         11   -1    0    0    0    0 -0.00000000000E+00 -0.00000000000E+00 -0.45593999997E+02  0.45594000000E+02  0.51100000000E-03 0. -1.
    9900012    2    1    2    0    0  0.12774668878E+01 -0.37785905469E+02  0.21312377223E+02  0.47787262717E+02  0.19999962032E+02 0.  0.
        -12    1    1    2    0    0 -0.12774668878E+01  0.37785905469E+02 -0.21312377223E+02  0.43400737283E+02  0.00000000000E+00 0.  1.
         11    1    3    3    0    0 -0.61828486194E+00 -0.93923415089E+01  0.86136221646E+01  0.12759029832E+02  0.51100000000E-03 0. -1.
        -11    1    3    3    0    0 -0.41407878367E+01 -0.84156158067E+01  0.10443140620E+02  0.14036662694E+02  0.51100000000E-03 0.  1.
         12    1    3    3    0    0  0.60365395864E+01 -0.19977948154E+02  0.22556144392E+01  0.20991570192E+02  0.00000000000E+00 0. -1.
</event>
<event>
 7    1  0.4031943E-009  0.4778727E+02  0.7816164E-02  0.1312668E+00
        -11   -1    0    0    0    0  0.00000000000E+00  0.00000000000E+00  0.45593999997E+02  0.45594000000E+02  0.51100000000E-03 0.  1.
         11   -1    0    0    0    0 -0.00000000000E+00 -0.00000000000E+00 -0.45593999997E+02  0.45594000000E+02  0.51100000000E-03 0. -1.
    9900012    2    1    2    0    0  0.37390755276E+02 -0.15786121948E+02 -0.15373780260E+02  0.47787270216E+02  0.19999996222E+02 0.  0.
        -12    1    1    2    0    0 -0.37390755276E+02  0.15786121948E+02  0.15373780260E+02  0.43400729784E+02  0.00000000000E+00 0.  1.
         11    1    3    3    0    0  0.75675828466E+01 -0.13124011940E+01 -0.81085178743E+01  0.11168651190E+02  0.51100000000E-03 0. -1.
        -11    1    3    3    0    0  0.32161443812E+00 -0.27055008267E+01  0.21717402640E+01  0.34841966944E+01  0.51100000000E-03 0.  1.
         12    1    3    3    0    0  0.29501557992E+02 -0.11768219928E+02 -0.94370026501E+01  0.33134422331E+02  0.00000000000E+00 0. -1.
</event>
<event>
 7    1  0.4031943E-009  0.4778727E+02  0.7816164E-02  0.1312668E+00
        -11   -1    0    0    0    0  0.00000000000E+00  0.00000000000E+00  0.45593999997E+02  0.45594000000E+02  0.51100000000E-03 0.  1.
         11   -1    0    0    0    0 -0.00000000000E+00 -0.00000000000E+00 -0.45593999997E+02  0.45594000000E+02  0.51100000000E-03 0. -1.
    9900012    2    1    2    0    0  0.31907809122E+02  0.15585224473E+02 -0.24952269197E+02  0.47787271401E+02  0.20000001626E+02 0.  0.
        -12    1    1    2    0    0 -0.31907809122E+02 -0.15585224473E+02  0.24952269197E+02  0.43400728599E+02  0.00000000000E+00 0.  1.
         11    1    3    3    0    0  0.70533046619E+01  0.10914700681E+02 -0.13627004675E+02  0.18830163416E+02  0.51100000000E-03 0. -1.
        -11    1    3    3    0    0  0.14786585374E+01 -0.18620953651E+01 -0.92962895088E+00  0.25530453318E+01  0.51100000000E-03 0.  1.
         12    1    3    3    0    0  0.23375845923E+02  0.65326191565E+01 -0.10395635571E+02  0.26404062653E+02  0.00000000000E+00 0. -1.
</event>
<event>
 7    1  0.4031943E-009  0.4778726E+02  0.7816164E-02  0.1312668E+00
        -11   -1    0    0    0    0  0.00000000000E+00  0.00000000000E+00  0.45593999997E+02  0.45594000000E+02  0.51100000000E-03 0.  1.
         11   -1    0    0    0    0 -0.00000000000E+00 -0.00000000000E+00 -0.45593999997E+02  0.45594000000E+02  0.51100000000E-03 0. -1.
    9900012    2    1    2    0    0 -0.26163636434E+02 -0.47718354146E+01 -0.34297496414E+02  0.47787256401E+02  0.19999933233E+02 0.  0.
        -12    1    1    2    0    0  0.26163636434E+02  0.47718354146E+01  0.34297496414E+02  0.43400743599E+02  0.00000000000E+00 0.  1.
         11    1    3    3    0    0 -0.67274070871E+01 -0.38116309149E+01 -0.14510198827E+01  0.78671465798E+01  0.51100000000E-03 0. -1.
        -11    1    3    3    0    0 -0.34568030700E+01 -0.39404017806E+01 -0.32901214510E+01  0.61887925382E+01  0.51100000000E-03 0.  1.
         12    1    3    3    0    0 -0.15979426277E+02  0.29801972809E+01 -0.29556355081E+02  0.33731317283E+02  0.00000000000E+00 0. -1.
</event>
<event>
 7    1  0.4031943E-009  0.4778727E+02  0.7816164E-02  0.1312668E+00
        -11   -1    0    0    0    0  0.00000000000E+00  0.00000000000E+00  0.45593999997E+02  0.45594000000E+02  0.51100000000E-03 0.  1.
         11   -1    0    0    0    0 -0.00000000000E+00 -0.00000000000E+00 -0.45593999997E+02  0.45594000000E+02  0.51100000000E-03 0. -1.
    9900012    2    1    2    0    0  0.27907707926E+02 -0.31141554441E+02  0.11618376812E+02  0.47787271269E+02  0.20000001023E+02 0.  0.
        -12    1    1    2    0    0 -0.27907707926E+02  0.31141554441E+02 -0.11618376812E+02  0.43400728731E+02  0.00000000000E+00 0.  1.
         11    1    3    3    0    0  0.87941810904E+01 -0.12973289883E+02  0.41866332371E+01  0.16222569758E+02  0.51100000000E-03 0. -1.
        -11    1    3    3    0    0  0.13336438207E+02 -0.12176621580E+02  0.12367585897E+02  0.21888076168E+02  0.51100000000E-03 0.  1.
         12    1    3    3    0    0  0.57770886283E+01 -0.59916429782E+01 -0.49358423221E+01  0.96766253429E+01  0.00000000000E+00 0. -1.
</event>
<event>
 7    1  0.4031943E-009  0.4778728E+02  0.7816164E-02  0.1312668E+00
        -11   -1    0    0    0    0  0.00000000000E+00  0.00000000000E+00  0.45593999997E+02  0.45594000000E+02  0.51100000000E-03 0.  1.
         11   -1    0    0    0    0 -0.00000000000E+00 -0.00000000000E+00 -0.45593999997E+02  0.45594000000E+02  0.51100000000E-03 0. -1.
    9900012    2    1    2    0    0 -0.14346452958E+02  0.29768101887E+02 -0.28136488485E+02  0.47787278961E+02  0.20000036094E+02 0.  0.
        -12    1    1    2    0    0  0.14346452958E+02 -0.29768101887E+02  0.28136488485E+02  0.43400721039E+02  0.00000000000E+00 0.  1.
         11    1    3    3    0    0 -0.34622845143E+01  0.14853712946E+01  0.13880829795E+01  0.40150363087E+01  0.51100000000E-03 0.  1.
        -11    1    3    3    0    0 -0.11422917520E+02  0.18382457754E+02 -0.24386091101E+02  0.32604895908E+02  0.51100000000E-03 0. -1.
         12    1    3    3    0    0  0.53874907603E+00  0.99002728387E+01 -0.51384803634E+01  0.11167346744E+02  0.00000000000E+00 0. -1.
</event>
<event>
 7    1  0.4031943E-009  0.4778728E+02  0.7816164E-02  0.1312668E+00
        -11   -1    0    0    0    0  0.00000000000E+00  0.00000000000E+00  0.45593999997E+02  0.45594000000E+02  0.51100000000E-03 0.  1.
         11   -1    0    0    0    0 -0.00000000000E+00 -0.00000000000E+00 -0.45593999997E+02  0.45594000000E+02  0.51100000000E-03 0. -1.
    9900012    2    1    2    0    0 -0.26882881042E+02  0.34329561618E+01 -0.33899084003E+02  0.47787281373E+02  0.20000047093E+02 0.  0.
        -12    1    1    2    0    0  0.26882881042E+02 -0.34329561618E+01  0.33899084003E+02  0.43400718627E+02  0.00000000000E+00 0.  1.
         11    1    3    3    0    0 -0.18150354391E+01  0.60154151547E+00  0.11041402961E+01  0.22080153746E+01  0.51100000000E-03 0. -1.
        -11    1    3    3    0    0 -0.12008183744E+02  0.83248888167E+01 -0.21585667100E+02  0.26066094358E+02  0.51100000000E-03 0.  1.
         12    1    3    3    0    0 -0.13059661858E+02 -0.54934741703E+01 -0.13417557198E+02  0.19513171641E+02  0.00000000000E+00 0. -1.
</event>
<event>
 7    1  0.4031943E-009  0.4778727E+02  0.7816164E-02  0.1312668E+00
        -11   -1    0    0    0    0  0.00000000000E+00  0.00000000000E+00  0.45593999997E+02  0.45594000000E+02  0.51100000000E-03 0.  1.
         11   -1    0    0    0    0 -0.00000000000E+00 -0.00000000000E+00 -0.45593999997E+02  0.45594000000E+02  0.51100000000E-03 0. -1.
    9900012    2    1    2    0    0  0.16619165090E+01 -0.27662739925E+02  0.33401108456E+02  0.47787271980E+02  0.20000004265E+02 0.  0.
        -12    1    1    2    0    0 -0.16619165090E+01  0.27662739925E+02 -0.33401108456E+02  0.43400728020E+02  0.00000000000E+00 0.  1.
         11    1    3    3    0    0  0.10380090370E+01  0.85572904798E+00  0.50924501388E+01  0.52671418855E+01  0.51100000000E-03 0. -1.
        -11    1    3    3    0    0  0.25378612747E+01 -0.83786406828E+01  0.14171119438E+01  0.88685154374E+01  0.51100000000E-03 0.  1.
         12    1    3    3    0    0 -0.19139538027E+01 -0.20139828290E+02  0.26891546373E+02  0.33651614657E+02  0.00000000000E+00 0. -1.
</event>
<event>
 7    1  0.4031943E-009  0.4778727E+02  0.7816164E-02  0.1312668E+00
        -11   -1    0    0    0    0  0.00000000000E+00  0.00000000000E+00  0.45593999997E+02  0.45594000000E+02  0.51100000000E-03 0. -1.
         11   -1    0    0    0    0 -0.00000000000E+00 -0.00000000000E+00 -0.45593999997E+02  0.45594000000E+02  0.51100000000E-03 0.  1.
    9900012    2    1    2    0    0 -0.11179689756E+02 -0.38341571731E+02 -0.16987105847E+02  0.47787270157E+02  0.19999995955E+02 0.  0.
        -12    1    1    2    0    0  0.11179689756E+02  0.38341571731E+02  0.16987105847E+02  0.43400729843E+02  0.00000000000E+00 0.  1.
         11    1    3    3    0    0  0.45985972063E+01 -0.87333908839E+01 -0.38609002351E+01  0.10598384947E+02  0.51100000000E-03 0.  1.
        -11    1    3    3    0    0 -0.49241219508E+01 -0.15977814018E+02 -0.28510449582E+01  0.16960718599E+02  0.51100000000E-03 0. -1.
        -12    1    3    3    0    0 -0.10854165011E+02 -0.13630366828E+02 -0.10275160654E+02  0.20228166611E+02  0.00000000000E+00 0.  1.
</event>
<event>
 7    1  0.4031943E-009  0.4778727E+02  0.7816164E-02  0.1312668E+00
        -11   -1    0    0    0    0  0.00000000000E+00  0.00000000000E+00  0.45593999997E+02  0.45594000000E+02  0.51100000000E-03 0.  1.
         11   -1    0    0    0    0 -0.00000000000E+00 -0.00000000000E+00 -0.45593999997E+02  0.45594000000E+02  0.51100000000E-03 0. -1.
    9900012    2    1    2    0    0 -0.29908858737E+02  0.30388925369E+02 -0.80991819809E+01  0.47787269998E+02  0.19999995227E+02 0.  0.
        -12    1    1    2    0    0  0.29908858737E+02 -0.30388925369E+02  0.80991819809E+01  0.43400730002E+02  0.00000000000E+00 0.  1.
         11    1    3    3    0    0 -0.90901997822E+01  0.13657726171E+01 -0.30930948058E+01  0.96986753044E+01  0.51100000000E-03 0. -1.
        -11    1    3    3    0    0 -0.41035955365E+01  0.18418159123E+01  0.27207972141E+01  0.52568545656E+01  0.51100000000E-03 0.  1.
         12    1    3    3    0    0 -0.16715063418E+02  0.27181336839E+02 -0.77268843893E+01  0.32831740128E+02  0.00000000000E+00 0. -1.
</event>
<event>
 7    1  0.4031943E-009  0.4778729E+02  0.7816164E-02  0.1312668E+00
        -11   -1    0    0    0    0  0.00000000000E+00  0.00000000000E+00  0.45593999997E+02  0.45594000000E+02  0.51100000000E-03 0.  1.
         11   -1    0    0    0    0 -0.00000000000E+00 -0.00000000000E+00 -0.45593999997E+02  0.45594000000E+02  0.51100000000E-03 0. -1.
    9900012    2    1    2    0    0 -0.78184705324E+01  0.32626250488E+02 -0.27532177877E+02  0.47787291238E+02  0.20000092072E+02 0.  0.
        -12    1    1    2    0    0  0.78184705324E+01 -0.32626250488E+02  0.27532177877E+02  0.43400708762E+02  0.00000000000E+00 0.  1.
         11    1    3    3    0    0 -0.45796323807E+01  0.15920806145E+02 -0.11791638099E+02  0.20334400172E+02  0.51100000000E-03 0. -1.
        -11    1    3    3    0    0 -0.82738486042E+01  0.10498772568E+02 -0.54795707461E+01  0.14446677541E+02  0.51100000000E-03 0.  1.
        -12    1    3    3    0    0  0.50350104526E+01  0.62066717754E+01 -0.10260969032E+02  0.13006213525E+02  0.00000000000E+00 0.  1.
</event>
<event>
 7    1  0.4031943E-009  0.4778727E+02  0.7816164E-02  0.1312668E+00
        -11   -1    0    0    0    0  0.00000000000E+00  0.00000000000E+00  0.45593999997E+02  0.45594000000E+02  0.51100000000E-03 0.  1.
         11   -1    0    0    0    0 -0.00000000000E+00 -0.00000000000E+00 -0.45593999997E+02  0.45594000000E+02  0.51100000000E-03 0. -1.
    9900012    2    1    2    0    0 -0.74135670986E+01 -0.25207417896E+02 -0.34543432068E+02  0.47787267367E+02  0.19999983232E+02 0.  0.
        -12    1    1    2    0    0  0.74135670986E+01  0.25207417896E+02  0.34543432068E+02  0.43400732633E+02  0.00000000000E+00 0.  1.
         11    1    3    3    0    0 -0.84292788894E+00  0.11369991911E+01 -0.29593159060E+01  0.32803727652E+01  0.51100000000E-03 0. -1.
        -11    1    3    3    0    0 -0.15403972519E+01 -0.12291355985E+02 -0.37829919417E+01  0.12952269451E+02  0.51100000000E-03 0.  1.
         12    1    3    3    0    0 -0.50302419578E+01 -0.14053061102E+02 -0.27801124220E+02  0.31554625150E+02  0.00000000000E+00 0. -1.
</event>
<event>
 7    1  0.4031943E-009  0.4778727E+02  0.7816164E-02  0.1312668E+00
        -11   -1    0    0    0    0  0.00000000000E+00  0.00000000000E+00  0.45593999997E+02  0.45594000000E+02  0.51100000000E-03 0.  1.
         11   -1    0    0    0    0 -0.00000000000E+00 -0.00000000000E+00 -0.45593999997E+02  0.45594000000E+02  0.51100000000E-03 0. -1.
    9900012    2    1    2    0    0  0.44400485116E+01 -0.25090693530E+02 -0.35133548742E+02  0.47787272128E+02  0.20000004941E+02 0.  0.
        -12    1    1    2    0    0 -0.44400485116E+01  0.25090693530E+02  0.35133548742E+02  0.43400727872E+02  0.00000000000E+00 0.  1.
         11    1    3    3    0    0 -0.14924068432E+01 -0.11021721168E+02 -0.14344418261E+02  0.18151252056E+02  0.51100000000E-03 0. -1.
        -11    1    3    3    0    0 -0.40579541132E+01 -0.40959590579E+00 -0.28587221412E+01  0.49806679203E+01  0.51100000000E-03 0.  1.
        -12    1    3    3    0    0  0.99904094679E+01 -0.13659376456E+02 -0.17930408339E+02  0.24655352152E+02  0.00000000000E+00 0.  1.
</event>
<event>
 7    1  0.4031943E-009  0.4778727E+02  0.7816164E-02  0.1312668E+00
        -11   -1    0    0    0    0  0.00000000000E+00  0.00000000000E+00  0.45593999997E+02  0.45594000000E+02  0.51100000000E-03 0.  1.
         11   -1    0    0    0    0 -0.00000000000E+00 -0.00000000000E+00 -0.45593999997E+02  0.45594000000E+02  0.51100000000E-03 0. -1.
    9900012    2    1    2    0    0  0.17046813991E+02  0.26736642016E+02 -0.29634121884E+02  0.47787273355E+02  0.20000010535E+02 0.  0.
        -12    1    1    2    0    0 -0.17046813991E+02 -0.26736642016E+02  0.29634121884E+02  0.43400726645E+02  0.00000000000E+00 0.  1.
         11    1    3    3    0    0  0.82105144125E+01  0.14101842625E+02 -0.20347378088E+02  0.26082375422E+02  0.51100000000E-03 0. -1.
        -11    1    3    3    0    0  0.16534087803E+00  0.10632170843E+02 -0.60581584129E+01  0.12238123960E+02  0.51100000000E-03 0.  1.
        -12    1    3    3    0    0  0.86709587000E+01  0.20026285467E+01 -0.32285853832E+01  0.94667739727E+01  0.00000000000E+00 0.  1.
</event>
<event>
 7    1  0.4031943E-009  0.4778727E+02  0.7816164E-02  0.1312668E+00
        -11   -1    0    0    0    0  0.00000000000E+00  0.00000000000E+00  0.45593999997E+02  0.45594000000E+02  0.51100000000E-03 0. -1.
         11   -1    0    0    0    0 -0.00000000000E+00 -0.00000000000E+00 -0.45593999997E+02  0.45594000000E+02  0.51100000000E-03 0.  1.
    9900012    2    1    2    0    0  0.19621041908E+02  0.29156369026E+02 -0.25466534622E+02  0.47787268139E+02  0.19999986755E+02 0.  0.
        -12    1    1    2    0    0 -0.19621041908E+02 -0.29156369026E+02  0.25466534622E+02  0.43400731861E+02  0.00000000000E+00 0.  1.
         11    1    3    3    0    0  0.10009721421E+02  0.24637680034E+01 -0.81695008976E+01  0.13153152507E+02  0.51100000000E-03 0. -1.
        -11    1    3    3    0    0  0.81900080641E+01  0.10901396226E+02 -0.48325318870E+01  0.14466168687E+02  0.51100000000E-03 0.  1.
        -12    1    3    3    0    0  0.14213124232E+01  0.15791204797E+02 -0.12464501838E+02  0.20167946946E+02  0.00000000000E+00 0.  1.
</event>
<event>
 7    1  0.4031943E-009  0.4778727E+02  0.7816164E-02  0.1312668E+00
        -11   -1    0    0    0    0  0.00000000000E+00  0.00000000000E+00  0.45593999997E+02  0.45594000000E+02  0.51100000000E-03 0.  1.
         11   -1    0    0    0    0 -0.00000000000E+00 -0.00000000000E+00 -0.45593999997E+02  0.45594000000E+02  0.51100000000E-03 0. -1.
    9900012    2    1    2    0    0 -0.32420559415E+01 -0.32007783884E+01 -0.43160944112E+02  0.47787274135E+02  0.20000014090E+02 0.  0.
        -12    1    1    2    0    0  0.32420559415E+01  0.32007783884E+01  0.43160944112E+02  0.43400725865E+02  0.00000000000E+00 0.  1.
         11    1    3    3    0    0  0.43035336064E+01 -0.26810202274E+01 -0.24737852814E+02  0.25252121358E+02  0.51100000000E-03 0. -1.
        -11    1    3    3    0    0 -0.30983407273E+00 -0.46367875076E+01 -0.62839826389E+01  0.78156403199E+01  0.51100000000E-03 0.  1.
        -12    1    3    3    0    0 -0.72357554752E+01  0.41170293467E+01 -0.12139108659E+02  0.14719512457E+02  0.00000000000E+00 0.  1.
</event>
<event>
 7    1  0.4031943E-009  0.4778727E+02  0.7816164E-02  0.1312668E+00
        -11   -1    0    0    0    0  0.00000000000E+00  0.00000000000E+00  0.45593999997E+02  0.45594000000E+02  0.51100000000E-03 0.  1.
         11   -1    0    0    0    0 -0.00000000000E+00 -0.00000000000E+00 -0.45593999997E+02  0.45594000000E+02  0.51100000000E-03 0. -1.
    9900012    2    1    2    0    0  0.23991893893E+02  0.36133192270E+02  0.15506766602E+01  0.47787272422E+02  0.20000006282E+02 0.  0.
        -12    1    1    2    0    0 -0.23991893893E+02 -0.36133192270E+02 -0.15506766602E+01  0.43400727578E+02  0.00000000000E+00 0.  1.
         11    1    3    3    0    0  0.10245940939E+02  0.73783955658E+01  0.76598094194E+00  0.12649377610E+02  0.51100000000E-03 0. -1.
        -11    1    3    3    0    0  0.96023166609E+01  0.61969223434E+01 -0.31799076803E+01  0.11862467909E+02  0.51100000000E-03 0.  1.
         12    1    3    3    0    0  0.41436362929E+01  0.22557874361E+02  0.39646033985E+01  0.23275426903E+02  0.00000000000E+00 0. -1.
</event>
<event>
 7    1  0.4031943E-009  0.4778727E+02  0.7816164E-02  0.1312668E+00
        -11   -1    0    0    0    0  0.00000000000E+00  0.00000000000E+00  0.45593999997E+02  0.45594000000E+02  0.51100000000E-03 0.  1.
         11   -1    0    0    0    0 -0.00000000000E+00 -0.00000000000E+00 -0.45593999997E+02  0.45594000000E+02  0.51100000000E-03 0. -1.
    9900012    2    1    2    0    0  0.71292020710E+01 -0.42548622829E+02  0.47341643388E+01  0.47787272601E+02  0.20000007097E+02 0.  0.
        -12    1    1    2    0    0 -0.71292020710E+01  0.42548622829E+02 -0.47341643388E+01  0.43400727399E+02  0.00000000000E+00 0.  1.
         11    1    3    3    0    0  0.69081757123E+01 -0.13341084191E+02 -0.16950580189E+01  0.15118883590E+02  0.51100000000E-03 0. -1.
        -11    1    3    3    0    0  0.58063404273E+01 -0.11360695276E+02  0.56450363672E+01  0.13951538344E+02  0.51100000000E-03 0.  1.
        -12    1    3    3    0    0 -0.55853140687E+01 -0.17846843362E+02  0.78418599049E+00  0.18716850667E+02  0.00000000000E+00 0.  1.
</event>
<event>
 7    1  0.4031943E-009  0.4778726E+02  0.7816164E-02  0.1312668E+00
        -11   -1    0    0    0    0  0.00000000000E+00  0.00000000000E+00  0.45593999997E+02  0.45594000000E+02  0.51100000000E-03 0.  1.
         11   -1    0    0    0    0 -0.00000000000E+00 -0.00000000000E+00 -0.45593999997E+02  0.45594000000E+02  0.51100000000E-03 0. -1.
    9900012    2    1    2    0    0  0.39318110379E+02  0.84011079362E+01 -0.16344175412E+02  0.47787257054E+02  0.19999936212E+02 0.  0.
        -12    1    1    2    0    0 -0.39318110379E+02 -0.84011079362E+01  0.16344175412E+02  0.43400742946E+02  0.00000000000E+00 0.  1.
         11    1    3    3    0    0  0.11840668838E+01  0.29793336123E+01 -0.92510029747E+00  0.33368029580E+01  0.51100000000E-03 0. -1.
        -11    1    3    3    0    0  0.17537731260E+02  0.93512847810E+01 -0.30543370890E+01  0.20108394270E+02  0.51100000000E-03 0.  1.
         12    1    3    3    0    0  0.20596312236E+02 -0.39295104571E+01 -0.12364738026E+02  0.24342059826E+02  0.00000000000E+00 0. -1.
</event>
<event>
 7    1  0.4031943E-009  0.4778728E+02  0.7816164E-02  0.1312668E+00
        -11   -1    0    0    0    0  0.00000000000E+00  0.00000000000E+00  0.45593999997E+02  0.45594000000E+02  0.51100000000E-03 0.  1.
         11   -1    0    0    0    0 -0.00000000000E+00 -0.00000000000E+00 -0.45593999997E+02  0.45594000000E+02  0.51100000000E-03 0. -1.
    9900012    2    1    2    0    0  0.18825110555E+01 -0.22457458350E+02 -0.37090985637E+02  0.47787279972E+02  0.20000040705E+02 0.  0.
        -12    1    1    2    0    0 -0.18825110555E+01  0.22457458350E+02  0.37090985637E+02  0.43400720028E+02  0.00000000000E+00 0.  1.
         11    1    3    3    0    0 -0.29899706206E+01 -0.15041301140E+02 -0.20892977827E+02  0.25917121504E+02  0.51100000000E-03 0. -1.
        -11    1    3    3    0    0  0.30392890945E+01 -0.91057913438E+01 -0.16760007726E+02  0.19314517168E+02  0.51100000000E-03 0.  1.
        -12    1    3    3    0    0  0.18331925816E+01  0.16896341335E+01  0.56199991721E+00  0.25556412998E+01  0.00000000000E+00 0.  1.
</event>
<event>
 7    1  0.4031943E-009  0.4778727E+02  0.7816164E-02  0.1312668E+00
        -11   -1    0    0    0    0  0.00000000000E+00  0.00000000000E+00  0.45593999997E+02  0.45594000000E+02  0.51100000000E-03 0.  1.
         11   -1    0    0    0    0 -0.00000000000E+00 -0.00000000000E+00 -0.45593999997E+02  0.45594000000E+02  0.51100000000E-03 0. -1.
    9900012    2    1    2    0    0 -0.16325348026E+02 -0.35286023432E+02 -0.19287369331E+02  0.47787273583E+02  0.20000011576E+02 0.  0.
        -12    1    1    2    0    0  0.16325348026E+02  0.35286023432E+02  0.19287369331E+02  0.43400726417E+02  0.00000000000E+00 0.  1.
         11    1    3    3    0    0 -0.36527350227E+01 -0.11902281896E+02 -0.88314757629E+01  0.15264394907E+02  0.51100000000E-03 0.  1.
        -11    1    3    3    0    0 -0.55810171858E+01 -0.43439718393E+00  0.13498911796E+01  0.57583556854E+01  0.51100000000E-03 0. -1.
         12    1    3    3    0    0 -0.70915958172E+01 -0.22949344352E+02 -0.11805784748E+02  0.26764522991E+02  0.00000000000E+00 0. -1.
</event>
<event>
 7    1  0.4031943E-009  0.4778727E+02  0.7816164E-02  0.1312668E+00
        -11   -1    0    0    0    0  0.00000000000E+00  0.00000000000E+00  0.45593999997E+02  0.45594000000E+02  0.51100000000E-03 0. -1.
         11   -1    0    0    0    0 -0.00000000000E+00 -0.00000000000E+00 -0.45593999997E+02  0.45594000000E+02  0.51100000000E-03 0.  1.
    9900012    2    1    2    0    0 -0.77909923956E+01  0.26897305210E+02  0.33158090383E+02  0.47787267887E+02  0.19999985605E+02 0.  0.
        -12    1    1    2    0    0  0.77909923956E+01 -0.26897305210E+02 -0.33158090383E+02  0.43400732113E+02  0.00000000000E+00 0.  1.
         11    1    3    3    0    0  0.32243469150E+01  0.10241321915E+02  0.18570390878E+02  0.21450885884E+02  0.51100000000E-03 0. -1.
        -11    1    3    3    0    0 -0.16571880711E+01 -0.98171855125E+00  0.88242271114E+00  0.21186584716E+01  0.51100000000E-03 0.  1.
        -12    1    3    3    0    0 -0.93581512395E+01  0.17637701846E+02  0.13705276794E+02  0.24217723531E+02  0.00000000000E+00 0.  1.
</event>
<event>
 7    1  0.4031943E-009  0.4778726E+02  0.7816164E-02  0.1312668E+00
        -11   -1    0    0    0    0  0.00000000000E+00  0.00000000000E+00  0.45593999997E+02  0.45594000000E+02  0.51100000000E-03 0.  1.
         11   -1    0    0    0    0 -0.00000000000E+00 -0.00000000000E+00 -0.45593999997E+02  0.45594000000E+02  0.51100000000E-03 0. -1.
    9900012    2    1    2    0    0 -0.40296669231E-01 -0.36433264822E+02  0.23584730801E+02  0.47787263412E+02  0.19999965202E+02 0.  0.
        -12    1    1    2    0    0  0.40296669231E-01  0.36433264822E+02 -0.23584730801E+02  0.43400736588E+02  0.00000000000E+00 0.  1.
         11    1    3    3    0    0 -0.81511031387E+01 -0.84486170693E+01  0.58097411848E+01  0.13098576474E+02  0.51100000000E-03 0. -1.
        -11    1    3    3    0    0  0.89989361267E+00 -0.79933925642E+01  0.78275308661E+01  0.11223830581E+02  0.51100000000E-03 0.  1.
         12    1    3    3    0    0  0.72109128568E+01 -0.19991255189E+02  0.99474587497E+01  0.23464856356E+02  0.00000000000E+00 0. -1.
</event>
<event>
 7    1  0.4031943E-009  0.4778728E+02  0.7816164E-02  0.1312668E+00
        -11   -1    0    0    0    0  0.00000000000E+00  0.00000000000E+00  0.45593999997E+02  0.45594000000E+02  0.51100000000E-03 0. -1.
         11   -1    0    0    0    0 -0.00000000000E+00 -0.00000000000E+00 -0.45593999997E+02  0.45594000000E+02  0.51100000000E-03 0.  1.
    9900012    2    1    2    0    0  0.26009533014E+02  0.25461826169E+02  0.23639427467E+02  0.47787275001E+02  0.20000018039E+02 0.  0.
        -12    1    1    2    0    0 -0.26009533014E+02 -0.25461826169E+02 -0.23639427467E+02  0.43400724999E+02  0.00000000000E+00 0.  1.
         11    1    3    3    0    0  0.73344888676E+01  0.48663249233E+01  0.10082179069E+02  0.13383802907E+02  0.51100000000E-03 0. -1.
        -11    1    3    3    0    0  0.34389950511E+01 -0.19019620996E+01  0.39814479245E+01  0.55942894657E+01  0.51100000000E-03 0.  1.
        -12    1    3    3    0    0  0.15236049095E+02  0.22497463345E+02  0.95758004740E+01  0.28809182629E+02  0.00000000000E+00 0.  1.
</event>
<event>
 7    1  0.4031943E-009  0.4778727E+02  0.7816164E-02  0.1312668E+00
        -11   -1    0    0    0    0  0.00000000000E+00  0.00000000000E+00  0.45593999997E+02  0.45594000000E+02  0.51100000000E-03 0.  1.
         11   -1    0    0    0    0 -0.00000000000E+00 -0.00000000000E+00 -0.45593999997E+02  0.45594000000E+02  0.51100000000E-03 0. -1.
    9900012    2    1    2    0    0 -0.88240716960E+01  0.96984472155E+01 -0.41372684727E+02  0.47787272343E+02  0.20000005919E+02 0.  0.
        -12    1    1    2    0    0  0.88240716960E+01 -0.96984472155E+01  0.41372684727E+02  0.43400727657E+02  0.00000000000E+00 0.  1.
         11    1    3    3    0    0 -0.53247733591E+00  0.56805921723E+00 -0.67934811070E+00  0.10333138459E+01  0.51100000000E-03 0. -1.
        -11    1    3    3    0    0 -0.40525192042E+01 -0.47329790082E+01 -0.42754096696E+01  0.75566613194E+01  0.51100000000E-03 0.  1.
        -12    1    3    3    0    0 -0.42390751559E+01  0.13863367007E+02 -0.36417926946E+02  0.39197297177E+02  0.00000000000E+00 0.  1.
</event>
<event>
 7    1  0.4031943E-009  0.4778726E+02  0.7816164E-02  0.1312668E+00
        -11   -1    0    0    0    0  0.00000000000E+00  0.00000000000E+00  0.45593999997E+02  0.45594000000E+02  0.51100000000E-03 0. -1.
         11   -1    0    0    0    0 -0.00000000000E+00 -0.00000000000E+00 -0.45593999997E+02  0.45594000000E+02  0.51100000000E-03 0.  1.
    9900012    2    1    2    0    0  0.73958221607E+01  0.42480901647E+02  0.49293715656E+01  0.47787263898E+02  0.19999967417E+02 0.  0.
        -12    1    1    2    0    0 -0.73958221607E+01 -0.42480901647E+02 -0.49293715656E+01  0.43400736102E+02  0.00000000000E+00 0.  1.
         11    1    3    3    0    0  0.93965489167E+01  0.39283733866E+02  0.65160723596E+01  0.40914130532E+02  0.51100000000E-03 0. -1.
        -11    1    3    3    0    0  0.10365203171E+00  0.61770235141E+00  0.19309560192E+01  0.20299978689E+01  0.51100000000E-03 0.  1.
         12    1    3    3    0    0 -0.21043787877E+01  0.25794654299E+01 -0.35176568131E+01  0.48431354969E+01  0.00000000000E+00 0. -1.
</event>
<event>
 7    1  0.4031943E-009  0.4778727E+02  0.7816164E-02  0.1312668E+00
        -11   -1    0    0    0    0  0.00000000000E+00  0.00000000000E+00  0.45593999997E+02  0.45594000000E+02  0.51100000000E-03 0. -1.
         11   -1    0    0    0    0 -0.00000000000E+00 -0.00000000000E+00 -0.45593999997E+02  0.45594000000E+02  0.51100000000E-03 0.  1.
    9900012    2    1    2    0    0 -0.92383545444E+01 -0.17503123099E+02  0.38625339364E+02  0.47787270123E+02  0.19999995799E+02 0.  0.
        -12    1    1    2    0    0  0.92383545444E+01  0.17503123099E+02 -0.38625339364E+02  0.43400729877E+02  0.00000000000E+00 0.  1.
         11    1    3    3    0    0 -0.23088386117E+01 -0.31598865574E+01  0.37116993791E+01  0.53937307434E+01  0.51100000000E-03 0. -1.
        -11    1    3    3    0    0 -0.43129676701E+00 -0.77780711150E+01  0.31653193716E+02  0.32597685192E+02  0.51100000000E-03 0.  1.
        -12    1    3    3    0    0 -0.64982191657E+01 -0.65651654265E+01  0.32604462682E+01  0.97958541879E+01  0.00000000000E+00 0.  1.
</event>
<event>
 7    1  0.4103337E-009  0.4778727E+02  0.7816164E-02  0.1312668E+00
        -11   -1    0    0    0    0  0.00000000000E+00  0.00000000000E+00  0.45593999997E+02  0.45594000000E+02  0.51100000000E-03 0. -1.
         11   -1    0    0    0    0 -0.00000000000E+00 -0.00000000000E+00 -0.45593999997E+02  0.45594000000E+02  0.51100000000E-03 0.  1.
    9900012    2    1    2    0    0  0.19693115696E+02 -0.12683154660E+02  0.36536858518E+02  0.47787271339E+02  0.20000001343E+02 0.  0.
        -12    1    1    2    0    0 -0.19693115696E+02  0.12683154660E+02 -0.36536858518E+02  0.43400728661E+02  0.00000000000E+00 0.  1.
         11    1    3    3    0    0  0.98194344821E+01 -0.14079240697E+02  0.26886723884E+02  0.31898937813E+02  0.51100000000E-03 0.  1.
        -11    1    3    3    0    0  0.11912921916E+01  0.14436872595E+01  0.63162462845E+01  0.65877444833E+01  0.51100000000E-03 0. -1.
        -12    1    3    3    0    0  0.86823890220E+01 -0.47601222069E-01  0.33338883501E+01  0.93005890425E+01  0.00000000000E+00 0.  1.
</event>
<event>
 7    1  0.4031943E-009  0.4778727E+02  0.7816164E-02  0.1312668E+00
        -11   -1    0    0    0    0  0.00000000000E+00  0.00000000000E+00  0.45593999997E+02  0.45594000000E+02  0.51100000000E-03 0.  1.
         11   -1    0    0    0    0 -0.00000000000E+00 -0.00000000000E+00 -0.45593999997E+02  0.45594000000E+02  0.51100000000E-03 0. -1.
    9900012    2    1    2    0    0  0.96574459927E+01  0.73675671249E+00 -0.42306195330E+02  0.47787271471E+02  0.20000001945E+02 0.  0.
        -12    1    1    2    0    0 -0.96574459927E+01 -0.73675671249E+00  0.42306195330E+02  0.43400728529E+02  0.00000000000E+00 0.  1.
         11    1    3    3    0    0  0.10760178027E+02 -0.34315893700E+01 -0.26477043558E+02  0.28785257904E+02  0.51100000000E-03 0. -1.
        -11    1    3    3    0    0 -0.11889588414E+01  0.31397915322E+00 -0.15010418575E+02  0.15060706228E+02  0.51100000000E-03 0.  1.
        -12    1    3    3    0    0  0.86226807461E-01  0.38543669293E+01 -0.81873319639E+00  0.39413073382E+01  0.00000000000E+00 0.  1.
</event>
<event>
 7    1  0.4031943E-009  0.4778728E+02  0.7816164E-02  0.1312668E+00
        -11   -1    0    0    0    0  0.00000000000E+00  0.00000000000E+00  0.45593999997E+02  0.45594000000E+02  0.51100000000E-03 0. -1.
         11   -1    0    0    0    0 -0.00000000000E+00 -0.00000000000E+00 -0.45593999997E+02  0.45594000000E+02  0.51100000000E-03 0.  1.
    9900012    2    1    2    0    0  0.26703016868E+02  0.31967106773E+02 -0.12193248574E+02  0.47787281848E+02  0.20000049258E+02 0.  0.
        -12    1    1    2    0    0 -0.26703016868E+02 -0.31967106773E+02  0.12193248574E+02  0.43400718152E+02  0.00000000000E+00 0.  1.
         11    1    3    3    0    0  0.49483376727E+01  0.40743458310E+01 -0.60059554692E+01  0.87839536105E+01  0.51100000000E-03 0. -1.
        -11    1    3    3    0    0 -0.20050501030E+01  0.92955382197E+00  0.87684498851E+00  0.23776361409E+01  0.51100000000E-03 0.  1.
         12    1    3    3    0    0  0.23759729299E+02  0.26963207120E+02 -0.70641380937E+01  0.36625692097E+02  0.00000000000E+00 0. -1.
</event>
<event>
 7    1  0.4031943E-009  0.4778727E+02  0.7816164E-02  0.1312668E+00
        -11   -1    0    0    0    0  0.00000000000E+00  0.00000000000E+00  0.45593999997E+02  0.45594000000E+02  0.51100000000E-03 0.  1.
         11   -1    0    0    0    0 -0.00000000000E+00 -0.00000000000E+00 -0.45593999997E+02  0.45594000000E+02  0.51100000000E-03 0. -1.
    9900012    2    1    2    0    0  0.13781254897E+02 -0.32671701669E+02 -0.25025190540E+02  0.47787271457E+02  0.20000001880E+02 0.  0.
        -12    1    1    2    0    0 -0.13781254897E+02  0.32671701669E+02  0.25025190540E+02  0.43400728543E+02  0.00000000000E+00 0.  1.
         11    1    3    3    0    0  0.97270664426E+01 -0.11400570133E+02 -0.77595216762E+01  0.16875988796E+02  0.51100000000E-03 0. -1.
        -11    1    3    3    0    0  0.16414040903E+01  0.16548534996E+01 -0.30099011971E+01  0.38068691822E+01  0.51100000000E-03 0.  1.
        -12    1    3    3    0    0  0.24127843645E+01 -0.22925985036E+02 -0.14255767667E+02  0.27104413479E+02  0.00000000000E+00 0.  1.
</event>
<event>
 7    1  0.4031943E-009  0.4778727E+02  0.7816164E-02  0.1312668E+00
        -11   -1    0    0    0    0  0.00000000000E+00  0.00000000000E+00  0.45593999997E+02  0.45594000000E+02  0.51100000000E-03 0.  1.
         11   -1    0    0    0    0 -0.00000000000E+00 -0.00000000000E+00 -0.45593999997E+02  0.45594000000E+02  0.51100000000E-03 0. -1.
    9900012    2    1    2    0    0 -0.30810715313E+02 -0.30028696959E+02 -0.57096724004E+01  0.47787272148E+02  0.20000005033E+02 0.  0.
        -12    1    1    2    0    0  0.30810715313E+02  0.30028696959E+02  0.57096724004E+01  0.43400727852E+02  0.00000000000E+00 0.  1.
         11    1    3    3    0    0 -0.10208043757E+02 -0.63618403402E+01  0.35920453566E+01  0.12553085675E+02  0.51100000000E-03 0. -1.
        -11    1    3    3    0    0  0.33772025415E+00 -0.21907126766E+00  0.18380608281E+01  0.18816256427E+01  0.51100000000E-03 0.  1.
         12    1    3    3    0    0 -0.20940391810E+02 -0.23447785351E+02 -0.11139778585E+02  0.33352560830E+02  0.00000000000E+00 0. -1.
</event>
<event>
 7    1  0.4031943E-009  0.4778727E+02  0.7816164E-02  0.1312668E+00
        -11   -1    0    0    0    0  0.00000000000E+00  0.00000000000E+00  0.45593999997E+02  0.45594000000E+02  0.51100000000E-03 0. -1.
         11   -1    0    0    0    0 -0.00000000000E+00 -0.00000000000E+00 -0.45593999997E+02  0.45594000000E+02  0.51100000000E-03 0.  1.
    9900012    2    1    2    0    0  0.36871857640E+02  0.22892997126E+02  0.28873486241E-02  0.47787271762E+02  0.20000003271E+02 0.  0.
        -12    1    1    2    0    0 -0.36871857640E+02 -0.22892997126E+02 -0.28873486241E-02  0.43400728238E+02  0.00000000000E+00 0.  1.
         11    1    3    3    0    0  0.41175684523E+01  0.85407548625E+01  0.29748679702E+01  0.99372382120E+01  0.51100000000E-03 0. -1.
        -11    1    3    3    0    0  0.23019479403E+01  0.29458436965E+01  0.29929354646E+01  0.47890105826E+01  0.51100000000E-03 0.  1.
         12    1    3    3    0    0  0.30452341248E+02  0.11406398567E+02 -0.59649160862E+01  0.33061022967E+02  0.00000000000E+00 0. -1.
</event>
<event>
 7    1  0.4031943E-009  0.4778727E+02  0.7816164E-02  0.1312668E+00
        -11   -1    0    0    0    0  0.00000000000E+00  0.00000000000E+00  0.45593999997E+02  0.45594000000E+02  0.51100000000E-03 0.  1.
         11   -1    0    0    0    0 -0.00000000000E+00 -0.00000000000E+00 -0.45593999997E+02  0.45594000000E+02  0.51100000000E-03 0. -1.
    9900012    2    1    2    0    0  0.19416625653E+02 -0.25104972330E+02 -0.29603346746E+02  0.47787272748E+02  0.20000007769E+02 0.  0.
        -12    1    1    2    0    0 -0.19416625653E+02  0.25104972330E+02  0.29603346746E+02  0.43400727252E+02  0.00000000000E+00 0.  1.
         11    1    3    3    0    0  0.88983594828E+01  0.13570634249E+01 -0.68886032235E+01  0.11334693523E+02  0.51100000000E-03 0.  1.
        -11    1    3    3    0    0  0.21643012968E+01 -0.67935869045E+01 -0.61283585003E+01  0.94017977697E+01  0.51100000000E-03 0. -1.
        -12    1    3    3    0    0  0.83539648730E+01 -0.19668448850E+02 -0.16586385022E+02  0.27050781456E+02  0.00000000000E+00 0.  1.
</event>
<event>
 7    1  0.4031943E-009  0.4778727E+02  0.7816164E-02  0.1312668E+00
        -11   -1    0    0    0    0  0.00000000000E+00  0.00000000000E+00  0.45593999997E+02  0.45594000000E+02  0.51100000000E-03 0.  1.
         11   -1    0    0    0    0 -0.00000000000E+00 -0.00000000000E+00 -0.45593999997E+02  0.45594000000E+02  0.51100000000E-03 0. -1.
    9900012    2    1    2    0    0  0.23305226727E+02  0.87909508108E+01 -0.35541652447E+02  0.47787268813E+02  0.19999989824E+02 0.  0.
        -12    1    1    2    0    0 -0.23305226727E+02 -0.87909508108E+01  0.35541652447E+02  0.43400731187E+02  0.00000000000E+00 0.  1.
         11    1    3    3    0    0 -0.11492661629E+01  0.36103098972E+00 -0.11468871916E+02  0.11531963379E+02  0.51100000000E-03 0. -1.
        -11    1    3    3    0    0  0.60318609736E+01 -0.13013087033E+01 -0.68879966375E+01  0.92477699520E+01  0.51100000000E-03 0.  1.
        -12    1    3    3    0    0  0.18422631917E+02  0.97312285244E+01 -0.17184783893E+02  0.27007535481E+02  0.00000000000E+00 0.  1.
</event>
<event>
 7    1  0.4031943E-009  0.4778727E+02  0.7816164E-02  0.1312668E+00
        -11   -1    0    0    0    0  0.00000000000E+00  0.00000000000E+00  0.45593999997E+02  0.45594000000E+02  0.51100000000E-03 0. -1.
         11   -1    0    0    0    0 -0.00000000000E+00 -0.00000000000E+00 -0.45593999997E+02  0.45594000000E+02  0.51100000000E-03 0.  1.
    9900012    2    1    2    0    0 -0.20638931199E+02  0.37433537846E+02  0.75092078988E+01  0.47787269131E+02  0.19999991277E+02 0.  0.
        -12    1    1    2    0    0  0.20638931199E+02 -0.37433537846E+02 -0.75092078988E+01  0.43400730869E+02  0.00000000000E+00 0.  1.
         11    1    3    3    0    0 -0.12314099885E+02  0.28119143233E+02  0.16227442978E+01  0.30740145924E+02  0.51100000000E-03 0. -1.
        -11    1    3    3    0    0 -0.82339696025E+01  0.10255357892E+02  0.23167076735E+01  0.13354315992E+02  0.51100000000E-03 0.  1.
        -12    1    3    3    0    0 -0.90861711573E-01 -0.94096327953E+00  0.35697559276E+01  0.36928072149E+01  0.00000000000E+00 0.  1.
</event>
<event>
 7    1  0.4031943E-009  0.4778727E+02  0.7816164E-02  0.1312668E+00
        -11   -1    0    0    0    0  0.00000000000E+00  0.00000000000E+00  0.45593999997E+02  0.45594000000E+02  0.51100000000E-03 0. -1.
         11   -1    0    0    0    0 -0.00000000000E+00 -0.00000000000E+00 -0.45593999997E+02  0.45594000000E+02  0.51100000000E-03 0.  1.
    9900012    2    1    2    0    0 -0.33418876852E+02  0.24488012752E+02  0.12928238864E+02  0.47787268915E+02  0.19999990290E+02 0.  0.
        -12    1    1    2    0    0  0.33418876852E+02 -0.24488012752E+02 -0.12928238864E+02  0.43400731085E+02  0.00000000000E+00 0.  1.
         11    1    3    3    0    0 -0.85801443576E+00  0.31993477177E+01 -0.20755120619E+01  0.39089340197E+01  0.51100000000E-03 0. -1.
        -11    1    3    3    0    0 -0.14521473102E+01  0.27537618829E+01 -0.21756557301E+01  0.37980803619E+01  0.51100000000E-03 0.  1.
        -12    1    3    3    0    0 -0.31108715106E+02  0.18534903152E+02  0.17179406656E+02  0.40080254533E+02  0.00000000000E+00 0.  1.
</event>
<event>
 7    1  0.4031943E-009  0.4778727E+02  0.7816164E-02  0.1312668E+00
        -11   -1    0    0    0    0  0.00000000000E+00  0.00000000000E+00  0.45593999997E+02  0.45594000000E+02  0.51100000000E-03 0.  1.
         11   -1    0    0    0    0 -0.00000000000E+00 -0.00000000000E+00 -0.45593999997E+02  0.45594000000E+02  0.51100000000E-03 0. -1.
    9900012    2    1    2    0    0 -0.37758783917E+01  0.34794999779E+02 -0.25664642340E+02  0.47787272659E+02  0.20000007363E+02 0.  0.
        -12    1    1    2    0    0  0.37758783917E+01 -0.34794999779E+02  0.25664642340E+02  0.43400727341E+02  0.00000000000E+00 0.  1.
         11    1    3    3    0    0  0.64609096655E+00  0.19737139609E+02 -0.90799241925E+01  0.21735159008E+02  0.51100000000E-03 0. -1.
        -11    1    3    3    0    0 -0.65419371192E+01  0.15902914726E+02 -0.12119981353E+02  0.21037908316E+02  0.51100000000E-03 0.  1.
        -12    1    3    3    0    0  0.21199677610E+01 -0.84505455566E+00 -0.44647367939E+01  0.50142053356E+01  0.00000000000E+00 0.  1.
</event>
<event>
 7    1  0.4031943E-009  0.4778727E+02  0.7816164E-02  0.1312668E+00
        -11   -1    0    0    0    0  0.00000000000E+00  0.00000000000E+00  0.45593999997E+02  0.45594000000E+02  0.51100000000E-03 0. -1.
         11   -1    0    0    0    0 -0.00000000000E+00 -0.00000000000E+00 -0.45593999997E+02  0.45594000000E+02  0.51100000000E-03 0.  1.
    9900012    2    1    2    0    0 -0.30299067464E+02  0.20179646369E+02  0.23629889069E+02  0.47787271041E+02  0.19999999984E+02 0.  0.
        -12    1    1    2    0    0  0.30299067464E+02 -0.20179646369E+02 -0.23629889069E+02  0.43400728959E+02  0.00000000000E+00 0.  1.
         11    1    3    3    0    0 -0.50469570302E+01  0.11179167790E+02  0.12854062647E+02  0.17767174636E+02  0.51100000000E-03 0. -1.
        -11    1    3    3    0    0 -0.13415103452E+02  0.28471379763E+01  0.93615009020E+01  0.16604484174E+02  0.51100000000E-03 0.  1.
        -12    1    3    3    0    0 -0.11837006982E+02  0.61533406018E+01  0.14143255195E+01  0.13415612231E+02  0.00000000000E+00 0.  1.
</event>
<event>
 7    1  0.4031943E-009  0.4778727E+02  0.7816164E-02  0.1312668E+00
        -11   -1    0    0    0    0  0.00000000000E+00  0.00000000000E+00  0.45593999997E+02  0.45594000000E+02  0.51100000000E-03 0.  1.
         11   -1    0    0    0    0 -0.00000000000E+00 -0.00000000000E+00 -0.45593999997E+02  0.45594000000E+02  0.51100000000E-03 0. -1.
    9900012    2    1    2    0    0 -0.82575601087E+01 -0.22790555156E+02 -0.36000370523E+02  0.47787269809E+02  0.19999994369E+02 0.  0.
        -12    1    1    2    0    0  0.82575601087E+01  0.22790555156E+02  0.36000370523E+02  0.43400730191E+02  0.00000000000E+00 0.  1.
         11    1    3    3    0    0 -0.28161557950E+01 -0.98890074861E+01 -0.15704619527E+02  0.18771208732E+02  0.51100000000E-03 0. -1.
        -11    1    3    3    0    0 -0.60205242319E+01 -0.10925406658E+02 -0.22668606947E+02  0.25874252914E+02  0.51100000000E-03 0.  1.
        -12    1    3    3    0    0  0.57911991825E+00 -0.19761410117E+01  0.23728559502E+01  0.31418081638E+01  0.00000000000E+00 0.  1.
</event>
<event>
 7    1  0.4031943E-009  0.4778727E+02  0.7816164E-02  0.1312668E+00
        -11   -1    0    0    0    0  0.00000000000E+00  0.00000000000E+00  0.45593999997E+02  0.45594000000E+02  0.51100000000E-03 0.  1.
         11   -1    0    0    0    0 -0.00000000000E+00 -0.00000000000E+00 -0.45593999997E+02  0.45594000000E+02  0.51100000000E-03 0. -1.
    9900012    2    1    2    0    0 -0.11401028700E+01 -0.23817901319E+02 -0.36263360734E+02  0.47787267408E+02  0.19999983420E+02 0.  0.
        -12    1    1    2    0    0  0.11401028700E+01  0.23817901319E+02  0.36263360734E+02  0.43400732592E+02  0.00000000000E+00 0.  1.
         11    1    3    3    0    0 -0.24094162813E+01 -0.82117127281E+01 -0.84757129840E+01  0.12044717664E+02  0.51100000000E-03 0. -1.
        -11    1    3    3    0    0 -0.68288364016E+01 -0.34699912236E+01 -0.72252668314E+01  0.10529877812E+02  0.51100000000E-03 0.  1.
         12    1    3    3    0    0  0.80981498129E+01 -0.12136197368E+02 -0.20562380918E+02  0.25212671932E+02  0.00000000000E+00 0. -1.
</event>
<event>
 7    1  0.4031943E-009  0.4778727E+02  0.7816164E-02  0.1312668E+00
        -11   -1    0    0    0    0  0.00000000000E+00  0.00000000000E+00  0.45593999997E+02  0.45594000000E+02  0.51100000000E-03 0.  1.
         11   -1    0    0    0    0 -0.00000000000E+00 -0.00000000000E+00 -0.45593999997E+02  0.45594000000E+02  0.51100000000E-03 0. -1.
    9900012    2    1    2    0    0 -0.38640541961E+02  0.46114711616E+01 -0.19216290558E+02  0.47787274521E+02  0.20000015851E+02 0.  0.
        -12    1    1    2    0    0  0.38640541961E+02 -0.46114711616E+01  0.19216290558E+02  0.43400725479E+02  0.00000000000E+00 0.  1.
         11    1    3    3    0    0 -0.14602147066E+02  0.58932125817E+01  0.35503747411E+00  0.15750514447E+02  0.51100000000E-03 0. -1.
        -11    1    3    3    0    0 -0.34902629194E+01  0.22684348716E+01 -0.54274810336E+01  0.68399768014E+01  0.51100000000E-03 0.  1.
         12    1    3    3    0    0 -0.20548131976E+02 -0.35501762916E+01 -0.14143846998E+02  0.25196783273E+02  0.00000000000E+00 0. -1.
</event>
<event>
 7    1  0.4031943E-009  0.4778727E+02  0.7816164E-02  0.1312668E+00
        -11   -1    0    0    0    0  0.00000000000E+00  0.00000000000E+00  0.45593999997E+02  0.45594000000E+02  0.51100000000E-03 0.  1.
         11   -1    0    0    0    0 -0.00000000000E+00 -0.00000000000E+00 -0.45593999997E+02  0.45594000000E+02  0.51100000000E-03 0. -1.
    9900012    2    1    2    0    0  0.41462894235E+02  0.83094855822E+01 -0.97674970417E+01  0.47787272501E+02  0.20000006642E+02 0.  0.
        -12    1    1    2    0    0 -0.41462894235E+02 -0.83094855822E+01  0.97674970417E+01  0.43400727499E+02  0.00000000000E+00 0.  1.
         11    1    3    3    0    0  0.21393114237E+02  0.83276594185E+01 -0.26531590762E+01  0.23109619241E+02  0.51100000000E-03 0. -1.
        -11    1    3    3    0    0  0.15553199806E+02  0.33731197509E+01 -0.42181979147E+00  0.15920360965E+02  0.51100000000E-03 0.  1.
        -12    1    3    3    0    0  0.45165801923E+01 -0.33912935872E+01 -0.66925181740E+01  0.87572922949E+01  0.00000000000E+00 0.  1.
</event>
<event>
 7    1  0.4031943E-009  0.4778727E+02  0.7816164E-02  0.1312668E+00
        -11   -1    0    0    0    0  0.00000000000E+00  0.00000000000E+00  0.45593999997E+02  0.45594000000E+02  0.51100000000E-03 0.  1.
         11   -1    0    0    0    0 -0.00000000000E+00 -0.00000000000E+00 -0.45593999997E+02  0.45594000000E+02  0.51100000000E-03 0. -1.
    9900012    2    1    2    0    0 -0.74757745395E+01  0.31489509561E+02 -0.28916203832E+02  0.47787271188E+02  0.20000000656E+02 0.  0.
        -12    1    1    2    0    0  0.74757745395E+01 -0.31489509561E+02  0.28916203832E+02  0.43400728812E+02  0.00000000000E+00 0.  1.
         11    1    3    3    0    0 -0.50827871746E+01  0.22960732955E+02 -0.17731246680E+02  0.29452115245E+02  0.51100000000E-03 0.  1.
        -11    1    3    3    0    0 -0.37650049184E+01  0.10380458839E+02 -0.11575680204E+02  0.15997673587E+02  0.51100000000E-03 0. -1.
         12    1    3    3    0    0  0.13720175534E+01 -0.18516822339E+01  0.39072305241E+00  0.23374823563E+01  0.00000000000E+00 0. -1.
</event>
<event>
 7    1  0.4031943E-009  0.4778726E+02  0.7816164E-02  0.1312668E+00
        -11   -1    0    0    0    0  0.00000000000E+00  0.00000000000E+00  0.45593999997E+02  0.45594000000E+02  0.51100000000E-03 0.  1.
         11   -1    0    0    0    0 -0.00000000000E+00 -0.00000000000E+00 -0.45593999997E+02  0.45594000000E+02  0.51100000000E-03 0. -1.
    9900012    2    1    2    0    0  0.95412440590E+01 -0.22964390229E+02 -0.35570005508E+02  0.47787264423E+02  0.19999969811E+02 0.  0.
        -12    1    1    2    0    0 -0.95412440590E+01  0.22964390229E+02  0.35570005508E+02  0.43400735577E+02  0.00000000000E+00 0.  1.
         11    1    3    3    0    0 -0.33278398215E+01 -0.99690565420E+00 -0.55517399857E+01  0.65490576338E+01  0.51100000000E-03 0. -1.
        -11    1    3    3    0    0  0.91813719388E+01 -0.10993943700E+02 -0.24577631830E+02  0.28446869343E+02  0.51100000000E-03 0.  1.
         12    1    3    3    0    0  0.36877119417E+01 -0.10973540875E+02 -0.54406336918E+01  0.12791337447E+02  0.00000000000E+00 0. -1.
</event>
<event>
 7    1  0.4031943E-009  0.4778728E+02  0.7816164E-02  0.1312668E+00
        -11   -1    0    0    0    0  0.00000000000E+00  0.00000000000E+00  0.45593999997E+02  0.45594000000E+02  0.51100000000E-03 0.  1.
         11   -1    0    0    0    0 -0.00000000000E+00 -0.00000000000E+00 -0.45593999997E+02  0.45594000000E+02  0.51100000000E-03 0. -1.
    9900012    2    1    2    0    0 -0.18412859160E+02 -0.37800857829E+02 -0.10755676445E+02  0.47787276378E+02  0.20000024319E+02 0.  0.
        -12    1    1    2    0    0  0.18412859160E+02  0.37800857829E+02  0.10755676445E+02  0.43400723622E+02  0.00000000000E+00 0.  1.
         11    1    3    3    0    0  0.65734756238E+00  0.23712264281E+00  0.96433606016E+00  0.11909144653E+01  0.51100000000E-03 0. -1.
        -11    1    3    3    0    0 -0.20635512724E+01 -0.57703989648E+01  0.35181224498E+01  0.70663239311E+01  0.51100000000E-03 0.  1.
         12    1    3    3    0    0 -0.17006655450E+02 -0.32267581507E+02 -0.15238134955E+02  0.39530037982E+02  0.00000000000E+00 0. -1.
</event>
<event>
 7    1  0.4031943E-009  0.4778724E+02  0.7816164E-02  0.1312668E+00
        -11   -1    0    0    0    0  0.00000000000E+00  0.00000000000E+00  0.45593999997E+02  0.45594000000E+02  0.51100000000E-03 0.  1.
         11   -1    0    0    0    0 -0.00000000000E+00 -0.00000000000E+00 -0.45593999997E+02  0.45594000000E+02  0.51100000000E-03 0. -1.
    9900012    2    1    2    0    0  0.37746759356E+02 -0.13651366445E+02 -0.16506013443E+02  0.47787238169E+02  0.19999850107E+02 0.  0.
        -12    1    1    2    0    0 -0.37746759356E+02  0.13651366445E+02  0.16506013443E+02  0.43400761831E+02  0.00000000000E+00 0.  1.
         11    1    3    3    0    0  0.64664116966E+01  0.14800698049E+01 -0.86737588009E+01  0.10919669357E+02  0.51100000000E-03 0. -1.
        -11    1    3    3    0    0  0.23358452700E+01 -0.44075963015E+01  0.12986968422E+00  0.49899844367E+01  0.51100000000E-03 0.  1.
         12    1    3    3    0    0  0.28944502390E+02 -0.10723839948E+02 -0.79621243268E+01  0.31877584376E+02  0.00000000000E+00 0. -1.
</event>
<event>
 7    1  0.4031943E-009  0.4778725E+02  0.7816164E-02  0.1312668E+00
        -11   -1    0    0    0    0  0.00000000000E+00  0.00000000000E+00  0.45593999997E+02  0.45594000000E+02  0.51100000000E-03 0.  1.
         11   -1    0    0    0    0 -0.00000000000E+00 -0.00000000000E+00 -0.45593999997E+02  0.45594000000E+02  0.51100000000E-03 0. -1.
    9900012    2    1    2    0    0 -0.13554278001E+02  0.20471935449E+02 -0.35788351926E+02  0.47787254307E+02  0.19999923686E+02 0.  0.
        -12    1    1    2    0    0  0.13554278001E+02 -0.20471935449E+02  0.35788351926E+02  0.43400745693E+02  0.00000000000E+00 0.  1.
         11    1    3    3    0    0 -0.12514427144E+01  0.37218862352E+00 -0.70426575072E+00  0.14834499478E+01  0.51100000000E-03 0. -1.
        -11    1    3    3    0    0 -0.84815303380E+01  0.85661245233E+01 -0.31357846751E+02  0.33595079987E+02  0.51100000000E-03 0.  1.
         12    1    3    3    0    0 -0.38213049481E+01  0.11533622302E+02 -0.37262394249E+01  0.12708724372E+02  0.00000000000E+00 0. -1.
</event>
<event>
 7    1  0.4031943E-009  0.4778727E+02  0.7816164E-02  0.1312668E+00
        -11   -1    0    0    0    0  0.00000000000E+00  0.00000000000E+00  0.45593999997E+02  0.45594000000E+02  0.51100000000E-03 0. -1.
         11   -1    0    0    0    0 -0.00000000000E+00 -0.00000000000E+00 -0.45593999997E+02  0.45594000000E+02  0.51100000000E-03 0.  1.
    9900012    2    1    2    0    0  0.22637313735E+02  0.35699065124E+02 -0.98362547782E+01  0.47787272679E+02  0.20000007455E+02 0.  0.
        -12    1    1    2    0    0 -0.22637313735E+02 -0.35699065124E+02  0.98362547782E+01  0.43400727321E+02  0.00000000000E+00 0.  1.
         11    1    3    3    0    0  0.41458116090E+01  0.75218649156E+01  0.38333956324E+01  0.94053776129E+01  0.51100000000E-03 0. -1.
        -11    1    3    3    0    0  0.71262442238E+01  0.18142820131E+02 -0.27218569916E+01  0.19681305464E+02  0.51100000000E-03 0.  1.
        -12    1    3    3    0    0  0.11365257902E+02  0.10034380078E+02 -0.10947793419E+02  0.18700589602E+02  0.00000000000E+00 0.  1.
</event>
<event>
 7    1  0.4031943E-009  0.4778727E+02  0.7816164E-02  0.1312668E+00
        -11   -1    0    0    0    0  0.00000000000E+00  0.00000000000E+00  0.45593999997E+02  0.45594000000E+02  0.51100000000E-03 0.  1.
         11   -1    0    0    0    0 -0.00000000000E+00 -0.00000000000E+00 -0.45593999997E+02  0.45594000000E+02  0.51100000000E-03 0. -1.
    9900012    2    1    2    0    0 -0.56418172735E+00  0.34418343800E+02 -0.26432608628E+02  0.47787268556E+02  0.19999988653E+02 0.  0.
        -12    1    1    2    0    0  0.56418172735E+00 -0.34418343800E+02  0.26432608628E+02  0.43400731444E+02  0.00000000000E+00 0.  1.
         11    1    3    3    0    0  0.21000373798E+01  0.20353270190E+02 -0.12858810988E+02  0.24166397843E+02  0.51100000000E-03 0. -1.
        -11    1    3    3    0    0 -0.45135571557E+01  0.97537627387E+01 -0.17351644267E+01  0.10886637755E+02  0.51100000000E-03 0.  1.
        -12    1    3    3    0    0  0.18493380485E+01  0.43113108717E+01 -0.11838633214E+02  0.12734232958E+02  0.00000000000E+00 0.  1.
</event>
<event>
 7    1  0.4442988E-009  0.4778727E+02  0.7816164E-02  0.1312668E+00
        -11   -1    0    0    0    0  0.00000000000E+00  0.00000000000E+00  0.45593999997E+02  0.45594000000E+02  0.51100000000E-03 0. -1.
         11   -1    0    0    0    0 -0.00000000000E+00 -0.00000000000E+00 -0.45593999997E+02  0.45594000000E+02  0.51100000000E-03 0.  1.
    9900012    2    1    2    0    0 -0.78629524778E+01  0.21888010831E+02  0.36643041403E+02  0.47787268173E+02  0.19999986910E+02 0.  0.
        -12    1    1    2    0    0  0.78629524778E+01 -0.21888010831E+02 -0.36643041403E+02  0.43400731827E+02  0.00000000000E+00 0.  1.
         11    1    3    3    0    0 -0.36022240925E+01  0.63295847251E+01  0.22577460376E+02  0.23723013689E+02  0.51100000000E-03 0. -1.
        -11    1    3    3    0    0  0.35338657597E+01  0.46095049070E+01  0.61827973561E+01  0.84830847045E+01  0.51100000000E-03 0.  1.
        -12    1    3    3    0    0 -0.77945941450E+01  0.10948921199E+02  0.78827836709E+01  0.15581169780E+02  0.00000000000E+00 0.  1.
</event>
<event>
 7    1  0.4031943E-009  0.4778727E+02  0.7816164E-02  0.1312668E+00
        -11   -1    0    0    0    0  0.00000000000E+00  0.00000000000E+00  0.45593999997E+02  0.45594000000E+02  0.51100000000E-03 0. -1.
         11   -1    0    0    0    0 -0.00000000000E+00 -0.00000000000E+00 -0.45593999997E+02  0.45594000000E+02  0.51100000000E-03 0.  1.
    9900012    2    1    2    0    0  0.42737882981E+02  0.65581851621E+01  0.37532328776E+01  0.47787271995E+02  0.20000004334E+02 0.  0.
        -12    1    1    2    0    0 -0.42737882981E+02 -0.65581851621E+01 -0.37532328776E+01  0.43400728005E+02  0.00000000000E+00 0.  1.
         11    1    3    3    0    0  0.27244094753E+02  0.46288797048E+01  0.49318771411E+00  0.27638930164E+02  0.51100000000E-03 0. -1.
        -11    1    3    3    0    0  0.30808521318E+01 -0.45329894890E+01 -0.88765433778E+00  0.55522584639E+01  0.51100000000E-03 0.  1.
         12    1    3    3    0    0  0.12412936096E+02  0.64622949464E+01  0.41476995012E+01  0.14596083367E+02  0.00000000000E+00 0. -1.
</event>
<event>
 7    1  0.4031943E-009  0.4778727E+02  0.7816164E-02  0.1312668E+00
        -11   -1    0    0    0    0  0.00000000000E+00  0.00000000000E+00  0.45593999997E+02  0.45594000000E+02  0.51100000000E-03 0.  1.
         11   -1    0    0    0    0 -0.00000000000E+00 -0.00000000000E+00 -0.45593999997E+02  0.45594000000E+02  0.51100000000E-03 0. -1.
    9900012    2    1    2    0    0 -0.14004591173E+02  0.33797750571E+02 -0.23349663048E+02  0.47787270950E+02  0.19999999570E+02 0.  0.
        -12    1    1    2    0    0  0.14004591173E+02 -0.33797750571E+02  0.23349663048E+02  0.43400729050E+02  0.00000000000E+00 0.  1.
         11    1    3    3    0    0 -0.95726767363E+00  0.67991161699E+01 -0.10754369438E-01  0.68661822003E+01  0.51100000000E-03 0. -1.
        -11    1    3    3    0    0 -0.11049640260E+02  0.61049414054E+01 -0.87676009007E+01  0.15369960483E+02  0.51100000000E-03 0.  1.
         12    1    3    3    0    0 -0.19976832393E+01  0.20893692995E+02 -0.14571307778E+02  0.25551128266E+02  0.00000000000E+00 0. -1.
</event>
<event>
 7    1  0.4031943E-009  0.4778728E+02  0.7816164E-02  0.1312668E+00
        -11   -1    0    0    0    0  0.00000000000E+00  0.00000000000E+00  0.45593999997E+02  0.45594000000E+02  0.51100000000E-03 0.  1.
         11   -1    0    0    0    0 -0.00000000000E+00 -0.00000000000E+00 -0.45593999997E+02  0.45594000000E+02  0.51100000000E-03 0. -1.
    9900012    2    1    2    0    0 -0.36641944074E+02 -0.22091162537E+02 -0.72780957258E+01  0.47787283357E+02  0.20000056137E+02 0.  0.
        -12    1    1    2    0    0  0.36641944074E+02  0.22091162537E+02  0.72780957258E+01  0.43400716643E+02  0.00000000000E+00 0.  1.
         11    1    3    3    0    0 -0.57168210261E+01 -0.93756139206E+01 -0.48190344263E+01  0.11991966982E+02  0.51100000000E-03 0. -1.
        -11    1    3    3    0    0 -0.77847832959E+01 -0.71532871969E+01 -0.53009833771E+01  0.11826782898E+02  0.51100000000E-03 0.  1.
        -12    1    3    3    0    0 -0.23140339752E+02 -0.55622614191E+01  0.28419220777E+01  0.23968533477E+02  0.00000000000E+00 0.  1.
</event>
<event>
 7    1  0.4031943E-009  0.4778727E+02  0.7816164E-02  0.1312668E+00
        -11   -1    0    0    0    0  0.00000000000E+00  0.00000000000E+00  0.45593999997E+02  0.45594000000E+02  0.51100000000E-03 0.  1.
         11   -1    0    0    0    0 -0.00000000000E+00 -0.00000000000E+00 -0.45593999997E+02  0.45594000000E+02  0.51100000000E-03 0. -1.
    9900012    2    1    2    0    0 -0.97853372462E+01 -0.33015109000E+02 -0.26417290228E+02  0.47787268782E+02  0.19999989683E+02 0.  0.
        -12    1    1    2    0    0  0.97853372462E+01  0.33015109000E+02  0.26417290228E+02  0.43400731218E+02  0.00000000000E+00 0.  1.
         11    1    3    3    0    0 -0.31156526740E+01 -0.21057927085E+02 -0.20023751105E+02  0.29224889962E+02  0.51100000000E-03 0. -1.
        -11    1    3    3    0    0 -0.18820317702E+00 -0.79389922126E+00 -0.55680874847E+01  0.56275478592E+01  0.51100000000E-03 0.  1.
        -12    1    3    3    0    0 -0.64814813951E+01 -0.11163282693E+02 -0.82545163829E+00  0.12934830960E+02  0.00000000000E+00 0.  1.
</event>
<event>
 7    1  0.4031943E-009  0.4778726E+02  0.7816164E-02  0.1312668E+00
        -11   -1    0    0    0    0  0.00000000000E+00  0.00000000000E+00  0.45593999997E+02  0.45594000000E+02  0.51100000000E-03 0.  1.
         11   -1    0    0    0    0 -0.00000000000E+00 -0.00000000000E+00 -0.45593999997E+02  0.45594000000E+02  0.51100000000E-03 0. -1.
    9900012    2    1    2    0    0  0.60123823295E+01 -0.42343819162E+02 -0.73808051712E+01  0.47787262132E+02  0.19999959365E+02 0.  0.
        -12    1    1    2    0    0 -0.60123823295E+01  0.42343819162E+02  0.73808051712E+01  0.43400737868E+02  0.00000000000E+00 0.  1.
         11    1    3    3    0    0  0.56176174212E+01 -0.14744400543E+02 -0.49975344727E+01  0.16550840581E+02  0.51100000000E-03 0. -1.
        -11    1    3    3    0    0  0.69922412576E+01 -0.12256858965E+02 -0.33647851313E+01  0.14506681520E+02  0.51100000000E-03 0.  1.
        -12    1    3    3    0    0 -0.65974763493E+01 -0.15342559655E+02  0.98151443285E+00  0.16729740031E+02  0.00000000000E+00 0.  1.
</event>
<event>
 7    1  0.4031943E-009  0.4778727E+02  0.7816164E-02  0.1312668E+00
        -11   -1    0    0    0    0  0.00000000000E+00  0.00000000000E+00  0.45593999997E+02  0.45594000000E+02  0.51100000000E-03 0. -1.
         11   -1    0    0    0    0 -0.00000000000E+00 -0.00000000000E+00 -0.45593999997E+02  0.45594000000E+02  0.51100000000E-03 0.  1.
    9900012    2    1    2    0    0  0.58964492479E+01  0.39034932521E+02  0.18031333903E+02  0.47787273358E+02  0.20000010551E+02 0.  0.
        -12    1    1    2    0    0 -0.58964492479E+01 -0.39034932521E+02 -0.18031333903E+02  0.43400726642E+02  0.00000000000E+00 0.  1.
         11    1    3    3    0    0  0.82162061670E+01  0.14224061319E+02  0.10638160872E+02  0.19570396807E+02  0.51100000000E-03 0. -1.
        -11    1    3    3    0    0  0.10128443309E+01  0.14929165466E+02  0.92963134622E+01  0.17616108520E+02  0.51100000000E-03 0.  1.
        -12    1    3    3    0    0 -0.33326012500E+01  0.98817057367E+01 -0.19031404309E+01  0.10600768032E+02  0.00000000000E+00 0.  1.
</event>
<event>
 7    1  0.4031943E-009  0.4778726E+02  0.7816164E-02  0.1312668E+00
        -11   -1    0    0    0    0  0.00000000000E+00  0.00000000000E+00  0.45593999997E+02  0.45594000000E+02  0.51100000000E-03 0.  1.
         11   -1    0    0    0    0 -0.00000000000E+00 -0.00000000000E+00 -0.45593999997E+02  0.45594000000E+02  0.51100000000E-03 0. -1.
    9900012    2    1    2    0    0 -0.15341816130E+02  0.73680982731E+01 -0.39924474040E+02  0.47787264734E+02  0.19999971226E+02 0.  0.
        -12    1    1    2    0    0  0.15341816130E+02 -0.73680982731E+01  0.39924474040E+02  0.43400735266E+02  0.00000000000E+00 0.  1.
         11    1    3    3    0    0 -0.19598878672E+01 -0.32657713108E+01 -0.26924830878E+01  0.46643207594E+01  0.51100000000E-03 0. -1.
        -11    1    3    3    0    0  0.20488064108E+01 -0.81746133775E+00 -0.19344579907E+01  0.29339357059E+01  0.51100000000E-03 0.  1.
         12    1    3    3    0    0 -0.15430734673E+02  0.11451330922E+02 -0.35297532961E+02  0.40189008268E+02  0.00000000000E+00 0. -1.
</event>
<event>
 7    1  0.4031943E-009  0.4778727E+02  0.7816164E-02  0.1312668E+00
        -11   -1    0    0    0    0  0.00000000000E+00  0.00000000000E+00  0.45593999997E+02  0.45594000000E+02  0.51100000000E-03 0.  1.
         11   -1    0    0    0    0 -0.00000000000E+00 -0.00000000000E+00 -0.45593999997E+02  0.45594000000E+02  0.51100000000E-03 0. -1.
    9900012    2    1    2    0    0 -0.36697341398E+02  0.20354608374E+02 -0.11073311931E+02  0.47787272070E+02  0.20000004675E+02 0.  0.
        -12    1    1    2    0    0  0.36697341398E+02 -0.20354608374E+02  0.11073311931E+02  0.43400727930E+02  0.00000000000E+00 0.  1.
         11    1    3    3    0    0 -0.14672521582E+02  0.67353540818E+00 -0.33199955425E+01  0.15058516202E+02  0.51100000000E-03 0. -1.
        -11    1    3    3    0    0 -0.94313666950E+01  0.13251099236E+01 -0.19043381632E+01  0.97125227488E+01  0.51100000000E-03 0.  1.
         12    1    3    3    0    0 -0.12593453120E+02  0.18355963043E+02 -0.58489782255E+01  0.23016233119E+02  0.00000000000E+00 0. -1.
</event>
<event>
 7    1  0.4031943E-009  0.4778727E+02  0.7816164E-02  0.1312668E+00
        -11   -1    0    0    0    0  0.00000000000E+00  0.00000000000E+00  0.45593999997E+02  0.45594000000E+02  0.51100000000E-03 0. -1.
         11   -1    0    0    0    0 -0.00000000000E+00 -0.00000000000E+00 -0.45593999997E+02  0.45594000000E+02  0.51100000000E-03 0.  1.
    9900012    2    1    2    0    0  0.31802130808E+02  0.26741385725E+02 -0.12535781875E+02  0.47787273490E+02  0.20000011149E+02 0.  0.
        -12    1    1    2    0    0 -0.31802130808E+02 -0.26741385725E+02  0.12535781875E+02  0.43400726510E+02  0.00000000000E+00 0.  1.
         11    1    3    3    0    0  0.73589511516E+01  0.91384821239E+01 -0.70048431097E+01  0.13665059269E+02  0.51100000000E-03 0. -1.
        -11    1    3    3    0    0  0.85302071189E+01  0.13409249348E+02 -0.74543378551E+01  0.17553904258E+02  0.51100000000E-03 0.  1.
        -12    1    3    3    0    0  0.15912972537E+02  0.41936542533E+01  0.19233990897E+01  0.16568309963E+02  0.00000000000E+00 0.  1.
</event>
<event>
 7    1  0.4031943E-009  0.4778727E+02  0.7816164E-02  0.1312668E+00
        -11   -1    0    0    0    0  0.00000000000E+00  0.00000000000E+00  0.45593999997E+02  0.45594000000E+02  0.51100000000E-03 0.  1.
         11   -1    0    0    0    0 -0.00000000000E+00 -0.00000000000E+00 -0.45593999997E+02  0.45594000000E+02  0.51100000000E-03 0. -1.
    9900012    2    1    2    0    0 -0.18140324118E+01  0.75185116128E+01 -0.42706023944E+02  0.47787271762E+02  0.20000003272E+02 0.  0.
        -12    1    1    2    0    0  0.18140324118E+01 -0.75185116128E+01  0.42706023944E+02  0.43400728238E+02  0.00000000000E+00 0.  1.
         11    1    3    3    0    0  0.12661943183E+01 -0.11628206370E+01 -0.12798128335E+01  0.21432034517E+01  0.51100000000E-03 0.  1.
        -11    1    3    3    0    0  0.61104428784E+01  0.54789385770E+00 -0.20353463378E+02  0.21257967250E+02  0.51100000000E-03 0. -1.
         12    1    3    3    0    0 -0.91906696085E+01  0.81334383921E+01 -0.21072747732E+02  0.24386101060E+02  0.00000000000E+00 0. -1.
</event>
<event>
 7    1  0.4031943E-009  0.4778728E+02  0.7816164E-02  0.1312668E+00
        -11   -1    0    0    0    0  0.00000000000E+00  0.00000000000E+00  0.45593999997E+02  0.45594000000E+02  0.51100000000E-03 0. -1.
         11   -1    0    0    0    0 -0.00000000000E+00 -0.00000000000E+00 -0.45593999997E+02  0.45594000000E+02  0.51100000000E-03 0.  1.
    9900012    2    1    2    0    0 -0.17209752542E+02  0.34738168731E+02  0.19511706683E+02  0.47787278266E+02  0.20000032926E+02 0.  0.
        -12    1    1    2    0    0  0.17209752542E+02 -0.34738168731E+02 -0.19511706683E+02  0.43400721734E+02  0.00000000000E+00 0.  1.
         11    1    3    3    0    0 -0.84794548764E+01  0.12171929720E+02  0.78338716266E+01  0.16775773396E+02  0.51100000000E-03 0. -1.
        -11    1    3    3    0    0 -0.77119507896E+01  0.21673951477E+01  0.53364388961E+01  0.96254541223E+01  0.51100000000E-03 0.  1.
        -12    1    3    3    0    0 -0.10183468760E+01  0.20398843864E+02  0.63413961602E+01  0.21386050748E+02  0.00000000000E+00 0.  1.
</event>
<event>
 7    1  0.4031943E-009  0.4778726E+02  0.7816164E-02  0.1312668E+00
        -11   -1    0    0    0    0  0.00000000000E+00  0.00000000000E+00  0.45593999997E+02  0.45594000000E+02  0.51100000000E-03 0.  1.
         11   -1    0    0    0    0 -0.00000000000E+00 -0.00000000000E+00 -0.45593999997E+02  0.45594000000E+02  0.51100000000E-03 0. -1.
    9900012    2    1    2    0    0 -0.33798984768E+02 -0.46250193198E+01 -0.26830238019E+02  0.47787264439E+02  0.19999969885E+02 0.  0.
        -12    1    1    2    0    0  0.33798984768E+02  0.46250193198E+01  0.26830238019E+02  0.43400735561E+02  0.00000000000E+00 0.  1.
         11    1    3    3    0    0 -0.67222610059E+01 -0.32765025094E+01 -0.47692520363E+01  0.88696125604E+01  0.51100000000E-03 0. -1.
        -11    1    3    3    0    0 -0.83703235837E+01 -0.76878254744E+01 -0.37053076149E+01  0.11953839643E+02  0.51100000000E-03 0.  1.
         12    1    3    3    0    0 -0.18706400178E+02  0.63393086641E+01 -0.18355678368E+02  0.26963812236E+02  0.00000000000E+00 0. -1.
</event>
<event>
 7    1  0.4031943E-009  0.4778727E+02  0.7816164E-02  0.1312668E+00
        -11   -1    0    0    0    0  0.00000000000E+00  0.00000000000E+00  0.45593999997E+02  0.45594000000E+02  0.51100000000E-03 0. -1.
         11   -1    0    0    0    0 -0.00000000000E+00 -0.00000000000E+00 -0.45593999997E+02  0.45594000000E+02  0.51100000000E-03 0.  1.
    9900012    2    1    2    0    0  0.10012334925E+00  0.30220184379E+02  0.31150499327E+02  0.47787272162E+02  0.20000005096E+02 0.  0.
        -12    1    1    2    0    0 -0.10012334925E+00 -0.30220184379E+02 -0.31150499327E+02  0.43400727838E+02  0.00000000000E+00 0.  1.
         11    1    3    3    0    0 -0.18869833314E+01  0.50847295762E+01  0.20314721443E+01  0.57915507673E+01  0.51100000000E-03 0. -1.
        -11    1    3    3    0    0  0.72569036822E+01  0.23637630532E+02  0.24787451233E+02  0.35011683295E+02  0.51100000000E-03 0.  1.
        -12    1    3    3    0    0 -0.52697970016E+01  0.14978242700E+01  0.43315759495E+01  0.69840381004E+01  0.00000000000E+00 0.  1.
</event>
<event>
 7    1  0.4031943E-009  0.4778727E+02  0.7816164E-02  0.1312668E+00
        -11   -1    0    0    0    0  0.00000000000E+00  0.00000000000E+00  0.45593999997E+02  0.45594000000E+02  0.51100000000E-03 0.  1.
         11   -1    0    0    0    0 -0.00000000000E+00 -0.00000000000E+00 -0.45593999997E+02  0.45594000000E+02  0.51100000000E-03 0. -1.
    9900012    2    1    2    0    0  0.11002936852E+02 -0.40760090750E+02 -0.10058514524E+02  0.47787270377E+02  0.19999996959E+02 0.  0.
        -12    1    1    2    0    0 -0.11002936852E+02  0.40760090750E+02  0.10058514524E+02  0.43400729623E+02  0.00000000000E+00 0.  1.
         11    1    3    3    0    0  0.51545113405E+01 -0.15900686271E+02 -0.10608405622E+02  0.19797451380E+02  0.51100000000E-03 0. -1.
        -11    1    3    3    0    0 -0.14687102018E+01 -0.26613613898E+01 -0.30907515889E+01  0.43350547574E+01  0.51100000000E-03 0.  1.
         12    1    3    3    0    0  0.73171357137E+01 -0.22198043090E+02  0.36406426875E+01  0.23654764240E+02  0.00000000000E+00 0. -1.
</event>
<event>
 7    1  0.4031943E-009  0.4778727E+02  0.7816164E-02  0.1312668E+00
        -11   -1    0    0    0    0  0.00000000000E+00  0.00000000000E+00  0.45593999997E+02  0.45594000000E+02  0.51100000000E-03 0.  1.
         11   -1    0    0    0    0 -0.00000000000E+00 -0.00000000000E+00 -0.45593999997E+02  0.45594000000E+02  0.51100000000E-03 0. -1.
    9900012    2    1    2    0    0  0.11518578891E+02 -0.12651723509E+02 -0.39885829164E+02  0.47787272638E+02  0.20000007266E+02 0.  0.
        -12    1    1    2    0    0 -0.11518578891E+02  0.12651723509E+02  0.39885829164E+02  0.43400727362E+02  0.00000000000E+00 0.  1.
         11    1    3    3    0    0  0.11968810023E+02 -0.80816934611E+01 -0.21267703497E+02  0.25707613559E+02  0.51100000000E-03 0. -1.
        -11    1    3    3    0    0  0.38467854536E+01  0.18510467101E+00 -0.21553343349E+01  0.44133307628E+01  0.51100000000E-03 0.  1.
        -12    1    3    3    0    0 -0.42970165860E+01 -0.47551347191E+01 -0.16462791332E+02  0.17666328317E+02  0.00000000000E+00 0.  1.
</event>
<event>
 7    1  0.4031943E-009  0.4778728E+02  0.7816164E-02  0.1312668E+00
        -11   -1    0    0    0    0  0.00000000000E+00  0.00000000000E+00  0.45593999997E+02  0.45594000000E+02  0.51100000000E-03 0.  1.
         11   -1    0    0    0    0 -0.00000000000E+00 -0.00000000000E+00 -0.45593999997E+02  0.45594000000E+02  0.51100000000E-03 0. -1.
    9900012    2    1    2    0    0 -0.33145659946E+02 -0.11860853384E+02 -0.25383228817E+02  0.47787275105E+02  0.20000018512E+02 0.  0.
        -12    1    1    2    0    0  0.33145659946E+02  0.11860853384E+02  0.25383228817E+02  0.43400724895E+02  0.00000000000E+00 0.  1.
         11    1    3    3    0    0 -0.40216336768E+01  0.41364244841E+00  0.78675560211E+00  0.41186918001E+01  0.51100000000E-03 0.  1.
        -11    1    3    3    0    0 -0.30854089918E+02 -0.12016564548E+02 -0.25511214426E+02  0.41799458728E+02  0.51100000000E-03 0. -1.
         12    1    3    3    0    0  0.17300636491E+01 -0.25793128440E+00 -0.65876999312E+00  0.18691245762E+01  0.00000000000E+00 0. -1.
</event>
<event>
 7    1  0.4031943E-009  0.4778727E+02  0.7816164E-02  0.1312668E+00
        -11   -1    0    0    0    0  0.00000000000E+00  0.00000000000E+00  0.45593999997E+02  0.45594000000E+02  0.51100000000E-03 0.  1.
         11   -1    0    0    0    0 -0.00000000000E+00 -0.00000000000E+00 -0.45593999997E+02  0.45594000000E+02  0.51100000000E-03 0. -1.
    9900012    2    1    2    0    0 -0.22525869806E+02 -0.37397351183E+01 -0.36908307146E+02  0.47787267683E+02  0.19999984675E+02 0.  0.
        -12    1    1    2    0    0  0.22525869806E+02  0.37397351183E+01  0.36908307146E+02  0.43400732317E+02  0.00000000000E+00 0.  1.
         11    1    3    3    0    0 -0.18008662646E+02 -0.65626663533E+00 -0.20956931968E+02  0.27639385195E+02  0.51100000000E-03 0. -1.
        -11    1    3    3    0    0 -0.69954284371E+01 -0.18897235428E+01 -0.48710532957E+01  0.87312218250E+01  0.51100000000E-03 0.  1.
         12    1    3    3    0    0  0.24782212773E+01 -0.11937449402E+01 -0.11080321883E+02  0.11416660663E+02  0.00000000000E+00 0. -1.
</event>
<event>
 7    1  0.4031943E-009  0.4778727E+02  0.7816164E-02  0.1312668E+00
        -11   -1    0    0    0    0  0.00000000000E+00  0.00000000000E+00  0.45593999997E+02  0.45594000000E+02  0.51100000000E-03 0.  1.
         11   -1    0    0    0    0 -0.00000000000E+00 -0.00000000000E+00 -0.45593999997E+02  0.45594000000E+02  0.51100000000E-03 0. -1.
    9900012    2    1    2    0    0 -0.10170019603E+02 -0.41676998548E+02 -0.65743211452E+01  0.47787271835E+02  0.20000003605E+02 0.  0.
        -12    1    1    2    0    0  0.10170019603E+02  0.41676998548E+02  0.65743211452E+01  0.43400728165E+02  0.00000000000E+00 0.  1.
         11    1    3    3    0    0 -0.30044388678E+01 -0.24659457346E+02  0.45779040392E+01  0.25260100854E+02  0.51100000000E-03 0.  1.
        -11    1    3    3    0    0  0.84713072631E+00 -0.52316756814E+01 -0.25594480354E+01  0.58854766510E+01  0.51100000000E-03 0. -1.
         12    1    3    3    0    0 -0.80127114615E+01 -0.11785865521E+02 -0.85927771491E+01  0.16641694330E+02  0.00000000000E+00 0. -1.
</event>
<event>
 7    1  0.4031943E-009  0.4778728E+02  0.7816164E-02  0.1312668E+00
        -11   -1    0    0    0    0  0.00000000000E+00  0.00000000000E+00  0.45593999997E+02  0.45594000000E+02  0.51100000000E-03 0.  1.
         11   -1    0    0    0    0 -0.00000000000E+00 -0.00000000000E+00 -0.45593999997E+02  0.45594000000E+02  0.51100000000E-03 0. -1.
    9900012    2    1    2    0    0  0.40876000621E+02  0.13254431656E+02  0.60905409603E+01  0.47787284862E+02  0.20000063001E+02 0.  0.
        -12    1    1    2    0    0 -0.40876000621E+02 -0.13254431656E+02 -0.60905409603E+01  0.43400715138E+02  0.00000000000E+00 0.  1.
         11    1    3    3    0    0  0.14415462771E+02  0.27526904468E+01 -0.15223378530E+01  0.14754673307E+02  0.51100000000E-03 0. -1.
        -11    1    3    3    0    0  0.25651222754E+02  0.48383819226E+01  0.44015831238E+01  0.26472043795E+02  0.51100000000E-03 0.  1.
        -12    1    3    3    0    0  0.80931509555E+00  0.56633592868E+01  0.32112956896E+01  0.65605677605E+01  0.00000000000E+00 0.  1.
</event>
<event>
 7    1  0.4031943E-009  0.4778728E+02  0.7816164E-02  0.1312668E+00
        -11   -1    0    0    0    0  0.00000000000E+00  0.00000000000E+00  0.45593999997E+02  0.45594000000E+02  0.51100000000E-03 0. -1.
         11   -1    0    0    0    0 -0.00000000000E+00 -0.00000000000E+00 -0.45593999997E+02  0.45594000000E+02  0.51100000000E-03 0.  1.
    9900012    2    1    2    0    0 -0.19195064244E+01  0.27950984805E+02  0.33146348966E+02  0.47787279888E+02  0.20000040319E+02 0.  0.
        -12    1    1    2    0    0  0.19195064244E+01 -0.27950984805E+02 -0.33146348966E+02  0.43400720112E+02  0.00000000000E+00 0.  1.
         11    1    3    3    0    0 -0.24483461361E+01  0.16455337864E+01  0.49234057478E+01  0.57395212921E+01  0.51100000000E-03 0. -1.
        -11    1    3    3    0    0 -0.25012412339E+01  0.11964865413E+01 -0.13925043220E+01  0.31027175672E+01  0.51100000000E-03 0.  1.
         12    1    3    3    0    0  0.30300809456E+01  0.25108964478E+02  0.29615447540E+02  0.38945041028E+02  0.00000000000E+00 0. -1.
</event>
<event>
 7    1  0.4031943E-009  0.4778728E+02  0.7816164E-02  0.1312668E+00
        -11   -1    0    0    0    0  0.00000000000E+00  0.00000000000E+00  0.45593999997E+02  0.45594000000E+02  0.51100000000E-03 0.  1.
         11   -1    0    0    0    0 -0.00000000000E+00 -0.00000000000E+00 -0.45593999997E+02  0.45594000000E+02  0.51100000000E-03 0. -1.
    9900012    2    1    2    0    0  0.22550427827E+02 -0.36741294058E+02 -0.50178096354E+01  0.47787275377E+02  0.20000019755E+02 0.  0.
        -12    1    1    2    0    0 -0.22550427827E+02  0.36741294058E+02  0.50178096354E+01  0.43400724623E+02  0.00000000000E+00 0.  1.
         11    1    3    3    0    0 -0.20942079035E+01 -0.31895248951E+01 -0.93829907109E+00  0.39292723509E+01  0.51100000000E-03 0. -1.
        -11    1    3    3    0    0  0.10272080408E+02 -0.19999036930E+02  0.33927350613E+01  0.22737364964E+02  0.51100000000E-03 0.  1.
        -12    1    3    3    0    0  0.14372555323E+02 -0.13552732232E+02 -0.74722456257E+01  0.21120638063E+02  0.00000000000E+00 0.  1.
</event>
<event>
 7    1  0.4031943E-009  0.4778727E+02  0.7816164E-02  0.1312668E+00
        -11   -1    0    0    0    0  0.00000000000E+00  0.00000000000E+00  0.45593999997E+02  0.45594000000E+02  0.51100000000E-03 0.  1.
         11   -1    0    0    0    0 -0.00000000000E+00 -0.00000000000E+00 -0.45593999997E+02  0.45594000000E+02  0.51100000000E-03 0. -1.
    9900012    2    1    2    0    0  0.20471544371E+02 -0.34678165884E+02  0.16185303116E+02  0.47787270110E+02  0.19999995740E+02 0.  0.
        -12    1    1    2    0    0 -0.20471544371E+02  0.34678165884E+02 -0.16185303116E+02  0.43400729890E+02  0.00000000000E+00 0.  1.
         11    1    3    3    0    0  0.96964888040E+01 -0.86831946968E+01  0.59920490784E+01  0.14329145742E+02  0.51100000000E-03 0. -1.
        -11    1    3    3    0    0  0.12112414425E+02 -0.17857453212E+02  0.12445224747E+02  0.24909492923E+02  0.51100000000E-03 0.  1.
        -12    1    3    3    0    0 -0.13373588582E+01 -0.81375179753E+01 -0.22519707094E+01  0.85486314454E+01  0.00000000000E+00 0.  1.
</event>
<event>
 7    1  0.4031943E-009  0.4778727E+02  0.7816164E-02  0.1312668E+00
        -11   -1    0    0    0    0  0.00000000000E+00  0.00000000000E+00  0.45593999997E+02  0.45594000000E+02  0.51100000000E-03 0. -1.
         11   -1    0    0    0    0 -0.00000000000E+00 -0.00000000000E+00 -0.45593999997E+02  0.45594000000E+02  0.51100000000E-03 0.  1.
    9900012    2    1    2    0    0 -0.16213594305E+02  0.40231644673E+02 -0.14687792667E+01  0.47787272057E+02  0.20000004618E+02 0.  0.
        -12    1    1    2    0    0  0.16213594305E+02 -0.40231644673E+02  0.14687792667E+01  0.43400727943E+02  0.00000000000E+00 0.  1.
         11    1    3    3    0    0 -0.10347237266E+02  0.11194555796E+02 -0.89815932444E+00  0.15270562823E+02  0.51100000000E-03 0. -1.
        -11    1    3    3    0    0 -0.71918155818E+01  0.17065052008E+02 -0.57708328879E+01  0.19396925630E+02  0.51100000000E-03 0.  1.
        -12    1    3    3    0    0  0.13254585423E+01  0.11972036869E+02  0.52002129456E+01  0.13119783605E+02  0.00000000000E+00 0.  1.
</event>
<event>
 7    1  0.5839604E-009  0.4778727E+02  0.7816164E-02  0.1312668E+00
        -11   -1    0    0    0    0  0.00000000000E+00  0.00000000000E+00  0.45593999997E+02  0.45594000000E+02  0.51100000000E-03 0. -1.
         11   -1    0    0    0    0 -0.00000000000E+00 -0.00000000000E+00 -0.45593999997E+02  0.45594000000E+02  0.51100000000E-03 0.  1.
    9900012    2    1    2    0    0  0.90418332628E+00 -0.82322924988E+01  0.42603229049E+02  0.47787270598E+02  0.19999997963E+02 0.  0.
        -12    1    1    2    0    0 -0.90418332628E+00  0.82322924988E+01 -0.42603229049E+02  0.43400729402E+02  0.00000000000E+00 0.  1.
         11    1    3    3    0    0  0.49656842199E+01 -0.81270723762E+01  0.33061724413E+02  0.34406175995E+02  0.51100000000E-03 0. -1.
        -11    1    3    3    0    0 -0.90627178502E+00  0.37881086053E+01  0.63192524840E+01  0.74232100584E+01  0.51100000000E-03 0.  1.
        -12    1    3    3    0    0 -0.31552291086E+01 -0.38933287279E+01  0.32222521514E+01  0.59578845439E+01  0.00000000000E+00 0.  1.
</event>
<event>
 7    1  0.4031943E-009  0.4778727E+02  0.7816164E-02  0.1312668E+00
        -11   -1    0    0    0    0  0.00000000000E+00  0.00000000000E+00  0.45593999997E+02  0.45594000000E+02  0.51100000000E-03 0. -1.
         11   -1    0    0    0    0 -0.00000000000E+00 -0.00000000000E+00 -0.45593999997E+02  0.45594000000E+02  0.51100000000E-03 0.  1.
    9900012    2    1    2    0    0  0.29521341756E+02 -0.10402944014E+02  0.30064803618E+02  0.47787270976E+02  0.19999999690E+02 0.  0.
        -12    1    1    2    0    0 -0.29521341756E+02  0.10402944014E+02 -0.30064803618E+02  0.43400729024E+02  0.00000000000E+00 0.  1.
         11    1    3    3    0    0  0.19975912426E+02 -0.31488365991E+01  0.16812231152E+02  0.26298352909E+02  0.51100000000E-03 0. -1.
        -11    1    3    3    0    0  0.51121276688E+01 -0.28379765719E+00  0.12112157850E+02  0.13149857735E+02  0.51100000000E-03 0.  1.
         12    1    3    3    0    0  0.44333016611E+01 -0.69703097573E+01  0.11404146164E+01  0.83390603324E+01  0.00000000000E+00 0. -1.
</event>
<event>
 7    1  0.4031943E-009  0.4778728E+02  0.7816164E-02  0.1312668E+00
        -11   -1    0    0    0    0  0.00000000000E+00  0.00000000000E+00  0.45593999997E+02  0.45594000000E+02  0.51100000000E-03 0. -1.
         11   -1    0    0    0    0 -0.00000000000E+00 -0.00000000000E+00 -0.45593999997E+02  0.45594000000E+02  0.51100000000E-03 0.  1.
    9900012    2    1    2    0    0  0.52557742639E+01 -0.20261923588E+01  0.43033639308E+02  0.47787277302E+02  0.20000028533E+02 0.  0.
        -12    1    1    2    0    0 -0.52557742639E+01  0.20261923588E+01 -0.43033639308E+02  0.43400722698E+02  0.00000000000E+00 0.  1.
         11    1    3    3    0    0  0.69064081616E+01 -0.41156311756E+01  0.17604933193E+02  0.19353825633E+02  0.51100000000E-03 0. -1.
        -11    1    3    3    0    0  0.18518265536E+01  0.25781646186E+01  0.45045621863E+00  0.32061044043E+01  0.51100000000E-03 0.  1.
         12    1    3    3    0    0 -0.35024604513E+01 -0.48872580180E+00  0.24978249896E+02  0.25227347265E+02  0.00000000000E+00 0. -1.
</event>
<event>
 7    1  0.4031943E-009  0.4778726E+02  0.7816164E-02  0.1312668E+00
        -11   -1    0    0    0    0  0.00000000000E+00  0.00000000000E+00  0.45593999997E+02  0.45594000000E+02  0.51100000000E-03 0.  1.
         11   -1    0    0    0    0 -0.00000000000E+00 -0.00000000000E+00 -0.45593999997E+02  0.45594000000E+02  0.51100000000E-03 0. -1.
    9900012    2    1    2    0    0 -0.15413322988E+02  0.21994466904E+02 -0.34092475851E+02  0.47787262569E+02  0.19999961357E+02 0.  0.
        -12    1    1    2    0    0  0.15413322988E+02 -0.21994466904E+02  0.34092475851E+02  0.43400737431E+02  0.00000000000E+00 0.  1.
         11    1    3    3    0    0 -0.36681836589E+01  0.10993377179E+02 -0.15784984426E+02  0.19582534227E+02  0.51100000000E-03 0. -1.
        -11    1    3    3    0    0 -0.83600336245E+01  0.11574015465E+02 -0.19841393303E+02  0.24444403954E+02  0.51100000000E-03 0.  1.
        -12    1    3    3    0    0 -0.33851057044E+01 -0.57292573935E+00  0.15339018787E+01  0.37603243885E+01  0.00000000000E+00 0.  1.
</event>
<event>
 7    1  0.4031943E-009  0.4778728E+02  0.7816164E-02  0.1312668E+00
        -11   -1    0    0    0    0  0.00000000000E+00  0.00000000000E+00  0.45593999997E+02  0.45594000000E+02  0.51100000000E-03 0. -1.
         11   -1    0    0    0    0 -0.00000000000E+00 -0.00000000000E+00 -0.45593999997E+02  0.45594000000E+02  0.51100000000E-03 0.  1.
    9900012    2    1    2    0    0 -0.53225807295E+01  0.39678842301E+02  0.16759528488E+02  0.47787283564E+02  0.20000057083E+02 0.  0.
        -12    1    1    2    0    0  0.53225807295E+01 -0.39678842301E+02 -0.16759528488E+02  0.43400716436E+02  0.00000000000E+00 0.  1.
         11    1    3    3    0    0 -0.37635466195E+01  0.99256566647E+01  0.47672734414E+01  0.11636573366E+02  0.51100000000E-03 0. -1.
        -11    1    3    3    0    0 -0.82242520593E+01  0.23678416432E+02  0.82777276657E+01  0.26397471512E+02  0.51100000000E-03 0.  1.
        -12    1    3    3    0    0  0.66652179493E+01  0.60747692041E+01  0.37145273808E+01  0.97532386856E+01  0.00000000000E+00 0.  1.
</event>
<event>
 7    1  0.4031943E-009  0.4778727E+02  0.7816164E-02  0.1312668E+00
        -11   -1    0    0    0    0  0.00000000000E+00  0.00000000000E+00  0.45593999997E+02  0.45594000000E+02  0.51100000000E-03 0. -1.
         11   -1    0    0    0    0 -0.00000000000E+00 -0.00000000000E+00 -0.45593999997E+02  0.45594000000E+02  0.51100000000E-03 0.  1.
    9900012    2    1    2    0    0  0.41079058691E+01 -0.41370070904E+02  0.12460555357E+02  0.47787273081E+02  0.20000009288E+02 0.  0.
        -12    1    1    2    0    0 -0.41079058691E+01  0.41370070904E+02 -0.12460555357E+02  0.43400726919E+02  0.00000000000E+00 0.  1.
         11    1    3    3    0    0  0.29036518676E+01 -0.21480539940E+02  0.40524746043E+01  0.22051470267E+02  0.51100000000E-03 0. -1.
        -11    1    3    3    0    0  0.21156069102E+01 -0.20969467535E+02  0.10232136079E+02  0.23428422275E+02  0.51100000000E-03 0.  1.
        -12    1    3    3    0    0 -0.91135290873E+00  0.10799365707E+01 -0.18240553258E+01  0.23073805391E+01  0.00000000000E+00 0.  1.
</event>
<event>
 7    1  0.4031943E-009  0.4778728E+02  0.7816164E-02  0.1312668E+00
        -11   -1    0    0    0    0  0.00000000000E+00  0.00000000000E+00  0.45593999997E+02  0.45594000000E+02  0.51100000000E-03 0.  1.
         11   -1    0    0    0    0 -0.00000000000E+00 -0.00000000000E+00 -0.45593999997E+02  0.45594000000E+02  0.51100000000E-03 0. -1.
    9900012    2    1    2    0    0 -0.42546828300E+02  0.82667044888E+01  0.22476313155E+01  0.47787275950E+02  0.20000022367E+02 0.  0.
        -12    1    1    2    0    0  0.42546828300E+02 -0.82667044888E+01 -0.22476313155E+01  0.43400724050E+02  0.00000000000E+00 0.  1.
         11    1    3    3    0    0 -0.35169882658E+02  0.10694240107E+02 -0.34768233189E+01  0.36923917970E+02  0.51100000000E-03 0. -1.
        -11    1    3    3    0    0 -0.64033651483E+00  0.43664048676E-02 -0.90187638591E+00  0.11060882398E+01  0.51100000000E-03 0.  1.
        -12    1    3    3    0    0 -0.67366091279E+01 -0.24319020231E+01  0.66263310203E+01  0.97572697402E+01  0.00000000000E+00 0.  1.
</event>
<event>
 7    1  0.4031943E-009  0.4778727E+02  0.7816164E-02  0.1312668E+00
        -11   -1    0    0    0    0  0.00000000000E+00  0.00000000000E+00  0.45593999997E+02  0.45594000000E+02  0.51100000000E-03 0. -1.
         11   -1    0    0    0    0 -0.00000000000E+00 -0.00000000000E+00 -0.45593999997E+02  0.45594000000E+02  0.51100000000E-03 0.  1.
    9900012    2    1    2    0    0 -0.18889694788E+01  0.42800432879E+02  0.69410740894E+01  0.47787265331E+02  0.19999973950E+02 0.  0.
        -12    1    1    2    0    0  0.18889694788E+01 -0.42800432879E+02 -0.69410740894E+01  0.43400734669E+02  0.00000000000E+00 0.  1.
         11    1    3    3    0    0 -0.12815602493E+01  0.29566652922E+02  0.11827925066E+02  0.31870506324E+02  0.51100000000E-03 0. -1.
        -11    1    3    3    0    0  0.19414218481E+01  0.94496789936E+01 -0.61507550064E+00  0.96666369543E+01  0.51100000000E-03 0.  1.
        -12    1    3    3    0    0 -0.25488310776E+01  0.37841009628E+01 -0.42717754758E+01  0.62501220528E+01  0.00000000000E+00 0.  1.
</event>
<event>
 7    1  0.4031943E-009  0.4778727E+02  0.7816164E-02  0.1312668E+00
        -11   -1    0    0    0    0  0.00000000000E+00  0.00000000000E+00  0.45593999997E+02  0.45594000000E+02  0.51100000000E-03 0. -1.
         11   -1    0    0    0    0 -0.00000000000E+00 -0.00000000000E+00 -0.45593999997E+02  0.45594000000E+02  0.51100000000E-03 0.  1.
    9900012    2    1    2    0    0  0.19787572926E+02  0.35402596628E+02  0.15450929922E+02  0.47787272750E+02  0.20000007778E+02 0.  0.
        -12    1    1    2    0    0 -0.19787572926E+02 -0.35402596628E+02 -0.15450929922E+02  0.43400727250E+02  0.00000000000E+00 0.  1.
         11    1    3    3    0    0  0.67430695498E+01  0.40935754147E+01  0.11134144027E+00  0.78891535545E+01  0.51100000000E-03 0. -1.
        -11    1    3    3    0    0  0.73027490276E+01  0.23005606297E+02  0.35820510910E+01  0.24401212157E+02  0.51100000000E-03 0.  1.
         12    1    3    3    0    0  0.57417543487E+01  0.83034149170E+01  0.11757537391E+02  0.15496907039E+02  0.00000000000E+00 0. -1.
</event>
<event>
 7    1  0.4031943E-009  0.4778727E+02  0.7816164E-02  0.1312668E+00
        -11   -1    0    0    0    0  0.00000000000E+00  0.00000000000E+00  0.45593999997E+02  0.45594000000E+02  0.51100000000E-03 0.  1.
         11   -1    0    0    0    0 -0.00000000000E+00 -0.00000000000E+00 -0.45593999997E+02  0.45594000000E+02  0.51100000000E-03 0. -1.
    9900012    2    1    2    0    0 -0.10610695944E+02  0.47689202258E+01 -0.41812608694E+02  0.47787265970E+02  0.19999976865E+02 0.  0.
        -12    1    1    2    0    0  0.10610695944E+02 -0.47689202258E+01  0.41812608694E+02  0.43400734030E+02  0.00000000000E+00 0.  1.
         11    1    3    3    0    0 -0.83159847943E+00  0.46048454806E+01 -0.15816952826E+02  0.16494609874E+02  0.51100000000E-03 0. -1.
        -11    1    3    3    0    0 -0.19668351987E+01  0.20607880221E+01  0.10816221940E+01  0.30471617618E+01  0.51100000000E-03 0.  1.
         12    1    3    3    0    0 -0.78122622663E+01 -0.18967132769E+01 -0.27077278061E+02  0.28245494334E+02  0.00000000000E+00 0. -1.
</event>
<event>
 7    1  0.4031943E-009  0.4778728E+02  0.7816164E-02  0.1312668E+00
        -11   -1    0    0    0    0  0.00000000000E+00  0.00000000000E+00  0.45593999997E+02  0.45594000000E+02  0.51100000000E-03 0.  1.
         11   -1    0    0    0    0 -0.00000000000E+00 -0.00000000000E+00 -0.45593999997E+02  0.45594000000E+02  0.51100000000E-03 0. -1.
    9900012    2    1    2    0    0 -0.15190810829E+02 -0.80567415765E+01 -0.39849102089E+02  0.47787277014E+02  0.20000027216E+02 0.  0.
        -12    1    1    2    0    0  0.15190810829E+02  0.80567415765E+01  0.39849102089E+02  0.43400722986E+02  0.00000000000E+00 0.  1.
         11    1    3    3    0    0 -0.71719910139E+01  0.40905010537E+00 -0.14475864542E+02  0.16160304192E+02  0.51100000000E-03 0. -1.
        -11    1    3    3    0    0 -0.25223595963E+01  0.42076338882E+01 -0.85656796235E+01  0.98710358394E+01  0.51100000000E-03 0.  1.
        -12    1    3    3    0    0 -0.54964602185E+01 -0.12673425570E+02 -0.16807557923E+02  0.21755936982E+02  0.00000000000E+00 0.  1.
</event>
<event>
 7    1  0.4031943E-009  0.4778727E+02  0.7816164E-02  0.1312668E+00
        -11   -1    0    0    0    0  0.00000000000E+00  0.00000000000E+00  0.45593999997E+02  0.45594000000E+02  0.51100000000E-03 0.  1.
         11   -1    0    0    0    0 -0.00000000000E+00 -0.00000000000E+00 -0.45593999997E+02  0.45594000000E+02  0.51100000000E-03 0. -1.
    9900012    2    1    2    0    0 -0.12486982462E+02  0.40917604148E+02  0.73108225848E+01  0.47787272044E+02  0.20000004559E+02 0.  0.
        -12    1    1    2    0    0  0.12486982462E+02 -0.40917604148E+02 -0.73108225848E+01  0.43400727956E+02  0.00000000000E+00 0.  1.
         11    1    3    3    0    0 -0.60696126632E+00  0.14248964512E+02  0.32558575073E+01  0.14628807197E+02  0.51100000000E-03 0. -1.
        -11    1    3    3    0    0 -0.13095014195E+02  0.19642940129E+02  0.81028251296E+01  0.24959572693E+02  0.51100000000E-03 0.  1.
        -12    1    3    3    0    0  0.12149929998E+01  0.70256995073E+01 -0.40478600521E+01  0.81988921543E+01  0.00000000000E+00 0.  1.
</event>
<event>
 7    1  0.4031943E-009  0.4778727E+02  0.7816164E-02  0.1312668E+00
        -11   -1    0    0    0    0  0.00000000000E+00  0.00000000000E+00  0.45593999997E+02  0.45594000000E+02  0.51100000000E-03 0.  1.
         11   -1    0    0    0    0 -0.00000000000E+00 -0.00000000000E+00 -0.45593999997E+02  0.45594000000E+02  0.51100000000E-03 0. -1.
    9900012    2    1    2    0    0  0.98096638485E+01 -0.39988327124E+02 -0.13723252059E+02  0.47787268922E+02  0.19999990323E+02 0.  0.
        -12    1    1    2    0    0 -0.98096638485E+01  0.39988327124E+02  0.13723252059E+02  0.43400731078E+02  0.00000000000E+00 0.  1.
         11    1    3    3    0    0  0.41280726223E+01 -0.13801284838E+02 -0.54680160877E+01  0.15408297990E+02  0.51100000000E-03 0. -1.
        -11    1    3    3    0    0  0.79429213349E+01 -0.12282324528E+02 -0.10644922580E+02  0.18090325374E+02  0.51100000000E-03 0.  1.
         12    1    3    3    0    0 -0.22613301087E+01 -0.13904717759E+02  0.23896866082E+01  0.14288645558E+02  0.00000000000E+00 0. -1.
</event>
<event>
 7    1  0.4031943E-009  0.4778727E+02  0.7816164E-02  0.1312668E+00
        -11   -1    0    0    0    0  0.00000000000E+00  0.00000000000E+00  0.45593999997E+02  0.45594000000E+02  0.51100000000E-03 0.  1.
         11   -1    0    0    0    0 -0.00000000000E+00 -0.00000000000E+00 -0.45593999997E+02  0.45594000000E+02  0.51100000000E-03 0. -1.
    9900012    2    1    2    0    0  0.39059877659E+01 -0.33556470954E+02 -0.27245731740E+02  0.47787269806E+02  0.19999994356E+02 0.  0.
        -12    1    1    2    0    0 -0.39059877659E+01  0.33556470954E+02  0.27245731740E+02  0.43400730194E+02  0.00000000000E+00 0.  1.
         11    1    3    3    0    0  0.85527664089E+00 -0.49585421678E+00  0.13631828348E+00  0.99797418418E+00  0.51100000000E-03 0. -1.
        -11    1    3    3    0    0  0.23386164030E+01 -0.19765675492E+02 -0.46409662526E+01  0.20437456357E+02  0.51100000000E-03 0.  1.
         12    1    3    3    0    0  0.71209472201E+00 -0.13294941245E+02 -0.22741083771E+02  0.26351839265E+02  0.00000000000E+00 0. -1.
</event>
<event>
 7    1  0.4031943E-009  0.4778727E+02  0.7816164E-02  0.1312668E+00
        -11   -1    0    0    0    0  0.00000000000E+00  0.00000000000E+00  0.45593999997E+02  0.45594000000E+02  0.51100000000E-03 0. -1.
         11   -1    0    0    0    0 -0.00000000000E+00 -0.00000000000E+00 -0.45593999997E+02  0.45594000000E+02  0.51100000000E-03 0.  1.
    9900012    2    1    2    0    0  0.15371479478E+02  0.33310692919E+02  0.23189184874E+02  0.47787274900E+02  0.20000017578E+02 0.  0.
        -12    1    1    2    0    0 -0.15371479478E+02 -0.33310692919E+02 -0.23189184874E+02  0.43400725100E+02  0.00000000000E+00 0.  1.
         11    1    3    3    0    0  0.65835600403E+01  0.88358067619E+01  0.11936895140E+02  0.16245128802E+02  0.51100000000E-03 0. -1.
        -11    1    3    3    0    0  0.24558664782E+01  0.10140827797E+02  0.11940151077E+02  0.15856698161E+02  0.51100000000E-03 0.  1.
        -12    1    3    3    0    0  0.63320529596E+01  0.14334058361E+02 -0.68786134297E+00  0.15685447937E+02  0.00000000000E+00 0.  1.
</event>
<event>
 7    1  0.4031943E-009  0.4778727E+02  0.7816164E-02  0.1312668E+00
        -11   -1    0    0    0    0  0.00000000000E+00  0.00000000000E+00  0.45593999997E+02  0.45594000000E+02  0.51100000000E-03 0. -1.
         11   -1    0    0    0    0 -0.00000000000E+00 -0.00000000000E+00 -0.45593999997E+02  0.45594000000E+02  0.51100000000E-03 0.  1.
    9900012    2    1    2    0    0 -0.35770988351E+02  0.19602794679E+02  0.14825329669E+02  0.47787267672E+02  0.19999984623E+02 0.  0.
        -12    1    1    2    0    0  0.35770988351E+02 -0.19602794679E+02 -0.14825329669E+02  0.43400732328E+02  0.00000000000E+00 0.  1.
         11    1    3    3    0    0 -0.12035990317E+02  0.14485707317E+02  0.77088285786E+01  0.20350106085E+02  0.51100000000E-03 0. -1.
        -11    1    3    3    0    0 -0.94495542763E+01  0.69750201430E+01  0.10026395191E+01  0.11787716839E+02  0.51100000000E-03 0.  1.
        -12    1    3    3    0    0 -0.14285443758E+02 -0.18579327811E+01  0.61138615717E+01  0.15649444747E+02  0.00000000000E+00 0.  1.
</event>
<event>
 7    1  0.4031943E-009  0.4778727E+02  0.7816164E-02  0.1312668E+00
        -11   -1    0    0    0    0  0.00000000000E+00  0.00000000000E+00  0.45593999997E+02  0.45594000000E+02  0.51100000000E-03 0. -1.
         11   -1    0    0    0    0 -0.00000000000E+00 -0.00000000000E+00 -0.45593999997E+02  0.45594000000E+02  0.51100000000E-03 0.  1.
    9900012    2    1    2    0    0 -0.36688614396E+02  0.68401606848E+01  0.22153571343E+02  0.47787274801E+02  0.20000017130E+02 0.  0.
        -12    1    1    2    0    0  0.36688614396E+02 -0.68401606848E+01 -0.22153571343E+02  0.43400725199E+02  0.00000000000E+00 0.  1.
         11    1    3    3    0    0 -0.23212141617E+01  0.47392654676E+01  0.51008124221E+01  0.73394114194E+01  0.51100000000E-03 0. -1.
        -11    1    3    3    0    0 -0.19484056971E+02  0.69345106261E+01  0.12436524435E+02  0.24132613906E+02  0.51100000000E-03 0.  1.
         12    1    3    3    0    0 -0.14883343264E+02 -0.48336154089E+01  0.46162344861E+01  0.16315249476E+02  0.00000000000E+00 0. -1.
</event>
<event>
 7    1  0.4031943E-009  0.4778728E+02  0.7816164E-02  0.1312668E+00
        -11   -1    0    0    0    0  0.00000000000E+00  0.00000000000E+00  0.45593999997E+02  0.45594000000E+02  0.51100000000E-03 0. -1.
         11   -1    0    0    0    0 -0.00000000000E+00 -0.00000000000E+00 -0.45593999997E+02  0.45594000000E+02  0.51100000000E-03 0.  1.
    9900012    2    1    2    0    0 -0.19334512745E+02  0.34817053825E+02  0.17250277867E+02  0.47787277579E+02  0.20000029795E+02 0.  0.
        -12    1    1    2    0    0  0.19334512745E+02 -0.34817053825E+02 -0.17250277867E+02  0.43400722421E+02  0.00000000000E+00 0.  1.
         11    1    3    3    0    0 -0.74485182004E+01  0.33247725102E+01  0.25831443193E+01  0.85561188901E+01  0.51100000000E-03 0. -1.
        -11    1    3    3    0    0  0.46318717274E-01 -0.12724339624E+01  0.14767832495E+01  0.19499032385E+01  0.51100000000E-03 0.  1.
         12    1    3    3    0    0 -0.11932313262E+02  0.32764715277E+02  0.13190350298E+02  0.37281255451E+02  0.00000000000E+00 0. -1.
</event>
<event>
 7    1  0.4031943E-009  0.4778727E+02  0.7816164E-02  0.1312668E+00
        -11   -1    0    0    0    0  0.00000000000E+00  0.00000000000E+00  0.45593999997E+02  0.45594000000E+02  0.51100000000E-03 0.  1.
         11   -1    0    0    0    0 -0.00000000000E+00 -0.00000000000E+00 -0.45593999997E+02  0.45594000000E+02  0.51100000000E-03 0. -1.
    9900012    2    1    2    0    0 -0.14614310389E+02  0.12721414839E+02 -0.38835691453E+02  0.47787269657E+02  0.19999993675E+02 0.  0.
        -12    1    1    2    0    0  0.14614310389E+02 -0.12721414839E+02  0.38835691453E+02  0.43400730343E+02  0.00000000000E+00 0.  1.
         11    1    3    3    0    0  0.82337165541E+00  0.54965581734E+01 -0.29382554675E+01  0.62867669028E+01  0.51100000000E-03 0. -1.
        -11    1    3    3    0    0 -0.13223509815E+00 -0.24121866915E+01 -0.22566358228E+01  0.33058336699E+01  0.51100000000E-03 0.  1.
         12    1    3    3    0    0 -0.15305446946E+02  0.96370433575E+01 -0.33640800163E+02  0.38194669085E+02  0.00000000000E+00 0. -1.
</event>
<event>
 7    1  0.4031943E-009  0.4778727E+02  0.7816164E-02  0.1312668E+00
        -11   -1    0    0    0    0  0.00000000000E+00  0.00000000000E+00  0.45593999997E+02  0.45594000000E+02  0.51100000000E-03 0. -1.
         11   -1    0    0    0    0 -0.00000000000E+00 -0.00000000000E+00 -0.45593999997E+02  0.45594000000E+02  0.51100000000E-03 0.  1.
    9900012    2    1    2    0    0 -0.11491097731E+02 -0.14095078735E+02  0.39406935162E+02  0.47787272927E+02  0.20000008583E+02 0.  0.
        -12    1    1    2    0    0  0.11491097731E+02  0.14095078735E+02 -0.39406935162E+02  0.43400727073E+02  0.00000000000E+00 0.  1.
         11    1    3    3    0    0  0.34429393395E-01 -0.40888136096E+01  0.10769090574E+02  0.11519240174E+02  0.51100000000E-03 0. -1.
        -11    1    3    3    0    0 -0.20469950938E+01 -0.64219670614E+01  0.24348139193E+02  0.25263881971E+02  0.51100000000E-03 0.  1.
        -12    1    3    3    0    0 -0.94785320304E+01 -0.35842980637E+01  0.42897053950E+01  0.11004150782E+02  0.00000000000E+00 0.  1.
</event>
<event>
 7    1  0.4031943E-009  0.4778727E+02  0.7816164E-02  0.1312668E+00
        -11   -1    0    0    0    0  0.00000000000E+00  0.00000000000E+00  0.45593999997E+02  0.45594000000E+02  0.51100000000E-03 0.  1.
         11   -1    0    0    0    0 -0.00000000000E+00 -0.00000000000E+00 -0.45593999997E+02  0.45594000000E+02  0.51100000000E-03 0. -1.
    9900012    2    1    2    0    0  0.21157277247E+02 -0.14514396230E+02 -0.35004647915E+02  0.47787268968E+02  0.19999990533E+02 0.  0.
        -12    1    1    2    0    0 -0.21157277247E+02  0.14514396230E+02  0.35004647915E+02  0.43400731032E+02  0.00000000000E+00 0.  1.
         11    1    3    3    0    0  0.14625691010E+02 -0.12924325561E+02 -0.29073792511E+02  0.35017630416E+02  0.51100000000E-03 0. -1.
        -11    1    3    3    0    0  0.47754128500E+01  0.27088921537E+01 -0.59899801452E+01  0.81254247267E+01  0.51100000000E-03 0.  1.
        -12    1    3    3    0    0  0.17561733873E+01 -0.42989628232E+01  0.59124740838E-01  0.46442138254E+01  0.00000000000E+00 0.  1.
</event>
<event>
 7    1  0.4031943E-009  0.4778728E+02  0.7816164E-02  0.1312668E+00
        -11   -1    0    0    0    0  0.00000000000E+00  0.00000000000E+00  0.45593999997E+02  0.45594000000E+02  0.51100000000E-03 0. -1.
         11   -1    0    0    0    0 -0.00000000000E+00 -0.00000000000E+00 -0.45593999997E+02  0.45594000000E+02  0.51100000000E-03 0.  1.
    9900012    2    1    2    0    0 -0.16025161509E+02 -0.35578620542E+02  0.18999434894E+02  0.47787279184E+02  0.20000037112E+02 0.  0.
        -12    1    1    2    0    0  0.16025161509E+02  0.35578620542E+02 -0.18999434894E+02  0.43400720816E+02  0.00000000000E+00 0.  1.
         11    1    3    3    0    0 -0.99837741182E+01 -0.87231256633E+01  0.40000705984E+01  0.13848076835E+02  0.51100000000E-03 0. -1.
        -11    1    3    3    0    0 -0.29218515662E+01 -0.37018011263E+01 -0.19214341790E+01  0.50923921411E+01  0.51100000000E-03 0.  1.
         12    1    3    3    0    0 -0.31195358244E+01 -0.23153693752E+02  0.16920798475E+02  0.28846810208E+02  0.00000000000E+00 0. -1.
</event>
<event>
 7    1  0.4031943E-009  0.4778727E+02  0.7816164E-02  0.1312668E+00
        -11   -1    0    0    0    0  0.00000000000E+00  0.00000000000E+00  0.45593999997E+02  0.45594000000E+02  0.51100000000E-03 0. -1.
         11   -1    0    0    0    0 -0.00000000000E+00 -0.00000000000E+00 -0.45593999997E+02  0.45594000000E+02  0.51100000000E-03 0.  1.
    9900012    2    1    2    0    0  0.26366845119E+02 -0.34444123581E+02  0.14195696858E+01  0.47787270181E+02  0.19999996062E+02 0.  0.
        -12    1    1    2    0    0 -0.26366845119E+02  0.34444123581E+02 -0.14195696858E+01  0.43400729819E+02  0.00000000000E+00 0.  1.
         11    1    3    3    0    0  0.14886253816E+02 -0.26723387511E+02  0.14262981910E+01  0.30623101076E+02  0.51100000000E-03 0. -1.
        -11    1    3    3    0    0  0.82432447205E+01 -0.99670392155E+01  0.13320877432E+01  0.13002592521E+02  0.51100000000E-03 0.  1.
        -12    1    3    3    0    0  0.32373465825E+01  0.22463031456E+01 -0.13388162483E+01  0.41615765840E+01  0.00000000000E+00 0.  1.
</event>
<event>
 7    1  0.4031943E-009  0.4778727E+02  0.7816164E-02  0.1312668E+00
        -11   -1    0    0    0    0  0.00000000000E+00  0.00000000000E+00  0.45593999997E+02  0.45594000000E+02  0.51100000000E-03 0. -1.
         11   -1    0    0    0    0 -0.00000000000E+00 -0.00000000000E+00 -0.45593999997E+02  0.45594000000E+02  0.51100000000E-03 0.  1.
    9900012    2    1    2    0    0 -0.70453092973E+01 -0.34297609664E+02  0.25644896194E+02  0.47787272903E+02  0.20000008475E+02 0.  0.
        -12    1    1    2    0    0  0.70453092973E+01  0.34297609664E+02 -0.25644896194E+02  0.43400727097E+02  0.00000000000E+00 0.  1.
         11    1    3    3    0    0 -0.56031890851E+00 -0.12637572732E+02  0.47513595819E+01  0.13512868681E+02  0.51100000000E-03 0. -1.
        -11    1    3    3    0    0  0.22021854579E+01  0.51090325092E+00 -0.44049668937E+00  0.23031892057E+01  0.51100000000E-03 0.  1.
        -12    1    3    3    0    0 -0.86871758466E+01 -0.22170940183E+02  0.21334033301E+02  0.31971215017E+02  0.00000000000E+00 0.  1.
</event>
<event>
 7    1  0.4031943E-009  0.4778728E+02  0.7816164E-02  0.1312668E+00
        -11   -1    0    0    0    0  0.00000000000E+00  0.00000000000E+00  0.45593999997E+02  0.45594000000E+02  0.51100000000E-03 0.  1.
         11   -1    0    0    0    0 -0.00000000000E+00 -0.00000000000E+00 -0.45593999997E+02  0.45594000000E+02  0.51100000000E-03 0. -1.
    9900012    2    1    2    0    0  0.34988615662E+02 -0.15770337472E+02 -0.20266133190E+02  0.47787275071E+02  0.20000018357E+02 0.  0.
        -12    1    1    2    0    0 -0.34988615662E+02  0.15770337472E+02  0.20266133190E+02  0.43400724929E+02  0.00000000000E+00 0.  1.
         11    1    3    3    0    0  0.22582470582E+01 -0.26720772223E+01 -0.53649564836E+01  0.64048758606E+01  0.51100000000E-03 0. -1.
        -11    1    3    3    0    0  0.44385038843E+01 -0.29443204419E+01  0.32776996858E+01  0.62540111198E+01  0.51100000000E-03 0.  1.
         12    1    3    3    0    0  0.28291864719E+02 -0.10153939808E+02 -0.18178876392E+02  0.35128388090E+02  0.00000000000E+00 0. -1.
</event>
<event>
 7    1  0.4031943E-009  0.4778727E+02  0.7816164E-02  0.1312668E+00
        -11   -1    0    0    0    0  0.00000000000E+00  0.00000000000E+00  0.45593999997E+02  0.45594000000E+02  0.51100000000E-03 0.  1.
         11   -1    0    0    0    0 -0.00000000000E+00 -0.00000000000E+00 -0.45593999997E+02  0.45594000000E+02  0.51100000000E-03 0. -1.
    9900012    2    1    2    0    0  0.56151491764E+01 -0.37436585471E+01 -0.42872815110E+02  0.47787272413E+02  0.20000006241E+02 0.  0.
        -12    1    1    2    0    0 -0.56151491764E+01  0.37436585471E+01  0.42872815110E+02  0.43400727587E+02  0.00000000000E+00 0.  1.
         11    1    3    3    0    0  0.68790621924E+01 -0.10946932029E+01 -0.25027477826E+02  0.25978731618E+02  0.51100000000E-03 0. -1.
        -11    1    3    3    0    0 -0.12769440464E+01  0.47637561453E+01 -0.90452290327E+01  0.10302433073E+02  0.51100000000E-03 0.  1.
         12    1    3    3    0    0  0.13031030518E-01 -0.74127214894E+01 -0.88001082512E+01  0.11506107722E+02  0.00000000000E+00 0. -1.
</event>
<event>
 7    1  0.4031943E-009  0.4778727E+02  0.7816164E-02  0.1312668E+00
        -11   -1    0    0    0    0  0.00000000000E+00  0.00000000000E+00  0.45593999997E+02  0.45594000000E+02  0.51100000000E-03 0.  1.
         11   -1    0    0    0    0 -0.00000000000E+00 -0.00000000000E+00 -0.45593999997E+02  0.45594000000E+02  0.51100000000E-03 0. -1.
    9900012    2    1    2    0    0  0.10052218020E+02 -0.41801291786E+02 -0.59353509458E+01  0.47787268751E+02  0.19999989545E+02 0.  0.
        -12    1    1    2    0    0 -0.10052218020E+02  0.41801291786E+02  0.59353509458E+01  0.43400731249E+02  0.00000000000E+00 0.  1.
         11    1    3    3    0    0  0.70126904533E+01 -0.22047846146E+02 -0.13035112575E+01  0.23172925775E+02  0.51100000000E-03 0. -1.
        -11    1    3    3    0    0  0.42279922818E+01 -0.11770206384E+02 -0.90270018882E+01  0.15424021538E+02  0.51100000000E-03 0.  1.
         12    1    3    3    0    0 -0.11884647153E+01 -0.79832392552E+01  0.43951622000E+01  0.91903214389E+01  0.00000000000E+00 0. -1.
</event>
<event>
 7    1  0.4031943E-009  0.4778727E+02  0.7816164E-02  0.1312668E+00
        -11   -1    0    0    0    0  0.00000000000E+00  0.00000000000E+00  0.45593999997E+02  0.45594000000E+02  0.51100000000E-03 0.  1.
         11   -1    0    0    0    0 -0.00000000000E+00 -0.00000000000E+00 -0.45593999997E+02  0.45594000000E+02  0.51100000000E-03 0. -1.
    9900012    2    1    2    0    0 -0.41168808184E+02  0.78898830473E+01 -0.11247327095E+02  0.47787269723E+02  0.19999993974E+02 0.  0.
        -12    1    1    2    0    0  0.41168808184E+02 -0.78898830473E+01  0.11247327095E+02  0.43400730277E+02  0.00000000000E+00 0.  1.
         11    1    3    3    0    0 -0.17401136919E+02 -0.13606291960E+01 -0.84962221633E+01  0.19412281401E+02  0.51100000000E-03 0. -1.
        -11    1    3    3    0    0 -0.95080506579E+01 -0.10053672125E+01 -0.47873183504E+01  0.10692623990E+02  0.51100000000E-03 0.  1.
         12    1    3    3    0    0 -0.14259620607E+02  0.10255879456E+02  0.20362134185E+01  0.17682364332E+02  0.00000000000E+00 0. -1.
</event>
<event>
 7    1  0.4031943E-009  0.4778728E+02  0.7816164E-02  0.1312668E+00
        -11   -1    0    0    0    0  0.00000000000E+00  0.00000000000E+00  0.45593999997E+02  0.45594000000E+02  0.51100000000E-03 0. -1.
         11   -1    0    0    0    0 -0.00000000000E+00 -0.00000000000E+00 -0.45593999997E+02  0.45594000000E+02  0.51100000000E-03 0.  1.
    9900012    2    1    2    0    0  0.14271823023E+02  0.18761936087E+02 -0.36440736162E+02  0.47787280764E+02  0.20000044316E+02 0.  0.
        -12    1    1    2    0    0 -0.14271823023E+02 -0.18761936087E+02  0.36440736162E+02  0.43400719236E+02  0.00000000000E+00 0.  1.
         11    1    3    3    0    0  0.22286893070E+01  0.19909738733E+01  0.12735550133E+01  0.32485343809E+01  0.51100000000E-03 0. -1.
        -11    1    3    3    0    0  0.26278427865E+01 -0.15749084025E+01 -0.52758522891E+01  0.61008615641E+01  0.51100000000E-03 0.  1.
         12    1    3    3    0    0  0.94152909299E+01  0.18345870616E+02 -0.32438438887E+02  0.38437884819E+02  0.00000000000E+00 0. -1.
</event>
<event>
 7    1  0.4031943E-009  0.4778727E+02  0.7816164E-02  0.1312668E+00
        -11   -1    0    0    0    0  0.00000000000E+00  0.00000000000E+00  0.45593999997E+02  0.45594000000E+02  0.51100000000E-03 0.  1.
         11   -1    0    0    0    0 -0.00000000000E+00 -0.00000000000E+00 -0.45593999997E+02  0.45594000000E+02  0.51100000000E-03 0. -1.
    9900012    2    1    2    0    0 -0.39068061786E+02  0.19153730656E+01  0.18805348752E+02  0.47787271350E+02  0.20000001393E+02 0.  0.
        -12    1    1    2    0    0  0.39068061786E+02 -0.19153730656E+01 -0.18805348752E+02  0.43400728650E+02  0.00000000000E+00 0.  1.
         11    1    3    3    0    0 -0.98336359310E+01  0.25393603801E+01  0.10787093324E+01  0.10213342296E+02  0.51100000000E-03 0. -1.
        -11    1    3    3    0    0 -0.68547515395E+01  0.66113612045E+01  0.63531128958E+01  0.11448133445E+02  0.51100000000E-03 0.  1.
        -12    1    3    3    0    0 -0.22379674315E+02 -0.72353485190E+01  0.11373526524E+02  0.26125795609E+02  0.00000000000E+00 0.  1.
</event>
<event>
 7    1  0.4031943E-009  0.4778727E+02  0.7816164E-02  0.1312668E+00
        -11   -1    0    0    0    0  0.00000000000E+00  0.00000000000E+00  0.45593999997E+02  0.45594000000E+02  0.51100000000E-03 0.  1.
         11   -1    0    0    0    0 -0.00000000000E+00 -0.00000000000E+00 -0.45593999997E+02  0.45594000000E+02  0.51100000000E-03 0. -1.
    9900012    2    1    2    0    0 -0.17603752927E+02 -0.13026145277E+02 -0.37470665804E+02  0.47787269895E+02  0.19999994757E+02 0.  0.
        -12    1    1    2    0    0  0.17603752927E+02  0.13026145277E+02  0.37470665804E+02  0.43400730105E+02  0.00000000000E+00 0.  1.
         11    1    3    3    0    0 -0.41989507273E+01 -0.83959398898E+01 -0.24630335599E+02  0.26358611986E+02  0.51100000000E-03 0. -1.
        -11    1    3    3    0    0 -0.55958610554E+01 -0.66927663634E+01 -0.88238812003E+01  0.12408370652E+02  0.51100000000E-03 0.  1.
        -12    1    3    3    0    0 -0.78089411448E+01  0.20625609763E+01 -0.40164490050E+01  0.90202872567E+01  0.00000000000E+00 0.  1.
</event>
<event>
 7    1  0.4031943E-009  0.4778727E+02  0.7816164E-02  0.1312668E+00
        -11   -1    0    0    0    0  0.00000000000E+00  0.00000000000E+00  0.45593999997E+02  0.45594000000E+02  0.51100000000E-03 0. -1.
         11   -1    0    0    0    0 -0.00000000000E+00 -0.00000000000E+00 -0.45593999997E+02  0.45594000000E+02  0.51100000000E-03 0.  1.
    9900012    2    1    2    0    0 -0.11554989917E+02  0.19826810074E+02  0.36837522431E+02  0.47787271336E+02  0.20000001329E+02 0.  0.
        -12    1    1    2    0    0  0.11554989917E+02 -0.19826810074E+02 -0.36837522431E+02  0.43400728664E+02  0.00000000000E+00 0.  1.
         11    1    3    3    0    0 -0.80345097016E+00  0.12576282665E+02  0.15923368091E+02  0.20306700145E+02  0.51100000000E-03 0. -1.
        -11    1    3    3    0    0  0.22354106984E+01  0.27258390222E+01  0.74126229478E+01  0.82081811988E+01  0.51100000000E-03 0.  1.
         12    1    3    3    0    0 -0.12986949645E+02  0.45246883865E+01  0.13501531392E+02  0.19272389993E+02  0.00000000000E+00 0. -1.
</event>
<event>
 7    1  0.4031943E-009  0.4778727E+02  0.7816164E-02  0.1312668E+00
        -11   -1    0    0    0    0  0.00000000000E+00  0.00000000000E+00  0.45593999997E+02  0.45594000000E+02  0.51100000000E-03 0.  1.
         11   -1    0    0    0    0 -0.00000000000E+00 -0.00000000000E+00 -0.45593999997E+02  0.45594000000E+02  0.51100000000E-03 0. -1.
    9900012    2    1    2    0    0 -0.41168175583E+02  0.11270914743E+02 -0.78594534489E+01  0.47787271797E+02  0.20000003433E+02 0.  0.
        -12    1    1    2    0    0  0.41168175583E+02 -0.11270914743E+02  0.78594534489E+01  0.43400728203E+02  0.00000000000E+00 0.  1.
         11    1    3    3    0    0 -0.18134016401E+02  0.53453610314E+01  0.23396472239E+01  0.19049655765E+02  0.51100000000E-03 0. -1.
        -11    1    3    3    0    0 -0.22115275066E+01 -0.33179548847E+01 -0.67191625024E+00  0.40436555538E+01  0.51100000000E-03 0.  1.
        -12    1    3    3    0    0 -0.20822631676E+02  0.92435085963E+01 -0.95271844226E+01  0.24693960478E+02  0.00000000000E+00 0.  1.
</event>
<event>
 7    1  0.4031943E-009  0.4778727E+02  0.7816164E-02  0.1312668E+00
        -11   -1    0    0    0    0  0.00000000000E+00  0.00000000000E+00  0.45593999997E+02  0.45594000000E+02  0.51100000000E-03 0.  1.
         11   -1    0    0    0    0 -0.00000000000E+00 -0.00000000000E+00 -0.45593999997E+02  0.45594000000E+02  0.51100000000E-03 0. -1.
    9900012    2    1    2    0    0 -0.33423009755E+02  0.13547192148E+02 -0.24145381600E+02  0.47787269030E+02  0.19999990815E+02 0.  0.
        -12    1    1    2    0    0  0.33423009755E+02 -0.13547192148E+02  0.24145381600E+02  0.43400730970E+02  0.00000000000E+00 0.  1.
         11    1    3    3    0    0 -0.18099331178E+00 -0.59161006202E+00 -0.29144849644E+00  0.68388853740E+00  0.51100000000E-03 0. -1.
        -11    1    3    3    0    0 -0.36513593835E+01  0.81381836518E+01 -0.11320550785E+02  0.14412401911E+02  0.51100000000E-03 0.  1.
         12    1    3    3    0    0 -0.29590657059E+02  0.60006185582E+01 -0.12533382318E+02  0.32690978581E+02  0.00000000000E+00 0. -1.
</event>
<event>
 7    1  0.4031943E-009  0.4778727E+02  0.7816164E-02  0.1312668E+00
        -11   -1    0    0    0    0  0.00000000000E+00  0.00000000000E+00  0.45593999997E+02  0.45594000000E+02  0.51100000000E-03 0.  1.
         11   -1    0    0    0    0 -0.00000000000E+00 -0.00000000000E+00 -0.45593999997E+02  0.45594000000E+02  0.51100000000E-03 0. -1.
    9900012    2    1    2    0    0 -0.26753679313E+01 -0.42619597244E+02 -0.77482635689E+01  0.47787271306E+02  0.20000001192E+02 0.  0.
        -12    1    1    2    0    0  0.26753679313E+01  0.42619597244E+02  0.77482635689E+01  0.43400728694E+02  0.00000000000E+00 0.  1.
         11    1    3    3    0    0 -0.38616082867E+01 -0.51585351889E+01 -0.33036731113E+01  0.72413230934E+01  0.51100000000E-03 0. -1.
        -11    1    3    3    0    0  0.13197641616E+01 -0.54695599736E-01  0.21880769983E+01  0.25558658538E+01  0.51100000000E-03 0.  1.
         12    1    3    3    0    0 -0.13352380626E+00 -0.37406366456E+02 -0.66326674559E+01  0.37990082359E+02  0.00000000000E+00 0. -1.
</event>
<event>
 7    1  0.4031943E-009  0.4778727E+02  0.7816164E-02  0.1312668E+00
        -11   -1    0    0    0    0  0.00000000000E+00  0.00000000000E+00  0.45593999997E+02  0.45594000000E+02  0.51100000000E-03 0. -1.
         11   -1    0    0    0    0 -0.00000000000E+00 -0.00000000000E+00 -0.45593999997E+02  0.45594000000E+02  0.51100000000E-03 0.  1.
    9900012    2    1    2    0    0 -0.83322818419E+01  0.51320125519E+01  0.42283079448E+02  0.47787270961E+02  0.19999999621E+02 0.  0.
        -12    1    1    2    0    0  0.83322818419E+01 -0.51320125519E+01 -0.42283079448E+02  0.43400729039E+02  0.00000000000E+00 0.  1.
         11    1    3    3    0    0  0.25177306049E+01 -0.95213067910E+00  0.83789381664E+01  0.88006889097E+01  0.51100000000E-03 0. -1.
        -11    1    3    3    0    0 -0.64336424492E-01  0.12563879993E+01 -0.13257805680E+01  0.18276608974E+01  0.51100000000E-03 0.  1.
         12    1    3    3    0    0 -0.10785676022E+02  0.48277552317E+01  0.35229921849E+02  0.37158921154E+02  0.00000000000E+00 0. -1.
</event>
<event>
 7    1  0.4031943E-009  0.4778727E+02  0.7816164E-02  0.1312668E+00
        -11   -1    0    0    0    0  0.00000000000E+00  0.00000000000E+00  0.45593999997E+02  0.45594000000E+02  0.51100000000E-03 0. -1.
         11   -1    0    0    0    0 -0.00000000000E+00 -0.00000000000E+00 -0.45593999997E+02  0.45594000000E+02  0.51100000000E-03 0.  1.
    9900012    2    1    2    0    0  0.34373467130E+02 -0.23304604424E+02  0.12608851172E+02  0.47787274686E+02  0.20000016604E+02 0.  0.
        -12    1    1    2    0    0 -0.34373467130E+02  0.23304604424E+02 -0.12608851172E+02  0.43400725314E+02  0.00000000000E+00 0.  1.
         11    1    3    3    0    0  0.29707296355E+01 -0.33595002871E+01  0.10962668501E+01  0.46166305911E+01  0.51100000000E-03 0. -1.
        -11    1    3    3    0    0  0.66054253584E+01 -0.14188246211E+02  0.11736405208E+01  0.15694438730E+02  0.51100000000E-03 0.  1.
         12    1    3    3    0    0  0.24797312136E+02 -0.57568579257E+01  0.10338943801E+02  0.27476205365E+02  0.00000000000E+00 0. -1.
</event>
<event>
 7    1  0.4031943E-009  0.4778727E+02  0.7816164E-02  0.1312668E+00
        -11   -1    0    0    0    0  0.00000000000E+00  0.00000000000E+00  0.45593999997E+02  0.45594000000E+02  0.51100000000E-03 0. -1.
         11   -1    0    0    0    0 -0.00000000000E+00 -0.00000000000E+00 -0.45593999997E+02  0.45594000000E+02  0.51100000000E-03 0.  1.
    9900012    2    1    2    0    0 -0.13516278899E+01  0.38967314107E+02 -0.19061607197E+02  0.47787270333E+02  0.19999996758E+02 0.  0.
        -12    1    1    2    0    0  0.13516278899E+01 -0.38967314107E+02  0.19061607197E+02  0.43400729667E+02  0.00000000000E+00 0.  1.
         11    1    3    3    0    0 -0.22967852443E+01  0.20323990996E+02 -0.86839248570E+01  0.22220494676E+02  0.51100000000E-03 0. -1.
        -11    1    3    3    0    0  0.22656382117E+01  0.17101347001E+02 -0.13456805500E+02  0.21878637989E+02  0.51100000000E-03 0.  1.
        -12    1    3    3    0    0 -0.13204808573E+01  0.15419761107E+01  0.30791231605E+01  0.36881376680E+01  0.00000000000E+00 0.  1.
</event>
<event>
 7    1  0.4031943E-009  0.4778727E+02  0.7816164E-02  0.1312668E+00
        -11   -1    0    0    0    0  0.00000000000E+00  0.00000000000E+00  0.45593999997E+02  0.45594000000E+02  0.51100000000E-03 0.  1.
         11   -1    0    0    0    0 -0.00000000000E+00 -0.00000000000E+00 -0.45593999997E+02  0.45594000000E+02  0.51100000000E-03 0. -1.
    9900012    2    1    2    0    0 -0.95277785482E+01 -0.30842463237E+02 -0.29010118131E+02  0.47787273549E+02  0.20000011417E+02 0.  0.
        -12    1    1    2    0    0  0.95277785482E+01  0.30842463237E+02  0.29010118131E+02  0.43400726451E+02  0.00000000000E+00 0.  1.
         11    1    3    3    0    0  0.12736771016E+01 -0.10290362729E+01  0.64023872065E+00  0.17581452985E+01  0.51100000000E-03 0. -1.
        -11    1    3    3    0    0  0.14560717624E+01 -0.72676613243E+01 -0.86010952906E+00  0.74618251631E+01  0.51100000000E-03 0.  1.
        -12    1    3    3    0    0 -0.12257527412E+02 -0.22545765639E+02 -0.28790247322E+02  0.38567303087E+02  0.00000000000E+00 0.  1.
</event>
<event>
 7    1  0.4031943E-009  0.4778727E+02  0.7816164E-02  0.1312668E+00
        -11   -1    0    0    0    0  0.00000000000E+00  0.00000000000E+00  0.45593999997E+02  0.45594000000E+02  0.51100000000E-03 0.  1.
         11   -1    0    0    0    0 -0.00000000000E+00 -0.00000000000E+00 -0.45593999997E+02  0.45594000000E+02  0.51100000000E-03 0. -1.
    9900012    2    1    2    0    0 -0.20850239191E+02 -0.29740072081E+02 -0.23757506974E+02  0.47787268447E+02  0.19999988157E+02 0.  0.
        -12    1    1    2    0    0  0.20850239191E+02  0.29740072081E+02  0.23757506974E+02  0.43400731553E+02  0.00000000000E+00 0.  1.
         11    1    3    3    0    0 -0.47911310914E+01 -0.65478278611E+01 -0.14705932022E+01  0.82457038184E+01  0.51100000000E-03 0. -1.
        -11    1    3    3    0    0 -0.15106967789E+02 -0.15947011300E+02 -0.23461943266E+02  0.32140168439E+02  0.51100000000E-03 0.  1.
        -12    1    3    3    0    0 -0.95214031082E+00 -0.72452329204E+01  0.11750294950E+01  0.74013961897E+01  0.00000000000E+00 0.  1.
</event>
<event>
 7    1  0.4031943E-009  0.4778728E+02  0.7816164E-02  0.1312668E+00
        -11   -1    0    0    0    0  0.00000000000E+00  0.00000000000E+00  0.45593999997E+02  0.45594000000E+02  0.51100000000E-03 0.  1.
         11   -1    0    0    0    0 -0.00000000000E+00 -0.00000000000E+00 -0.45593999997E+02  0.45594000000E+02  0.51100000000E-03 0. -1.
    9900012    2    1    2    0    0 -0.44079128694E+01  0.11782894128E+02 -0.41537412327E+02  0.47787275205E+02  0.20000018970E+02 0.  0.
        -12    1    1    2    0    0  0.44079128694E+01 -0.11782894128E+02  0.41537412327E+02  0.43400724795E+02  0.00000000000E+00 0.  1.
         11    1    3    3    0    0 -0.15016830310E+01  0.57167517389E+01 -0.90902607166E+01  0.10842930532E+02  0.51100000000E-03 0. -1.
        -11    1    3    3    0    0 -0.13998516122E+01  0.51920708598E+01 -0.10253958166E+01  0.54743603454E+01  0.51100000000E-03 0.  1.
         12    1    3    3    0    0 -0.15063782262E+01  0.87407152894E+00 -0.31421755794E+02  0.31469984327E+02  0.00000000000E+00 0. -1.
</event>
<event>
 7    1  0.4031943E-009  0.4778728E+02  0.7816164E-02  0.1312668E+00
        -11   -1    0    0    0    0  0.00000000000E+00  0.00000000000E+00  0.45593999997E+02  0.45594000000E+02  0.51100000000E-03 0.  1.
         11   -1    0    0    0    0 -0.00000000000E+00 -0.00000000000E+00 -0.45593999997E+02  0.45594000000E+02  0.51100000000E-03 0. -1.
    9900012    2    1    2    0    0  0.34663170518E+02  0.49267281698E+01 -0.25647897344E+02  0.47787277898E+02  0.20000031249E+02 0.  0.
        -12    1    1    2    0    0 -0.34663170518E+02 -0.49267281698E+01  0.25647897344E+02  0.43400722102E+02  0.00000000000E+00 0.  1.
         11    1    3    3    0    0  0.88430575339E+01 -0.40497460086E+01 -0.12920388251E+02  0.16172091458E+02  0.51100000000E-03 0. -1.
        -11    1    3    3    0    0  0.92464390428E+01  0.23102624575E+01 -0.95097518104E+01  0.13463629799E+02  0.51100000000E-03 0.  1.
        -12    1    3    3    0    0  0.16573673941E+02  0.66662117209E+01 -0.32177572820E+01  0.18151556642E+02  0.00000000000E+00 0.  1.
</event>
<event>
 7    1  0.4031943E-009  0.4778727E+02  0.7816164E-02  0.1312668E+00
        -11   -1    0    0    0    0  0.00000000000E+00  0.00000000000E+00  0.45593999997E+02  0.45594000000E+02  0.51100000000E-03 0. -1.
         11   -1    0    0    0    0 -0.00000000000E+00 -0.00000000000E+00 -0.45593999997E+02  0.45594000000E+02  0.51100000000E-03 0.  1.
    9900012    2    1    2    0    0 -0.29991298413E+01  0.24424728696E+02  0.35749981725E+02  0.47787270225E+02  0.19999996265E+02 0.  0.
        -12    1    1    2    0    0  0.29991298413E+01 -0.24424728696E+02 -0.35749981725E+02  0.43400729775E+02  0.00000000000E+00 0.  1.
         11    1    3    3    0    0  0.30598356623E+01  0.42762163531E+01  0.33240284979E+01  0.62207544795E+01  0.51100000000E-03 0. -1.
        -11    1    3    3    0    0  0.41432054590E+01  0.86489014351E+01  0.70703719030E+01  0.11914688692E+02  0.51100000000E-03 0.  1.
         12    1    3    3    0    0 -0.10202170963E+02  0.11499610907E+02  0.25355581324E+02  0.29651827054E+02  0.00000000000E+00 0. -1.
</event>
<event>
 7    1  0.4031943E-009  0.4778730E+02  0.7816164E-02  0.1312668E+00
        -11   -1    0    0    0    0  0.00000000000E+00  0.00000000000E+00  0.45593999997E+02  0.45594000000E+02  0.51100000000E-03 0.  1.
         11   -1    0    0    0    0 -0.00000000000E+00 -0.00000000000E+00 -0.45593999997E+02  0.45594000000E+02  0.51100000000E-03 0. -1.
    9900012    2    1    2    0    0  0.21663293919E+02 -0.37585399509E+02 -0.12886434313E+01  0.47787295379E+02  0.20000110951E+02 0.  0.
        -12    1    1    2    0    0 -0.21663293919E+02  0.37585399509E+02  0.12886434313E+01  0.43400704621E+02  0.00000000000E+00 0.  1.
         11    1    3    3    0    0  0.57213598924E+01 -0.13396944861E+00  0.31729792000E+00  0.57317174619E+01  0.51100000000E-03 0. -1.
        -11    1    3    3    0    0  0.39200658115E+01 -0.20028782945E+01 -0.14135433822E+01  0.46234773260E+01  0.51100000000E-03 0.  1.
        -12    1    3    3    0    0  0.12021868215E+02 -0.35448551766E+02 -0.19239796911E+00  0.37432100591E+02  0.00000000000E+00 0.  1.
</event>
<event>
 7    1  0.4031943E-009  0.4778727E+02  0.7816164E-02  0.1312668E+00
        -11   -1    0    0    0    0  0.00000000000E+00  0.00000000000E+00  0.45593999997E+02  0.45594000000E+02  0.51100000000E-03 0.  1.
         11   -1    0    0    0    0 -0.00000000000E+00 -0.00000000000E+00 -0.45593999997E+02  0.45594000000E+02  0.51100000000E-03 0. -1.
    9900012    2    1    2    0    0  0.32480712731E+02 -0.10410101206E+02 -0.26837595982E+02  0.47787268846E+02  0.19999989975E+02 0.  0.
        -12    1    1    2    0    0 -0.32480712731E+02  0.10410101206E+02  0.26837595982E+02  0.43400731154E+02  0.00000000000E+00 0.  1.
         11    1    3    3    0    0  0.17513316336E+02 -0.10178607339E+02 -0.13777096003E+02  0.24497523772E+02  0.51100000000E-03 0. -1.
        -11    1    3    3    0    0  0.64862293742E+00 -0.43175500231E+01 -0.34840748142E+01  0.55857611378E+01  0.51100000000E-03 0.  1.
        -12    1    3    3    0    0  0.14318773458E+02  0.40860561561E+01 -0.95764251646E+01  0.17703983935E+02  0.00000000000E+00 0.  1.
</event>
<event>
 7    1  0.4031943E-009  0.4778727E+02  0.7816164E-02  0.1312668E+00
        -11   -1    0    0    0    0  0.00000000000E+00  0.00000000000E+00  0.45593999997E+02  0.45594000000E+02  0.51100000000E-03 0.  1.
         11   -1    0    0    0    0 -0.00000000000E+00 -0.00000000000E+00 -0.45593999997E+02  0.45594000000E+02  0.51100000000E-03 0. -1.
    9900012    2    1    2    0    0 -0.25875541132E+02  0.23707770233E+02 -0.25534707309E+02  0.47787271024E+02  0.19999999906E+02 0.  0.
        -12    1    1    2    0    0  0.25875541132E+02 -0.23707770233E+02  0.25534707309E+02  0.43400728976E+02  0.00000000000E+00 0.  1.
         11    1    3    3    0    0 -0.11656160624E+02  0.20341505154E+02 -0.87616006016E+01  0.25028155301E+02  0.51100000000E-03 0. -1.
        -11    1    3    3    0    0 -0.38203972287E+01  0.61663296599E+00 -0.79694799112E+01  0.88593612364E+01  0.51100000000E-03 0.  1.
         12    1    3    3    0    0 -0.10398983280E+02  0.27496321130E+01 -0.88036267966E+01  0.13899754486E+02  0.00000000000E+00 0. -1.
</event>
<event>
 7    1  0.4031943E-009  0.4778726E+02  0.7816164E-02  0.1312668E+00
        -11   -1    0    0    0    0  0.00000000000E+00  0.00000000000E+00  0.45593999997E+02  0.45594000000E+02  0.51100000000E-03 0. -1.
         11   -1    0    0    0    0 -0.00000000000E+00 -0.00000000000E+00 -0.45593999997E+02  0.45594000000E+02  0.51100000000E-03 0.  1.
    9900012    2    1    2    0    0  0.21468461042E+00  0.11117684456E+02  0.41952061460E+02  0.47787257404E+02  0.19999937806E+02 0.  0.
        -12    1    1    2    0    0 -0.21468461042E+00 -0.11117684456E+02 -0.41952061460E+02  0.43400742596E+02  0.00000000000E+00 0.  1.
         11    1    3    3    0    0 -0.12721137858E+00  0.34653072062E+01  0.29232245432E+01  0.45353917977E+01  0.51100000000E-03 0. -1.
        -11    1    3    3    0    0 -0.65946015008E+01  0.89958265846E+01  0.28157801000E+02  0.30286555141E+02  0.51100000000E-03 0.  1.
        -12    1    3    3    0    0  0.69364974898E+01 -0.13434493348E+01  0.10871035917E+02  0.12965310465E+02  0.00000000000E+00 0.  1.
</event>
<event>
 7    1  0.4031943E-009  0.4778727E+02  0.7816164E-02  0.1312668E+00
        -11   -1    0    0    0    0  0.00000000000E+00  0.00000000000E+00  0.45593999997E+02  0.45594000000E+02  0.51100000000E-03 0.  1.
         11   -1    0    0    0    0 -0.00000000000E+00 -0.00000000000E+00 -0.45593999997E+02  0.45594000000E+02  0.51100000000E-03 0. -1.
    9900012    2    1    2    0    0 -0.18218107528E+02 -0.33353904418E+02 -0.20958071235E+02  0.47787272682E+02  0.20000007465E+02 0.  0.
        -12    1    1    2    0    0  0.18218107528E+02  0.33353904418E+02  0.20958071235E+02  0.43400727318E+02  0.00000000000E+00 0.  1.
         11    1    3    3    0    0 -0.44054646220E+01 -0.53189308039E+01 -0.86369368448E+01  0.11058744131E+02  0.51100000000E-03 0. -1.
        -11    1    3    3    0    0 -0.43967776533E+01 -0.13391024905E+02 -0.13181032734E+02  0.19297430553E+02  0.51100000000E-03 0.  1.
         12    1    3    3    0    0 -0.94158652527E+01 -0.14643948709E+02  0.85989834338E+00  0.17431097998E+02  0.00000000000E+00 0. -1.
</event>
<event>
 7    1  0.4031943E-009  0.4778727E+02  0.7816164E-02  0.1312668E+00
        -11   -1    0    0    0    0  0.00000000000E+00  0.00000000000E+00  0.45593999997E+02  0.45594000000E+02  0.51100000000E-03 0.  1.
         11   -1    0    0    0    0 -0.00000000000E+00 -0.00000000000E+00 -0.45593999997E+02  0.45594000000E+02  0.51100000000E-03 0. -1.
    9900012    2    1    2    0    0  0.27544691518E+02  0.32826630454E+02  0.68793534799E+01  0.47787271871E+02  0.20000003769E+02 0.  0.
        -12    1    1    2    0    0 -0.27544691518E+02 -0.32826630454E+02 -0.68793534799E+01  0.43400728129E+02  0.00000000000E+00 0.  1.
         11    1    3    3    0    0  0.15652120668E+02  0.13473104445E+02  0.82549278943E+00  0.20668692832E+02  0.51100000000E-03 0. -1.
        -11    1    3    3    0    0  0.14648808410E+02  0.13893502117E+02  0.35005448520E+01  0.20490749216E+02  0.51100000000E-03 0.  1.
        -12    1    3    3    0    0 -0.27562375598E+01  0.54600238926E+01  0.25533158385E+01  0.66278298232E+01  0.00000000000E+00 0.  1.
</event>
<event>
 7    1  0.4031943E-009  0.4778727E+02  0.7816164E-02  0.1312668E+00
        -11   -1    0    0    0    0  0.00000000000E+00  0.00000000000E+00  0.45593999997E+02  0.45594000000E+02  0.51100000000E-03 0.  1.
         11   -1    0    0    0    0 -0.00000000000E+00 -0.00000000000E+00 -0.45593999997E+02  0.45594000000E+02  0.51100000000E-03 0. -1.
    9900012    2    1    2    0    0 -0.27762269365E+02  0.33104808452E+02 -0.41171796948E+01  0.47787272914E+02  0.20000008526E+02 0.  0.
        -12    1    1    2    0    0  0.27762269365E+02 -0.33104808452E+02  0.41171796948E+01  0.43400727086E+02  0.00000000000E+00 0.  1.
         11    1    3    3    0    0 -0.15954630381E+01  0.15572715891E+01 -0.24712255379E+01  0.33282958145E+01  0.51100000000E-03 0. -1.
        -11    1    3    3    0    0 -0.26812073625E+02  0.32740507597E+02 -0.31481126896E+01  0.42435112155E+02  0.51100000000E-03 0.  1.
        -12    1    3    3    0    0  0.64526729851E+00 -0.11929707343E+01  0.15021585328E+01  0.20238649454E+01  0.00000000000E+00 0.  1.
</event>
<event>
 7    1  0.4031943E-009  0.4778727E+02  0.7816164E-02  0.1312668E+00
        -11   -1    0    0    0    0  0.00000000000E+00  0.00000000000E+00  0.45593999997E+02  0.45594000000E+02  0.51100000000E-03 0. -1.
         11   -1    0    0    0    0 -0.00000000000E+00 -0.00000000000E+00 -0.45593999997E+02  0.45594000000E+02  0.51100000000E-03 0.  1.
    9900012    2    1    2    0    0 -0.33314181283E+02 -0.13393770147E+02  0.24380225536E+02  0.47787272466E+02  0.20000006481E+02 0.  0.
        -12    1    1    2    0    0  0.33314181283E+02  0.13393770147E+02 -0.24380225536E+02  0.43400727534E+02  0.00000000000E+00 0.  1.
         11    1    3    3    0    0 -0.22771528567E+02 -0.16629338198E+02  0.20547002792E+02  0.34889206442E+02  0.51100000000E-03 0. -1.
        -11    1    3    3    0    0 -0.37770863509E+01 -0.10569670392E+01  0.28005014387E+01  0.48193743570E+01  0.51100000000E-03 0.  1.
        -12    1    3    3    0    0 -0.67655663658E+01  0.42925350904E+01  0.10327213044E+01  0.80786916666E+01  0.00000000000E+00 0.  1.
</event>
<event>
 7    1  0.4031943E-009  0.4778728E+02  0.7816164E-02  0.1312668E+00
        -11   -1    0    0    0    0  0.00000000000E+00  0.00000000000E+00  0.45593999997E+02  0.45594000000E+02  0.51100000000E-03 0.  1.
         11   -1    0    0    0    0 -0.00000000000E+00 -0.00000000000E+00 -0.45593999997E+02  0.45594000000E+02  0.51100000000E-03 0. -1.
    9900012    2    1    2    0    0 -0.41222694575E+02  0.11973824353E+02  0.63983640734E+01  0.47787284793E+02  0.20000062683E+02 0.  0.
        -12    1    1    2    0    0  0.41222694575E+02 -0.11973824353E+02 -0.63983640734E+01  0.43400715207E+02  0.00000000000E+00 0.  1.
         11    1    3    3    0    0 -0.13467594071E+02 -0.36378908036E+01  0.22706533390E+01  0.14133867355E+02  0.51100000000E-03 0. -1.
        -11    1    3    3    0    0 -0.77399548503E+01 -0.62285292916E-01  0.26768239771E+01  0.81900041152E+01  0.51100000000E-03 0.  1.
         12    1    3    3    0    0 -0.20015145654E+02  0.15674000449E+02  0.14508867572E+01  0.25463413323E+02  0.00000000000E+00 0. -1.
</event>
<event>
 7    1  0.4031943E-009  0.4778726E+02  0.7816164E-02  0.1312668E+00
        -11   -1    0    0    0    0  0.00000000000E+00  0.00000000000E+00  0.45593999997E+02  0.45594000000E+02  0.51100000000E-03 0. -1.
         11   -1    0    0    0    0 -0.00000000000E+00 -0.00000000000E+00 -0.45593999997E+02  0.45594000000E+02  0.51100000000E-03 0.  1.
    9900012    2    1    2    0    0 -0.81019269330E+01  0.27509493593E+02  0.32576225031E+02  0.47787263889E+02  0.19999967374E+02 0.  0.
        -12    1    1    2    0    0  0.81019269330E+01 -0.27509493593E+02 -0.32576225031E+02  0.43400736111E+02  0.00000000000E+00 0.  1.
         11    1    3    3    0    0 -0.18909134969E-01  0.20443931058E+02  0.19001397095E+02  0.27910710605E+02  0.51100000000E-03 0. -1.
        -11    1    3    3    0    0 -0.29893360929E+01  0.56896329876E+01  0.13579794940E+01  0.65690305508E+01  0.51100000000E-03 0.  1.
         12    1    3    3    0    0 -0.50936817051E+01  0.13759295473E+01  0.12216848442E+02  0.13307522733E+02  0.00000000000E+00 0. -1.
</event>
<event>
 7    1  0.4031943E-009  0.4778728E+02  0.7816164E-02  0.1312668E+00
        -11   -1    0    0    0    0  0.00000000000E+00  0.00000000000E+00  0.45593999997E+02  0.45594000000E+02  0.51100000000E-03 0.  1.
         11   -1    0    0    0    0 -0.00000000000E+00 -0.00000000000E+00 -0.45593999997E+02  0.45594000000E+02  0.51100000000E-03 0. -1.
    9900012    2    1    2    0    0 -0.70218760518E+01 -0.39629599701E+02 -0.16242251125E+02  0.47787278378E+02  0.20000033435E+02 0.  0.
        -12    1    1    2    0    0  0.70218760518E+01  0.39629599701E+02  0.16242251125E+02  0.43400721622E+02  0.00000000000E+00 0.  1.
         11    1    3    3    0    0 -0.16865167107E+01 -0.11407383744E+02 -0.16942990920E+01  0.11655187351E+02  0.51100000000E-03 0. -1.
        -11    1    3    3    0    0 -0.99963137750E+01 -0.20246828776E+02 -0.14609853661E+02  0.26894389542E+02  0.51100000000E-03 0.  1.
        -12    1    3    3    0    0  0.46609544339E+01 -0.79753871801E+01  0.61901628101E-01  0.92377014847E+01  0.00000000000E+00 0.  1.
</event>
<event>
 7    1  0.4031943E-009  0.4778727E+02  0.7816164E-02  0.1312668E+00
        -11   -1    0    0    0    0  0.00000000000E+00  0.00000000000E+00  0.45593999997E+02  0.45594000000E+02  0.51100000000E-03 0.  1.
         11   -1    0    0    0    0 -0.00000000000E+00 -0.00000000000E+00 -0.45593999997E+02  0.45594000000E+02  0.51100000000E-03 0. -1.
    9900012    2    1    2    0    0 -0.26445742895E+02  0.23431447614E+02 -0.25203432531E+02  0.47787273440E+02  0.20000010923E+02 0.  0.
        -12    1    1    2    0    0  0.26445742895E+02 -0.23431447614E+02  0.25203432531E+02  0.43400726560E+02  0.00000000000E+00 0.  1.
         11    1    3    3    0    0 -0.18516307009E+02  0.14710670596E+02 -0.15083320721E+02  0.28049314054E+02  0.51100000000E-03 0. -1.
        -11    1    3    3    0    0 -0.93567234567E+01  0.58618850752E+01 -0.11772972071E+02  0.16140410222E+02  0.51100000000E-03 0.  1.
        -12    1    3    3    0    0  0.14272875707E+01  0.28588919431E+01  0.16528602608E+01  0.35975491649E+01  0.00000000000E+00 0.  1.
</event>
<event>
 7    1  0.4031943E-009  0.4778728E+02  0.7816164E-02  0.1312668E+00
        -11   -1    0    0    0    0  0.00000000000E+00  0.00000000000E+00  0.45593999997E+02  0.45594000000E+02  0.51100000000E-03 0.  1.
         11   -1    0    0    0    0 -0.00000000000E+00 -0.00000000000E+00 -0.45593999997E+02  0.45594000000E+02  0.51100000000E-03 0. -1.
    9900012    2    1    2    0    0 -0.11648732210E+02  0.40598981070E+02 -0.99826112660E+01  0.47787277037E+02  0.20000027321E+02 0.  0.
        -12    1    1    2    0    0  0.11648732210E+02 -0.40598981070E+02  0.99826112660E+01  0.43400722963E+02  0.00000000000E+00 0.  1.
         11    1    3    3    0    0 -0.34625366688E+01  0.94569114829E+01 -0.78437944379E+01  0.12765087012E+02  0.51100000000E-03 0. -1.
        -11    1    3    3    0    0 -0.33562394542E+01  0.26026277235E+02 -0.61092868859E+01  0.26943549070E+02  0.51100000000E-03 0.  1.
        -12    1    3    3    0    0 -0.48299560869E+01  0.51157923527E+01  0.39704700578E+01  0.80786409548E+01  0.00000000000E+00 0.  1.
</event>
<event>
 7    1  0.4031943E-009  0.4778727E+02  0.7816164E-02  0.1312668E+00
        -11   -1    0    0    0    0  0.00000000000E+00  0.00000000000E+00  0.45593999997E+02  0.45594000000E+02  0.51100000000E-03 0.  1.
         11   -1    0    0    0    0 -0.00000000000E+00 -0.00000000000E+00 -0.45593999997E+02  0.45594000000E+02  0.51100000000E-03 0. -1.
    9900012    2    1    2    0    0 -0.33527732781E+01  0.32393438985E+02 -0.28688804621E+02  0.47787268571E+02  0.19999988725E+02 0.  0.
        -12    1    1    2    0    0  0.33527732781E+01 -0.32393438985E+02  0.28688804621E+02  0.43400731429E+02  0.00000000000E+00 0.  1.
         11    1    3    3    0    0 -0.44406565348E+01  0.15530034468E+02 -0.98104134251E+01  0.18898296560E+02  0.51100000000E-03 0. -1.
        -11    1    3    3    0    0  0.21687959145E+01  0.17852133177E+02 -0.20107902337E+02  0.26976472552E+02  0.51100000000E-03 0.  1.
        -12    1    3    3    0    0 -0.10809126578E+01 -0.98872865929E+00  0.12295111415E+01  0.19124994595E+01  0.00000000000E+00 0.  1.
</event>
<event>
 7    1  0.4031943E-009  0.4778727E+02  0.7816164E-02  0.1312668E+00
        -11   -1    0    0    0    0  0.00000000000E+00  0.00000000000E+00  0.45593999997E+02  0.45594000000E+02  0.51100000000E-03 0. -1.
         11   -1    0    0    0    0 -0.00000000000E+00 -0.00000000000E+00 -0.45593999997E+02  0.45594000000E+02  0.51100000000E-03 0.  1.
    9900012    2    1    2    0    0 -0.11177625426E+02  0.20377494728E+02  0.36652986533E+02  0.47787273931E+02  0.20000013162E+02 0.  0.
        -12    1    1    2    0    0  0.11177625426E+02 -0.20377494728E+02 -0.36652986533E+02  0.43400726069E+02  0.00000000000E+00 0.  1.
         11    1    3    3    0    0 -0.90600340465E+00  0.70468891273E+01  0.20664127946E+02  0.21851445549E+02  0.51100000000E-03 0. -1.
        -11    1    3    3    0    0  0.22041287715E+01  0.56149555218E+00  0.34033829540E+01  0.40934675629E+01  0.51100000000E-03 0.  1.
        -12    1    3    3    0    0 -0.12475750793E+02  0.12769110048E+02  0.12585475633E+02  0.21842360819E+02  0.00000000000E+00 0.  1.
</event>
<event>
 7    1  0.4031943E-009  0.4778729E+02  0.7816164E-02  0.1312668E+00
        -11   -1    0    0    0    0  0.00000000000E+00  0.00000000000E+00  0.45593999997E+02  0.45594000000E+02  0.51100000000E-03 0.  1.
         11   -1    0    0    0    0 -0.00000000000E+00 -0.00000000000E+00 -0.45593999997E+02  0.45594000000E+02  0.51100000000E-03 0. -1.
    9900012    2    1    2    0    0  0.18412570738E+02 -0.38488945954E+02  0.79498467459E+01  0.47787288196E+02  0.20000078200E+02 0.  0.
        -12    1    1    2    0    0 -0.18412570738E+02  0.38488945954E+02 -0.79498467459E+01  0.43400711804E+02  0.00000000000E+00 0.  1.
         11    1    3    3    0    0  0.11162562532E+02 -0.20279631666E+02  0.78861643783E+00  0.23162214465E+02  0.51100000000E-03 0. -1.
        -11    1    3    3    0    0  0.50939985094E+01 -0.62357326709E+01 -0.31806087480E+01  0.86573353305E+01  0.51100000000E-03 0.  1.
        -12    1    3    3    0    0  0.21560096969E+01 -0.11973581618E+02  0.10341839056E+02  0.15967738401E+02  0.00000000000E+00 0.  1.
</event>
<event>
 7    1  0.4031943E-009  0.4778727E+02  0.7816164E-02  0.1312668E+00
        -11   -1    0    0    0    0  0.00000000000E+00  0.00000000000E+00  0.45593999997E+02  0.45594000000E+02  0.51100000000E-03 0.  1.
         11   -1    0    0    0    0 -0.00000000000E+00 -0.00000000000E+00 -0.45593999997E+02  0.45594000000E+02  0.51100000000E-03 0. -1.
    9900012    2    1    2    0    0 -0.66337358076E+01 -0.41255128254E+02  0.11731649951E+02  0.47787266498E+02  0.19999979269E+02 0.  0.
        -12    1    1    2    0    0  0.66337358076E+01  0.41255128254E+02 -0.11731649951E+02  0.43400733502E+02  0.00000000000E+00 0.  1.
         11    1    3    3    0    0 -0.56182249977E+01 -0.28848944670E+02  0.49349054828E+01  0.29802338047E+02  0.51100000000E-03 0. -1.
        -11    1    3    3    0    0 -0.33572866290E+01 -0.88256348233E+01 -0.57661800261E+00  0.94602162833E+01  0.51100000000E-03 0.  1.
        -12    1    3    3    0    0  0.23417758192E+01 -0.35805487606E+01  0.73733624707E+01  0.85247121674E+01  0.00000000000E+00 0.  1.
</event>
<event>
 7    1  0.4031943E-009  0.4778727E+02  0.7816164E-02  0.1312668E+00
        -11   -1    0    0    0    0  0.00000000000E+00  0.00000000000E+00  0.45593999997E+02  0.45594000000E+02  0.51100000000E-03 0.  1.
         11   -1    0    0    0    0 -0.00000000000E+00 -0.00000000000E+00 -0.45593999997E+02  0.45594000000E+02  0.51100000000E-03 0. -1.
    9900012    2    1    2    0    0 -0.28545210743E+02  0.22792609556E+02 -0.23436959211E+02  0.47787272313E+02  0.20000005783E+02 0.  0.
        -12    1    1    2    0    0  0.28545210743E+02 -0.22792609556E+02  0.23436959211E+02  0.43400727687E+02  0.00000000000E+00 0.  1.
         11    1    3    3    0    0 -0.37609550268E+01  0.80881251930E+01 -0.85645506644E+01  0.12365843287E+02  0.51100000000E-03 0. -1.
        -11    1    3    3    0    0 -0.70701586131E+01 -0.17005982263E+01 -0.68222318614E+01  0.99710593707E+01  0.51100000000E-03 0.  1.
         12    1    3    3    0    0 -0.17714097103E+02  0.16405082589E+02 -0.80501766852E+01  0.25450369655E+02  0.00000000000E+00 0. -1.
</event>
<event>
 7    1  0.4031943E-009  0.4778727E+02  0.7816164E-02  0.1312668E+00
        -11   -1    0    0    0    0  0.00000000000E+00  0.00000000000E+00  0.45593999997E+02  0.45594000000E+02  0.51100000000E-03 0. -1.
         11   -1    0    0    0    0 -0.00000000000E+00 -0.00000000000E+00 -0.45593999997E+02  0.45594000000E+02  0.51100000000E-03 0.  1.
    9900012    2    1    2    0    0 -0.26998005369E+02  0.19253032996E+02  0.28000927245E+02  0.47787268439E+02  0.19999988120E+02 0.  0.
        -12    1    1    2    0    0  0.26998005369E+02 -0.19253032996E+02 -0.28000927245E+02  0.43400731561E+02  0.00000000000E+00 0.  1.
         11    1    3    3    0    0 -0.10802156542E+02  0.79714568129E+01  0.86725266179E+01  0.15982597658E+02  0.51100000000E-03 0. -1.
        -11    1    3    3    0    0 -0.19262064895E+01  0.10006888317E+02  0.43570136147E+01  0.11082944244E+02  0.51100000000E-03 0.  1.
         12    1    3    3    0    0 -0.14269642337E+02  0.12746878666E+01  0.14971387012E+02  0.20721726537E+02  0.00000000000E+00 0. -1.
</event>
<event>
 7    1  0.4031943E-009  0.4778727E+02  0.7816164E-02  0.1312668E+00
        -11   -1    0    0    0    0  0.00000000000E+00  0.00000000000E+00  0.45593999997E+02  0.45594000000E+02  0.51100000000E-03 0.  1.
         11   -1    0    0    0    0 -0.00000000000E+00 -0.00000000000E+00 -0.45593999997E+02  0.45594000000E+02  0.51100000000E-03 0. -1.
    9900012    2    1    2    0    0  0.26387482313E+02 -0.34455814687E+02 -0.34808981110E+00  0.47787267804E+02  0.19999985227E+02 0.  0.
        -12    1    1    2    0    0 -0.26387482313E+02  0.34455814687E+02  0.34808981110E+00  0.43400732196E+02  0.00000000000E+00 0.  1.
         11    1    3    3    0    0  0.13742190052E+02 -0.13975498806E+02 -0.20293854283E+01  0.19704841024E+02  0.51100000000E-03 0. -1.
        -11    1    3    3    0    0  0.12771075849E+02 -0.22060244063E+02  0.34326593807E+01  0.25720379024E+02  0.51100000000E-03 0.  1.
        -12    1    3    3    0    0 -0.12578358723E+00  0.15799281821E+01 -0.17513637635E+01  0.23620477563E+01  0.00000000000E+00 0.  1.
</event>
<event>
 7    1  0.4031943E-009  0.4778728E+02  0.7816164E-02  0.1312668E+00
        -11   -1    0    0    0    0  0.00000000000E+00  0.00000000000E+00  0.45593999997E+02  0.45594000000E+02  0.51100000000E-03 0.  1.
         11   -1    0    0    0    0 -0.00000000000E+00 -0.00000000000E+00 -0.45593999997E+02  0.45594000000E+02  0.51100000000E-03 0. -1.
    9900012    2    1    2    0    0  0.25303502215E+02  0.96310190128E+01 -0.33920481581E+02  0.47787276248E+02  0.20000023723E+02 0.  0.
        -12    1    1    2    0    0 -0.25303502215E+02 -0.96310190128E+01  0.33920481581E+02  0.43400723752E+02  0.00000000000E+00 0.  1.
         11    1    3    3    0    0  0.25745874514E+01  0.14733004521E+01 -0.91351187468E+01  0.96046608241E+01  0.51100000000E-03 0. -1.
        -11    1    3    3    0    0  0.79741781405E+01  0.43989803683E+01 -0.20395556523E+02  0.22336456108E+02  0.51100000000E-03 0.  1.
        -12    1    3    3    0    0  0.14754736623E+02  0.37587381925E+01 -0.43898063105E+01  0.15846159316E+02  0.00000000000E+00 0.  1.
</event>
<event>
 7    1  0.4031943E-009  0.4778726E+02  0.7816164E-02  0.1312668E+00
        -11   -1    0    0    0    0  0.00000000000E+00  0.00000000000E+00  0.45593999997E+02  0.45594000000E+02  0.51100000000E-03 0.  1.
         11   -1    0    0    0    0 -0.00000000000E+00 -0.00000000000E+00 -0.45593999997E+02  0.45594000000E+02  0.51100000000E-03 0. -1.
    9900012    2    1    2    0    0  0.68012356733E+00 -0.11620153278E+02 -0.41810684203E+02  0.47787264479E+02  0.19999970063E+02 0.  0.
        -12    1    1    2    0    0 -0.68012356733E+00  0.11620153278E+02  0.41810684203E+02  0.43400735521E+02  0.00000000000E+00 0.  1.
         11    1    3    3    0    0  0.70298560158E+00 -0.78436054507E+01 -0.65143135248E+01  0.10220206269E+02  0.51100000000E-03 0.  1.
        -11    1    3    3    0    0  0.51590006467E+01 -0.21042984441E+01 -0.81017624238E+01  0.98326961840E+01  0.51100000000E-03 0. -1.
        -12    1    3    3    0    0 -0.51818626809E+01 -0.16722493834E+01 -0.27194608254E+02  0.27734362025E+02  0.00000000000E+00 0.  1.
</event>
<event>
 7    1  0.4031943E-009  0.4778727E+02  0.7816164E-02  0.1312668E+00
        -11   -1    0    0    0    0  0.00000000000E+00  0.00000000000E+00  0.45593999997E+02  0.45594000000E+02  0.51100000000E-03 0.  1.
         11   -1    0    0    0    0 -0.00000000000E+00 -0.00000000000E+00 -0.45593999997E+02  0.45594000000E+02  0.51100000000E-03 0. -1.
    9900012    2    1    2    0    0  0.56426604388E+01  0.16517092598E+02 -0.39736246762E+02  0.47787271073E+02  0.20000000129E+02 0.  0.
        -12    1    1    2    0    0 -0.56426604388E+01 -0.16517092598E+02  0.39736246762E+02  0.43400728927E+02  0.00000000000E+00 0.  1.
         11    1    3    3    0    0  0.29612868123E+01 -0.19739361524E-01 -0.12571958853E+02  0.12916027210E+02  0.51100000000E-03 0. -1.
        -11    1    3    3    0    0  0.77226533968E+01  0.68182345160E+01 -0.90859882533E+01  0.13736188707E+02  0.51100000000E-03 0.  1.
        -12    1    3    3    0    0 -0.50412797703E+01  0.97185974437E+01 -0.18078299656E+02  0.21135055156E+02  0.00000000000E+00 0.  1.
</event>
<event>
 7    1  0.4031943E-009  0.4778727E+02  0.7816164E-02  0.1312668E+00
        -11   -1    0    0    0    0  0.00000000000E+00  0.00000000000E+00  0.45593999997E+02  0.45594000000E+02  0.51100000000E-03 0.  1.
         11   -1    0    0    0    0 -0.00000000000E+00 -0.00000000000E+00 -0.45593999997E+02  0.45594000000E+02  0.51100000000E-03 0. -1.
    9900012    2    1    2    0    0 -0.10767294213E+01  0.68119776713E+01 -0.42849286165E+02  0.47787266010E+02  0.19999977045E+02 0.  0.
        -12    1    1    2    0    0  0.10767294213E+01 -0.68119776713E+01  0.42849286165E+02  0.43400733990E+02  0.00000000000E+00 0.  1.
         11    1    3    3    0    0 -0.17878046556E+01  0.16708587470E+01 -0.43153416137E+01  0.49608656446E+01  0.51100000000E-03 0. -1.
        -11    1    3    3    0    0  0.45606327473E+01  0.44606316181E+01 -0.29501458506E+01  0.70285109581E+01  0.51100000000E-03 0.  1.
        -12    1    3    3    0    0 -0.38495575130E+01  0.68048730620E+00 -0.35583798701E+02  0.35797889407E+02  0.00000000000E+00 0.  1.
</event>
<event>
 7    1  0.4031943E-009  0.4778727E+02  0.7816164E-02  0.1312668E+00
        -11   -1    0    0    0    0  0.00000000000E+00  0.00000000000E+00  0.45593999997E+02  0.45594000000E+02  0.51100000000E-03 0. -1.
         11   -1    0    0    0    0 -0.00000000000E+00 -0.00000000000E+00 -0.45593999997E+02  0.45594000000E+02  0.51100000000E-03 0.  1.
    9900012    2    1    2    0    0  0.84550743502E+01 -0.40743701100E+02 -0.12332305278E+02  0.47787271722E+02  0.20000003088E+02 0.  0.
        -12    1    1    2    0    0 -0.84550743502E+01  0.40743701100E+02  0.12332305278E+02  0.43400728278E+02  0.00000000000E+00 0.  1.
         11    1    3    3    0    0 -0.13204473900E+01 -0.45979637765E+01  0.40033388224E+01  0.62379142498E+01  0.51100000000E-03 0.  1.
        -11    1    3    3    0    0  0.20403833122E+01 -0.15682227585E+02 -0.35412916647E+01  0.16206053592E+02  0.51100000000E-03 0. -1.
        -12    1    3    3    0    0  0.77351384280E+01 -0.20463509738E+02 -0.12794352436E+02  0.25343303880E+02  0.00000000000E+00 0.  1.
</event>
<event>
 7    1  0.4031943E-009  0.4778728E+02  0.7816164E-02  0.1312668E+00
        -11   -1    0    0    0    0  0.00000000000E+00  0.00000000000E+00  0.45593999997E+02  0.45594000000E+02  0.51100000000E-03 0.  1.
         11   -1    0    0    0    0 -0.00000000000E+00 -0.00000000000E+00 -0.45593999997E+02  0.45594000000E+02  0.51100000000E-03 0. -1.
    9900012    2    1    2    0    0 -0.36560228680E+02 -0.23224984481E+02 -0.27517797932E+01  0.47787279761E+02  0.20000039741E+02 0.  0.
        -12    1    1    2    0    0  0.36560228680E+02  0.23224984481E+02  0.27517797932E+01  0.43400720239E+02  0.00000000000E+00 0.  1.
         11    1    3    3    0    0 -0.35571178833E+02 -0.19440923740E+02 -0.36035938736E+01  0.40696979845E+02  0.51100000000E-03 0. -1.
        -11    1    3    3    0    0 -0.25617130265E+01 -0.34494518851E+01  0.23459648725E+01  0.48953695859E+01  0.51100000000E-03 0.  1.
         12    1    3    3    0    0  0.15726631799E+01 -0.33460885574E+00 -0.14941507921E+01  0.21949303299E+01  0.00000000000E+00 0. -1.
</event>
<event>
 7    1  0.4031943E-009  0.4778727E+02  0.7816164E-02  0.1312668E+00
        -11   -1    0    0    0    0  0.00000000000E+00  0.00000000000E+00  0.45593999997E+02  0.45594000000E+02  0.51100000000E-03 0.  1.
         11   -1    0    0    0    0 -0.00000000000E+00 -0.00000000000E+00 -0.45593999997E+02  0.45594000000E+02  0.51100000000E-03 0. -1.
    9900012    2    1    2    0    0  0.43396223759E+02 -0.29639294572E+00  0.55076860929E+00  0.47787269230E+02  0.19999991728E+02 0.  0.
        -12    1    1    2    0    0 -0.43396223759E+02  0.29639294572E+00 -0.55076860929E+00  0.43400730770E+02  0.00000000000E+00 0.  1.
         11    1    3    3    0    0  0.30763315203E+02  0.21491443330E+00  0.69416994292E+01  0.31537516416E+02  0.51100000000E-03 0. -1.
        -11    1    3    3    0    0  0.67971637205E+01 -0.12434262506E+01  0.80425252932E+00  0.69566059164E+01  0.51100000000E-03 0.  1.
        -12    1    3    3    0    0  0.58357448354E+01  0.73211887160E+00 -0.71951833492E+01  0.92931468973E+01  0.00000000000E+00 0.  1.
</event>
<event>
 7    1  0.4031943E-009  0.4778727E+02  0.7816164E-02  0.1312668E+00
        -11   -1    0    0    0    0  0.00000000000E+00  0.00000000000E+00  0.45593999997E+02  0.45594000000E+02  0.51100000000E-03 0.  1.
         11   -1    0    0    0    0 -0.00000000000E+00 -0.00000000000E+00 -0.45593999997E+02  0.45594000000E+02  0.51100000000E-03 0. -1.
    9900012    2    1    2    0    0 -0.34828731106E+02  0.16743862944E+02  0.19754133937E+02  0.47787271154E+02  0.20000000502E+02 0.  0.
        -12    1    1    2    0    0  0.34828731106E+02 -0.16743862944E+02 -0.19754133937E+02  0.43400728846E+02  0.00000000000E+00 0.  1.
         11    1    3    3    0    0 -0.14790575283E+02  0.33842348926E+01  0.29978086744E+00  0.15175771211E+02  0.51100000000E-03 0. -1.
        -11    1    3    3    0    0 -0.18434583169E+02  0.10374832488E+02  0.11756520989E+02  0.24200966753E+02  0.51100000000E-03 0.  1.
        -12    1    3    3    0    0 -0.16035726540E+01  0.29847955637E+01  0.76978320803E+01  0.84105331906E+01  0.00000000000E+00 0.  1.
</event>
<event>
 7    1  0.4031943E-009  0.4778727E+02  0.7816164E-02  0.1312668E+00
        -11   -1    0    0    0    0  0.00000000000E+00  0.00000000000E+00  0.45593999997E+02  0.45594000000E+02  0.51100000000E-03 0.  1.
         11   -1    0    0    0    0 -0.00000000000E+00 -0.00000000000E+00 -0.45593999997E+02  0.45594000000E+02  0.51100000000E-03 0. -1.
    9900012    2    1    2    0    0  0.33337709735E+02  0.26195790172E+02 -0.92736751190E+01  0.47787270014E+02  0.19999995304E+02 0.  0.
        -12    1    1    2    0    0 -0.33337709735E+02 -0.26195790172E+02  0.92736751190E+01  0.43400729986E+02  0.00000000000E+00 0.  1.
         11    1    3    3    0    0  0.25654805048E+02  0.23193429265E+02 -0.64996568549E+01  0.35190193557E+02  0.51100000000E-03 0. -1.
        -11    1    3    3    0    0  0.63975149150E+01  0.25064136658E+01  0.23727209923E+01  0.72691204227E+01  0.51100000000E-03 0.  1.
        -12    1    3    3    0    0  0.12853897718E+01  0.49594724110E+00 -0.51467392565E+01  0.53279560345E+01  0.00000000000E+00 0.  1.
</event>
<event>
 7    1  0.4031943E-009  0.4778726E+02  0.7816164E-02  0.1312668E+00
        -11   -1    0    0    0    0  0.00000000000E+00  0.00000000000E+00  0.45593999997E+02  0.45594000000E+02  0.51100000000E-03 0.  1.
         11   -1    0    0    0    0 -0.00000000000E+00 -0.00000000000E+00 -0.45593999997E+02  0.45594000000E+02  0.51100000000E-03 0. -1.
    9900012    2    1    2    0    0  0.26113730724E+02  0.11281004059E+02 -0.32778597092E+02  0.47787257929E+02  0.19999940203E+02 0.  0.
        -12    1    1    2    0    0 -0.26113730724E+02 -0.11281004059E+02  0.32778597092E+02  0.43400742071E+02  0.00000000000E+00 0.  1.
         11    1    3    3    0    0  0.13194987627E+02  0.51411613802E+01 -0.13954163569E+02  0.19881094537E+02  0.51100000000E-03 0. -1.
        -11    1    3    3    0    0  0.12587000916E+02  0.98523755109E+01 -0.11511544063E+02  0.19698160885E+02  0.51100000000E-03 0.  1.
        -12    1    3    3    0    0  0.33174218166E+00 -0.37125328322E+01 -0.73128894604E+01  0.82080025076E+01  0.00000000000E+00 0.  1.
</event>
<event>
 7    1  0.4031943E-009  0.4778728E+02  0.7816164E-02  0.1312668E+00
        -11   -1    0    0    0    0  0.00000000000E+00  0.00000000000E+00  0.45593999997E+02  0.45594000000E+02  0.51100000000E-03 0.  1.
         11   -1    0    0    0    0 -0.00000000000E+00 -0.00000000000E+00 -0.45593999997E+02  0.45594000000E+02  0.51100000000E-03 0. -1.
    9900012    2    1    2    0    0  0.19759747253E+02  0.14067419706E+02 -0.35990033893E+02  0.47787280555E+02  0.20000043364E+02 0.  0.
        -12    1    1    2    0    0 -0.19759747253E+02 -0.14067419706E+02  0.35990033893E+02  0.43400719445E+02  0.00000000000E+00 0.  1.
         11    1    3    3    0    0  0.14373149149E+02  0.62383628800E+01 -0.21521326035E+02  0.26620895222E+02  0.51100000000E-03 0. -1.
        -11    1    3    3    0    0  0.89006428262E+01  0.78384161418E+01 -0.10247986799E+02  0.15674292457E+02  0.51100000000E-03 0.  1.
        -12    1    3    3    0    0 -0.35140447217E+01 -0.93593159804E-02 -0.42207210591E+01  0.54920928763E+01  0.00000000000E+00 0.  1.
</event>
<event>
 7    1  0.4031943E-009  0.4778725E+02  0.7816164E-02  0.1312668E+00
        -11   -1    0    0    0    0  0.00000000000E+00  0.00000000000E+00  0.45593999997E+02  0.45594000000E+02  0.51100000000E-03 0.  1.
         11   -1    0    0    0    0 -0.00000000000E+00 -0.00000000000E+00 -0.45593999997E+02  0.45594000000E+02  0.51100000000E-03 0. -1.
    9900012    2    1    2    0    0 -0.15846967531E+02  0.11303178058E+02 -0.38790940098E+02  0.47787248303E+02  0.19999896314E+02 0.  0.
        -12    1    1    2    0    0  0.15846967531E+02 -0.11303178058E+02  0.38790940098E+02  0.43400751697E+02  0.00000000000E+00 0.  1.
         11    1    3    3    0    0 -0.68571569230E+01  0.39258604289E+01 -0.33430497329E+01  0.85795665946E+01  0.51100000000E-03 0. -1.
        -11    1    3    3    0    0 -0.14951804566E+01  0.55988996971E+01 -0.45606653025E+01  0.73744769766E+01  0.51100000000E-03 0.  1.
         12    1    3    3    0    0 -0.74946301510E+01  0.17784179319E+01 -0.30887225063E+02  0.31833204732E+02  0.00000000000E+00 0. -1.
</event>
<event>
 7    1  0.4031943E-009  0.4778727E+02  0.7816164E-02  0.1312668E+00
        -11   -1    0    0    0    0  0.00000000000E+00  0.00000000000E+00  0.45593999997E+02  0.45594000000E+02  0.51100000000E-03 0.  1.
         11   -1    0    0    0    0 -0.00000000000E+00 -0.00000000000E+00 -0.45593999997E+02  0.45594000000E+02  0.51100000000E-03 0. -1.
    9900012    2    1    2    0    0 -0.41633077033E+01  0.43130816001E+02 -0.24541526138E+01  0.47787270916E+02  0.19999999416E+02 0.  0.
        -12    1    1    2    0    0  0.41633077033E+01 -0.43130816001E+02  0.24541526138E+01  0.43400729084E+02  0.00000000000E+00 0.  1.
         11    1    3    3    0    0 -0.47755985454E+01  0.19710987764E+02 -0.60523741284E+00  0.20290285673E+02  0.51100000000E-03 0. -1.
        -11    1    3    3    0    0 -0.63906211546E+01  0.13309306724E+02  0.12401620701E+01  0.14816061772E+02  0.51100000000E-03 0.  1.
         12    1    3    3    0    0  0.70029119967E+01  0.10110521513E+02 -0.30890772711E+01  0.12680923471E+02  0.00000000000E+00 0. -1.
</event>
<event>
 7    1  0.4031943E-009  0.4778727E+02  0.7816164E-02  0.1312668E+00
        -11   -1    0    0    0    0  0.00000000000E+00  0.00000000000E+00  0.45593999997E+02  0.45594000000E+02  0.51100000000E-03 0. -1.
         11   -1    0    0    0    0 -0.00000000000E+00 -0.00000000000E+00 -0.45593999997E+02  0.45594000000E+02  0.51100000000E-03 0.  1.
    9900012    2    1    2    0    0 -0.10306748139E+02 -0.39825062695E+02  0.13833237068E+02  0.47787272775E+02  0.20000007892E+02 0.  0.
        -12    1    1    2    0    0  0.10306748139E+02  0.39825062695E+02 -0.13833237068E+02  0.43400727225E+02  0.00000000000E+00 0.  1.
         11    1    3    3    0    0 -0.87304471326E+01 -0.13237188352E+02  0.12451474655E+02  0.20161425643E+02  0.51100000000E-03 0. -1.
        -11    1    3    3    0    0 -0.30484576733E+01 -0.10418704587E+02  0.31252742510E+01  0.11296452490E+02  0.51100000000E-03 0.  1.
        -12    1    3    3    0    0  0.14721566669E+01 -0.16169169757E+02 -0.17435118388E+01  0.16329394643E+02  0.00000000000E+00 0.  1.
</event>
<event>
 7    1  0.4031943E-009  0.4778727E+02  0.7816164E-02  0.1312668E+00
        -11   -1    0    0    0    0  0.00000000000E+00  0.00000000000E+00  0.45593999997E+02  0.45594000000E+02  0.51100000000E-03 0.  1.
         11   -1    0    0    0    0 -0.00000000000E+00 -0.00000000000E+00 -0.45593999997E+02  0.45594000000E+02  0.51100000000E-03 0. -1.
    9900012    2    1    2    0    0  0.25803042273E+00 -0.12228178213E+02 -0.41641670779E+02  0.47787266511E+02  0.19999979332E+02 0.  0.
        -12    1    1    2    0    0 -0.25803042273E+00  0.12228178213E+02  0.41641670779E+02  0.43400733489E+02  0.00000000000E+00 0.  1.
         11    1    3    3    0    0  0.67189587974E+00 -0.21474160757E+01 -0.24333514612E+02  0.24437323371E+02  0.51100000000E-03 0. -1.
        -11    1    3    3    0    0 -0.36045808710E+01 -0.92905624411E+01 -0.17411064665E+02  0.20061224458E+02  0.51100000000E-03 0.  1.
        -12    1    3    3    0    0  0.31907154140E+01 -0.79019969638E+00  0.10290849860E+00  0.32887186825E+01  0.00000000000E+00 0.  1.
</event>
<event>
 7    1  0.4031943E-009  0.4778727E+02  0.7816164E-02  0.1312668E+00
        -11   -1    0    0    0    0  0.00000000000E+00  0.00000000000E+00  0.45593999997E+02  0.45594000000E+02  0.51100000000E-03 0. -1.
         11   -1    0    0    0    0 -0.00000000000E+00 -0.00000000000E+00 -0.45593999997E+02  0.45594000000E+02  0.51100000000E-03 0.  1.
    9900012    2    1    2    0    0 -0.18426188989E+02  0.36111955869E+02 -0.15492761969E+02  0.47787268776E+02  0.19999989655E+02 0.  0.
        -12    1    1    2    0    0  0.18426188989E+02 -0.36111955869E+02  0.15492761969E+02  0.43400731224E+02  0.00000000000E+00 0.  1.
         11    1    3    3    0    0 -0.11727848680E+01  0.10950910778E+02  0.29246273629E+01  0.11395232191E+02  0.51100000000E-03 0.  1.
        -11    1    3    3    0    0 -0.22926106688E+01  0.91270308945E+01 -0.64563705461E+01  0.11412426452E+02  0.51100000000E-03 0. -1.
        -12    1    3    3    0    0 -0.14960793452E+02  0.16034014197E+02 -0.11961018786E+02  0.24979610133E+02  0.00000000000E+00 0.  1.
</event>
<event>
 7    1  0.4031943E-009  0.4778727E+02  0.7816164E-02  0.1312668E+00
        -11   -1    0    0    0    0  0.00000000000E+00  0.00000000000E+00  0.45593999997E+02  0.45594000000E+02  0.51100000000E-03 0. -1.
         11   -1    0    0    0    0 -0.00000000000E+00 -0.00000000000E+00 -0.45593999997E+02  0.45594000000E+02  0.51100000000E-03 0.  1.
    9900012    2    1    2    0    0  0.14290014661E+02 -0.32951580320E+02  0.24364153191E+02  0.47787272756E+02  0.20000007803E+02 0.  0.
        -12    1    1    2    0    0 -0.14290014661E+02  0.32951580320E+02 -0.24364153191E+02  0.43400727244E+02  0.00000000000E+00 0.  1.
         11    1    3    3    0    0  0.64703372794E+01 -0.14805744832E+02  0.20610075773E+02  0.26188748885E+02  0.51100000000E-03 0.  1.
        -11    1    3    3    0    0  0.74785675561E+01 -0.12053624597E+02  0.55588277936E+01  0.15235465379E+02  0.51100000000E-03 0. -1.
        -12    1    3    3    0    0  0.34110982572E+00 -0.60922108905E+01 -0.18047503752E+01  0.63630584913E+01  0.00000000000E+00 0.  1.
</event>
<event>
 7    1  0.4031943E-009  0.4778727E+02  0.7816164E-02  0.1312668E+00
        -11   -1    0    0    0    0  0.00000000000E+00  0.00000000000E+00  0.45593999997E+02  0.45594000000E+02  0.51100000000E-03 0.  1.
         11   -1    0    0    0    0 -0.00000000000E+00 -0.00000000000E+00 -0.45593999997E+02  0.45594000000E+02  0.51100000000E-03 0. -1.
    9900012    2    1    2    0    0 -0.18985439419E+02 -0.54025836802E+01 -0.38652149420E+02  0.47787268726E+02  0.19999989428E+02 0.  0.
        -12    1    1    2    0    0  0.18985439419E+02  0.54025836802E+01  0.38652149420E+02  0.43400731274E+02  0.00000000000E+00 0.  1.
         11    1    3    3    0    0 -0.24748279092E+01  0.20221816846E+01 -0.35552244133E+01  0.47805452447E+01  0.51100000000E-03 0. -1.
        -11    1    3    3    0    0  0.93736198891E+00 -0.62871412463E+01 -0.45770108340E+01  0.78329956584E+01  0.51100000000E-03 0.  1.
         12    1    3    3    0    0 -0.17447973499E+02 -0.11376241186E+01 -0.30519914172E+02  0.35173727823E+02  0.00000000000E+00 0. -1.
</event>
<event>
 7    1  0.4031943E-009  0.4778732E+02  0.7816164E-02  0.1312668E+00
        -11   -1    0    0    0    0  0.00000000000E+00  0.00000000000E+00  0.45593999997E+02  0.45594000000E+02  0.51100000000E-03 0.  1.
         11   -1    0    0    0    0 -0.00000000000E+00 -0.00000000000E+00 -0.45593999997E+02  0.45594000000E+02  0.51100000000E-03 0. -1.
    9900012    2    1    2    0    0 -0.20565204527E+02 -0.78485929482E+01 -0.37404422714E+02  0.47787321583E+02  0.20000230423E+02 0.  0.
        -12    1    1    2    0    0  0.20565204527E+02  0.78485929482E+01  0.37404422714E+02  0.43400678417E+02  0.00000000000E+00 0.  1.
         11    1    3    3    0    0 -0.15192133343E+02 -0.10587568665E+01 -0.19793510577E+02  0.24974085425E+02  0.51100000000E-03 0. -1.
        -11    1    3    3    0    0 -0.41580283341E+01 -0.22458944255E+01 -0.14816902351E+00  0.47281281410E+01  0.51100000000E-03 0.  1.
         12    1    3    3    0    0 -0.12150428499E+01 -0.45439416562E+01 -0.17462743114E+02  0.18085108016E+02  0.00000000000E+00 0. -1.
</event>
<event>
 7    1  0.4031943E-009  0.4778726E+02  0.7816164E-02  0.1312668E+00
        -11   -1    0    0    0    0  0.00000000000E+00  0.00000000000E+00  0.45593999997E+02  0.45594000000E+02  0.51100000000E-03 0.  1.
         11   -1    0    0    0    0 -0.00000000000E+00 -0.00000000000E+00 -0.45593999997E+02  0.45594000000E+02  0.51100000000E-03 0. -1.
    9900012    2    1    2    0    0  0.15223582353E+02 -0.40623812207E+02  0.12540009470E+01  0.47787261570E+02  0.19999956802E+02 0.  0.
        -12    1    1    2    0    0 -0.15223582353E+02  0.40623812207E+02 -0.12540009470E+01  0.43400738430E+02  0.00000000000E+00 0.  1.
         11    1    3    3    0    0  0.10161339944E+02 -0.94786725196E+01  0.18638651829E+01  0.14020415681E+02  0.51100000000E-03 0. -1.
        -11    1    3    3    0    0 -0.13843444102E+01 -0.84246445954E+00  0.21172342292E+01  0.26662402094E+01  0.51100000000E-03 0.  1.
        -12    1    3    3    0    0  0.64465868191E+01 -0.30302675228E+02 -0.27270984651E+01  0.31100605680E+02  0.00000000000E+00 0.  1.
</event>
<event>
 7    1  0.4031943E-009  0.4778727E+02  0.7816164E-02  0.1312668E+00
        -11   -1    0    0    0    0  0.00000000000E+00  0.00000000000E+00  0.45593999997E+02  0.45594000000E+02  0.51100000000E-03 0.  1.
         11   -1    0    0    0    0 -0.00000000000E+00 -0.00000000000E+00 -0.45593999997E+02  0.45594000000E+02  0.51100000000E-03 0. -1.
    9900012    2    1    2    0    0  0.87525814685E+01  0.24887829680E+02 -0.34461742358E+02  0.47787269190E+02  0.19999991543E+02 0.  0.
        -12    1    1    2    0    0 -0.87525814685E+01 -0.24887829680E+02  0.34461742358E+02  0.43400730810E+02  0.00000000000E+00 0.  1.
         11    1    3    3    0    0  0.12856344957E+02  0.18850012414E+02 -0.26952323797E+02  0.35313401591E+02  0.51100000000E-03 0.  1.
        -11    1    3    3    0    0  0.16952293168E+01  0.25182475225E+01 -0.33309553204E+01  0.45067323671E+01  0.51100000000E-03 0. -1.
        -12    1    3    3    0    0 -0.57989928053E+01  0.35195697433E+01 -0.41784632411E+01  0.79671352311E+01  0.00000000000E+00 0.  1.
</event>
<event>
 7    1  0.4031943E-009  0.4778727E+02  0.7816164E-02  0.1312668E+00
        -11   -1    0    0    0    0  0.00000000000E+00  0.00000000000E+00  0.45593999997E+02  0.45594000000E+02  0.51100000000E-03 0.  1.
         11   -1    0    0    0    0 -0.00000000000E+00 -0.00000000000E+00 -0.45593999997E+02  0.45594000000E+02  0.51100000000E-03 0. -1.
    9900012    2    1    2    0    0  0.24835055584E+02  0.35360409404E+02 -0.40601657953E+01  0.47787268608E+02  0.19999988890E+02 0.  0.
        -12    1    1    2    0    0 -0.24835055584E+02 -0.35360409404E+02  0.40601657953E+01  0.43400731392E+02  0.00000000000E+00 0.  1.
         11    1    3    3    0    0  0.87876006540E+01  0.21102094927E+02  0.45807822527E+01  0.23313170138E+02  0.51100000000E-03 0. -1.
        -11    1    3    3    0    0  0.36772970396E+01  0.62934601888E+00  0.75872735043E+00  0.38071324356E+01  0.51100000000E-03 0.  1.
        -12    1    3    3    0    0  0.12370157890E+02  0.13628968459E+02 -0.93996753984E+01  0.20666966034E+02  0.00000000000E+00 0.  1.
</event>
<event>
 7    1  0.4031943E-009  0.4778727E+02  0.7816164E-02  0.1312668E+00
        -11   -1    0    0    0    0  0.00000000000E+00  0.00000000000E+00  0.45593999997E+02  0.45594000000E+02  0.51100000000E-03 0. -1.
         11   -1    0    0    0    0 -0.00000000000E+00 -0.00000000000E+00 -0.45593999997E+02  0.45594000000E+02  0.51100000000E-03 0.  1.
    9900012    2    1    2    0    0  0.14627858265E+02  0.40832799469E+02 -0.15268781605E+01  0.47787272969E+02  0.20000008775E+02 0.  0.
        -12    1    1    2    0    0 -0.14627858265E+02 -0.40832799469E+02  0.15268781605E+01  0.43400727031E+02  0.00000000000E+00 0.  1.
         11    1    3    3    0    0  0.17281555817E+02  0.30019286491E+02 -0.45956432429E+00  0.34641318285E+02  0.51100000000E-03 0. -1.
        -11    1    3    3    0    0  0.28141817582E+00  0.38351666812E+01  0.26913728207E+01  0.46937391900E+01  0.51100000000E-03 0.  1.
         12    1    3    3    0    0 -0.29351157281E+01  0.69783462970E+01 -0.37586866569E+01  0.84522154943E+01  0.00000000000E+00 0. -1.
</event>
<event>
 7    1  0.4031943E-009  0.4778727E+02  0.7816164E-02  0.1312668E+00
        -11   -1    0    0    0    0  0.00000000000E+00  0.00000000000E+00  0.45593999997E+02  0.45594000000E+02  0.51100000000E-03 0.  1.
         11   -1    0    0    0    0 -0.00000000000E+00 -0.00000000000E+00 -0.45593999997E+02  0.45594000000E+02  0.51100000000E-03 0. -1.
    9900012    2    1    2    0    0 -0.19724148948E+02 -0.35189877144E+02 -0.16007936044E+02  0.47787268192E+02  0.19999986993E+02 0.  0.
        -12    1    1    2    0    0  0.19724148948E+02  0.35189877144E+02  0.16007936044E+02  0.43400731808E+02  0.00000000000E+00 0.  1.
         11    1    3    3    0    0 -0.17310695976E+01 -0.67206635178E+01 -0.64720070102E+01  0.94895097382E+01  0.51100000000E-03 0. -1.
        -11    1    3    3    0    0 -0.16748908034E+02 -0.12560498310E+02 -0.34422088283E+01  0.21216522807E+02  0.51100000000E-03 0.  1.
         12    1    3    3    0    0 -0.12441713162E+01 -0.15908715316E+02 -0.60937202053E+01  0.17081235646E+02  0.00000000000E+00 0. -1.
</event>
<event>
 7    1  0.4031943E-009  0.4778727E+02  0.7816164E-02  0.1312668E+00
        -11   -1    0    0    0    0  0.00000000000E+00  0.00000000000E+00  0.45593999997E+02  0.45594000000E+02  0.51100000000E-03 0.  1.
         11   -1    0    0    0    0 -0.00000000000E+00 -0.00000000000E+00 -0.45593999997E+02  0.45594000000E+02  0.51100000000E-03 0. -1.
    9900012    2    1    2    0    0 -0.54622620147E+01 -0.29583262710E+02 -0.31282869270E+02  0.47787266727E+02  0.19999980317E+02 0.  0.
        -12    1    1    2    0    0  0.54622620147E+01  0.29583262710E+02  0.31282869270E+02  0.43400733273E+02  0.00000000000E+00 0.  1.
         11    1    3    3    0    0  0.99429357414E+00 -0.34469444462E+01 -0.10106503134E+02  0.10724339214E+02  0.51100000000E-03 0. -1.
        -11    1    3    3    0    0 -0.53209895066E+01 -0.12139905339E+01 -0.34140210142E+01  0.64375649195E+01  0.51100000000E-03 0.  1.
        -12    1    3    3    0    0 -0.11355660822E+01 -0.24922327729E+02 -0.17762345121E+02  0.30625362594E+02  0.00000000000E+00 0.  1.
</event>
<event>
 7    1  0.4031943E-009  0.4778721E+02  0.7816164E-02  0.1312668E+00
        -11   -1    0    0    0    0  0.00000000000E+00  0.00000000000E+00  0.45593999997E+02  0.45594000000E+02  0.51100000000E-03 0.  1.
         11   -1    0    0    0    0 -0.00000000000E+00 -0.00000000000E+00 -0.45593999997E+02  0.45594000000E+02  0.51100000000E-03 0. -1.
    9900012    2    1    2    0    0  0.33437255565E+02  0.15445333627E+02 -0.22956923637E+02  0.47787208147E+02  0.19999713223E+02 0.  0.
        -12    1    1    2    0    0 -0.33437255565E+02 -0.15445333627E+02  0.22956923637E+02  0.43400791853E+02  0.00000000000E+00 0.  1.
         11    1    3    3    0    0  0.11422580394E+02  0.11814105441E+00 -0.26326677763E+01  0.11722637931E+02  0.51100000000E-03 0.  1.
        -11    1    3    3    0    0  0.20160160493E+02  0.72965524683E+01 -0.16037094846E+02  0.26774244347E+02  0.51100000000E-03 0. -1.
        -12    1    3    3    0    0  0.18545146783E+01  0.80306401048E+01 -0.42871610151E+01  0.92903258691E+01  0.00000000000E+00 0.  1.
</event>
<event>
 7    1  0.4031943E-009  0.4778727E+02  0.7816164E-02  0.1312668E+00
        -11   -1    0    0    0    0  0.00000000000E+00  0.00000000000E+00  0.45593999997E+02  0.45594000000E+02  0.51100000000E-03 0.  1.
         11   -1    0    0    0    0 -0.00000000000E+00 -0.00000000000E+00 -0.45593999997E+02  0.45594000000E+02  0.51100000000E-03 0. -1.
    9900012    2    1    2    0    0 -0.10960731471E+02 -0.19395929938E+02 -0.37246255926E+02  0.47787270593E+02  0.19999997943E+02 0.  0.
        -12    1    1    2    0    0  0.10960731471E+02  0.19395929938E+02  0.37246255926E+02  0.43400729407E+02  0.00000000000E+00 0.  1.
         11    1    3    3    0    0 -0.14034589971E+01 -0.14415021021E+02 -0.17307124983E+02  0.22567656140E+02  0.51100000000E-03 0.  1.
        -11    1    3    3    0    0 -0.94196575587E+01 -0.74841607034E+01 -0.12411500604E+02  0.17285484010E+02  0.51100000000E-03 0. -1.
        -12    1    3    3    0    0 -0.13761491522E+00  0.25032517869E+01 -0.75276303387E+01  0.79341304432E+01  0.00000000000E+00 0.  1.
</event>
<event>
 7    1  0.4031943E-009  0.4778724E+02  0.7816164E-02  0.1312668E+00
        -11   -1    0    0    0    0  0.00000000000E+00  0.00000000000E+00  0.45593999997E+02  0.45594000000E+02  0.51100000000E-03 0.  1.
         11   -1    0    0    0    0 -0.00000000000E+00 -0.00000000000E+00 -0.45593999997E+02  0.45594000000E+02  0.51100000000E-03 0. -1.
    9900012    2    1    2    0    0  0.48573468735E+01  0.36329320342E+02 -0.23242479753E+02  0.47787237331E+02  0.19999846286E+02 0.  0.
        -12    1    1    2    0    0 -0.48573468735E+01 -0.36329320342E+02  0.23242479753E+02  0.43400762669E+02  0.00000000000E+00 0.  1.
         11    1    3    3    0    0  0.41144943858E+01  0.53440803771E+01 -0.76626114336E+01  0.10208029848E+02  0.51100000000E-03 0. -1.
        -11    1    3    3    0    0 -0.44565214121E+01  0.14917054721E+02 -0.13418072471E+02  0.20552950488E+02  0.51100000000E-03 0.  1.
        -12    1    3    3    0    0  0.51993738998E+01  0.16068185244E+02 -0.21617958482E+01  0.17026256996E+02  0.00000000000E+00 0.  1.
</event>
<event>
 7    1  0.4031943E-009  0.4778723E+02  0.7816164E-02  0.1312668E+00
        -11   -1    0    0    0    0  0.00000000000E+00  0.00000000000E+00  0.45593999997E+02  0.45594000000E+02  0.51100000000E-03 0. -1.
         11   -1    0    0    0    0 -0.00000000000E+00 -0.00000000000E+00 -0.45593999997E+02  0.45594000000E+02  0.51100000000E-03 0.  1.
    9900012    2    1    2    0    0  0.18738937071E+02  0.10220822954E+02  0.37789074088E+02  0.47787226910E+02  0.19999798772E+02 0.  0.
        -12    1    1    2    0    0 -0.18738937071E+02 -0.10220822954E+02 -0.37789074088E+02  0.43400773090E+02  0.00000000000E+00 0.  1.
         11    1    3    3    0    0  0.11771594616E+02  0.42172496267E+01  0.17588062962E+02  0.21579981308E+02  0.51100000000E-03 0. -1.
        -11    1    3    3    0    0  0.20078246957E+01  0.50427093461E+01  0.20441457856E+02  0.21149786692E+02  0.51100000000E-03 0.  1.
        -12    1    3    3    0    0  0.49595177597E+01  0.96086398069E+00 -0.24044673083E+00  0.50574589102E+01  0.00000000000E+00 0.  1.
</event>
<event>
 7    1  0.4031943E-009  0.4778728E+02  0.7816164E-02  0.1312668E+00
        -11   -1    0    0    0    0  0.00000000000E+00  0.00000000000E+00  0.45593999997E+02  0.45594000000E+02  0.51100000000E-03 0. -1.
         11   -1    0    0    0    0 -0.00000000000E+00 -0.00000000000E+00 -0.45593999997E+02  0.45594000000E+02  0.51100000000E-03 0.  1.
    9900012    2    1    2    0    0 -0.42508783698E+02  0.40055206322E+01  0.77834195549E+01  0.47787279879E+02  0.20000040282E+02 0.  0.
        -12    1    1    2    0    0  0.42508783698E+02 -0.40055206322E+01 -0.77834195549E+01  0.43400720121E+02  0.00000000000E+00 0.  1.
         11    1    3    3    0    0 -0.30540478977E+02 -0.18034458560E+01  0.64348085241E+01  0.31263077809E+02  0.51100000000E-03 0. -1.
        -11    1    3    3    0    0 -0.11781686032E+02  0.33081916548E+01 -0.19383111005E+01  0.12389887326E+02  0.51100000000E-03 0.  1.
        -12    1    3    3    0    0 -0.18661868906E+00  0.25007748334E+01  0.32869221313E+01  0.41343147437E+01  0.00000000000E+00 0.  1.
</event>
<event>
 7    1  0.4031943E-009  0.4778727E+02  0.7816164E-02  0.1312668E+00
        -11   -1    0    0    0    0  0.00000000000E+00  0.00000000000E+00  0.45593999997E+02  0.45594000000E+02  0.51100000000E-03 0.  1.
         11   -1    0    0    0    0 -0.00000000000E+00 -0.00000000000E+00 -0.45593999997E+02  0.45594000000E+02  0.51100000000E-03 0. -1.
    9900012    2    1    2    0    0  0.21112141356E+02 -0.28322165993E+02 -0.25214199455E+02  0.47787268977E+02  0.19999990575E+02 0.  0.
        -12    1    1    2    0    0 -0.21112141356E+02  0.28322165993E+02  0.25214199455E+02  0.43400731023E+02  0.00000000000E+00 0.  1.
         11    1    3    3    0    0  0.25993705804E+01  0.70470166679E+00 -0.22220813562E+01  0.34915580573E+01  0.51100000000E-03 0. -1.
        -11    1    3    3    0    0 -0.24643783675E+01 -0.68427773723E+00 -0.10483690689E+01  0.27641408657E+01  0.51100000000E-03 0.  1.
         12    1    3    3    0    0  0.20977149143E+02 -0.28342589922E+02 -0.21943749030E+02  0.41531570054E+02  0.00000000000E+00 0. -1.
</event>
<event>
 7    1  0.4031943E-009  0.4778727E+02  0.7816164E-02  0.1312668E+00
        -11   -1    0    0    0    0  0.00000000000E+00  0.00000000000E+00  0.45593999997E+02  0.45594000000E+02  0.51100000000E-03 0.  1.
         11   -1    0    0    0    0 -0.00000000000E+00 -0.00000000000E+00 -0.45593999997E+02  0.45594000000E+02  0.51100000000E-03 0. -1.
    9900012    2    1    2    0    0  0.24510913832E+02  0.23720320394E+02 -0.26836263194E+02  0.47787268224E+02  0.19999987141E+02 0.  0.
        -12    1    1    2    0    0 -0.24510913832E+02 -0.23720320394E+02  0.26836263194E+02  0.43400731776E+02  0.00000000000E+00 0.  1.
         11    1    3    3    0    0  0.42802948796E+01  0.12804288609E+02 -0.57266313636E+01  0.14665095911E+02  0.51100000000E-03 0. -1.
        -11    1    3    3    0    0  0.14223974846E+02  0.11534245405E+02 -0.11047031964E+02  0.21386846260E+02  0.51100000000E-03 0.  1.
         12    1    3    3    0    0  0.60066441059E+01 -0.61821362027E+00 -0.10062599866E+02  0.11735326053E+02  0.00000000000E+00 0. -1.
</event>
<event>
 7    1  0.4465155E-009  0.4778727E+02  0.7816164E-02  0.1312668E+00
        -11   -1    0    0    0    0  0.00000000000E+00  0.00000000000E+00  0.45593999997E+02  0.45594000000E+02  0.51100000000E-03 0. -1.
         11   -1    0    0    0    0 -0.00000000000E+00 -0.00000000000E+00 -0.45593999997E+02  0.45594000000E+02  0.51100000000E-03 0.  1.
    9900012    2    1    2    0    0 -0.42911795220E+02  0.64594226331E+01 -0.69064338523E+00  0.47787270766E+02  0.19999998730E+02 0.  0.
        -12    1    1    2    0    0  0.42911795220E+02 -0.64594226331E+01  0.69064338523E+00  0.43400729234E+02  0.00000000000E+00 0.  1.
         11    1    3    3    0    0 -0.18120152261E+02  0.43903192102E+01  0.65534720780E+01  0.19762662201E+02  0.51100000000E-03 0. -1.
        -11    1    3    3    0    0 -0.17437356803E+02 -0.12096116476E-01  0.81786070462E-01  0.17437552805E+02  0.51100000000E-03 0.  1.
        -12    1    3    3    0    0 -0.73542861565E+01  0.20811995393E+01 -0.73259015337E+01  0.10587055760E+02  0.00000000000E+00 0.  1.
</event>
<event>
 7    1  0.4031943E-009  0.4778727E+02  0.7816164E-02  0.1312668E+00
        -11   -1    0    0    0    0  0.00000000000E+00  0.00000000000E+00  0.45593999997E+02  0.45594000000E+02  0.51100000000E-03 0.  1.
         11   -1    0    0    0    0 -0.00000000000E+00 -0.00000000000E+00 -0.45593999997E+02  0.45594000000E+02  0.51100000000E-03 0. -1.
    9900012    2    1    2    0    0  0.40057001885E+02  0.12055347415E+02  0.11564107427E+02  0.47787269800E+02  0.19999994325E+02 0.  0.
        -12    1    1    2    0    0 -0.40057001885E+02 -0.12055347415E+02 -0.11564107427E+02  0.43400730200E+02  0.00000000000E+00 0.  1.
         11    1    3    3    0    0  0.64926070014E+01  0.34697081419E+01  0.59024319726E+01  0.94356517378E+01  0.51100000000E-03 0. -1.
        -11    1    3    3    0    0  0.99245881643E+01 -0.18164886455E+01  0.73293502694E+01  0.12470623756E+02  0.51100000000E-03 0.  1.
        -12    1    3    3    0    0  0.23639806720E+02  0.10402127918E+02 -0.16676748149E+01  0.25880994306E+02  0.00000000000E+00 0.  1.
</event>
<event>
 7    1  0.4031943E-009  0.4778727E+02  0.7816164E-02  0.1312668E+00
        -11   -1    0    0    0    0  0.00000000000E+00  0.00000000000E+00  0.45593999997E+02  0.45594000000E+02  0.51100000000E-03 0. -1.
         11   -1    0    0    0    0 -0.00000000000E+00 -0.00000000000E+00 -0.45593999997E+02  0.45594000000E+02  0.51100000000E-03 0.  1.
    9900012    2    1    2    0    0 -0.19787637523E+02  0.31245587140E+02  0.22710930188E+02  0.47787266544E+02  0.19999979483E+02 0.  0.
        -12    1    1    2    0    0  0.19787637523E+02 -0.31245587140E+02 -0.22710930188E+02  0.43400733456E+02  0.00000000000E+00 0.  1.
         11    1    3    3    0    0 -0.14406023264E+02  0.14214887999E+02  0.17651785646E+02  0.26854833529E+02  0.51100000000E-03 0.  1.
        -11    1    3    3    0    0 -0.49202920912E+01  0.11605121653E+02  0.78134487816E+01  0.14830310346E+02  0.51100000000E-03 0. -1.
        -12    1    3    3    0    0 -0.46132216696E+00  0.54255774881E+01 -0.27543042396E+01  0.61021226689E+01  0.00000000000E+00 0.  1.
</event>
<event>
 7    1  0.4031943E-009  0.4778727E+02  0.7816164E-02  0.1312668E+00
        -11   -1    0    0    0    0  0.00000000000E+00  0.00000000000E+00  0.45593999997E+02  0.45594000000E+02  0.51100000000E-03 0.  1.
         11   -1    0    0    0    0 -0.00000000000E+00 -0.00000000000E+00 -0.45593999997E+02  0.45594000000E+02  0.51100000000E-03 0. -1.
    9900012    2    1    2    0    0  0.37244118648E+02 -0.40394212678E+01  0.21913055355E+02  0.47787270823E+02  0.19999998992E+02 0.  0.
        -12    1    1    2    0    0 -0.37244118648E+02  0.40394212678E+01 -0.21913055355E+02  0.43400729177E+02  0.00000000000E+00 0.  1.
         11    1    3    3    0    0  0.38259611506E+01  0.37554115482E+00  0.60888380548E+01  0.72008998746E+01  0.51100000000E-03 0. -1.
        -11    1    3    3    0    0  0.28407156494E+02  0.24715159816E+01  0.14424996527E+02  0.31955523097E+02  0.51100000000E-03 0.  1.
         12    1    3    3    0    0  0.50110010039E+01 -0.68864784043E+01  0.13992207735E+01  0.86308478521E+01  0.00000000000E+00 0. -1.
</event>
<event>
 7    1  0.4031943E-009  0.4778728E+02  0.7816164E-02  0.1312668E+00
        -11   -1    0    0    0    0  0.00000000000E+00  0.00000000000E+00  0.45593999997E+02  0.45594000000E+02  0.51100000000E-03 0.  1.
         11   -1    0    0    0    0 -0.00000000000E+00 -0.00000000000E+00 -0.45593999997E+02  0.45594000000E+02  0.51100000000E-03 0. -1.
    9900012    2    1    2    0    0 -0.28828858774E+02 -0.36657462378E+01 -0.32234795420E+02  0.47787276164E+02  0.20000023343E+02 0.  0.
        -12    1    1    2    0    0  0.28828858774E+02  0.36657462378E+01  0.32234795420E+02  0.43400723836E+02  0.00000000000E+00 0.  1.
         11    1    3    3    0    0  0.10551159310E+01 -0.94260392927E+00 -0.35735754969E+01  0.38434637879E+01  0.51100000000E-03 0. -1.
        -11    1    3    3    0    0 -0.11172288535E+02  0.34244458719E+01 -0.39308502025E+01  0.12328764910E+02  0.51100000000E-03 0.  1.
         12    1    3    3    0    0 -0.18711686170E+02 -0.61475881804E+01 -0.24730369721E+02  0.31615047466E+02  0.00000000000E+00 0. -1.
</event>
<event>
 7    1  0.4031943E-009  0.4778727E+02  0.7816164E-02  0.1312668E+00
        -11   -1    0    0    0    0  0.00000000000E+00  0.00000000000E+00  0.45593999997E+02  0.45594000000E+02  0.51100000000E-03 0.  1.
         11   -1    0    0    0    0 -0.00000000000E+00 -0.00000000000E+00 -0.45593999997E+02  0.45594000000E+02  0.51100000000E-03 0. -1.
    9900012    2    1    2    0    0 -0.63999185276E+01  0.17278323695E+02 -0.39295341200E+02  0.47787271125E+02  0.20000000367E+02 0.  0.
        -12    1    1    2    0    0  0.63999185276E+01 -0.17278323695E+02  0.39295341200E+02  0.43400728875E+02  0.00000000000E+00 0.  1.
         11    1    3    3    0    0 -0.50808367872E+01  0.16078219048E+01 -0.17292139466E+02  0.18094697602E+02  0.51100000000E-03 0. -1.
        -11    1    3    3    0    0 -0.12651708659E-02 -0.16590140110E+00  0.13968666988E+01  0.14066846523E+01  0.51100000000E-03 0.  1.
        -12    1    3    3    0    0 -0.13178165695E+01  0.15836403191E+02 -0.23400068433E+02  0.28285888871E+02  0.00000000000E+00 0.  1.
</event>
<event>
 7    1  0.4031943E-009  0.4778726E+02  0.7816164E-02  0.1312668E+00
        -11   -1    0    0    0    0  0.00000000000E+00  0.00000000000E+00  0.45593999997E+02  0.45594000000E+02  0.51100000000E-03 0.  1.
         11   -1    0    0    0    0 -0.00000000000E+00 -0.00000000000E+00 -0.45593999997E+02  0.45594000000E+02  0.51100000000E-03 0. -1.
    9900012    2    1    2    0    0  0.55747390065E+01  0.37698035850E+02 -0.20770280650E+02  0.47787260602E+02  0.19999952390E+02 0.  0.
        -12    1    1    2    0    0 -0.55747390065E+01 -0.37698035850E+02  0.20770280650E+02  0.43400739398E+02  0.00000000000E+00 0.  1.
         11    1    3    3    0    0  0.10325764917E+02  0.95115742384E+01 -0.80815680834E+01  0.16198864422E+02  0.51100000000E-03 0. -1.
        -11    1    3    3    0    0  0.51473511402E+00  0.23970251522E+01 -0.20587928589E+01  0.32014543750E+01  0.51100000000E-03 0.  1.
        -12    1    3    3    0    0 -0.52657610242E+01  0.25789436460E+02 -0.10629919708E+02  0.28386941806E+02  0.00000000000E+00 0.  1.
</event>
<event>
 7    1  0.4031943E-009  0.4778727E+02  0.7816164E-02  0.1312668E+00
        -11   -1    0    0    0    0  0.00000000000E+00  0.00000000000E+00  0.45593999997E+02  0.45594000000E+02  0.51100000000E-03 0.  1.
         11   -1    0    0    0    0 -0.00000000000E+00 -0.00000000000E+00 -0.45593999997E+02  0.45594000000E+02  0.51100000000E-03 0. -1.
    9900012    2    1    2    0    0  0.33706560022E+01 -0.31028706670E+02 -0.30157607181E+02  0.47787271545E+02  0.20000002284E+02 0.  0.
        -12    1    1    2    0    0 -0.33706560022E+01  0.31028706670E+02  0.30157607181E+02  0.43400728455E+02  0.00000000000E+00 0.  1.
         11    1    3    3    0    0  0.55766687741E+01 -0.27285612247E+02 -0.14760825618E+02  0.31519610459E+02  0.51100000000E-03 0. -1.
        -11    1    3    3    0    0 -0.84742887770E+00 -0.85430445887E-02 -0.90066208114E+00  0.12366895859E+01  0.51100000000E-03 0.  1.
         12    1    3    3    0    0 -0.13585838942E+01 -0.37345513783E+01 -0.14496119482E+02  0.15030971500E+02  0.00000000000E+00 0. -1.
</event>
<event>
 7    1  0.4031943E-009  0.4778727E+02  0.7816164E-02  0.1312668E+00
        -11   -1    0    0    0    0  0.00000000000E+00  0.00000000000E+00  0.45593999997E+02  0.45594000000E+02  0.51100000000E-03 0. -1.
         11   -1    0    0    0    0 -0.00000000000E+00 -0.00000000000E+00 -0.45593999997E+02  0.45594000000E+02  0.51100000000E-03 0.  1.
    9900012    2    1    2    0    0 -0.16252279878E+02 -0.39595998992E+02  0.71863361769E+01  0.47787272298E+02  0.20000005715E+02 0.  0.
        -12    1    1    2    0    0  0.16252279878E+02  0.39595998992E+02 -0.71863361769E+01  0.43400727702E+02  0.00000000000E+00 0.  1.
         11    1    3    3    0    0 -0.16026161413E+01 -0.11716737655E+02 -0.31413205240E+01  0.12235939468E+02  0.51100000000E-03 0.  1.
        -11    1    3    3    0    0 -0.88373790129E+01 -0.24340938571E+02  0.38938179521E+01  0.26186683197E+02  0.51100000000E-03 0. -1.
        -12    1    3    3    0    0 -0.58122847242E+01 -0.35383227663E+01  0.64338387488E+01  0.93646496336E+01  0.00000000000E+00 0.  1.
</event>
<event>
 7    1  0.4031943E-009  0.4778728E+02  0.7816164E-02  0.1312668E+00
        -11   -1    0    0    0    0  0.00000000000E+00  0.00000000000E+00  0.45593999997E+02  0.45594000000E+02  0.51100000000E-03 0. -1.
         11   -1    0    0    0    0 -0.00000000000E+00 -0.00000000000E+00 -0.45593999997E+02  0.45594000000E+02  0.51100000000E-03 0.  1.
    9900012    2    1    2    0    0 -0.36988697784E+01 -0.26116865310E+02  0.34465207810E+02  0.47787276035E+02  0.20000022754E+02 0.  0.
        -12    1    1    2    0    0  0.36988697784E+01  0.26116865310E+02 -0.34465207810E+02  0.43400723965E+02  0.00000000000E+00 0.  1.
         11    1    3    3    0    0  0.17697554539E+01 -0.41832405834E+01  0.11393517858E+02  0.12265552804E+02  0.51100000000E-03 0. -1.
        -11    1    3    3    0    0 -0.15885269409E+01 -0.13525495519E+02  0.22428374712E+02  0.26239177566E+02  0.51100000000E-03 0.  1.
        -12    1    3    3    0    0 -0.38800982914E+01 -0.84081292075E+01  0.64331524062E+00  0.92825456649E+01  0.00000000000E+00 0.  1.
</event>
<event>
 7    1  0.4031943E-009  0.4778728E+02  0.7816164E-02  0.1312668E+00
        -11   -1    0    0    0    0  0.00000000000E+00  0.00000000000E+00  0.45593999997E+02  0.45594000000E+02  0.51100000000E-03 0. -1.
         11   -1    0    0    0    0 -0.00000000000E+00 -0.00000000000E+00 -0.45593999997E+02  0.45594000000E+02  0.51100000000E-03 0.  1.
    9900012    2    1    2    0    0  0.16423536482E+02 -0.39046216100E+02 -0.94489786623E+01  0.47787277194E+02  0.20000028040E+02 0.  0.
        -12    1    1    2    0    0 -0.16423536482E+02  0.39046216100E+02  0.94489786623E+01  0.43400722806E+02  0.00000000000E+00 0.  1.
         11    1    3    3    0    0  0.56189584640E+01 -0.36378040121E+01 -0.29893827694E+01  0.73309427670E+01  0.51100000000E-03 0. -1.
        -11    1    3    3    0    0  0.12404889953E+02 -0.15034401617E+02 -0.27205298578E+01  0.19680340691E+02  0.51100000000E-03 0.  1.
        -12    1    3    3    0    0 -0.16003119348E+01 -0.20374010470E+02 -0.37390660351E+01  0.20775993737E+02  0.00000000000E+00 0.  1.
</event>
<event>
 7    1  0.4031943E-009  0.4778728E+02  0.7816164E-02  0.1312668E+00
        -11   -1    0    0    0    0  0.00000000000E+00  0.00000000000E+00  0.45593999997E+02  0.45594000000E+02  0.51100000000E-03 0.  1.
         11   -1    0    0    0    0 -0.00000000000E+00 -0.00000000000E+00 -0.45593999997E+02  0.45594000000E+02  0.51100000000E-03 0. -1.
    9900012    2    1    2    0    0 -0.84340490078E+01  0.72950510541E+01 -0.41943673081E+02  0.47787278070E+02  0.20000032031E+02 0.  0.
        -12    1    1    2    0    0  0.84340490078E+01 -0.72950510541E+01  0.41943673081E+02  0.43400721930E+02  0.00000000000E+00 0.  1.
         11    1    3    3    0    0 -0.37224040834E+01  0.31849866913E+01 -0.12695886322E+02  0.13608304896E+02  0.51100000000E-03 0. -1.
        -11    1    3    3    0    0 -0.10505385725E+02  0.46683856098E+01 -0.15931023920E+02  0.19645724136E+02  0.51100000000E-03 0.  1.
         12    1    3    3    0    0  0.57937408004E+01 -0.55832124702E+00 -0.13316762838E+02  0.14533249037E+02  0.00000000000E+00 0. -1.
</event>
<event>
 7    1  0.4031943E-009  0.4778728E+02  0.7816164E-02  0.1312668E+00
        -11   -1    0    0    0    0  0.00000000000E+00  0.00000000000E+00  0.45593999997E+02  0.45594000000E+02  0.51100000000E-03 0.  1.
         11   -1    0    0    0    0 -0.00000000000E+00 -0.00000000000E+00 -0.45593999997E+02  0.45594000000E+02  0.51100000000E-03 0. -1.
    9900012    2    1    2    0    0 -0.40371199090E+02  0.56228654507E+01 -0.14905455154E+02  0.47787275061E+02  0.20000018315E+02 0.  0.
        -12    1    1    2    0    0  0.40371199090E+02 -0.56228654507E+01  0.14905455154E+02  0.43400724939E+02  0.00000000000E+00 0.  1.
         11    1    3    3    0    0 -0.13273336733E+02 -0.98827994891E+00 -0.55940225149E+00  0.13321827819E+02  0.51100000000E-03 0.  1.
        -11    1    3    3    0    0 -0.64655761578E+01 -0.45183022024E+01 -0.32903833588E+01  0.85466574023E+01  0.51100000000E-03 0. -1.
        -12    1    3    3    0    0 -0.20632286199E+02  0.11129447602E+02 -0.11055669543E+02  0.25918789840E+02  0.00000000000E+00 0.  1.
</event>
<event>
 7    1  0.4031943E-009  0.4778728E+02  0.7816164E-02  0.1312668E+00
        -11   -1    0    0    0    0  0.00000000000E+00  0.00000000000E+00  0.45593999997E+02  0.45594000000E+02  0.51100000000E-03 0. -1.
         11   -1    0    0    0    0 -0.00000000000E+00 -0.00000000000E+00 -0.45593999997E+02  0.45594000000E+02  0.51100000000E-03 0.  1.
    9900012    2    1    2    0    0 -0.18337834650E+02  0.33934452759E+02  0.19894708924E+02  0.47787277577E+02  0.20000029783E+02 0.  0.
        -12    1    1    2    0    0  0.18337834650E+02 -0.33934452759E+02 -0.19894708924E+02  0.43400722423E+02  0.00000000000E+00 0.  1.
         11    1    3    3    0    0 -0.53982650253E+01  0.21002110417E+01  0.17267115719E+01  0.60443101192E+01  0.51100000000E-03 0. -1.
        -11    1    3    3    0    0 -0.29754390409E+01  0.77624987042E+01 -0.22845132127E+01  0.86214050188E+01  0.51100000000E-03 0.  1.
         12    1    3    3    0    0 -0.99641305836E+01  0.24071743013E+02  0.20452510565E+02  0.33121562439E+02  0.00000000000E+00 0. -1.
</event>
<event>
 7    1  0.4031943E-009  0.4778727E+02  0.7816164E-02  0.1312668E+00
        -11   -1    0    0    0    0  0.00000000000E+00  0.00000000000E+00  0.45593999997E+02  0.45594000000E+02  0.51100000000E-03 0.  1.
         11   -1    0    0    0    0 -0.00000000000E+00 -0.00000000000E+00 -0.45593999997E+02  0.45594000000E+02  0.51100000000E-03 0. -1.
    9900012    2    1    2    0    0 -0.42857562844E+01 -0.33740694750E+02 -0.26959620649E+02  0.47787270344E+02  0.19999996805E+02 0.  0.
        -12    1    1    2    0    0  0.42857562844E+01  0.33740694750E+02  0.26959620649E+02  0.43400729656E+02  0.00000000000E+00 0.  1.
         11    1    3    3    0    0 -0.41092358938E+01  0.46789778954E+00 -0.17026636902E+00  0.41392920735E+01  0.51100000000E-03 0.  1.
        -11    1    3    3    0    0 -0.20037200204E+01 -0.11491000250E+02 -0.87388781123E+01  0.14574840362E+02  0.51100000000E-03 0. -1.
        -12    1    3    3    0    0  0.18271996298E+01 -0.22717592290E+02 -0.18050476168E+02  0.29073137908E+02  0.00000000000E+00 0.  1.
</event>
<event>
 7    1  0.4031943E-009  0.4778727E+02  0.7816164E-02  0.1312668E+00
        -11   -1    0    0    0    0  0.00000000000E+00  0.00000000000E+00  0.45593999997E+02  0.45594000000E+02  0.51100000000E-03 0. -1.
         11   -1    0    0    0    0 -0.00000000000E+00 -0.00000000000E+00 -0.45593999997E+02  0.45594000000E+02  0.51100000000E-03 0.  1.
    9900012    2    1    2    0    0  0.16985423783E+02 -0.34173581681E+02  0.20670870450E+02  0.47787271998E+02  0.20000004346E+02 0.  0.
        -12    1    1    2    0    0 -0.16985423783E+02  0.34173581681E+02 -0.20670870450E+02  0.43400728002E+02  0.00000000000E+00 0.  1.
         11    1    3    3    0    0  0.96350794861E+01 -0.14908822536E+02  0.11242062955E+02  0.21011704497E+02  0.51100000000E-03 0. -1.
        -11    1    3    3    0    0  0.82645900636E+01 -0.21256517414E+02  0.80464937708E+01  0.24184479398E+02  0.51100000000E-03 0.  1.
        -12    1    3    3    0    0 -0.91424576639E+00  0.19917582695E+01  0.13823137244E+01  0.25910881031E+01  0.00000000000E+00 0.  1.
</event>
<event>
 7    1  0.4031943E-009  0.4778728E+02  0.7816164E-02  0.1312668E+00
        -11   -1    0    0    0    0  0.00000000000E+00  0.00000000000E+00  0.45593999997E+02  0.45594000000E+02  0.51100000000E-03 0.  1.
         11   -1    0    0    0    0 -0.00000000000E+00 -0.00000000000E+00 -0.45593999997E+02  0.45594000000E+02  0.51100000000E-03 0. -1.
    9900012    2    1    2    0    0 -0.32577262548E+02  0.12577105191E+02 -0.25771326395E+02  0.47787275648E+02  0.20000020991E+02 0.  0.
        -12    1    1    2    0    0  0.32577262548E+02 -0.12577105191E+02  0.25771326395E+02  0.43400724352E+02  0.00000000000E+00 0.  1.
         11    1    3    3    0    0 -0.10459289127E+02  0.13845761948E+01 -0.79249323215E+00  0.10580256427E+02  0.51100000000E-03 0. -1.
        -11    1    3    3    0    0 -0.14813680916E+02  0.30238807862E+01 -0.82917904800E+01  0.17243630329E+02  0.51100000000E-03 0.  1.
        -12    1    3    3    0    0 -0.73042925055E+01  0.81686482104E+01 -0.16687042682E+02  0.19963388893E+02  0.00000000000E+00 0.  1.
</event>
<event>
 7    1  0.4031943E-009  0.4778727E+02  0.7816164E-02  0.1312668E+00
        -11   -1    0    0    0    0  0.00000000000E+00  0.00000000000E+00  0.45593999997E+02  0.45594000000E+02  0.51100000000E-03 0.  1.
         11   -1    0    0    0    0 -0.00000000000E+00 -0.00000000000E+00 -0.45593999997E+02  0.45594000000E+02  0.51100000000E-03 0. -1.
    9900012    2    1    2    0    0  0.78901137179E+01  0.42600538571E+02 -0.25619596019E+01  0.47787269384E+02  0.19999992427E+02 0.  0.
        -12    1    1    2    0    0 -0.78901137179E+01 -0.42600538571E+02  0.25619596019E+01  0.43400730616E+02  0.00000000000E+00 0.  1.
         11    1    3    3    0    0  0.29338597583E+01  0.31961586482E+02 -0.14941967196E+01  0.32130719999E+02  0.51100000000E-03 0. -1.
        -11    1    3    3    0    0 -0.23284638858E+01  0.44764649544E+01 -0.30709469482E+01  0.59068771763E+01  0.51100000000E-03 0.  1.
         12    1    3    3    0    0  0.72847178454E+01  0.61624871347E+01  0.20031840660E+01  0.97496722086E+01  0.00000000000E+00 0. -1.
</event>
<event>
 7    1  0.4031943E-009  0.4778727E+02  0.7816164E-02  0.1312668E+00
        -11   -1    0    0    0    0  0.00000000000E+00  0.00000000000E+00  0.45593999997E+02  0.45594000000E+02  0.51100000000E-03 0. -1.
         11   -1    0    0    0    0 -0.00000000000E+00 -0.00000000000E+00 -0.45593999997E+02  0.45594000000E+02  0.51100000000E-03 0.  1.
    9900012    2    1    2    0    0 -0.39504760355E+02 -0.12099962811E+02  0.13288649388E+02  0.47787269668E+02  0.19999993725E+02 0.  0.
        -12    1    1    2    0    0  0.39504760355E+02  0.12099962811E+02 -0.13288649388E+02  0.43400730332E+02  0.00000000000E+00 0.  1.
         11    1    3    3    0    0 -0.25798839150E+02 -0.77470957175E+01  0.13346442890E+02  0.30062021417E+02  0.51100000000E-03 0. -1.
        -11    1    3    3    0    0 -0.11411922274E+02 -0.52983653754E+01  0.37957402632E+01  0.13142004796E+02  0.51100000000E-03 0.  1.
        -12    1    3    3    0    0 -0.22939989305E+01  0.94549828170E+00 -0.38535337652E+01  0.45832434557E+01  0.00000000000E+00 0.  1.
</event>
<event>
 7    1  0.4031943E-009  0.4778728E+02  0.7816164E-02  0.1312668E+00
        -11   -1    0    0    0    0  0.00000000000E+00  0.00000000000E+00  0.45593999997E+02  0.45594000000E+02  0.51100000000E-03 0.  1.
         11   -1    0    0    0    0 -0.00000000000E+00 -0.00000000000E+00 -0.45593999997E+02  0.45594000000E+02  0.51100000000E-03 0. -1.
    9900012    2    1    2    0    0  0.22348352747E+02  0.29652261449E+02  0.22470363610E+02  0.47787277422E+02  0.20000029079E+02 0.  0.
        -12    1    1    2    0    0 -0.22348352747E+02 -0.29652261449E+02 -0.22470363610E+02  0.43400722578E+02  0.00000000000E+00 0.  1.
         11    1    3    3    0    0 -0.30527728282E+00  0.30809560125E+01 -0.67466885483E-01  0.30967783602E+01  0.51100000000E-03 0. -1.
        -11    1    3    3    0    0 -0.23599945431E+01  0.73299397861E+00  0.25314766607E+01  0.35376869224E+01  0.51100000000E-03 0.  1.
         12    1    3    3    0    0  0.25013624572E+02  0.25838311458E+02  0.20006353834E+02  0.41152812140E+02  0.00000000000E+00 0. -1.
</event>
<event>
 7    1  0.4031943E-009  0.4778727E+02  0.7816164E-02  0.1312668E+00
        -11   -1    0    0    0    0  0.00000000000E+00  0.00000000000E+00  0.45593999997E+02  0.45594000000E+02  0.51100000000E-03 0.  1.
         11   -1    0    0    0    0 -0.00000000000E+00 -0.00000000000E+00 -0.45593999997E+02  0.45594000000E+02  0.51100000000E-03 0. -1.
    9900012    2    1    2    0    0 -0.30003340566E+02  0.16283707130E+02 -0.26800443356E+02  0.47787270431E+02  0.19999997205E+02 0.  0.
        -12    1    1    2    0    0  0.30003340566E+02 -0.16283707130E+02  0.26800443356E+02  0.43400729569E+02  0.00000000000E+00 0.  1.
         11    1    3    3    0    0 -0.42144155357E+01  0.39298573212E+01 -0.10757793908E+02  0.12203901298E+02  0.51100000000E-03 0. -1.
        -11    1    3    3    0    0 -0.50832844341E+01  0.95537883002E+01 -0.45764781761E+01  0.11749842734E+02  0.51100000000E-03 0.  1.
        -12    1    3    3    0    0 -0.20705640597E+02  0.28000615084E+01 -0.11466171271E+02  0.23833526399E+02  0.00000000000E+00 0.  1.
</event>
<event>
 7    1  0.4031943E-009  0.4778727E+02  0.7816164E-02  0.1312668E+00
        -11   -1    0    0    0    0  0.00000000000E+00  0.00000000000E+00  0.45593999997E+02  0.45594000000E+02  0.51100000000E-03 0.  1.
         11   -1    0    0    0    0 -0.00000000000E+00 -0.00000000000E+00 -0.45593999997E+02  0.45594000000E+02  0.51100000000E-03 0. -1.
    9900012    2    1    2    0    0 -0.38874294201E+02  0.18613041560E+02  0.50958002981E+01  0.47787271361E+02  0.20000001442E+02 0.  0.
        -12    1    1    2    0    0  0.38874294201E+02 -0.18613041560E+02 -0.50958002981E+01  0.43400728639E+02  0.00000000000E+00 0.  1.
         11    1    3    3    0    0 -0.39624601597E+01 -0.17299979590E+01 -0.13318028804E+01  0.45241223048E+01  0.51100000000E-03 0. -1.
        -11    1    3    3    0    0 -0.93651092916E+00  0.56582212834E+01  0.27140269245E+00  0.57416182819E+01  0.51100000000E-03 0.  1.
         12    1    3    3    0    0 -0.33975323112E+02  0.14684818236E+02  0.61562004860E+01  0.37521530774E+02  0.00000000000E+00 0. -1.
</event>
<event>
 7    1  0.4031943E-009  0.4778727E+02  0.7816164E-02  0.1312668E+00
        -11   -1    0    0    0    0  0.00000000000E+00  0.00000000000E+00  0.45593999997E+02  0.45594000000E+02  0.51100000000E-03 0.  1.
         11   -1    0    0    0    0 -0.00000000000E+00 -0.00000000000E+00 -0.45593999997E+02  0.45594000000E+02  0.51100000000E-03 0. -1.
    9900012    2    1    2    0    0 -0.21874883887E+02 -0.29083222982E+02 -0.23649080535E+02  0.47787269427E+02  0.19999992628E+02 0.  0.
        -12    1    1    2    0    0  0.21874883887E+02  0.29083222982E+02  0.23649080535E+02  0.43400730573E+02  0.00000000000E+00 0.  1.
         11    1    3    3    0    0 -0.46223805396E+01 -0.84584357337E+01 -0.68514697363E+01  0.11825995718E+02  0.51100000000E-03 0. -1.
        -11    1    3    3    0    0 -0.17790671361E+02 -0.18567828038E+02 -0.80303963488E+01  0.26939923744E+02  0.51100000000E-03 0.  1.
         12    1    3    3    0    0  0.53816801304E+00 -0.20569592096E+01 -0.87672144496E+01  0.90213499658E+01  0.00000000000E+00 0. -1.
</event>
<event>
 7    1  0.4031943E-009  0.4778728E+02  0.7816164E-02  0.1312668E+00
        -11   -1    0    0    0    0  0.00000000000E+00  0.00000000000E+00  0.45593999997E+02  0.45594000000E+02  0.51100000000E-03 0.  1.
         11   -1    0    0    0    0 -0.00000000000E+00 -0.00000000000E+00 -0.45593999997E+02  0.45594000000E+02  0.51100000000E-03 0. -1.
    9900012    2    1    2    0    0  0.11014243380E+02 -0.25174877792E+02 -0.33593668048E+02  0.47787279246E+02  0.20000037393E+02 0.  0.
        -12    1    1    2    0    0 -0.11014243380E+02  0.25174877792E+02  0.33593668048E+02  0.43400720754E+02  0.00000000000E+00 0.  1.
         11    1    3    3    0    0  0.32367772998E+01  0.14507040012E+00 -0.58592748776E+01  0.66954368836E+01  0.51100000000E-03 0. -1.
        -11    1    3    3    0    0 -0.38563537236E+00  0.14355469231E+01  0.26890101222E+00  0.15105686427E+01  0.51100000000E-03 0.  1.
         12    1    3    3    0    0  0.81631014522E+01 -0.26755495115E+02 -0.28003294182E+02  0.39581273719E+02  0.00000000000E+00 0. -1.
</event>
<event>
 7    1  0.4031943E-009  0.4778727E+02  0.7816164E-02  0.1312668E+00
        -11   -1    0    0    0    0  0.00000000000E+00  0.00000000000E+00  0.45593999997E+02  0.45594000000E+02  0.51100000000E-03 0.  1.
         11   -1    0    0    0    0 -0.00000000000E+00 -0.00000000000E+00 -0.45593999997E+02  0.45594000000E+02  0.51100000000E-03 0. -1.
    9900012    2    1    2    0    0 -0.27092785409E+02  0.98003548588E+01 -0.32458552725E+02  0.47787267039E+02  0.19999981736E+02 0.  0.
        -12    1    1    2    0    0  0.27092785409E+02 -0.98003548588E+01  0.32458552725E+02  0.43400732961E+02  0.00000000000E+00 0.  1.
         11    1    3    3    0    0 -0.59809210009E+01  0.72281679778E+01 -0.16108916647E+02  0.18641754857E+02  0.51100000000E-03 0. -1.
        -11    1    3    3    0    0 -0.28283329610E+00 -0.25846129463E+01 -0.24952739357E+01  0.36036940812E+01  0.51100000000E-03 0.  1.
         12    1    3    3    0    0 -0.20829031112E+02  0.51567998272E+01 -0.13854362143E+02  0.25541818101E+02  0.00000000000E+00 0. -1.
</event>
<event>
 7    1  0.4031943E-009  0.4778727E+02  0.7816164E-02  0.1312668E+00
        -11   -1    0    0    0    0  0.00000000000E+00  0.00000000000E+00  0.45593999997E+02  0.45594000000E+02  0.51100000000E-03 0.  1.
         11   -1    0    0    0    0 -0.00000000000E+00 -0.00000000000E+00 -0.45593999997E+02  0.45594000000E+02  0.51100000000E-03 0. -1.
    9900012    2    1    2    0    0 -0.22866123060E+02 -0.31064830032E+02 -0.19893210644E+02  0.47787273296E+02  0.20000010267E+02 0.  0.
        -12    1    1    2    0    0  0.22866123060E+02  0.31064830032E+02  0.19893210644E+02  0.43400726704E+02  0.00000000000E+00 0.  1.
         11    1    3    3    0    0 -0.86254722914E+00 -0.40743830067E+00 -0.37002589575E+01  0.38212446016E+01  0.51100000000E-03 0. -1.
        -11    1    3    3    0    0 -0.17608747539E+01  0.84213929112E+00 -0.42294192245E+01  0.46580967919E+01  0.51100000000E-03 0.  1.
         12    1    3    3    0    0 -0.20242701077E+02 -0.31499531022E+02 -0.11963532462E+02  0.39307931903E+02  0.00000000000E+00 0. -1.
</event>
<event>
 7    1  0.4031943E-009  0.4778727E+02  0.7816164E-02  0.1312668E+00
        -11   -1    0    0    0    0  0.00000000000E+00  0.00000000000E+00  0.45593999997E+02  0.45594000000E+02  0.51100000000E-03 0.  1.
         11   -1    0    0    0    0 -0.00000000000E+00 -0.00000000000E+00 -0.45593999997E+02  0.45594000000E+02  0.51100000000E-03 0. -1.
    9900012    2    1    2    0    0 -0.42010998108E+02  0.34368785286E+01 -0.10338618794E+02  0.47787272649E+02  0.20000007315E+02 0.  0.
        -12    1    1    2    0    0  0.42010998108E+02 -0.34368785286E+01  0.10338618794E+02  0.43400727351E+02  0.00000000000E+00 0.  1.
         11    1    3    3    0    0 -0.26684536136E+02  0.11502350550E+01 -0.14988847337E+02  0.30627651791E+02  0.51100000000E-03 0. -1.
        -11    1    3    3    0    0 -0.65984122851E+01  0.69012689815E+00 -0.89798321666E+00  0.66949005921E+01  0.51100000000E-03 0.  1.
        -12    1    3    3    0    0 -0.87280496867E+01  0.15965165755E+01  0.55482117594E+01  0.10464720266E+02  0.00000000000E+00 0.  1.
</event>
<event>
 7    1  0.4031943E-009  0.4778727E+02  0.7816164E-02  0.1312668E+00
        -11   -1    0    0    0    0  0.00000000000E+00  0.00000000000E+00  0.45593999997E+02  0.45594000000E+02  0.51100000000E-03 0. -1.
         11   -1    0    0    0    0 -0.00000000000E+00 -0.00000000000E+00 -0.45593999997E+02  0.45594000000E+02  0.51100000000E-03 0.  1.
    9900012    2    1    2    0    0  0.40389122331E+02 -0.44230342017E+01  0.15257085831E+02  0.47787273021E+02  0.20000009014E+02 0.  0.
        -12    1    1    2    0    0 -0.40389122331E+02  0.44230342017E+01 -0.15257085831E+02  0.43400726979E+02  0.00000000000E+00 0.  1.
         11    1    3    3    0    0  0.27547334844E+01  0.25770932451E+01 -0.12970389664E+01  0.39890194917E+01  0.51100000000E-03 0. -1.
        -11    1    3    3    0    0  0.25901822779E+02 -0.82414630558E+00  0.53997467323E+01  0.26471511205E+02  0.51100000000E-03 0.  1.
         12    1    3    3    0    0  0.11732566067E+02 -0.61759811412E+01  0.11154378065E+02  0.17326742325E+02  0.00000000000E+00 0. -1.
</event>
<event>
 7    1  0.4031943E-009  0.4778727E+02  0.7816164E-02  0.1312668E+00
        -11   -1    0    0    0    0  0.00000000000E+00  0.00000000000E+00  0.45593999997E+02  0.45594000000E+02  0.51100000000E-03 0.  1.
         11   -1    0    0    0    0 -0.00000000000E+00 -0.00000000000E+00 -0.45593999997E+02  0.45594000000E+02  0.51100000000E-03 0. -1.
    9900012    2    1    2    0    0 -0.32095622125E+02  0.18965038485E+02 -0.22222101027E+02  0.47787269380E+02  0.19999992409E+02 0.  0.
        -12    1    1    2    0    0  0.32095622125E+02 -0.18965038485E+02  0.22222101027E+02  0.43400730620E+02  0.00000000000E+00 0.  1.
         11    1    3    3    0    0 -0.67084045973E+01  0.73725676912E+01 -0.12405326526E+02  0.15913817049E+02  0.51100000000E-03 0. -1.
        -11    1    3    3    0    0 -0.10742097653E+02  0.11153906192E+02 -0.68081159721E+01  0.16916049441E+02  0.51100000000E-03 0.  1.
         12    1    3    3    0    0 -0.14645119874E+02  0.43856460130E+00 -0.30086585292E+01  0.14957402889E+02  0.00000000000E+00 0. -1.
</event>
<event>
 7    1  0.6939091E-009  0.4778726E+02  0.7816164E-02  0.1312668E+00
        -11   -1    0    0    0    0  0.00000000000E+00  0.00000000000E+00  0.45593999997E+02  0.45594000000E+02  0.51100000000E-03 0. -1.
         11   -1    0    0    0    0 -0.00000000000E+00 -0.00000000000E+00 -0.45593999997E+02  0.45594000000E+02  0.51100000000E-03 0.  1.
    9900012    2    1    2    0    0 -0.18567954997E+01 -0.75091774312E+01  0.42705840209E+02  0.47787260108E+02  0.19999950135E+02 0.  0.
        -12    1    1    2    0    0  0.18567954997E+01  0.75091774312E+01 -0.42705840209E+02  0.43400739892E+02  0.00000000000E+00 0.  1.
         11    1    3    3    0    0  0.35526520165E+01 -0.71567803995E+01  0.23510298575E+02  0.24830927921E+02  0.51100000000E-03 0. -1.
        -11    1    3    3    0    0  0.31156470535E+01 -0.21967076244E+01  0.48744620832E+01  0.61881468802E+01  0.51100000000E-03 0.  1.
        -12    1    3    3    0    0 -0.85250945697E+01  0.18443105927E+01  0.14321079551E+02  0.16768185307E+02  0.00000000000E+00 0.  1.
</event>
<event>
 7    1  0.4031943E-009  0.4778726E+02  0.7816164E-02  0.1312668E+00
        -11   -1    0    0    0    0  0.00000000000E+00  0.00000000000E+00  0.45593999997E+02  0.45594000000E+02  0.51100000000E-03 0.  1.
         11   -1    0    0    0    0 -0.00000000000E+00 -0.00000000000E+00 -0.45593999997E+02  0.45594000000E+02  0.51100000000E-03 0. -1.
    9900012    2    1    2    0    0  0.17749572284E+02 -0.24693835183E+02 -0.30964351073E+02  0.47787264411E+02  0.19999969754E+02 0.  0.
        -12    1    1    2    0    0 -0.17749572284E+02  0.24693835183E+02  0.30964351073E+02  0.43400735589E+02  0.00000000000E+00 0.  1.
         11    1    3    3    0    0  0.21609010820E+01 -0.11651460861E+01 -0.15163302403E+01  0.28855357469E+01  0.51100000000E-03 0. -1.
        -11    1    3    3    0    0  0.72067975134E+01 -0.24339232420E+01 -0.17867517610E+02  0.19419322814E+02  0.51100000000E-03 0.  1.
         12    1    3    3    0    0  0.83818736890E+01 -0.21094765855E+02 -0.11580503223E+02  0.25482405850E+02  0.00000000000E+00 0. -1.
</event>
<event>
 7    1 -0.4031943E-009  0.4778726E+02  0.7816164E-02  0.1312668E+00
        -11   -1    0    0    0    0  0.00000000000E+00  0.00000000000E+00  0.45593999997E+02  0.45594000000E+02  0.51100000000E-03 0.  1.
         11   -1    0    0    0    0 -0.00000000000E+00 -0.00000000000E+00 -0.45593999997E+02  0.45594000000E+02  0.51100000000E-03 0. -1.
    9900012    2    1    2    0    0 -0.12632685212E+02  0.35193456828E+02 -0.22033158592E+02  0.47787260183E+02  0.19999950477E+02 0.  0.
        -12    1    1    2    0    0  0.12632685212E+02 -0.35193456828E+02  0.22033158592E+02  0.43400739817E+02  0.00000000000E+00 0.  1.
         11    1    3    3    0    0 -0.74944926602E+01  0.13249517522E+02 -0.85002256308E+01  0.17434763286E+02  0.51100000000E-03 0. -1.
        -11    1    3    3    0    0 -0.39912856678E+01  0.79308352870E+01  0.23062762598E+01  0.91731902890E+01  0.51100000000E-03 0.  1.
        -12    1    3    3    0    0 -0.11469068844E+01  0.14013104018E+02 -0.15839209221E+02  0.21179306608E+02  0.00000000000E+00 0.  1.
</event>
<event>
 7    1  0.4031943E-009  0.4778730E+02  0.7816164E-02  0.1312668E+00
        -11   -1    0    0    0    0  0.00000000000E+00  0.00000000000E+00  0.45593999997E+02  0.45594000000E+02  0.51100000000E-03 0.  1.
         11   -1    0    0    0    0 -0.00000000000E+00 -0.00000000000E+00 -0.45593999997E+02  0.45594000000E+02  0.51100000000E-03 0. -1.
    9900012    2    1    2    0    0 -0.11440106726E+02  0.83291259188E-02 -0.41865793904E+02  0.47787299424E+02  0.20000129392E+02 0.  0.
        -12    1    1    2    0    0  0.11440106726E+02 -0.83291259188E-02  0.41865793904E+02  0.43400700576E+02  0.00000000000E+00 0.  1.
         11    1    3    3    0    0 -0.34370699814E+01  0.81686839718E+01 -0.18687200680E+02  0.20682173904E+02  0.51100000000E-03 0. -1.
        -11    1    3    3    0    0 -0.11021260045E+01  0.11842971123E+01 -0.70214688929E+01  0.72054331622E+01  0.51100000000E-03 0.  1.
        -12    1    3    3    0    0 -0.69009107400E+01 -0.93446519582E+01 -0.16157124332E+02  0.19899692358E+02  0.00000000000E+00 0.  1.
</event>
<event>
 7    1  0.4031943E-009  0.4778728E+02  0.7816164E-02  0.1312668E+00
        -11   -1    0    0    0    0  0.00000000000E+00  0.00000000000E+00  0.45593999997E+02  0.45594000000E+02  0.51100000000E-03 0.  1.
         11   -1    0    0    0    0 -0.00000000000E+00 -0.00000000000E+00 -0.45593999997E+02  0.45594000000E+02  0.51100000000E-03 0. -1.
    9900012    2    1    2    0    0  0.22334668585E+02 -0.28804699225E+02 -0.23560012983E+02  0.47787281918E+02  0.20000049576E+02 0.  0.
        -12    1    1    2    0    0 -0.22334668585E+02  0.28804699225E+02  0.23560012983E+02  0.43400718082E+02  0.00000000000E+00 0.  1.
         11    1    3    3    0    0  0.48225430621E+01 -0.91202889858E+01 -0.62334438988E+01  0.12053730372E+02  0.51100000000E-03 0. -1.
        -11    1    3    3    0    0  0.40855864931E+01  0.43006102531E+00 -0.94415955955E+01  0.10296635233E+02  0.51100000000E-03 0.  1.
        -12    1    3    3    0    0  0.13426539030E+02 -0.20114471265E+02 -0.78849734889E+01  0.25436916313E+02  0.00000000000E+00 0.  1.
</event>
<event>
 7    1  0.4031943E-009  0.4778727E+02  0.7816164E-02  0.1312668E+00
        -11   -1    0    0    0    0  0.00000000000E+00  0.00000000000E+00  0.45593999997E+02  0.45594000000E+02  0.51100000000E-03 0. -1.
         11   -1    0    0    0    0 -0.00000000000E+00 -0.00000000000E+00 -0.45593999997E+02  0.45594000000E+02  0.51100000000E-03 0.  1.
    9900012    2    1    2    0    0 -0.20135832138E+02 -0.19756083564E+02  0.32982853616E+02  0.47787271823E+02  0.20000003550E+02 0.  0.
        -12    1    1    2    0    0  0.20135832138E+02  0.19756083564E+02 -0.32982853616E+02  0.43400728177E+02  0.00000000000E+00 0.  1.
         11    1    3    3    0    0 -0.44126090395E+01 -0.20247728654E+01 -0.16837016955E+01  0.51386452837E+01  0.51100000000E-03 0. -1.
        -11    1    3    3    0    0 -0.24248814115E+01 -0.67728953605E+01  0.68897917792E+01  0.99609935472E+01  0.51100000000E-03 0.  1.
         12    1    3    3    0    0 -0.13298341687E+02 -0.10958415338E+02  0.27776763532E+02  0.32687632992E+02  0.00000000000E+00 0. -1.
</event>
<event>
 7    1  0.4031943E-009  0.4778727E+02  0.7816164E-02  0.1312668E+00
        -11   -1    0    0    0    0  0.00000000000E+00  0.00000000000E+00  0.45593999997E+02  0.45594000000E+02  0.51100000000E-03 0. -1.
         11   -1    0    0    0    0 -0.00000000000E+00 -0.00000000000E+00 -0.45593999997E+02  0.45594000000E+02  0.51100000000E-03 0.  1.
    9900012    2    1    2    0    0 -0.35674531053E+02 -0.21640878360E+02  0.11942524009E+02  0.47787266576E+02  0.19999979628E+02 0.  0.
        -12    1    1    2    0    0  0.35674531053E+02  0.21640878360E+02 -0.11942524009E+02  0.43400733424E+02  0.00000000000E+00 0.  1.
         11    1    3    3    0    0 -0.56411787350E+01 -0.77218703577E+01  0.15244052854E+00  0.95641736558E+01  0.51100000000E-03 0. -1.
        -11    1    3    3    0    0 -0.59642493620E+01 -0.62077997662E+01 -0.27844026808E+01  0.90477592220E+01  0.51100000000E-03 0.  1.
         12    1    3    3    0    0 -0.24069102955E+02 -0.77112082361E+01  0.14574486162E+02  0.29175333698E+02  0.00000000000E+00 0. -1.
</event>
<event>
 7    1  0.4031943E-009  0.4778728E+02  0.7816164E-02  0.1312668E+00
        -11   -1    0    0    0    0  0.00000000000E+00  0.00000000000E+00  0.45593999997E+02  0.45594000000E+02  0.51100000000E-03 0. -1.
         11   -1    0    0    0    0 -0.00000000000E+00 -0.00000000000E+00 -0.45593999997E+02  0.45594000000E+02  0.51100000000E-03 0.  1.
    9900012    2    1    2    0    0  0.11589926288E+01 -0.44272382594E+01  0.43158766315E+02  0.47787276361E+02  0.20000024241E+02 0.  0.
        -12    1    1    2    0    0 -0.11589926288E+01  0.44272382594E+01 -0.43158766315E+02  0.43400723639E+02  0.00000000000E+00 0.  1.
         11    1    3    3    0    0 -0.98334025408E+00 -0.70232135712E+01  0.10589402760E+02  0.12744721966E+02  0.51100000000E-03 0. -1.
        -11    1    3    3    0    0  0.71302180582E+01  0.33082627764E+01  0.18618924803E+02  0.20210120565E+02  0.51100000000E-03 0.  1.
         12    1    3    3    0    0 -0.49878851753E+01 -0.71228746454E+00  0.13950438752E+02  0.14832433830E+02  0.00000000000E+00 0. -1.
</event>
<event>
 7    1  0.4031943E-009  0.4778727E+02  0.7816164E-02  0.1312668E+00
        -11   -1    0    0    0    0  0.00000000000E+00  0.00000000000E+00  0.45593999997E+02  0.45594000000E+02  0.51100000000E-03 0. -1.
         11   -1    0    0    0    0 -0.00000000000E+00 -0.00000000000E+00 -0.45593999997E+02  0.45594000000E+02  0.51100000000E-03 0.  1.
    9900012    2    1    2    0    0  0.70606409413E+01 -0.41390065984E+02 -0.10983323406E+02  0.47787267222E+02  0.19999982572E+02 0.  0.
        -12    1    1    2    0    0 -0.70606409413E+01  0.41390065984E+02  0.10983323406E+02  0.43400732778E+02  0.00000000000E+00 0.  1.
         11    1    3    3    0    0  0.13158774096E+02 -0.29252440455E+02 -0.11097902254E+02  0.33941450219E+02  0.51100000000E-03 0. -1.
        -11    1    3    3    0    0 -0.96415886214E+00 -0.43161960638E+01  0.67205870482E+00  0.44733448264E+01  0.51100000000E-03 0.  1.
         12    1    3    3    0    0 -0.51339742922E+01 -0.78214294650E+01 -0.55747985692E+00  0.93724721766E+01  0.00000000000E+00 0. -1.
</event>
<event>
 7    1  0.4031943E-009  0.4778728E+02  0.7816164E-02  0.1312668E+00
        -11   -1    0    0    0    0  0.00000000000E+00  0.00000000000E+00  0.45593999997E+02  0.45594000000E+02  0.51100000000E-03 0.  1.
         11   -1    0    0    0    0 -0.00000000000E+00 -0.00000000000E+00 -0.45593999997E+02  0.45594000000E+02  0.51100000000E-03 0. -1.
    9900012    2    1    2    0    0 -0.14112251201E+02  0.13540946323E+02 -0.38744158915E+02  0.47787277525E+02  0.20000029548E+02 0.  0.
        -12    1    1    2    0    0  0.14112251201E+02 -0.13540946323E+02  0.38744158915E+02  0.43400722475E+02  0.00000000000E+00 0.  1.
         11    1    3    3    0    0  0.45499144958E+00  0.37734615072E+01 -0.15089813092E+02  0.15561121052E+02  0.51100000000E-03 0. -1.
        -11    1    3    3    0    0 -0.33101285881E+01 -0.32554406339E+01 -0.43598739205E+01  0.63689360064E+01  0.51100000000E-03 0.  1.
         12    1    3    3    0    0 -0.11257114063E+02  0.13022925449E+02 -0.19294471903E+02  0.25857220467E+02  0.00000000000E+00 0. -1.
</event>
<event>
 7    1  0.4031943E-009  0.4778727E+02  0.7816164E-02  0.1312668E+00
        -11   -1    0    0    0    0  0.00000000000E+00  0.00000000000E+00  0.45593999997E+02  0.45594000000E+02  0.51100000000E-03 0.  1.
         11   -1    0    0    0    0 -0.00000000000E+00 -0.00000000000E+00 -0.45593999997E+02  0.45594000000E+02  0.51100000000E-03 0. -1.
    9900012    2    1    2    0    0  0.24632080225E+02  0.16436119013E+02 -0.31729140131E+02  0.47787265929E+02  0.19999976677E+02 0.  0.
        -12    1    1    2    0    0 -0.24632080225E+02 -0.16436119013E+02  0.31729140131E+02  0.43400734071E+02  0.00000000000E+00 0.  1.
         11    1    3    3    0    0  0.85599923629E+00  0.65518690452E+01 -0.43865647781E+01  0.79310575267E+01  0.51100000000E-03 0. -1.
        -11    1    3    3    0    0  0.71638427874E+00 -0.26319324974E+01 -0.31578471662E+01  0.41728017077E+01  0.51100000000E-03 0.  1.
         12    1    3    3    0    0  0.23059696710E+02  0.12516182466E+02 -0.24184728187E+02  0.35683406695E+02  0.00000000000E+00 0. -1.
</event>
<event>
 7    1  0.4031943E-009  0.4778727E+02  0.7816164E-02  0.1312668E+00
        -11   -1    0    0    0    0  0.00000000000E+00  0.00000000000E+00  0.45593999997E+02  0.45594000000E+02  0.51100000000E-03 0.  1.
         11   -1    0    0    0    0 -0.00000000000E+00 -0.00000000000E+00 -0.45593999997E+02  0.45594000000E+02  0.51100000000E-03 0. -1.
    9900012    2    1    2    0    0  0.35816285666E+02  0.15521961021E-01 -0.24511564984E+02  0.47787269847E+02  0.19999994540E+02 0.  0.
        -12    1    1    2    0    0 -0.35816285666E+02 -0.15521961021E-01  0.24511564984E+02  0.43400730153E+02  0.00000000000E+00 0.  1.
         11    1    3    3    0    0  0.16861301626E+02 -0.21423561174E+01 -0.16706214890E+02  0.23832557531E+02  0.51100000000E-03 0. -1.
        -11    1    3    3    0    0  0.37994696391E+00 -0.26080111405E+01 -0.33585615048E+01  0.42691940044E+01  0.51100000000E-03 0.  1.
        -12    1    3    3    0    0  0.18575037077E+02  0.47658892189E+01 -0.44467885888E+01  0.19685518312E+02  0.00000000000E+00 0.  1.
</event>
<event>
 7    1  0.4031943E-009  0.4778727E+02  0.7816164E-02  0.1312668E+00
        -11   -1    0    0    0    0  0.00000000000E+00  0.00000000000E+00  0.45593999997E+02  0.45594000000E+02  0.51100000000E-03 0.  1.
         11   -1    0    0    0    0 -0.00000000000E+00 -0.00000000000E+00 -0.45593999997E+02  0.45594000000E+02  0.51100000000E-03 0. -1.
    9900012    2    1    2    0    0 -0.15619619369E+01  0.21944113741E+02 -0.37411758845E+02  0.47787267831E+02  0.19999985349E+02 0.  0.
        -12    1    1    2    0    0  0.15619619369E+01 -0.21944113741E+02  0.37411758845E+02  0.43400732169E+02  0.00000000000E+00 0.  1.
         11    1    3    3    0    0 -0.27797931244E+01  0.69552078245E+00 -0.45985122156E+01  0.54182389972E+01  0.51100000000E-03 0. -1.
        -11    1    3    3    0    0  0.55768863174E+01  0.65027331743E+01 -0.34734420909E+01  0.92440250948E+01  0.51100000000E-03 0.  1.
         12    1    3    3    0    0 -0.43590551299E+01  0.14745859784E+02 -0.29339804538E+02  0.33125003739E+02  0.00000000000E+00 0. -1.
</event>
<event>
 7    1  0.4031943E-009  0.4778727E+02  0.7816164E-02  0.1312668E+00
        -11   -1    0    0    0    0  0.00000000000E+00  0.00000000000E+00  0.45593999997E+02  0.45594000000E+02  0.51100000000E-03 0. -1.
         11   -1    0    0    0    0 -0.00000000000E+00 -0.00000000000E+00 -0.45593999997E+02  0.45594000000E+02  0.51100000000E-03 0.  1.
    9900012    2    1    2    0    0  0.10192181903E+02 -0.39370461510E+02 -0.15156160935E+02  0.47787273903E+02  0.20000013034E+02 0.  0.
        -12    1    1    2    0    0 -0.10192181903E+02  0.39370461510E+02  0.15156160935E+02  0.43400726097E+02  0.00000000000E+00 0.  1.
         11    1    3    3    0    0  0.18445202937E+01 -0.11872090266E+02 -0.42635553372E+01  0.12748595482E+02  0.51100000000E-03 0. -1.
        -11    1    3    3    0    0 -0.33035129517E+01 -0.99990593363E+00 -0.39986376196E+01  0.52822450503E+01  0.51100000000E-03 0.  1.
         12    1    3    3    0    0  0.11651174561E+02 -0.26498465310E+02 -0.68939679786E+01  0.29756433370E+02  0.00000000000E+00 0. -1.
</event>
<event>
 7    1  0.4031943E-009  0.4778727E+02  0.7816164E-02  0.1312668E+00
        -11   -1    0    0    0    0  0.00000000000E+00  0.00000000000E+00  0.45593999997E+02  0.45594000000E+02  0.51100000000E-03 0.  1.
         11   -1    0    0    0    0 -0.00000000000E+00 -0.00000000000E+00 -0.45593999997E+02  0.45594000000E+02  0.51100000000E-03 0. -1.
    9900012    2    1    2    0    0  0.28970377519E+02 -0.21202047826E+02 -0.24388801148E+02  0.47787271584E+02  0.20000002460E+02 0.  0.
        -12    1    1    2    0    0 -0.28970377519E+02  0.21202047826E+02  0.24388801148E+02  0.43400728416E+02  0.00000000000E+00 0.  1.
         11    1    3    3    0    0  0.13037669731E+02 -0.30309420087E+01 -0.32308086709E+01  0.13769733708E+02  0.51100000000E-03 0. -1.
        -11    1    3    3    0    0  0.12983307226E+01 -0.51438564256E+01 -0.17316190358E+00  0.53080040409E+01  0.51100000000E-03 0.  1.
         12    1    3    3    0    0  0.14634377065E+02 -0.13027249392E+02 -0.20984830574E+02  0.28709533835E+02  0.00000000000E+00 0. -1.
</event>
<event>
 7    1  0.4031943E-009  0.4778727E+02  0.7816164E-02  0.1312668E+00
        -11   -1    0    0    0    0  0.00000000000E+00  0.00000000000E+00  0.45593999997E+02  0.45594000000E+02  0.51100000000E-03 0.  1.
         11   -1    0    0    0    0 -0.00000000000E+00 -0.00000000000E+00 -0.45593999997E+02  0.45594000000E+02  0.51100000000E-03 0. -1.
    9900012    2    1    2    0    0  0.11239028137E+02  0.34742766574E+02 -0.23457366915E+02  0.47787266766E+02  0.19999980494E+02 0.  0.
        -12    1    1    2    0    0 -0.11239028137E+02 -0.34742766574E+02  0.23457366915E+02  0.43400733234E+02  0.00000000000E+00 0.  1.
         11    1    3    3    0    0 -0.23751527591E+01  0.47578065414E+01 -0.50604745368E+01  0.73407408695E+01  0.51100000000E-03 0. -1.
        -11    1    3    3    0    0 -0.18386716826E+01  0.12661542207E+02 -0.70403680054E+01  0.14603497750E+02  0.51100000000E-03 0.  1.
         12    1    3    3    0    0  0.15452852579E+02  0.17323417825E+02 -0.11356524372E+02  0.25843028147E+02  0.00000000000E+00 0. -1.
</event>
<event>
 7    1  0.4031943E-009  0.4778726E+02  0.7816164E-02  0.1312668E+00
        -11   -1    0    0    0    0  0.00000000000E+00  0.00000000000E+00  0.45593999997E+02  0.45594000000E+02  0.51100000000E-03 0.  1.
         11   -1    0    0    0    0 -0.00000000000E+00 -0.00000000000E+00 -0.45593999997E+02  0.45594000000E+02  0.51100000000E-03 0. -1.
    9900012    2    1    2    0    0 -0.57211053125E+01 -0.29320899134E+02 -0.31482979542E+02  0.47787260687E+02  0.19999952778E+02 0.  0.
        -12    1    1    2    0    0  0.57211053125E+01  0.29320899134E+02  0.31482979542E+02  0.43400739313E+02  0.00000000000E+00 0.  1.
         11    1    3    3    0    0 -0.12200586529E+01 -0.96535988144E+01 -0.13663810992E+02  0.16774392516E+02  0.51100000000E-03 0. -1.
        -11    1    3    3    0    0  0.22104724112E+01 -0.81497551390E+01 -0.15257881054E+02  0.17438682050E+02  0.51100000000E-03 0.  1.
         12    1    3    3    0    0 -0.67115190708E+01 -0.11517545181E+02 -0.25612874959E+01  0.13574186122E+02  0.00000000000E+00 0. -1.
</event>
<event>
 7    1  0.4031943E-009  0.4778727E+02  0.7816164E-02  0.1312668E+00
        -11   -1    0    0    0    0  0.00000000000E+00  0.00000000000E+00  0.45593999997E+02  0.45594000000E+02  0.51100000000E-03 0. -1.
         11   -1    0    0    0    0 -0.00000000000E+00 -0.00000000000E+00 -0.45593999997E+02  0.45594000000E+02  0.51100000000E-03 0.  1.
    9900012    2    1    2    0    0  0.12229373993E+02 -0.11780270764E+02  0.39941096736E+02  0.47787267564E+02  0.19999984132E+02 0.  0.
        -12    1    1    2    0    0 -0.12229373993E+02  0.11780270764E+02 -0.39941096736E+02  0.43400732436E+02  0.00000000000E+00 0.  1.
         11    1    3    3    0    0  0.99650284767E+00 -0.35355710383E+01  0.16640342286E+02  0.17040958663E+02  0.51100000000E-03 0. -1.
        -11    1    3    3    0    0  0.17035237047E+01 -0.84798817884E+01  0.46963443695E+01  0.98420546054E+01  0.51100000000E-03 0.  1.
         12    1    3    3    0    0  0.95293474402E+01  0.23518206230E+00  0.18604410080E+02  0.20904254296E+02  0.00000000000E+00 0. -1.
</event>
<event>
 7    1  0.4031943E-009  0.4778727E+02  0.7816164E-02  0.1312668E+00
        -11   -1    0    0    0    0  0.00000000000E+00  0.00000000000E+00  0.45593999997E+02  0.45594000000E+02  0.51100000000E-03 0.  1.
         11   -1    0    0    0    0 -0.00000000000E+00 -0.00000000000E+00 -0.45593999997E+02  0.45594000000E+02  0.51100000000E-03 0. -1.
    9900012    2    1    2    0    0 -0.17114796664E+02 -0.19439936807E+02 -0.34825215877E+02  0.47787273407E+02  0.20000010773E+02 0.  0.
        -12    1    1    2    0    0  0.17114796664E+02  0.19439936807E+02  0.34825215877E+02  0.43400726593E+02  0.00000000000E+00 0.  1.
         11    1    3    3    0    0 -0.42532151677E+01 -0.45810080135E+01 -0.62978031874E+01  0.88734321957E+01  0.51100000000E-03 0. -1.
        -11    1    3    3    0    0 -0.86743567790E-01 -0.85891098749E+01 -0.20134764130E+01  0.88223817882E+01  0.51100000000E-03 0.  1.
         12    1    3    3    0    0 -0.12774837928E+02 -0.62698189189E+01 -0.26513936276E+02  0.30091459423E+02  0.00000000000E+00 0. -1.
</event>
<event>
 7    1  0.4031943E-009  0.4778727E+02  0.7816164E-02  0.1312668E+00
        -11   -1    0    0    0    0  0.00000000000E+00  0.00000000000E+00  0.45593999997E+02  0.45594000000E+02  0.51100000000E-03 0. -1.
         11   -1    0    0    0    0 -0.00000000000E+00 -0.00000000000E+00 -0.45593999997E+02  0.45594000000E+02  0.51100000000E-03 0.  1.
    9900012    2    1    2    0    0  0.27280544771E+02  0.16317089908E+02  0.29549070041E+02  0.47787273204E+02  0.20000009848E+02 0.  0.
        -12    1    1    2    0    0 -0.27280544771E+02 -0.16317089908E+02 -0.29549070041E+02  0.43400726796E+02  0.00000000000E+00 0.  1.
         11    1    3    3    0    0 -0.24056060818E+01 -0.64019607412E+00  0.30024742675E+01  0.39002107151E+01  0.51100000000E-03 0. -1.
        -11    1    3    3    0    0  0.81359166638E+01  0.27908627166E+01  0.34515332394E+01  0.92679629168E+01  0.51100000000E-03 0.  1.
         12    1    3    3    0    0  0.21550234189E+02  0.14166423266E+02  0.23095062535E+02  0.34619099573E+02  0.00000000000E+00 0. -1.
</event>
<event>
 7    1  0.4031943E-009  0.4778727E+02  0.7816164E-02  0.1312668E+00
        -11   -1    0    0    0    0  0.00000000000E+00  0.00000000000E+00  0.45593999997E+02  0.45594000000E+02  0.51100000000E-03 0. -1.
         11   -1    0    0    0    0 -0.00000000000E+00 -0.00000000000E+00 -0.45593999997E+02  0.45594000000E+02  0.51100000000E-03 0.  1.
    9900012    2    1    2    0    0 -0.10113022773E+02  0.19054367494E+02  0.37660075764E+02  0.47787268938E+02  0.19999990397E+02 0.  0.
        -12    1    1    2    0    0  0.10113022773E+02 -0.19054367494E+02 -0.37660075764E+02  0.43400731062E+02  0.00000000000E+00 0.  1.
         11    1    3    3    0    0 -0.27830806667E+01  0.52476150899E+01  0.14973062090E+02  0.16108246048E+02  0.51100000000E-03 0. -1.
        -11    1    3    3    0    0 -0.73516556905E+00  0.58331808776E+00  0.14987225080E+02  0.15016578980E+02  0.51100000000E-03 0.  1.
        -12    1    3    3    0    0 -0.65947765369E+01  0.13223434316E+02  0.76997885939E+01  0.16662443910E+02  0.00000000000E+00 0.  1.
</event>
<event>
 7    1  0.4031943E-009  0.4778727E+02  0.7816164E-02  0.1312668E+00
        -11   -1    0    0    0    0  0.00000000000E+00  0.00000000000E+00  0.45593999997E+02  0.45594000000E+02  0.51100000000E-03 0. -1.
         11   -1    0    0    0    0 -0.00000000000E+00 -0.00000000000E+00 -0.45593999997E+02  0.45594000000E+02  0.51100000000E-03 0.  1.
    9900012    2    1    2    0    0  0.29514530069E+02 -0.29825065831E+02  0.11089693989E+02  0.47787270170E+02  0.19999996013E+02 0.  0.
        -12    1    1    2    0    0 -0.29514530069E+02  0.29825065831E+02 -0.11089693989E+02  0.43400729830E+02  0.00000000000E+00 0.  1.
         11    1    3    3    0    0  0.82404835761E+01 -0.12604816367E+02  0.61202464632E+01  0.16255595413E+02  0.51100000000E-03 0. -1.
        -11    1    3    3    0    0  0.22273552504E+02 -0.17558226759E+02  0.20598649410E+01  0.28436693055E+02  0.51100000000E-03 0.  1.
        -12    1    3    3    0    0 -0.99950601140E+00  0.33797729456E+00  0.29095825846E+01  0.30949817019E+01  0.00000000000E+00 0.  1.
</event>
<event>
 7    1  0.4031943E-009  0.4778728E+02  0.7816164E-02  0.1312668E+00
        -11   -1    0    0    0    0  0.00000000000E+00  0.00000000000E+00  0.45593999997E+02  0.45594000000E+02  0.51100000000E-03 0. -1.
         11   -1    0    0    0    0 -0.00000000000E+00 -0.00000000000E+00 -0.45593999997E+02  0.45594000000E+02  0.51100000000E-03 0.  1.
    9900012    2    1    2    0    0  0.23934962943E+02 -0.10588010791E+02  0.34621298804E+02  0.47787277029E+02  0.20000027284E+02 0.  0.
        -12    1    1    2    0    0 -0.23934962943E+02  0.10588010791E+02 -0.34621298804E+02  0.43400722971E+02  0.00000000000E+00 0.  1.
         11    1    3    3    0    0  0.12000194998E+01 -0.63210628936E+00  0.12761622637E+02  0.12833495929E+02  0.51100000000E-03 0. -1.
        -11    1    3    3    0    0  0.14523189335E+02 -0.27704263970E+01  0.18191576081E+02  0.23442093154E+02  0.51100000000E-03 0.  1.
        -12    1    3    3    0    0  0.82117541085E+01 -0.71854781042E+01  0.36681000859E+01  0.11511687946E+02  0.00000000000E+00 0.  1.
</event>
<event>
 7    1  0.4031943E-009  0.4778727E+02  0.7816164E-02  0.1312668E+00
        -11   -1    0    0    0    0  0.00000000000E+00  0.00000000000E+00  0.45593999997E+02  0.45594000000E+02  0.51100000000E-03 0.  1.
         11   -1    0    0    0    0 -0.00000000000E+00 -0.00000000000E+00 -0.45593999997E+02  0.45594000000E+02  0.51100000000E-03 0. -1.
    9900012    2    1    2    0    0  0.14101029809E+02 -0.15760974234E+02 -0.37899547837E+02  0.47787273315E+02  0.20000010354E+02 0.  0.
        -12    1    1    2    0    0 -0.14101029809E+02  0.15760974234E+02  0.37899547837E+02  0.43400726685E+02  0.00000000000E+00 0.  1.
         11    1    3    3    0    0  0.12762439567E+02 -0.15600039068E+02 -0.21904546540E+02  0.29766596077E+02  0.51100000000E-03 0.  1.
        -11    1    3    3    0    0  0.43022620311E+01 -0.15036017953E+01 -0.12191039288E+02  0.13015057284E+02  0.51100000000E-03 0. -1.
        -12    1    3    3    0    0 -0.29636717898E+01  0.13426666287E+01 -0.38039620100E+01  0.50056199543E+01  0.00000000000E+00 0.  1.
</event>
<event>
 7    1  0.4031943E-009  0.4778727E+02  0.7816164E-02  0.1312668E+00
        -11   -1    0    0    0    0  0.00000000000E+00  0.00000000000E+00  0.45593999997E+02  0.45594000000E+02  0.51100000000E-03 0. -1.
         11   -1    0    0    0    0 -0.00000000000E+00 -0.00000000000E+00 -0.45593999997E+02  0.45594000000E+02  0.51100000000E-03 0.  1.
    9900012    2    1    2    0    0 -0.26952547681E+02 -0.31049472593E+02  0.13896524606E+02  0.47787274534E+02  0.20000015912E+02 0.  0.
        -12    1    1    2    0    0  0.26952547681E+02  0.31049472593E+02 -0.13896524606E+02  0.43400725466E+02  0.00000000000E+00 0.  1.
         11    1    3    3    0    0 -0.45098927291E+01 -0.85193973105E+01 -0.19695577811E+01  0.98386188602E+01  0.51100000000E-03 0. -1.
        -11    1    3    3    0    0 -0.75040142272E+01 -0.62986386432E+01 -0.14510217681E+01  0.99039660093E+01  0.51100000000E-03 0.  1.
         12    1    3    3    0    0 -0.14938640724E+02 -0.16231436640E+02  0.17317104155E+02  0.28044689665E+02  0.00000000000E+00 0. -1.
</event>
<event>
 7    1  0.4031943E-009  0.4778727E+02  0.7816164E-02  0.1312668E+00
        -11   -1    0    0    0    0  0.00000000000E+00  0.00000000000E+00  0.45593999997E+02  0.45594000000E+02  0.51100000000E-03 0.  1.
         11   -1    0    0    0    0 -0.00000000000E+00 -0.00000000000E+00 -0.45593999997E+02  0.45594000000E+02  0.51100000000E-03 0. -1.
    9900012    2    1    2    0    0 -0.42322139992E+02 -0.27840954319E+01 -0.92037215970E+01  0.47787271756E+02  0.20000003246E+02 0.  0.
        -12    1    1    2    0    0  0.42322139992E+02  0.27840954319E+01  0.92037215970E+01  0.43400728244E+02  0.00000000000E+00 0.  1.
         11    1    3    3    0    0  0.73787018077E+00  0.40895663145E+00  0.25092055370E-01  0.84399514361E+00  0.51100000000E-03 0. -1.
        -11    1    3    3    0    0 -0.37546842800E+01  0.80428888913E+00 -0.62342121951E+01  0.73218806747E+01  0.51100000000E-03 0.  1.
         12    1    3    3    0    0 -0.39305325892E+02 -0.39973409525E+01 -0.29946014572E+01  0.39621395938E+02  0.00000000000E+00 0. -1.
</event>
<event>
 7    1  0.4031943E-009  0.4778727E+02  0.7816164E-02  0.1312668E+00
        -11   -1    0    0    0    0  0.00000000000E+00  0.00000000000E+00  0.45593999997E+02  0.45594000000E+02  0.51100000000E-03 0.  1.
         11   -1    0    0    0    0 -0.00000000000E+00 -0.00000000000E+00 -0.45593999997E+02  0.45594000000E+02  0.51100000000E-03 0. -1.
    9900012    2    1    2    0    0  0.22725319499E+02 -0.21645731677E+02 -0.29977417130E+02  0.47787269776E+02  0.19999994218E+02 0.  0.
        -12    1    1    2    0    0 -0.22725319499E+02  0.21645731677E+02  0.29977417130E+02  0.43400730224E+02  0.00000000000E+00 0.  1.
         11    1    3    3    0    0  0.12216635706E+02 -0.50653810816E+00 -0.11845109417E+02  0.17023788832E+02  0.51100000000E-03 0. -1.
        -11    1    3    3    0    0 -0.90340423356E+00 -0.21035650730E+01 -0.33305662145E+00  0.23134502804E+01  0.51100000000E-03 0.  1.
         12    1    3    3    0    0  0.11412088027E+02 -0.19035628496E+02 -0.17799251091E+02  0.28450030664E+02  0.00000000000E+00 0. -1.
</event>
<event>
 7    1  0.4031943E-009  0.4778727E+02  0.7816164E-02  0.1312668E+00
        -11   -1    0    0    0    0  0.00000000000E+00  0.00000000000E+00  0.45593999997E+02  0.45594000000E+02  0.51100000000E-03 0. -1.
         11   -1    0    0    0    0 -0.00000000000E+00 -0.00000000000E+00 -0.45593999997E+02  0.45594000000E+02  0.51100000000E-03 0.  1.
    9900012    2    1    2    0    0  0.17398668153E+02 -0.14326762488E+02  0.37089806672E+02  0.47787268026E+02  0.19999986239E+02 0.  0.
        -12    1    1    2    0    0 -0.17398668153E+02  0.14326762488E+02 -0.37089806672E+02  0.43400731974E+02  0.00000000000E+00 0.  1.
         11    1    3    3    0    0  0.16682434787E+01  0.37196671688E-01  0.11735895106E+01  0.20400324745E+01  0.51100000000E-03 0. -1.
        -11    1    3    3    0    0  0.12026562471E+02 -0.67686417700E+01  0.34527826372E+02  0.37183645740E+02  0.51100000000E-03 0.  1.
         12    1    3    3    0    0  0.37038622041E+01 -0.75953173900E+01  0.13883907891E+01  0.85635898118E+01  0.00000000000E+00 0. -1.
</event>
<event>
 7    1  0.4031943E-009  0.4778727E+02  0.7816164E-02  0.1312668E+00
        -11   -1    0    0    0    0  0.00000000000E+00  0.00000000000E+00  0.45593999997E+02  0.45594000000E+02  0.51100000000E-03 0.  1.
         11   -1    0    0    0    0 -0.00000000000E+00 -0.00000000000E+00 -0.45593999997E+02  0.45594000000E+02  0.51100000000E-03 0. -1.
    9900012    2    1    2    0    0  0.74700586039E+00 -0.16695662914E+02 -0.40053967346E+02  0.47787268692E+02  0.19999989277E+02 0.  0.
        -12    1    1    2    0    0 -0.74700586039E+00  0.16695662914E+02  0.40053967346E+02  0.43400731308E+02  0.00000000000E+00 0.  1.
         11    1    3    3    0    0 -0.27112519235E+01 -0.24643696284E+01  0.62938172731E+00  0.37175430432E+01  0.51100000000E-03 0. -1.
        -11    1    3    3    0    0 -0.27127789752E+01 -0.26296551513E+01 -0.81715641714E+01  0.90027061071E+01  0.51100000000E-03 0.  1.
         12    1    3    3    0    0  0.61710367591E+01 -0.11601638134E+02 -0.32511784902E+02  0.35067019542E+02  0.00000000000E+00 0. -1.
</event>
<event>
 7    1  0.4031943E-009  0.4778727E+02  0.7816164E-02  0.1312668E+00
        -11   -1    0    0    0    0  0.00000000000E+00  0.00000000000E+00  0.45593999997E+02  0.45594000000E+02  0.51100000000E-03 0.  1.
         11   -1    0    0    0    0 -0.00000000000E+00 -0.00000000000E+00 -0.45593999997E+02  0.45594000000E+02  0.51100000000E-03 0. -1.
    9900012    2    1    2    0    0 -0.31552130988E+02  0.20075152793E+02  0.22024408552E+02  0.47787270724E+02  0.19999998540E+02 0.  0.
        -12    1    1    2    0    0  0.31552130988E+02 -0.20075152793E+02 -0.22024408552E+02  0.43400729276E+02  0.00000000000E+00 0.  1.
         11    1    3    3    0    0  0.61665621701E+00  0.31493381014E+01  0.35439468396E+01  0.47810202708E+01  0.51100000000E-03 0. -1.
        -11    1    3    3    0    0 -0.10651004032E+02  0.12106327112E+02  0.11747928616E+02  0.19950460397E+02  0.51100000000E-03 0.  1.
         12    1    3    3    0    0 -0.21517783173E+02  0.48194875804E+01  0.67325330962E+01  0.23055790056E+02  0.00000000000E+00 0. -1.
</event>
<event>
 7    1  0.4031943E-009  0.4778727E+02  0.7816164E-02  0.1312668E+00
        -11   -1    0    0    0    0  0.00000000000E+00  0.00000000000E+00  0.45593999997E+02  0.45594000000E+02  0.51100000000E-03 0. -1.
         11   -1    0    0    0    0 -0.00000000000E+00 -0.00000000000E+00 -0.45593999997E+02  0.45594000000E+02  0.51100000000E-03 0.  1.
    9900012    2    1    2    0    0  0.11494402474E+02 -0.37865532687E+02 -0.17824237820E+02  0.47787270654E+02  0.19999998220E+02 0.  0.
        -12    1    1    2    0    0 -0.11494402474E+02  0.37865532687E+02  0.17824237820E+02  0.43400729346E+02  0.00000000000E+00 0.  1.
         11    1    3    3    0    0  0.24568745899E+00 -0.10533366966E+02 -0.83534553918E+01  0.13445906411E+02  0.51100000000E-03 0. -1.
        -11    1    3    3    0    0  0.56110472899E-02 -0.15266445285E+02 -0.92453918334E+01  0.17847735250E+02  0.51100000000E-03 0.  1.
         12    1    3    3    0    0  0.11243103967E+02 -0.12065720435E+02 -0.22539059523E+00  0.16493628993E+02  0.00000000000E+00 0. -1.
</event>
<event>
 7    1  0.4031943E-009  0.4778727E+02  0.7816164E-02  0.1312668E+00
        -11   -1    0    0    0    0  0.00000000000E+00  0.00000000000E+00  0.45593999997E+02  0.45594000000E+02  0.51100000000E-03 0.  1.
         11   -1    0    0    0    0 -0.00000000000E+00 -0.00000000000E+00 -0.45593999997E+02  0.45594000000E+02  0.51100000000E-03 0. -1.
    9900012    2    1    2    0    0 -0.13830404922E+02 -0.34890118353E+02 -0.21795020119E+02  0.47787270041E+02  0.19999995423E+02 0.  0.
        -12    1    1    2    0    0  0.13830404922E+02  0.34890118353E+02  0.21795020119E+02  0.43400729959E+02  0.00000000000E+00 0.  1.
         11    1    3    3    0    0  0.12333630555E+01 -0.65579993448E+01  0.61811016876E+00  0.67015371576E+01  0.51100000000E-03 0.  1.
        -11    1    3    3    0    0 -0.12691299474E+02 -0.29250203663E+02 -0.20938845860E+02  0.38145494660E+02  0.51100000000E-03 0. -1.
         12    1    3    3    0    0 -0.23724685035E+01  0.91808465440E+00 -0.14742844277E+01  0.29402382227E+01  0.00000000000E+00 0. -1.
</event>
<event>
 7    1  0.4031943E-009  0.4778727E+02  0.7816164E-02  0.1312668E+00
        -11   -1    0    0    0    0  0.00000000000E+00  0.00000000000E+00  0.45593999997E+02  0.45594000000E+02  0.51100000000E-03 0. -1.
         11   -1    0    0    0    0 -0.00000000000E+00 -0.00000000000E+00 -0.45593999997E+02  0.45594000000E+02  0.51100000000E-03 0.  1.
    9900012    2    1    2    0    0 -0.31443429483E+02 -0.29716945714E+02 -0.34405394802E+01  0.47787269221E+02  0.19999991688E+02 0.  0.
        -12    1    1    2    0    0  0.31443429483E+02  0.29716945714E+02  0.34405394802E+01  0.43400730779E+02  0.00000000000E+00 0.  1.
         11    1    3    3    0    0 -0.20135924306E+02 -0.83483209664E+01 -0.46880883587E+01  0.22296369286E+02  0.51100000000E-03 0. -1.
        -11    1    3    3    0    0 -0.67159977736E+01 -0.49742496808E+01  0.13473375278E+01  0.84654063491E+01  0.51100000000E-03 0.  1.
        -12    1    3    3    0    0 -0.45915074024E+01 -0.16394375067E+02 -0.99788649321E-01  0.17025493586E+02  0.00000000000E+00 0.  1.
</event>
<event>
 7    1  0.4031943E-009  0.4778727E+02  0.7816164E-02  0.1312668E+00
        -11   -1    0    0    0    0  0.00000000000E+00  0.00000000000E+00  0.45593999997E+02  0.45594000000E+02  0.51100000000E-03 0.  1.
         11   -1    0    0    0    0 -0.00000000000E+00 -0.00000000000E+00 -0.45593999997E+02  0.45594000000E+02  0.51100000000E-03 0. -1.
    9900012    2    1    2    0    0 -0.28550907281E+02  0.16839609096E+02  0.28016004508E+02  0.47787271323E+02  0.20000001272E+02 0.  0.
        -12    1    1    2    0    0  0.28550907281E+02 -0.16839609096E+02 -0.28016004508E+02  0.43400728677E+02  0.00000000000E+00 0.  1.
         11    1    3    3    0    0 -0.82792029998E+00  0.31509707731E+01 -0.39849648257E+00  0.32822048296E+01  0.51100000000E-03 0. -1.
        -11    1    3    3    0    0  0.16888083514E+01  0.13251909003E+01  0.31337342062E+01  0.37984858702E+01  0.51100000000E-03 0.  1.
         12    1    3    3    0    0 -0.29411795333E+02  0.12363447423E+02  0.25280766784E+02  0.40706580623E+02  0.00000000000E+00 0. -1.
</event>
<event>
 7    1  0.4031943E-009  0.4778727E+02  0.7816164E-02  0.1312668E+00
        -11   -1    0    0    0    0  0.00000000000E+00  0.00000000000E+00  0.45593999997E+02  0.45594000000E+02  0.51100000000E-03 0.  1.
         11   -1    0    0    0    0 -0.00000000000E+00 -0.00000000000E+00 -0.45593999997E+02  0.45594000000E+02  0.51100000000E-03 0. -1.
    9900012    2    1    2    0    0 -0.54498953924E+01 -0.11832113790E+02 -0.41399552692E+02  0.47787271439E+02  0.20000001800E+02 0.  0.
        -12    1    1    2    0    0  0.54498953924E+01  0.11832113790E+02  0.41399552692E+02  0.43400728561E+02  0.00000000000E+00 0.  1.
         11    1    3    3    0    0 -0.35054049450E+01 -0.55313523104E+01 -0.11811034454E+02  0.13504971579E+02  0.51100000000E-03 0. -1.
        -11    1    3    3    0    0 -0.33995130369E+01 -0.10682381110E+02 -0.13516763649E+02  0.17560548251E+02  0.51100000000E-03 0.  1.
         12    1    3    3    0    0  0.14550225896E+01  0.43816196305E+01 -0.16071754589E+02  0.16721751609E+02  0.00000000000E+00 0. -1.
</event>
<event>
 7    1  0.4031943E-009  0.4778727E+02  0.7816164E-02  0.1312668E+00
        -11   -1    0    0    0    0  0.00000000000E+00  0.00000000000E+00  0.45593999997E+02  0.45594000000E+02  0.51100000000E-03 0.  1.
         11   -1    0    0    0    0 -0.00000000000E+00 -0.00000000000E+00 -0.45593999997E+02  0.45594000000E+02  0.51100000000E-03 0. -1.
    9900012    2    1    2    0    0 -0.48700929982E+01 -0.20304201120E+02 -0.38047929035E+02  0.47787270827E+02  0.19999999008E+02 0.  0.
        -12    1    1    2    0    0  0.48700929982E+01  0.20304201120E+02  0.38047929035E+02  0.43400729173E+02  0.00000000000E+00 0.  1.
         11    1    3    3    0    0 -0.11168057711E+02 -0.10034599196E+02 -0.21410133424E+02  0.26149808939E+02  0.51100000000E-03 0. -1.
        -11    1    3    3    0    0  0.10167490495E+01 -0.80319215606E+01 -0.95718542539E+01  0.12536583933E+02  0.51100000000E-03 0.  1.
        -12    1    3    3    0    0  0.52812156634E+01 -0.22376803632E+01 -0.70659413571E+01  0.91008779551E+01  0.00000000000E+00 0.  1.
</event>
<event>
 7    1  0.4866955E-009  0.4778727E+02  0.7816164E-02  0.1312668E+00
        -11   -1    0    0    0    0  0.00000000000E+00  0.00000000000E+00  0.45593999997E+02  0.45594000000E+02  0.51100000000E-03 0. -1.
         11   -1    0    0    0    0 -0.00000000000E+00 -0.00000000000E+00 -0.45593999997E+02  0.45594000000E+02  0.51100000000E-03 0.  1.
    9900012    2    1    2    0    0 -0.12388102032E+02 -0.38073652576E+02  0.16749778257E+02  0.47787272309E+02  0.20000005764E+02 0.  0.
        -12    1    1    2    0    0  0.12388102032E+02  0.38073652576E+02 -0.16749778257E+02  0.43400727691E+02  0.00000000000E+00 0.  1.
         11    1    3    3    0    0 -0.10015017068E+02 -0.15446573867E+02  0.81314636249E+01  0.20125056821E+02  0.51100000000E-03 0. -1.
        -11    1    3    3    0    0 -0.59650669982E+01 -0.20337073024E+02  0.43574374507E+01  0.21637139943E+02  0.51100000000E-03 0.  1.
        -12    1    3    3    0    0  0.35919820338E+01 -0.22900056850E+01  0.42608771818E+01  0.60250755453E+01  0.00000000000E+00 0.  1.
</event>
<event>
 7    1  0.4031943E-009  0.4778727E+02  0.7816164E-02  0.1312668E+00
        -11   -1    0    0    0    0  0.00000000000E+00  0.00000000000E+00  0.45593999997E+02  0.45594000000E+02  0.51100000000E-03 0.  1.
         11   -1    0    0    0    0 -0.00000000000E+00 -0.00000000000E+00 -0.45593999997E+02  0.45594000000E+02  0.51100000000E-03 0. -1.
    9900012    2    1    2    0    0  0.35967468146E+02  0.21087326616E+02 -0.12053591704E+02  0.47787272108E+02  0.20000004849E+02 0.  0.
        -12    1    1    2    0    0 -0.35967468146E+02 -0.21087326616E+02  0.12053591704E+02  0.43400727892E+02  0.00000000000E+00 0.  1.
         11    1    3    3    0    0  0.14010826723E+02  0.28597427101E+01 -0.72908087082E+01  0.16051083631E+02  0.51100000000E-03 0. -1.
        -11    1    3    3    0    0  0.13313394969E+02  0.76431872426E+01 -0.85290159356E+01  0.17561574813E+02  0.51100000000E-03 0.  1.
        -12    1    3    3    0    0  0.86432464532E+01  0.10584396663E+02  0.37662329397E+01  0.14174613664E+02  0.00000000000E+00 0.  1.
</event>
<event>
 7    1  0.4031943E-009  0.4778727E+02  0.7816164E-02  0.1312668E+00
        -11   -1    0    0    0    0  0.00000000000E+00  0.00000000000E+00  0.45593999997E+02  0.45594000000E+02  0.51100000000E-03 0.  1.
         11   -1    0    0    0    0 -0.00000000000E+00 -0.00000000000E+00 -0.45593999997E+02  0.45594000000E+02  0.51100000000E-03 0. -1.
    9900012    2    1    2    0    0  0.17377477264E+02 -0.26216900774E+02 -0.29905192527E+02  0.47787272560E+02  0.20000006908E+02 0.  0.
        -12    1    1    2    0    0 -0.17377477264E+02  0.26216900774E+02  0.29905192527E+02  0.43400727440E+02  0.00000000000E+00 0.  1.
         11    1    3    3    0    0  0.79670954728E+01 -0.82778255622E+01 -0.16070116000E+02  0.19754635781E+02  0.51100000000E-03 0. -1.
        -11    1    3    3    0    0 -0.21516841389E+01 -0.10299949732E+02 -0.58691689892E+01  0.12048479323E+02  0.51100000000E-03 0.  1.
         12    1    3    3    0    0  0.11562065930E+02 -0.76391254806E+01 -0.79659075380E+01  0.15984157456E+02  0.00000000000E+00 0. -1.
</event>
<event>
 7    1  0.4031943E-009  0.4778729E+02  0.7816164E-02  0.1312668E+00
        -11   -1    0    0    0    0  0.00000000000E+00  0.00000000000E+00  0.45593999997E+02  0.45594000000E+02  0.51100000000E-03 0.  1.
         11   -1    0    0    0    0 -0.00000000000E+00 -0.00000000000E+00 -0.45593999997E+02  0.45594000000E+02  0.51100000000E-03 0. -1.
    9900012    2    1    2    0    0 -0.27464226213E+02 -0.25788131986E+02 -0.21547857766E+02  0.47787289785E+02  0.20000085446E+02 0.  0.
        -12    1    1    2    0    0  0.27464226213E+02  0.25788131986E+02  0.21547857766E+02  0.43400710215E+02  0.00000000000E+00 0.  1.
         11    1    3    3    0    0 -0.10882605785E+02 -0.11583629204E+02 -0.14326288692E+02  0.21397526075E+02  0.51100000000E-03 0. -1.
        -11    1    3    3    0    0 -0.41794572149E+01 -0.34744229004E+01 -0.83371039091E+01  0.99522248243E+01  0.51100000000E-03 0.  1.
         12    1    3    3    0    0 -0.12402163213E+02 -0.10730079882E+02  0.11155348342E+01  0.16437538886E+02  0.00000000000E+00 0. -1.
</event>
<event>
 7    1  0.4031943E-009  0.4778726E+02  0.7816164E-02  0.1312668E+00
        -11   -1    0    0    0    0  0.00000000000E+00  0.00000000000E+00  0.45593999997E+02  0.45594000000E+02  0.51100000000E-03 0. -1.
         11   -1    0    0    0    0 -0.00000000000E+00 -0.00000000000E+00 -0.45593999997E+02  0.45594000000E+02  0.51100000000E-03 0.  1.
    9900012    2    1    2    0    0 -0.43103934135E+02  0.38486856584E+01  0.32958448490E+01  0.47787261383E+02  0.19999955951E+02 0.  0.
        -12    1    1    2    0    0  0.43103934135E+02 -0.38486856584E+01 -0.32958448490E+01  0.43400738617E+02  0.00000000000E+00 0.  1.
         11    1    3    3    0    0 -0.28296632305E+02  0.66854531221E+01  0.53904090554E+01  0.29571120934E+02  0.51100000000E-03 0. -1.
        -11    1    3    3    0    0 -0.62715265902E+01  0.21067354495E+01 -0.45767196812E+01  0.80446717352E+01  0.51100000000E-03 0.  1.
         12    1    3    3    0    0 -0.85357752397E+01 -0.49435029132E+01  0.24821554748E+01  0.10171468714E+02  0.00000000000E+00 0. -1.
</event>
<event>
 7    1  0.4031943E-009  0.4778726E+02  0.7816164E-02  0.1312668E+00
        -11   -1    0    0    0    0  0.00000000000E+00  0.00000000000E+00  0.45593999997E+02  0.45594000000E+02  0.51100000000E-03 0.  1.
         11   -1    0    0    0    0 -0.00000000000E+00 -0.00000000000E+00 -0.45593999997E+02  0.45594000000E+02  0.51100000000E-03 0. -1.
    9900012    2    1    2    0    0  0.14808915522E+02 -0.40492976983E+02 -0.49637334511E+01  0.47787264825E+02  0.19999971645E+02 0.  0.
        -12    1    1    2    0    0 -0.14808915522E+02  0.40492976983E+02  0.49637334511E+01  0.43400735175E+02  0.00000000000E+00 0.  1.
         11    1    3    3    0    0  0.10073705607E+02 -0.27197165924E+02 -0.13668637306E+00  0.29003173316E+02  0.51100000000E-03 0. -1.
        -11    1    3    3    0    0  0.22455692576E+01 -0.61304454034E+01  0.35920942471E+01  0.74517168140E+01  0.51100000000E-03 0.  1.
         12    1    3    3    0    0  0.24896406573E+01 -0.71653656556E+01 -0.84191413252E+01  0.11332374695E+02  0.00000000000E+00 0. -1.
</event>
<event>
 7    1  0.4031943E-009  0.4778727E+02  0.7816164E-02  0.1312668E+00
        -11   -1    0    0    0    0  0.00000000000E+00  0.00000000000E+00  0.45593999997E+02  0.45594000000E+02  0.51100000000E-03 0.  1.
         11   -1    0    0    0    0 -0.00000000000E+00 -0.00000000000E+00 -0.45593999997E+02  0.45594000000E+02  0.51100000000E-03 0. -1.
    9900012    2    1    2    0    0 -0.18915067670E+02  0.11616872848E+02 -0.37294659075E+02  0.47787272872E+02  0.20000008331E+02 0.  0.
        -12    1    1    2    0    0  0.18915067670E+02 -0.11616872848E+02  0.37294659075E+02  0.43400727128E+02  0.00000000000E+00 0.  1.
         11    1    3    3    0    0 -0.12337373319E+02  0.29604211554E+01 -0.29552204235E+02  0.32160653744E+02  0.51100000000E-03 0. -1.
        -11    1    3    3    0    0 -0.61011584998E+01  0.71259220453E+01 -0.94283706103E+01  0.13300265887E+02  0.51100000000E-03 0.  1.
        -12    1    3    3    0    0 -0.47653585109E+00  0.15305296474E+01  0.16859157698E+01  0.23263532410E+01  0.00000000000E+00 0.  1.
</event>
<event>
 7    1  0.4031943E-009  0.4778729E+02  0.7816164E-02  0.1312668E+00
        -11   -1    0    0    0    0  0.00000000000E+00  0.00000000000E+00  0.45593999997E+02  0.45594000000E+02  0.51100000000E-03 0.  1.
         11   -1    0    0    0    0 -0.00000000000E+00 -0.00000000000E+00 -0.45593999997E+02  0.45594000000E+02  0.51100000000E-03 0. -1.
    9900012    2    1    2    0    0 -0.27378911372E+02  0.28877812864E+02 -0.17323067563E+02  0.47787291094E+02  0.20000091414E+02 0.  0.
        -12    1    1    2    0    0  0.27378911372E+02 -0.28877812864E+02  0.17323067563E+02  0.43400708906E+02  0.00000000000E+00 0.  1.
         11    1    3    3    0    0 -0.16477452428E+01  0.85339676616E+01 -0.78695112671E+01  0.11724882783E+02  0.51100000000E-03 0. -1.
        -11    1    3    3    0    0 -0.20475813778E+01  0.60659953234E+01 -0.48397456003E+01  0.80257103423E+01  0.51100000000E-03 0.  1.
         12    1    3    3    0    0 -0.23683584751E+02  0.14277849880E+02 -0.46138106957E+01  0.28036697969E+02  0.00000000000E+00 0. -1.
</event>
<event>
 7    1  0.4031943E-009  0.4778728E+02  0.7816164E-02  0.1312668E+00
        -11   -1    0    0    0    0  0.00000000000E+00  0.00000000000E+00  0.45593999997E+02  0.45594000000E+02  0.51100000000E-03 0.  1.
         11   -1    0    0    0    0 -0.00000000000E+00 -0.00000000000E+00 -0.45593999997E+02  0.45594000000E+02  0.51100000000E-03 0. -1.
    9900012    2    1    2    0    0 -0.13660358006E+02 -0.39540757128E+02 -0.11556182977E+02  0.47787283184E+02  0.20000055350E+02 0.  0.
        -12    1    1    2    0    0  0.13660358006E+02  0.39540757128E+02  0.11556182977E+02  0.43400716816E+02  0.00000000000E+00 0.  1.
         11    1    3    3    0    0 -0.98729977485E+01 -0.44581777647E+01 -0.29040899072E+01  0.11215398877E+02  0.51100000000E-03 0. -1.
        -11    1    3    3    0    0 -0.27119000435E+01 -0.10399093585E+02 -0.15031780864E+01  0.10851501918E+02  0.51100000000E-03 0.  1.
         12    1    3    3    0    0 -0.10754602143E+01 -0.24683485778E+02 -0.71489149831E+01  0.25720382390E+02  0.00000000000E+00 0. -1.
</event>
<event>
 7    1  0.4031943E-009  0.4778725E+02  0.7816164E-02  0.1312668E+00
        -11   -1    0    0    0    0  0.00000000000E+00  0.00000000000E+00  0.45593999997E+02  0.45594000000E+02  0.51100000000E-03 0.  1.
         11   -1    0    0    0    0 -0.00000000000E+00 -0.00000000000E+00 -0.45593999997E+02  0.45594000000E+02  0.51100000000E-03 0. -1.
    9900012    2    1    2    0    0 -0.63767035643E+01  0.10937525553E+02 -0.41513048690E+02  0.47787250869E+02  0.19999908012E+02 0.  0.
        -12    1    1    2    0    0  0.63767035643E+01 -0.10937525553E+02  0.41513048690E+02  0.43400749131E+02  0.00000000000E+00 0.  1.
         11    1    3    3    0    0  0.21992323645E+00  0.13929864138E+01 -0.49103946882E+00  0.14932840989E+01  0.51100000000E-03 0.  1.
        -11    1    3    3    0    0 -0.90774001596E+01  0.10311503294E+02 -0.41445547927E+02  0.43663024827E+02  0.51100000000E-03 0. -1.
        -12    1    3    3    0    0  0.24807733588E+01 -0.76696415504E+00  0.42353870534E+00  0.26309419430E+01  0.00000000000E+00 0.  1.
</event>
<event>
 7    1  0.4031943E-009  0.4778725E+02  0.7816164E-02  0.1312668E+00
        -11   -1    0    0    0    0  0.00000000000E+00  0.00000000000E+00  0.45593999997E+02  0.45594000000E+02  0.51100000000E-03 0.  1.
         11   -1    0    0    0    0 -0.00000000000E+00 -0.00000000000E+00 -0.45593999997E+02  0.45594000000E+02  0.51100000000E-03 0. -1.
    9900012    2    1    2    0    0 -0.20509310891E+02  0.53967893436E+01 -0.37866453446E+02  0.47787245801E+02  0.19999884906E+02 0.  0.
        -12    1    1    2    0    0  0.20509310891E+02 -0.53967893436E+01  0.37866453446E+02  0.43400754199E+02  0.00000000000E+00 0.  1.
         11    1    3    3    0    0 -0.20190826651E+02  0.78724324406E+00 -0.26088859434E+02  0.32998754819E+02  0.51100000000E-03 0. -1.
        -11    1    3    3    0    0 -0.16687578650E+01  0.10654264511E+01  0.41219701328E+00  0.20223236570E+01  0.51100000000E-03 0.  1.
        -12    1    3    3    0    0  0.13502736246E+01  0.35441196485E+01 -0.12189791025E+02  0.12766167325E+02  0.00000000000E+00 0.  1.
</event>
<event>
 7    1  0.4031943E-009  0.4778730E+02  0.7816164E-02  0.1312668E+00
        -11   -1    0    0    0    0  0.00000000000E+00  0.00000000000E+00  0.45593999997E+02  0.45594000000E+02  0.51100000000E-03 0.  1.
         11   -1    0    0    0    0 -0.00000000000E+00 -0.00000000000E+00 -0.45593999997E+02  0.45594000000E+02  0.51100000000E-03 0. -1.
    9900012    2    1    2    0    0  0.15367714526E+01 -0.88250326187E+01 -0.42466198271E+02  0.47787298821E+02  0.20000126645E+02 0.  0.
        -12    1    1    2    0    0 -0.15367714526E+01  0.88250326187E+01  0.42466198271E+02  0.43400701179E+02  0.00000000000E+00 0.  1.
         11    1    3    3    0    0 -0.89699994406E+00  0.64060069176E+00 -0.15710580503E+02  0.15749200556E+02  0.51100000000E-03 0. -1.
        -11    1    3    3    0    0 -0.53553293457E+01 -0.80643628946E+01 -0.15622134632E+02  0.18378372942E+02  0.51100000000E-03 0.  1.
        -12    1    3    3    0    0  0.77891007423E+01 -0.14012704158E+01 -0.11133483137E+02  0.13659725323E+02  0.00000000000E+00 0.  1.
</event>
<event>
 7    1  0.4031943E-009  0.4778727E+02  0.7816164E-02  0.1312668E+00
        -11   -1    0    0    0    0  0.00000000000E+00  0.00000000000E+00  0.45593999997E+02  0.45594000000E+02  0.51100000000E-03 0. -1.
         11   -1    0    0    0    0 -0.00000000000E+00 -0.00000000000E+00 -0.45593999997E+02  0.45594000000E+02  0.51100000000E-03 0.  1.
    9900012    2    1    2    0    0  0.81743784405E+01 -0.22691520198E+02  0.36081816726E+02  0.47787273623E+02  0.20000011757E+02 0.  0.
        -12    1    1    2    0    0 -0.81743784405E+01  0.22691520198E+02 -0.36081816726E+02  0.43400726377E+02  0.00000000000E+00 0.  1.
         11    1    3    3    0    0  0.13229561866E+01 -0.29095231263E+01  0.40439301409E+01  0.51545037724E+01  0.51100000000E-03 0.  1.
        -11    1    3    3    0    0  0.70915957798E+01 -0.23211956671E+02  0.30166084582E+02  0.38717932828E+02  0.51100000000E-03 0. -1.
        -12    1    3    3    0    0 -0.24017352591E+00  0.34299595993E+01  0.18718020030E+01  0.39148370226E+01  0.00000000000E+00 0.  1.
</event>
<event>
 7    1  0.4031943E-009  0.4778728E+02  0.7816164E-02  0.1312668E+00
        -11   -1    0    0    0    0  0.00000000000E+00  0.00000000000E+00  0.45593999997E+02  0.45594000000E+02  0.51100000000E-03 0.  1.
         11   -1    0    0    0    0 -0.00000000000E+00 -0.00000000000E+00 -0.45593999997E+02  0.45594000000E+02  0.51100000000E-03 0. -1.
    9900012    2    1    2    0    0 -0.34753999851E+02  0.21297883498E+02 -0.14905769603E+02  0.47787282096E+02  0.20000050389E+02 0.  0.
        -12    1    1    2    0    0  0.34753999851E+02 -0.21297883498E+02  0.14905769603E+02  0.43400717904E+02  0.00000000000E+00 0.  1.
         11    1    3    3    0    0 -0.15032172081E+02  0.31846686209E+01 -0.72082576041E+01  0.16972545173E+02  0.51100000000E-03 0. -1.
        -11    1    3    3    0    0 -0.14544796575E+02  0.51884794585E+01 -0.13147016261E+01  0.15498382726E+02  0.51100000000E-03 0.  1.
        -12    1    3    3    0    0 -0.51770311946E+01  0.12924735418E+02 -0.63828103727E+01  0.15316354197E+02  0.00000000000E+00 0.  1.
</event>
<event>
 7    1  0.4031943E-009  0.4778727E+02  0.7816164E-02  0.1312668E+00
        -11   -1    0    0    0    0  0.00000000000E+00  0.00000000000E+00  0.45593999997E+02  0.45594000000E+02  0.51100000000E-03 0.  1.
         11   -1    0    0    0    0 -0.00000000000E+00 -0.00000000000E+00 -0.45593999997E+02  0.45594000000E+02  0.51100000000E-03 0. -1.
    9900012    2    1    2    0    0  0.56929055168E+01 -0.36414606369E+01 -0.42871369784E+02  0.47787265490E+02  0.19999974677E+02 0.  0.
        -12    1    1    2    0    0 -0.56929055168E+01  0.36414606369E+01  0.42871369784E+02  0.43400734510E+02  0.00000000000E+00 0.  1.
         11    1    3    3    0    0 -0.37036472063E+01  0.89734567695E+00 -0.17484005542E+02  0.17894487473E+02  0.51100000000E-03 0. -1.
        -11    1    3    3    0    0  0.24118143588E+01 -0.58301308256E+01 -0.20017610220E+02  0.20988377573E+02  0.51100000000E-03 0.  1.
        -12    1    3    3    0    0  0.69847383643E+01  0.12913245117E+01 -0.53697540226E+01  0.89044004445E+01  0.00000000000E+00 0.  1.
</event>
<event>
 7    1  0.4031943E-009  0.4778727E+02  0.7816164E-02  0.1312668E+00
        -11   -1    0    0    0    0  0.00000000000E+00  0.00000000000E+00  0.45593999997E+02  0.45594000000E+02  0.51100000000E-03 0.  1.
         11   -1    0    0    0    0 -0.00000000000E+00 -0.00000000000E+00 -0.45593999997E+02  0.45594000000E+02  0.51100000000E-03 0. -1.
    9900012    2    1    2    0    0  0.40066136141E+01  0.42970411273E+01 -0.43001229259E+02  0.47787271516E+02  0.20000002151E+02 0.  0.
        -12    1    1    2    0    0 -0.40066136141E+01 -0.42970411273E+01  0.43001229259E+02  0.43400728484E+02  0.00000000000E+00 0.  1.
         11    1    3    3    0    0  0.65535059581E+01  0.18461056221E+01 -0.27640115037E+02  0.28466339875E+02  0.51100000000E-03 0. -1.
        -11    1    3    3    0    0  0.24232504882E+01  0.17453719260E+01  0.17740160470E+00  0.29916446445E+01  0.51100000000E-03 0.  1.
         12    1    3    3    0    0 -0.49701428321E+01  0.70556357923E+00 -0.15538515827E+02  0.16329286997E+02  0.00000000000E+00 0. -1.
</event>
<event>
 7    1  0.4031943E-009  0.4778727E+02  0.7816164E-02  0.1312668E+00
        -11   -1    0    0    0    0  0.00000000000E+00  0.00000000000E+00  0.45593999997E+02  0.45594000000E+02  0.51100000000E-03 0.  1.
         11   -1    0    0    0    0 -0.00000000000E+00 -0.00000000000E+00 -0.45593999997E+02  0.45594000000E+02  0.51100000000E-03 0. -1.
    9900012    2    1    2    0    0  0.23338805580E+02 -0.26459320265E+02 -0.25275041869E+02  0.47787271708E+02  0.20000003025E+02 0.  0.
        -12    1    1    2    0    0 -0.23338805580E+02  0.26459320265E+02  0.25275041869E+02  0.43400728292E+02  0.00000000000E+00 0.  1.
         11    1    3    3    0    0  0.12557213064E+02 -0.16191057878E+02 -0.16980319036E+02  0.26611373320E+02  0.51100000000E-03 0. -1.
        -11    1    3    3    0    0  0.22215780514E+01  0.13906014666E+01  0.21048334794E+01  0.33614737415E+01  0.51100000000E-03 0.  1.
         12    1    3    3    0    0  0.85600144642E+01 -0.11658863854E+02 -0.10399556312E+02  0.17814424647E+02  0.00000000000E+00 0. -1.
</event>
<event>
 7    1  0.4031943E-009  0.4778727E+02  0.7816164E-02  0.1312668E+00
        -11   -1    0    0    0    0  0.00000000000E+00  0.00000000000E+00  0.45593999997E+02  0.45594000000E+02  0.51100000000E-03 0.  1.
         11   -1    0    0    0    0 -0.00000000000E+00 -0.00000000000E+00 -0.45593999997E+02  0.45594000000E+02  0.51100000000E-03 0. -1.
    9900012    2    1    2    0    0  0.31642518723E+02  0.21370737339E+02 -0.20631679893E+02  0.47787267049E+02  0.19999981781E+02 0.  0.
        -12    1    1    2    0    0 -0.31642518723E+02 -0.21370737339E+02  0.20631679893E+02  0.43400732951E+02  0.00000000000E+00 0.  1.
         11    1    3    3    0    0  0.12060962948E+02  0.64945307363E+01 -0.61956451994E+00  0.13712389185E+02  0.51100000000E-03 0. -1.
        -11    1    3    3    0    0 -0.60718477027E+00 -0.13466256410E+01 -0.25231331341E+00  0.14985780699E+01  0.51100000000E-03 0.  1.
         12    1    3    3    0    0  0.20188740545E+02  0.16222832244E+02 -0.19759802059E+02  0.32576299793E+02  0.00000000000E+00 0. -1.
</event>
<event>
 7    1  0.4031943E-009  0.4778727E+02  0.7816164E-02  0.1312668E+00
        -11   -1    0    0    0    0  0.00000000000E+00  0.00000000000E+00  0.45593999997E+02  0.45594000000E+02  0.51100000000E-03 0. -1.
         11   -1    0    0    0    0 -0.00000000000E+00 -0.00000000000E+00 -0.45593999997E+02  0.45594000000E+02  0.51100000000E-03 0.  1.
    9900012    2    1    2    0    0 -0.31354348111E+02  0.15316276727E+02  0.25805809278E+02  0.47787271081E+02  0.20000000166E+02 0.  0.
        -12    1    1    2    0    0  0.31354348111E+02 -0.15316276727E+02 -0.25805809278E+02  0.43400728919E+02  0.00000000000E+00 0.  1.
         11    1    3    3    0    0 -0.99450415350E+01 -0.98296772347E+00  0.10976491751E+02  0.14844306926E+02  0.51100000000E-03 0. -1.
        -11    1    3    3    0    0 -0.11995643806E+01 -0.18426710617E+01  0.16911256985E+01  0.27738597178E+01  0.51100000000E-03 0.  1.
         12    1    3    3    0    0 -0.20209742195E+02  0.18141915512E+02  0.13138191828E+02  0.30169104437E+02  0.00000000000E+00 0. -1.
</event>
<event>
 7    1  0.4031943E-009  0.4778727E+02  0.7816164E-02  0.1312668E+00
        -11   -1    0    0    0    0  0.00000000000E+00  0.00000000000E+00  0.45593999997E+02  0.45594000000E+02  0.51100000000E-03 0.  1.
         11   -1    0    0    0    0 -0.00000000000E+00 -0.00000000000E+00 -0.45593999997E+02  0.45594000000E+02  0.51100000000E-03 0. -1.
    9900012    2    1    2    0    0 -0.11085048595E+02 -0.35441368383E+02 -0.22464517947E+02  0.47787268879E+02  0.19999990128E+02 0.  0.
        -12    1    1    2    0    0  0.11085048595E+02  0.35441368383E+02  0.22464517947E+02  0.43400731121E+02  0.00000000000E+00 0.  1.
         11    1    3    3    0    0 -0.29257835744E+01 -0.24219371593E+02 -0.11837664780E+02  0.27115834443E+02  0.51100000000E-03 0. -1.
        -11    1    3    3    0    0 -0.41855285372E+01 -0.11928170176E+02 -0.46703472124E+01  0.13476350998E+02  0.51100000000E-03 0.  1.
        -12    1    3    3    0    0 -0.39737364830E+01  0.70617338496E+00 -0.59565059551E+01  0.71950834379E+01  0.00000000000E+00 0.  1.
</event>
<event>
 7    1  0.4031943E-009  0.4778733E+02  0.7816164E-02  0.1312668E+00
        -11   -1    0    0    0    0  0.00000000000E+00  0.00000000000E+00  0.45593999997E+02  0.45594000000E+02  0.51100000000E-03 0. -1.
         11   -1    0    0    0    0 -0.00000000000E+00 -0.00000000000E+00 -0.45593999997E+02  0.45594000000E+02  0.51100000000E-03 0.  1.
    9900012    2    1    2    0    0  0.12094119444E+02  0.12249635244E+02  0.39840895929E+02  0.47787328609E+02  0.20000262460E+02 0.  0.
        -12    1    1    2    0    0 -0.12094119444E+02 -0.12249635244E+02 -0.39840895929E+02  0.43400671391E+02  0.00000000000E+00 0.  1.
         11    1    3    3    0    0  0.65350781160E+00 -0.42896295249E+00  0.71645941420E+01  0.72071139269E+01  0.51100000000E-03 0. -1.
        -11    1    3    3    0    0  0.92388702655E+01  0.16714027552E+02  0.28854785231E+02  0.34602226399E+02  0.51100000000E-03 0.  1.
        -12    1    3    3    0    0  0.22017413669E+01 -0.40354293556E+01  0.38215165556E+01  0.59779882833E+01  0.00000000000E+00 0.  1.
</event>
<event>
 7    1  0.4031943E-009  0.4778727E+02  0.7816164E-02  0.1312668E+00
        -11   -1    0    0    0    0  0.00000000000E+00  0.00000000000E+00  0.45593999997E+02  0.45594000000E+02  0.51100000000E-03 0.  1.
         11   -1    0    0    0    0 -0.00000000000E+00 -0.00000000000E+00 -0.45593999997E+02  0.45594000000E+02  0.51100000000E-03 0. -1.
    9900012    2    1    2    0    0 -0.26306491929E+02 -0.25567243909E+02 -0.23192835448E+02  0.47787273107E+02  0.20000009405E+02 0.  0.
        -12    1    1    2    0    0  0.26306491929E+02  0.25567243909E+02  0.23192835448E+02  0.43400726893E+02  0.00000000000E+00 0.  1.
         11    1    3    3    0    0 -0.81130270372E+01 -0.17924331592E+01 -0.25817561486E+01  0.87005453513E+01  0.51100000000E-03 0. -1.
        -11    1    3    3    0    0 -0.74530014251E+01 -0.41302486503E+01  0.19436130191E+00  0.85231426559E+01  0.51100000000E-03 0.  1.
         12    1    3    3    0    0 -0.10740463467E+02 -0.19644562099E+02 -0.20805440601E+02  0.30563585100E+02  0.00000000000E+00 0. -1.
</event>
<event>
 7    1  0.4031943E-009  0.4778728E+02  0.7816164E-02  0.1312668E+00
        -11   -1    0    0    0    0  0.00000000000E+00  0.00000000000E+00  0.45593999997E+02  0.45594000000E+02  0.51100000000E-03 0.  1.
         11   -1    0    0    0    0 -0.00000000000E+00 -0.00000000000E+00 -0.45593999997E+02  0.45594000000E+02  0.51100000000E-03 0. -1.
    9900012    2    1    2    0    0 -0.21705506308E+02  0.20699153374E+02 -0.31369390755E+02  0.47787278452E+02  0.20000033776E+02 0.  0.
        -12    1    1    2    0    0  0.21705506308E+02 -0.20699153374E+02  0.31369390755E+02  0.43400721548E+02  0.00000000000E+00 0.  1.
         11    1    3    3    0    0 -0.67535227082E+01  0.32137846095E+00 -0.10622724725E+01  0.68441052120E+01  0.51100000000E-03 0. -1.
        -11    1    3    3    0    0 -0.65632468014E+01  0.46927372812E+01 -0.35536771076E+01  0.88162697901E+01  0.51100000000E-03 0.  1.
         12    1    3    3    0    0 -0.83887367986E+01  0.15685037632E+02 -0.26753441175E+02  0.32126903450E+02  0.00000000000E+00 0. -1.
</event>
<event>
 7    1  0.4031943E-009  0.4778726E+02  0.7816164E-02  0.1312668E+00
        -11   -1    0    0    0    0  0.00000000000E+00  0.00000000000E+00  0.45593999997E+02  0.45594000000E+02  0.51100000000E-03 0. -1.
         11   -1    0    0    0    0 -0.00000000000E+00 -0.00000000000E+00 -0.45593999997E+02  0.45594000000E+02  0.51100000000E-03 0.  1.
    9900012    2    1    2    0    0 -0.24161860693E+02  0.23718959616E+02  0.27152155820E+02  0.47787261261E+02  0.19999955393E+02 0.  0.
        -12    1    1    2    0    0  0.24161860693E+02 -0.23718959616E+02 -0.27152155820E+02  0.43400738739E+02  0.00000000000E+00 0.  1.
         11    1    3    3    0    0  0.13640447157E+01  0.98249800933E+00 -0.16214303880E+00  0.16888490018E+01  0.51100000000E-03 0. -1.
        -11    1    3    3    0    0 -0.10638016734E+02  0.83793278870E+01  0.24590018926E+01  0.13763256390E+02  0.51100000000E-03 0.  1.
        -12    1    3    3    0    0 -0.14887888674E+02  0.14357133720E+02  0.24855296966E+02  0.32335155869E+02  0.00000000000E+00 0.  1.
</event>
<event>
 7    1  0.4031943E-009  0.4778728E+02  0.7816164E-02  0.1312668E+00
        -11   -1    0    0    0    0  0.00000000000E+00  0.00000000000E+00  0.45593999997E+02  0.45594000000E+02  0.51100000000E-03 0.  1.
         11   -1    0    0    0    0 -0.00000000000E+00 -0.00000000000E+00 -0.45593999997E+02  0.45594000000E+02  0.51100000000E-03 0. -1.
    9900012    2    1    2    0    0 -0.59047817235E+01 -0.42760600415E+02 -0.45041179855E+01  0.47787280260E+02  0.20000042020E+02 0.  0.
        -12    1    1    2    0    0  0.59047817235E+01  0.42760600415E+02  0.45041179855E+01  0.43400719740E+02  0.00000000000E+00 0.  1.
         11    1    3    3    0    0 -0.17804675706E+01 -0.91157989995E+00  0.58230353556E-01  0.20011081228E+01  0.51100000000E-03 0. -1.
        -11    1    3    3    0    0  0.26727283185E+01 -0.37914174395E+01 -0.53979709705E+01  0.71173319246E+01  0.51100000000E-03 0.  1.
         12    1    3    3    0    0 -0.67970424714E+01 -0.38057603076E+02  0.83562263146E+00  0.38668840213E+02  0.00000000000E+00 0. -1.
</event>
<event>
 7    1  0.4031943E-009  0.4778727E+02  0.7816164E-02  0.1312668E+00
        -11   -1    0    0    0    0  0.00000000000E+00  0.00000000000E+00  0.45593999997E+02  0.45594000000E+02  0.51100000000E-03 0. -1.
         11   -1    0    0    0    0 -0.00000000000E+00 -0.00000000000E+00 -0.45593999997E+02  0.45594000000E+02  0.51100000000E-03 0.  1.
    9900012    2    1    2    0    0  0.56122240737E+01 -0.31944774578E+01  0.42917617737E+02  0.47787266625E+02  0.19999979849E+02 0.  0.
        -12    1    1    2    0    0 -0.56122240737E+01  0.31944774578E+01 -0.42917617737E+02  0.43400733375E+02  0.00000000000E+00 0.  1.
         11    1    3    3    0    0 -0.40316945335E+01  0.29242987547E+01  0.80164203057E+01  0.94376415908E+01  0.51100000000E-03 0. -1.
        -11    1    3    3    0    0 -0.22086074717E+00  0.37319802690E+00 -0.70969131018E+00  0.83169601044E+00  0.51100000000E-03 0.  1.
         12    1    3    3    0    0  0.98647793543E+01 -0.64919742394E+01  0.35610888742E+02  0.37517929023E+02  0.00000000000E+00 0. -1.
</event>
<event>
 7    1  0.4031943E-009  0.4778727E+02  0.7816164E-02  0.1312668E+00
        -11   -1    0    0    0    0  0.00000000000E+00  0.00000000000E+00  0.45593999997E+02  0.45594000000E+02  0.51100000000E-03 0. -1.
         11   -1    0    0    0    0 -0.00000000000E+00 -0.00000000000E+00 -0.45593999997E+02  0.45594000000E+02  0.51100000000E-03 0.  1.
    9900012    2    1    2    0    0 -0.17740557922E+02 -0.80723763325E+01  0.38777988762E+02  0.47787273422E+02  0.20000010842E+02 0.  0.
        -12    1    1    2    0    0  0.17740557922E+02  0.80723763325E+01 -0.38777988762E+02  0.43400726578E+02  0.00000000000E+00 0.  1.
         11    1    3    3    0    0 -0.14705239415E+02 -0.74884858205E+01  0.22555514882E+02  0.27947678579E+02  0.51100000000E-03 0. -1.
        -11    1    3    3    0    0 -0.32493565535E+01 -0.48947602841E+01  0.46633379108E+01  0.75009144098E+01  0.51100000000E-03 0.  1.
        -12    1    3    3    0    0  0.21403804583E+00  0.43108697721E+01  0.11559135969E+02  0.12338680433E+02  0.00000000000E+00 0.  1.
</event>
<event>
 7    1  0.4031943E-009  0.4778728E+02  0.7816164E-02  0.1312668E+00
        -11   -1    0    0    0    0  0.00000000000E+00  0.00000000000E+00  0.45593999997E+02  0.45594000000E+02  0.51100000000E-03 0.  1.
         11   -1    0    0    0    0 -0.00000000000E+00 -0.00000000000E+00 -0.45593999997E+02  0.45594000000E+02  0.51100000000E-03 0. -1.
    9900012    2    1    2    0    0 -0.31335861168E+02  0.27619024855E+02  0.11784574266E+02  0.47787275124E+02  0.20000018603E+02 0.  0.
        -12    1    1    2    0    0  0.31335861168E+02 -0.27619024855E+02 -0.11784574266E+02  0.43400724876E+02  0.00000000000E+00 0.  1.
         11    1    3    3    0    0 -0.19474299718E+02  0.10212664761E+02  0.82515949785E+01  0.23486925958E+02  0.51100000000E-03 0. -1.
        -11    1    3    3    0    0 -0.70889328527E+01  0.90127168930E+01  0.76704713245E+01  0.13795584996E+02  0.51100000000E-03 0.  1.
        -12    1    3    3    0    0 -0.47726285974E+01  0.83936432009E+01 -0.41374920366E+01  0.10504764170E+02  0.00000000000E+00 0.  1.
</event>
<event>
 7    1  0.4031943E-009  0.4778727E+02  0.7816164E-02  0.1312668E+00
        -11   -1    0    0    0    0  0.00000000000E+00  0.00000000000E+00  0.45593999997E+02  0.45594000000E+02  0.51100000000E-03 0.  1.
         11   -1    0    0    0    0 -0.00000000000E+00 -0.00000000000E+00 -0.45593999997E+02  0.45594000000E+02  0.51100000000E-03 0. -1.
    9900012    2    1    2    0    0  0.37406686821E+02 -0.20800298300E+02  0.71910226119E+01  0.47787269194E+02  0.19999991565E+02 0.  0.
        -12    1    1    2    0    0 -0.37406686821E+02  0.20800298300E+02 -0.71910226119E+01  0.43400730806E+02  0.00000000000E+00 0.  1.
         11    1    3    3    0    0  0.51843194552E+01 -0.28940135626E+01  0.17652263806E+01  0.61942317643E+01  0.51100000000E-03 0. -1.
        -11    1    3    3    0    0  0.21402077880E+02 -0.28052093073E+01 -0.17994579621E+01  0.21660013529E+02  0.51100000000E-03 0.  1.
        -12    1    3    3    0    0  0.10820289485E+02 -0.15101075430E+02  0.72252541934E+01  0.19933023901E+02  0.00000000000E+00 0.  1.
</event>
<event>
 7    1  0.4031943E-009  0.4778727E+02  0.7816164E-02  0.1312668E+00
        -11   -1    0    0    0    0  0.00000000000E+00  0.00000000000E+00  0.45593999997E+02  0.45594000000E+02  0.51100000000E-03 0. -1.
         11   -1    0    0    0    0 -0.00000000000E+00 -0.00000000000E+00 -0.45593999997E+02  0.45594000000E+02  0.51100000000E-03 0.  1.
    9900012    2    1    2    0    0 -0.25811831229E+02 -0.26239357376E+02 -0.22997146161E+02  0.47787271452E+02  0.20000001860E+02 0.  0.
        -12    1    1    2    0    0  0.25811831229E+02  0.26239357376E+02  0.22997146161E+02  0.43400728548E+02  0.00000000000E+00 0.  1.
         11    1    3    3    0    0 -0.16783502991E+02 -0.10870381234E+02 -0.93179777991E+01  0.22060731433E+02  0.51100000000E-03 0. -1.
        -11    1    3    3    0    0 -0.11621600807E+02 -0.15252747527E+02 -0.11712139560E+02  0.22469582235E+02  0.51100000000E-03 0.  1.
        -12    1    3    3    0    0  0.25932725690E+01 -0.11622861468E+00 -0.19670288017E+01  0.32569577852E+01  0.00000000000E+00 0.  1.
</event>
<event>
 7    1  0.4031943E-009  0.4778727E+02  0.7816164E-02  0.1312668E+00
        -11   -1    0    0    0    0  0.00000000000E+00  0.00000000000E+00  0.45593999997E+02  0.45594000000E+02  0.51100000000E-03 0.  1.
         11   -1    0    0    0    0 -0.00000000000E+00 -0.00000000000E+00 -0.45593999997E+02  0.45594000000E+02  0.51100000000E-03 0. -1.
    9900012    2    1    2    0    0 -0.13778802299E+02 -0.40018397139E+02 -0.96070620679E+01  0.47787272542E+02  0.20000006826E+02 0.  0.
        -12    1    1    2    0    0  0.13778802299E+02  0.40018397139E+02  0.96070620679E+01  0.43400727458E+02  0.00000000000E+00 0.  1.
         11    1    3    3    0    0 -0.85058542706E+01 -0.19163820646E+02 -0.62311284336E+01  0.21873009405E+02  0.51100000000E-03 0. -1.
        -11    1    3    3    0    0  0.20654885883E+01 -0.12888012959E+02 -0.65822943929E+01  0.14618266685E+02  0.51100000000E-03 0.  1.
        -12    1    3    3    0    0 -0.73384366170E+01 -0.79665635341E+01  0.32063607587E+01  0.11295996452E+02  0.00000000000E+00 0.  1.
</event>
<event>
 7    1  0.4031943E-009  0.4778727E+02  0.7816164E-02  0.1312668E+00
        -11   -1    0    0    0    0  0.00000000000E+00  0.00000000000E+00  0.45593999997E+02  0.45594000000E+02  0.51100000000E-03 0.  1.
         11   -1    0    0    0    0 -0.00000000000E+00 -0.00000000000E+00 -0.45593999997E+02  0.45594000000E+02  0.51100000000E-03 0. -1.
    9900012    2    1    2    0    0  0.15255613873E+02  0.39704564993E+02 -0.86277000641E+01  0.47787269081E+02  0.19999991046E+02 0.  0.
        -12    1    1    2    0    0 -0.15255613873E+02 -0.39704564993E+02  0.86277000641E+01  0.43400730919E+02  0.00000000000E+00 0.  1.
         11    1    3    3    0    0  0.41943900480E+01  0.92176005275E+01 -0.96247541937E+01  0.13971147444E+02  0.51100000000E-03 0. -1.
        -11    1    3    3    0    0  0.46198405602E+01  0.29761959699E+01  0.85052179091E+00  0.55609402830E+01  0.51100000000E-03 0.  1.
         12    1    3    3    0    0  0.64413832651E+01  0.27510768496E+02  0.14653233870E+00  0.28255181353E+02  0.00000000000E+00 0. -1.
</event>
<event>
 7    1  0.4031943E-009  0.4778728E+02  0.7816164E-02  0.1312668E+00
        -11   -1    0    0    0    0  0.00000000000E+00  0.00000000000E+00  0.45593999997E+02  0.45594000000E+02  0.51100000000E-03 0.  1.
         11   -1    0    0    0    0 -0.00000000000E+00 -0.00000000000E+00 -0.45593999997E+02  0.45594000000E+02  0.51100000000E-03 0. -1.
    9900012    2    1    2    0    0  0.22985156126E+02  0.31822629151E+02 -0.18510143377E+02  0.47787279544E+02  0.20000038753E+02 0.  0.
        -12    1    1    2    0    0 -0.22985156126E+02 -0.31822629151E+02  0.18510143377E+02  0.43400720456E+02  0.00000000000E+00 0.  1.
         11    1    3    3    0    0  0.42766244416E+01  0.61300522641E+01 -0.50749220169E+01  0.90344834448E+01  0.51100000000E-03 0. -1.
        -11    1    3    3    0    0  0.14281451220E+02  0.56842757992E+01 -0.26573981691E+01  0.15599121950E+02  0.51100000000E-03 0.  1.
         12    1    3    3    0    0  0.44270804642E+01  0.20008301088E+02 -0.10777823191E+02  0.23153674149E+02  0.00000000000E+00 0. -1.
</event>
<event>
 7    1  0.4031943E-009  0.4778727E+02  0.7816164E-02  0.1312668E+00
        -11   -1    0    0    0    0  0.00000000000E+00  0.00000000000E+00  0.45593999997E+02  0.45594000000E+02  0.51100000000E-03 0. -1.
         11   -1    0    0    0    0 -0.00000000000E+00 -0.00000000000E+00 -0.45593999997E+02  0.45594000000E+02  0.51100000000E-03 0.  1.
    9900012    2    1    2    0    0  0.81236079827E+01 -0.13104546854E+02  0.40569710347E+02  0.47787267834E+02  0.19999985361E+02 0.  0.
        -12    1    1    2    0    0 -0.81236079827E+01  0.13104546854E+02 -0.40569710347E+02  0.43400732166E+02  0.00000000000E+00 0.  1.
         11    1    3    3    0    0  0.69510265531E+01 -0.12932734289E+01  0.11829636962E+02  0.13781496189E+02  0.51100000000E-03 0. -1.
        -11    1    3    3    0    0  0.55273032460E+01 -0.79562872678E+01  0.25653027854E+02  0.27421368066E+02  0.51100000000E-03 0.  1.
        -12    1    3    3    0    0 -0.43547218163E+01 -0.38549861570E+01  0.30870455311E+01  0.65844035781E+01  0.00000000000E+00 0.  1.
</event>
<event>
 7    1  0.4031943E-009  0.4778727E+02  0.7816164E-02  0.1312668E+00
        -11   -1    0    0    0    0  0.00000000000E+00  0.00000000000E+00  0.45593999997E+02  0.45594000000E+02  0.51100000000E-03 0.  1.
         11   -1    0    0    0    0 -0.00000000000E+00 -0.00000000000E+00 -0.45593999997E+02  0.45594000000E+02  0.51100000000E-03 0. -1.
    9900012    2    1    2    0    0  0.17281996543E+01 -0.19091335341E+02 -0.38937866819E+02  0.47787271532E+02  0.20000002225E+02 0.  0.
        -12    1    1    2    0    0 -0.17281996543E+01  0.19091335341E+02  0.38937866819E+02  0.43400728468E+02  0.00000000000E+00 0.  1.
         11    1    3    3    0    0  0.51150821585E+01 -0.29642123170E+01 -0.81942617744E+01  0.10104283569E+02  0.51100000000E-03 0. -1.
        -11    1    3    3    0    0 -0.73435674031E+01 -0.14251797448E+02 -0.17497384460E+02  0.23731838865E+02  0.51100000000E-03 0.  1.
        -12    1    3    3    0    0  0.39566848989E+01 -0.18753255751E+01 -0.13246220585E+02  0.13951149099E+02  0.00000000000E+00 0.  1.
</event>
<event>
 7    1  0.4031943E-009  0.4778727E+02  0.7816164E-02  0.1312668E+00
        -11   -1    0    0    0    0  0.00000000000E+00  0.00000000000E+00  0.45593999997E+02  0.45594000000E+02  0.51100000000E-03 0.  1.
         11   -1    0    0    0    0 -0.00000000000E+00 -0.00000000000E+00 -0.45593999997E+02  0.45594000000E+02  0.51100000000E-03 0. -1.
    9900012    2    1    2    0    0  0.67347997930E+01 -0.13525447847E+02 -0.40685719252E+02  0.47787273983E+02  0.20000013400E+02 0.  0.
        -12    1    1    2    0    0 -0.67347997930E+01  0.13525447847E+02  0.40685719252E+02  0.43400726017E+02  0.00000000000E+00 0.  1.
         11    1    3    3    0    0 -0.35058118007E+01 -0.42122598009E+00 -0.63855351760E+01  0.72967943273E+01  0.51100000000E-03 0.  1.
        -11    1    3    3    0    0  0.20662152336E+00 -0.52449314998E+01 -0.17486299517E+01  0.55326038951E+01  0.51100000000E-03 0. -1.
        -12    1    3    3    0    0  0.10033990070E+02 -0.78592903671E+01 -0.32551554124E+02  0.34957875761E+02  0.00000000000E+00 0.  1.
</event>
<event>
 7    1  0.4031943E-009  0.4778729E+02  0.7816164E-02  0.1312668E+00
        -11   -1    0    0    0    0  0.00000000000E+00  0.00000000000E+00  0.45593999997E+02  0.45594000000E+02  0.51100000000E-03 0. -1.
         11   -1    0    0    0    0 -0.00000000000E+00 -0.00000000000E+00 -0.45593999997E+02  0.45594000000E+02  0.51100000000E-03 0.  1.
    9900012    2    1    2    0    0 -0.14068261425E+02 -0.26767306381E+02  0.31132255745E+02  0.47787285511E+02  0.20000065959E+02 0.  0.
        -12    1    1    2    0    0  0.14068261425E+02  0.26767306381E+02 -0.31132255745E+02  0.43400714489E+02  0.00000000000E+00 0.  1.
         11    1    3    3    0    0 -0.64094971569E+00 -0.19129417393E+01  0.25618940323E+01  0.32608992517E+01  0.51100000000E-03 0. -1.
        -11    1    3    3    0    0 -0.10649047679E+02 -0.17265567645E+01  0.77443156594E+01  0.13279971387E+02  0.51100000000E-03 0.  1.
         12    1    3    3    0    0 -0.27782640300E+01 -0.23127807877E+02  0.20826046053E+02  0.31246414873E+02  0.00000000000E+00 0. -1.
</event>
<event>
 7    1  0.4031943E-009  0.4778727E+02  0.7816164E-02  0.1312668E+00
        -11   -1    0    0    0    0  0.00000000000E+00  0.00000000000E+00  0.45593999997E+02  0.45594000000E+02  0.51100000000E-03 0.  1.
         11   -1    0    0    0    0 -0.00000000000E+00 -0.00000000000E+00 -0.45593999997E+02  0.45594000000E+02  0.51100000000E-03 0. -1.
    9900012    2    1    2    0    0 -0.22830827017E+02 -0.85223555441E+01 -0.35913037998E+02  0.47787268387E+02  0.19999987885E+02 0.  0.
        -12    1    1    2    0    0  0.22830827017E+02  0.85223555441E+01  0.35913037998E+02  0.43400731613E+02  0.00000000000E+00 0.  1.
         11    1    3    3    0    0 -0.20453596507E+01 -0.43517660392E+01 -0.15459791249E+02  0.16190321476E+02  0.51100000000E-03 0. -1.
        -11    1    3    3    0    0  0.42046851625E+00 -0.18272427270E+01  0.22132127220E+00  0.18880130092E+01  0.51100000000E-03 0.  1.
         12    1    3    3    0    0 -0.21205935883E+02 -0.23433467780E+01 -0.20674568021E+02  0.29708933902E+02  0.00000000000E+00 0. -1.
</event>
<event>
 7    1  0.4031943E-009  0.4778727E+02  0.7816164E-02  0.1312668E+00
        -11   -1    0    0    0    0  0.00000000000E+00  0.00000000000E+00  0.45593999997E+02  0.45594000000E+02  0.51100000000E-03 0. -1.
         11   -1    0    0    0    0 -0.00000000000E+00 -0.00000000000E+00 -0.45593999997E+02  0.45594000000E+02  0.51100000000E-03 0.  1.
    9900012    2    1    2    0    0  0.32035903080E+02 -0.56376840497E+01  0.28732221177E+02  0.47787273032E+02  0.20000009060E+02 0.  0.
        -12    1    1    2    0    0 -0.32035903080E+02  0.56376840497E+01 -0.28732221177E+02  0.43400726968E+02  0.00000000000E+00 0.  1.
         11    1    3    3    0    0  0.22698708806E+01  0.24676667548E-01  0.14982054480E+01  0.27198423811E+01  0.51100000000E-03 0.  1.
        -11    1    3    3    0    0  0.24018178082E+02  0.24758972185E+01  0.12255026312E+02  0.27077455855E+02  0.51100000000E-03 0. -1.
        -12    1    3    3    0    0  0.57478541184E+01 -0.81382579358E+01  0.14978989417E+02  0.17989974796E+02  0.00000000000E+00 0.  1.
</event>
<event>
 7    1  0.4031943E-009  0.4778727E+02  0.7816164E-02  0.1312668E+00
        -11   -1    0    0    0    0  0.00000000000E+00  0.00000000000E+00  0.45593999997E+02  0.45594000000E+02  0.51100000000E-03 0. -1.
         11   -1    0    0    0    0 -0.00000000000E+00 -0.00000000000E+00 -0.45593999997E+02  0.45594000000E+02  0.51100000000E-03 0.  1.
    9900012    2    1    2    0    0  0.38925725355E+02 -0.12356324541E+02  0.14687828218E+02  0.47787272491E+02  0.20000006594E+02 0.  0.
        -12    1    1    2    0    0 -0.38925725355E+02  0.12356324541E+02 -0.14687828218E+02  0.43400727509E+02  0.00000000000E+00 0.  1.
         11    1    3    3    0    0  0.75561884318E+01 -0.30497517341E+01  0.70826828149E+01  0.10796358894E+02  0.51100000000E-03 0. -1.
        -11    1    3    3    0    0 -0.52485470794E+00 -0.17622334018E+01 -0.21177469754E+01  0.28046018506E+01  0.51100000000E-03 0.  1.
         12    1    3    3    0    0  0.31894391631E+02 -0.75443394047E+01  0.97228923788E+01  0.34186311746E+02  0.00000000000E+00 0. -1.
</event>
<event>
 7    1  0.4031943E-009  0.4778727E+02  0.7816164E-02  0.1312668E+00
        -11   -1    0    0    0    0  0.00000000000E+00  0.00000000000E+00  0.45593999997E+02  0.45594000000E+02  0.51100000000E-03 0.  1.
         11   -1    0    0    0    0 -0.00000000000E+00 -0.00000000000E+00 -0.45593999997E+02  0.45594000000E+02  0.51100000000E-03 0. -1.
    9900012    2    1    2    0    0 -0.21018322326E+02  0.16299164439E+02  0.34295638361E+02  0.47787269068E+02  0.19999990990E+02 0.  0.
        -12    1    1    2    0    0  0.21018322326E+02 -0.16299164439E+02 -0.34295638361E+02  0.43400730932E+02  0.00000000000E+00 0.  1.
         11    1    3    3    0    0 -0.14064758658E+02  0.17617824786E+02  0.18184728422E+02  0.28963589804E+02  0.51100000000E-03 0. -1.
        -11    1    3    3    0    0 -0.65447295744E+01  0.10893354334E+01  0.82207767970E+01  0.10564152039E+02  0.51100000000E-03 0.  1.
         12    1    3    3    0    0 -0.40883409314E+00 -0.24079957796E+01  0.78901331419E+01  0.82595272254E+01  0.00000000000E+00 0. -1.
</event>
<event>
 7    1  0.4031943E-009  0.4778727E+02  0.7816164E-02  0.1312668E+00
        -11   -1    0    0    0    0  0.00000000000E+00  0.00000000000E+00  0.45593999997E+02  0.45594000000E+02  0.51100000000E-03 0. -1.
         11   -1    0    0    0    0 -0.00000000000E+00 -0.00000000000E+00 -0.45593999997E+02  0.45594000000E+02  0.51100000000E-03 0.  1.
    9900012    2    1    2    0    0  0.24397123027E+01 -0.42001852809E+02  0.10654380604E+02  0.47787266578E+02  0.19999979638E+02 0.  0.
        -12    1    1    2    0    0 -0.24397123027E+01  0.42001852809E+02 -0.10654380604E+02  0.43400733422E+02  0.00000000000E+00 0.  1.
         11    1    3    3    0    0  0.80816546926E+01 -0.19818571289E+02  0.62063749898E+01  0.22284703303E+02  0.51100000000E-03 0. -1.
        -11    1    3    3    0    0 -0.51268597643E+00 -0.78663033902E+01 -0.31659562214E+01  0.84949899938E+01  0.51100000000E-03 0.  1.
        -12    1    3    3    0    0 -0.51292564135E+01 -0.14316978129E+02  0.76139618356E+01  0.17007573282E+02  0.00000000000E+00 0.  1.
</event>
<event>
 7    1  0.4031943E-009  0.4778727E+02  0.7816164E-02  0.1312668E+00
        -11   -1    0    0    0    0  0.00000000000E+00  0.00000000000E+00  0.45593999997E+02  0.45594000000E+02  0.51100000000E-03 0.  1.
         11   -1    0    0    0    0 -0.00000000000E+00 -0.00000000000E+00 -0.45593999997E+02  0.45594000000E+02  0.51100000000E-03 0. -1.
    9900012    2    1    2    0    0  0.18095271880E+02  0.31190040297E+02 -0.24152967727E+02  0.47787270420E+02  0.19999997151E+02 0.  0.
        -12    1    1    2    0    0 -0.18095271880E+02 -0.31190040297E+02  0.24152967727E+02  0.43400729580E+02  0.00000000000E+00 0.  1.
         11    1    3    3    0    0  0.10911039239E+02  0.24717985870E+02 -0.84292865956E+01  0.28303400423E+02  0.51100000000E-03 0. -1.
        -11    1    3    3    0    0  0.27965481003E+01  0.14003435385E+00 -0.12057096563E+01  0.30486106563E+01  0.51100000000E-03 0.  1.
        -12    1    3    3    0    0  0.43876845406E+01  0.63320200728E+01 -0.14517971475E+02  0.16435259340E+02  0.00000000000E+00 0.  1.
</event>
<event>
 7    1  0.4031943E-009  0.4778727E+02  0.7816164E-02  0.1312668E+00
        -11   -1    0    0    0    0  0.00000000000E+00  0.00000000000E+00  0.45593999997E+02  0.45594000000E+02  0.51100000000E-03 0.  1.
         11   -1    0    0    0    0 -0.00000000000E+00 -0.00000000000E+00 -0.45593999997E+02  0.45594000000E+02  0.51100000000E-03 0. -1.
    9900012    2    1    2    0    0 -0.38086349400E+02 -0.17454099309E+02 -0.11331712230E+02  0.47787270797E+02  0.19999998872E+02 0.  0.
        -12    1    1    2    0    0  0.38086349400E+02  0.17454099309E+02  0.11331712230E+02  0.43400729203E+02  0.00000000000E+00 0.  1.
         11    1    3    3    0    0 -0.44949094939E+01 -0.63309505688E+01 -0.67116679429E+01  0.10263120057E+02  0.51100000000E-03 0.  1.
        -11    1    3    3    0    0 -0.19717172430E+01  0.11151250011E+01 -0.27560116753E+01  0.35674603389E+01  0.51100000000E-03 0. -1.
        -12    1    3    3    0    0 -0.31619722663E+02 -0.12238273741E+02 -0.18640326116E+01  0.33956690401E+02  0.00000000000E+00 0.  1.
</event>
<event>
 7    1  0.4031943E-009  0.4778727E+02  0.7816164E-02  0.1312668E+00
        -11   -1    0    0    0    0  0.00000000000E+00  0.00000000000E+00  0.45593999997E+02  0.45594000000E+02  0.51100000000E-03 0. -1.
         11   -1    0    0    0    0 -0.00000000000E+00 -0.00000000000E+00 -0.45593999997E+02  0.45594000000E+02  0.51100000000E-03 0.  1.
    9900012    2    1    2    0    0  0.34668514696E+02  0.22834670716E+02 -0.12660768779E+02  0.47787272310E+02  0.20000005772E+02 0.  0.
        -12    1    1    2    0    0 -0.34668514696E+02 -0.22834670716E+02  0.12660768779E+02  0.43400727690E+02  0.00000000000E+00 0.  1.
         11    1    3    3    0    0  0.10110167500E+02  0.48287726892E+01 -0.36750029362E+01  0.11791445178E+02  0.51100000000E-03 0. -1.
        -11    1    3    3    0    0  0.81986797315E+01 -0.19777853259E+01  0.58323684236E+00  0.84540019878E+01  0.51100000000E-03 0.  1.
         12    1    3    3    0    0  0.16359667465E+02  0.19983683352E+02 -0.95690026850E+01  0.27541825144E+02  0.00000000000E+00 0. -1.
</event>
<event>
 7    1  0.4031943E-009  0.4778727E+02  0.7816164E-02  0.1312668E+00
        -11   -1    0    0    0    0  0.00000000000E+00  0.00000000000E+00  0.45593999997E+02  0.45594000000E+02  0.51100000000E-03 0.  1.
         11   -1    0    0    0    0 -0.00000000000E+00 -0.00000000000E+00 -0.45593999997E+02  0.45594000000E+02  0.51100000000E-03 0. -1.
    9900012    2    1    2    0    0 -0.41954305094E+02  0.69413698428E+01 -0.86762318373E+01  0.47787270396E+02  0.19999997044E+02 0.  0.
        -12    1    1    2    0    0  0.41954305094E+02 -0.69413698428E+01  0.86762318373E+01  0.43400729604E+02  0.00000000000E+00 0.  1.
         11    1    3    3    0    0 -0.45055370182E+01  0.33063199599E+01 -0.61860491408E+01  0.83365952123E+01  0.51100000000E-03 0. -1.
        -11    1    3    3    0    0 -0.29037887840E+02  0.10864783865E+01 -0.65225189621E+01  0.29781246102E+02  0.51100000000E-03 0.  1.
        -12    1    3    3    0    0 -0.84108802361E+01  0.25485714964E+01  0.40323362656E+01  0.96694290823E+01  0.00000000000E+00 0.  1.
</event>
<event>
 7    1  0.4031943E-009  0.4778724E+02  0.7816164E-02  0.1312668E+00
        -11   -1    0    0    0    0  0.00000000000E+00  0.00000000000E+00  0.45593999997E+02  0.45594000000E+02  0.51100000000E-03 0.  1.
         11   -1    0    0    0    0 -0.00000000000E+00 -0.00000000000E+00 -0.45593999997E+02  0.45594000000E+02  0.51100000000E-03 0. -1.
    9900012    2    1    2    0    0  0.30552499796E+02  0.98166339150E+01 -0.29219925159E+02  0.47787244575E+02  0.19999879315E+02 0.  0.
        -12    1    1    2    0    0 -0.30552499796E+02 -0.98166339150E+01  0.29219925159E+02  0.43400755425E+02  0.00000000000E+00 0.  1.
         11    1    3    3    0    0  0.22984694520E+01  0.66565973829E+01 -0.34731881239E+01  0.78521517143E+01  0.51100000000E-03 0. -1.
        -11    1    3    3    0    0  0.14208191128E+02  0.68639525239E+01 -0.10996293422E+02  0.19232914721E+02  0.51100000000E-03 0.  1.
        -12    1    3    3    0    0  0.14045839216E+02 -0.37039159918E+01 -0.14750443613E+02  0.20702178140E+02  0.00000000000E+00 0.  1.
</event>
<event>
 7    1  0.4031943E-009  0.4778727E+02  0.7816164E-02  0.1312668E+00
        -11   -1    0    0    0    0  0.00000000000E+00  0.00000000000E+00  0.45593999997E+02  0.45594000000E+02  0.51100000000E-03 0.  1.
         11   -1    0    0    0    0 -0.00000000000E+00 -0.00000000000E+00 -0.45593999997E+02  0.45594000000E+02  0.51100000000E-03 0. -1.
    9900012    2    1    2    0    0  0.25628176294E+02 -0.91118742134E+01 -0.33820018351E+02  0.47787270592E+02  0.19999997938E+02 0.  0.
        -12    1    1    2    0    0 -0.25628176294E+02  0.91118742134E+01  0.33820018351E+02  0.43400729408E+02  0.00000000000E+00 0.  1.
         11    1    3    3    0    0  0.17894253474E+01  0.20395547479E+01 -0.11323230640E+02  0.11643769967E+02  0.51100000000E-03 0. -1.
        -11    1    3    3    0    0  0.97796675604E+01  0.21777575786E+00 -0.10984201951E+02  0.14708569497E+02  0.51100000000E-03 0.  1.
         12    1    3    3    0    0  0.14059083387E+02 -0.11369204719E+02 -0.11512585760E+02  0.21434931129E+02  0.00000000000E+00 0. -1.
</event>
<event>
 7    1  0.4031943E-009  0.4778727E+02  0.7816164E-02  0.1312668E+00
        -11   -1    0    0    0    0  0.00000000000E+00  0.00000000000E+00  0.45593999997E+02  0.45594000000E+02  0.51100000000E-03 0.  1.
         11   -1    0    0    0    0 -0.00000000000E+00 -0.00000000000E+00 -0.45593999997E+02  0.45594000000E+02  0.51100000000E-03 0. -1.
    9900012    2    1    2    0    0 -0.29752063342E+02  0.15167499467E+02 -0.27719754411E+02  0.47787273073E+02  0.20000009248E+02 0.  0.
        -12    1    1    2    0    0  0.29752063342E+02 -0.15167499467E+02  0.27719754411E+02  0.43400726927E+02  0.00000000000E+00 0.  1.
         11    1    3    3    0    0 -0.58463779075E+01  0.69854298849E+01 -0.14479607656E+02  0.17106589475E+02  0.51100000000E-03 0. -1.
        -11    1    3    3    0    0 -0.16680330674E+02  0.96227076483E+01 -0.13139207412E+02  0.23312415266E+02  0.51100000000E-03 0.  1.
        -12    1    3    3    0    0 -0.72253547612E+01 -0.14406380660E+01 -0.10093934251E+00  0.73682683320E+01  0.00000000000E+00 0.  1.
</event>
<event>
 7    1  0.4031943E-009  0.4778727E+02  0.7816164E-02  0.1312668E+00
        -11   -1    0    0    0    0  0.00000000000E+00  0.00000000000E+00  0.45593999997E+02  0.45594000000E+02  0.51100000000E-03 0.  1.
         11   -1    0    0    0    0 -0.00000000000E+00 -0.00000000000E+00 -0.45593999997E+02  0.45594000000E+02  0.51100000000E-03 0. -1.
    9900012    2    1    2    0    0  0.39001883290E+02 -0.12995169207E+02  0.13914097812E+02  0.47787269121E+02  0.19999991231E+02 0.  0.
        -12    1    1    2    0    0 -0.39001883290E+02  0.12995169207E+02 -0.13914097812E+02  0.43400730879E+02  0.00000000000E+00 0.  1.
         11    1    3    3    0    0  0.61150735957E+01  0.20055330001E+01  0.49189994689E+01  0.81001755371E+01  0.51100000000E-03 0. -1.
        -11    1    3    3    0    0  0.61221018816E+00 -0.45310237765E+01  0.22379429367E+01  0.50905173240E+01  0.51100000000E-03 0.  1.
         12    1    3    3    0    0  0.32274599506E+02 -0.10469678431E+02  0.67571554060E+01  0.34596576260E+02  0.00000000000E+00 0. -1.
</event>
<event>
 7    1  0.4031943E-009  0.4778727E+02  0.7816164E-02  0.1312668E+00
        -11   -1    0    0    0    0  0.00000000000E+00  0.00000000000E+00  0.45593999997E+02  0.45594000000E+02  0.51100000000E-03 0.  1.
         11   -1    0    0    0    0 -0.00000000000E+00 -0.00000000000E+00 -0.45593999997E+02  0.45594000000E+02  0.51100000000E-03 0. -1.
    9900012    2    1    2    0    0  0.30416107857E+02  0.26067011333E+02 -0.16703128715E+02  0.47787271828E+02  0.20000003574E+02 0.  0.
        -12    1    1    2    0    0 -0.30416107857E+02 -0.26067011333E+02  0.16703128715E+02  0.43400728172E+02  0.00000000000E+00 0.  1.
         11    1    3    3    0    0 -0.57505890127E+00  0.23599971352E+01 -0.43556882980E+01  0.49872136538E+01  0.51100000000E-03 0. -1.
        -11    1    3    3    0    0  0.43881345609E+01  0.90271969260E+01 -0.93630332082E-01  0.10037667865E+02  0.51100000000E-03 0.  1.
         12    1    3    3    0    0  0.26603032197E+02  0.14679817272E+02 -0.12253810085E+02  0.32762390310E+02  0.00000000000E+00 0. -1.
</event>
<event>
 7    1  0.4031943E-009  0.4778728E+02  0.7816164E-02  0.1312668E+00
        -11   -1    0    0    0    0  0.00000000000E+00  0.00000000000E+00  0.45593999997E+02  0.45594000000E+02  0.51100000000E-03 0.  1.
         11   -1    0    0    0    0 -0.00000000000E+00 -0.00000000000E+00 -0.45593999997E+02  0.45594000000E+02  0.51100000000E-03 0. -1.
    9900012    2    1    2    0    0  0.37224685372E+02  0.14672257250E+02 -0.16812799240E+02  0.47787279359E+02  0.20000037909E+02 0.  0.
        -12    1    1    2    0    0 -0.37224685372E+02 -0.14672257250E+02  0.16812799240E+02  0.43400720641E+02  0.00000000000E+00 0.  1.
         11    1    3    3    0    0  0.96358171711E+01  0.74807786783E+01 -0.28295273693E+01  0.12522669347E+02  0.51100000000E-03 0. -1.
        -11    1    3    3    0    0  0.21158172385E+01  0.27232398679E+00  0.31435809463E+01  0.37990715138E+01  0.51100000000E-03 0.  1.
         12    1    3    3    0    0  0.25473050963E+02  0.69191545851E+01 -0.17126852817E+02  0.31465538498E+02  0.00000000000E+00 0. -1.
</event>
<event>
 7    1  0.4031943E-009  0.4778730E+02  0.7816164E-02  0.1312668E+00
        -11   -1    0    0    0    0  0.00000000000E+00  0.00000000000E+00  0.45593999997E+02  0.45594000000E+02  0.51100000000E-03 0.  1.
         11   -1    0    0    0    0 -0.00000000000E+00 -0.00000000000E+00 -0.45593999997E+02  0.45594000000E+02  0.51100000000E-03 0. -1.
    9900012    2    1    2    0    0 -0.37067967014E+01  0.42728553915E+02 -0.66446598466E+01  0.47787295329E+02  0.20000110723E+02 0.  0.
        -12    1    1    2    0    0  0.37067967014E+01 -0.42728553915E+02  0.66446598466E+01  0.43400704671E+02  0.00000000000E+00 0.  1.
         11    1    3    3    0    0  0.39454892716E+01  0.16515740826E+02 -0.45552127625E+01  0.17580857323E+02  0.51100000000E-03 0. -1.
        -11    1    3    3    0    0 -0.50041778603E+01  0.20231443782E+02 -0.70452906432E+01  0.21999755318E+02  0.51100000000E-03 0.  1.
        -12    1    3    3    0    0 -0.26481081127E+01  0.59813693072E+01  0.49558435591E+01  0.82066826884E+01  0.00000000000E+00 0.  1.
</event>
<event>
 7    1  0.4031943E-009  0.4778725E+02  0.7816164E-02  0.1312668E+00
        -11   -1    0    0    0    0  0.00000000000E+00  0.00000000000E+00  0.45593999997E+02  0.45594000000E+02  0.51100000000E-03 0.  1.
         11   -1    0    0    0    0 -0.00000000000E+00 -0.00000000000E+00 -0.45593999997E+02  0.45594000000E+02  0.51100000000E-03 0. -1.
    9900012    2    1    2    0    0  0.38099259198E+02  0.13459569809E+02 -0.15840178079E+02  0.47787253320E+02  0.19999919185E+02 0.  0.
        -12    1    1    2    0    0 -0.38099259198E+02 -0.13459569809E+02  0.15840178079E+02  0.43400746680E+02  0.00000000000E+00 0.  1.
         11    1    3    3    0    0  0.14873191886E+01  0.23838578376E+01  0.24180368642E+01  0.37069932690E+01  0.51100000000E-03 0. -1.
        -11    1    3    3    0    0 -0.67230674209E+00 -0.59469228875E+00 -0.10746564916E+01  0.14001935973E+01  0.51100000000E-03 0.  1.
         12    1    3    3    0    0  0.37284246751E+02  0.11670404260E+02 -0.17183558451E+02  0.42680066453E+02  0.00000000000E+00 0. -1.
</event>
<event>
 7    1  0.4097974E-009  0.4778725E+02  0.7816164E-02  0.1312668E+00
        -11   -1    0    0    0    0  0.00000000000E+00  0.00000000000E+00  0.45593999997E+02  0.45594000000E+02  0.51100000000E-03 0. -1.
         11   -1    0    0    0    0 -0.00000000000E+00 -0.00000000000E+00 -0.45593999997E+02  0.45594000000E+02  0.51100000000E-03 0.  1.
    9900012    2    1    2    0    0  0.10003337885E+01 -0.25660249729E+02  0.34988225800E+02  0.47787250831E+02  0.19999907839E+02 0.  0.
        -12    1    1    2    0    0 -0.10003337885E+01  0.25660249729E+02 -0.34988225800E+02  0.43400749169E+02  0.00000000000E+00 0.  1.
         11    1    3    3    0    0 -0.15395076845E+01 -0.14243802273E+02  0.16802287366E+02  0.22081051789E+02  0.51100000000E-03 0. -1.
        -11    1    3    3    0    0 -0.40033793126E+01 -0.28640544774E+01  0.43132869152E+00  0.49412446480E+01  0.51100000000E-03 0.  1.
        -12    1    3    3    0    0  0.65432207857E+01 -0.85523929780E+01  0.17754609742E+02  0.20764954394E+02  0.00000000000E+00 0.  1.
</event>
<event>
 7    1  0.4031943E-009  0.4778727E+02  0.7816164E-02  0.1312668E+00
        -11   -1    0    0    0    0  0.00000000000E+00  0.00000000000E+00  0.45593999997E+02  0.45594000000E+02  0.51100000000E-03 0.  1.
         11   -1    0    0    0    0 -0.00000000000E+00 -0.00000000000E+00 -0.45593999997E+02  0.45594000000E+02  0.51100000000E-03 0. -1.
    9900012    2    1    2    0    0  0.70090298418E+01 -0.39827926505E+02  0.15755417176E+02  0.47787269598E+02  0.19999993407E+02 0.  0.
        -12    1    1    2    0    0 -0.70090298418E+01  0.39827926505E+02 -0.15755417176E+02  0.43400730402E+02  0.00000000000E+00 0.  1.
         11    1    3    3    0    0  0.10024572081E+02 -0.23626202656E+02  0.73813180881E+01  0.26705305734E+02  0.51100000000E-03 0. -1.
        -11    1    3    3    0    0  0.17071138504E+00 -0.14843812160E+02  0.92738107049E+01  0.17503470143E+02  0.51100000000E-03 0.  1.
        -12    1    3    3    0    0 -0.31862536247E+01 -0.13579116891E+01 -0.89971161741E+00  0.35784937209E+01  0.00000000000E+00 0.  1.
</event>
<event>
 7    1  0.4031943E-009  0.4778727E+02  0.7816164E-02  0.1312668E+00
        -11   -1    0    0    0    0  0.00000000000E+00  0.00000000000E+00  0.45593999997E+02  0.45594000000E+02  0.51100000000E-03 0.  1.
         11   -1    0    0    0    0 -0.00000000000E+00 -0.00000000000E+00 -0.45593999997E+02  0.45594000000E+02  0.51100000000E-03 0. -1.
    9900012    2    1    2    0    0  0.19553444232E+02  0.29984483698E+02 -0.24540113916E+02  0.47787266884E+02  0.19999981030E+02 0.  0.
        -12    1    1    2    0    0 -0.19553444232E+02 -0.29984483698E+02  0.24540113916E+02  0.43400733116E+02  0.00000000000E+00 0.  1.
         11    1    3    3    0    0  0.48767237006E+01  0.12069629946E+02 -0.16021621673E+02  0.20643419348E+02  0.51100000000E-03 0. -1.
        -11    1    3    3    0    0 -0.16355543695E+01  0.13284948262E+00 -0.48689205768E+00  0.17116516052E+01  0.51100000000E-03 0.  1.
         12    1    3    3    0    0  0.16312274901E+02  0.17782004270E+02 -0.80316001853E+01  0.25432195931E+02  0.00000000000E+00 0. -1.
</event>
<event>
 7    1  0.4031943E-009  0.4778727E+02  0.7816164E-02  0.1312668E+00
        -11   -1    0    0    0    0  0.00000000000E+00  0.00000000000E+00  0.45593999997E+02  0.45594000000E+02  0.51100000000E-03 0.  1.
         11   -1    0    0    0    0 -0.00000000000E+00 -0.00000000000E+00 -0.45593999997E+02  0.45594000000E+02  0.51100000000E-03 0. -1.
    9900012    2    1    2    0    0 -0.23658816525E+02  0.36225226588E+00 -0.36383415027E+02  0.47787265961E+02  0.19999976824E+02 0.  0.
        -12    1    1    2    0    0  0.23658816525E+02 -0.36225226588E+00  0.36383415027E+02  0.43400734039E+02  0.00000000000E+00 0.  1.
         11    1    3    3    0    0 -0.40066863060E+01  0.53570376224E+00 -0.69118094821E+01  0.80070983667E+01  0.51100000000E-03 0. -1.
        -11    1    3    3    0    0 -0.17611125972E+01 -0.59750345045E+01 -0.21082803883E+01  0.65762756456E+01  0.51100000000E-03 0.  1.
        -12    1    3    3    0    0 -0.17891017622E+02  0.58015830082E+01 -0.27363325156E+02  0.33203891949E+02  0.00000000000E+00 0.  1.
</event>
<event>
 7    1  0.4031943E-009  0.4778727E+02  0.7816164E-02  0.1312668E+00
        -11   -1    0    0    0    0  0.00000000000E+00  0.00000000000E+00  0.45593999997E+02  0.45594000000E+02  0.51100000000E-03 0.  1.
         11   -1    0    0    0    0 -0.00000000000E+00 -0.00000000000E+00 -0.45593999997E+02  0.45594000000E+02  0.51100000000E-03 0. -1.
    9900012    2    1    2    0    0 -0.23057772629E+02  0.33518139664E+02 -0.15116106040E+02  0.47787271585E+02  0.20000002466E+02 0.  0.
        -12    1    1    2    0    0  0.23057772629E+02 -0.33518139664E+02  0.15116106040E+02  0.43400728415E+02  0.00000000000E+00 0.  1.
         11    1    3    3    0    0 -0.17689590370E+02  0.25271662553E+02 -0.24112371127E+01  0.30941761429E+02  0.51100000000E-03 0. -1.
        -11    1    3    3    0    0 -0.32398406043E+01  0.25624127529E+01 -0.21175330833E+01  0.46418178419E+01  0.51100000000E-03 0.  1.
        -12    1    3    3    0    0 -0.21283416544E+01  0.56840643579E+01 -0.10587335844E+02  0.12203692314E+02  0.00000000000E+00 0.  1.
</event>
<event>
 7    1  0.4031943E-009  0.4778727E+02  0.7816164E-02  0.1312668E+00
        -11   -1    0    0    0    0  0.00000000000E+00  0.00000000000E+00  0.45593999997E+02  0.45594000000E+02  0.51100000000E-03 0. -1.
         11   -1    0    0    0    0 -0.00000000000E+00 -0.00000000000E+00 -0.45593999997E+02  0.45594000000E+02  0.51100000000E-03 0.  1.
    9900012    2    1    2    0    0 -0.37142318472E+02  0.17381236942E+02 -0.14211394464E+02  0.47787274756E+02  0.20000016922E+02 0.  0.
        -12    1    1    2    0    0  0.37142318472E+02 -0.17381236942E+02  0.14211394464E+02  0.43400725244E+02  0.00000000000E+00 0.  1.
         11    1    3    3    0    0 -0.10810837248E+02  0.11632801936E+02 -0.75916616421E+01  0.17601977435E+02  0.51100000000E-03 0. -1.
        -11    1    3    3    0    0 -0.21232282032E+02  0.92590226568E+01 -0.42141379260E+01  0.23543539657E+02  0.51100000000E-03 0.  1.
        -12    1    3    3    0    0 -0.50991991923E+01 -0.35105876513E+01 -0.24055948960E+01  0.66417576637E+01  0.00000000000E+00 0.  1.
</event>
<event>
 7    1  0.4031943E-009  0.4778727E+02  0.7816164E-02  0.1312668E+00
        -11   -1    0    0    0    0  0.00000000000E+00  0.00000000000E+00  0.45593999997E+02  0.45594000000E+02  0.51100000000E-03 0. -1.
         11   -1    0    0    0    0 -0.00000000000E+00 -0.00000000000E+00 -0.45593999997E+02  0.45594000000E+02  0.51100000000E-03 0.  1.
    9900012    2    1    2    0    0 -0.10957067065E+02  0.35451667993E+02  0.22510995589E+02  0.47787274148E+02  0.20000014148E+02 0.  0.
        -12    1    1    2    0    0  0.10957067065E+02 -0.35451667993E+02 -0.22510995589E+02  0.43400725852E+02  0.00000000000E+00 0.  1.
         11    1    3    3    0    0 -0.69295020351E+00  0.29379388197E+02  0.13506085043E+02  0.32342587470E+02  0.51100000000E-03 0. -1.
        -11    1    3    3    0    0 -0.19352425864E+01  0.26202619563E+01  0.39088269370E+01  0.50882084148E+01  0.51100000000E-03 0.  1.
         12    1    3    3    0    0 -0.83288742752E+01  0.34520178390E+01  0.50960836084E+01  0.10356478262E+02  0.00000000000E+00 0. -1.
</event>
<event>
 7    1  0.4031943E-009  0.4778727E+02  0.7816164E-02  0.1312668E+00
        -11   -1    0    0    0    0  0.00000000000E+00  0.00000000000E+00  0.45593999997E+02  0.45594000000E+02  0.51100000000E-03 0.  1.
         11   -1    0    0    0    0 -0.00000000000E+00 -0.00000000000E+00 -0.45593999997E+02  0.45594000000E+02  0.51100000000E-03 0. -1.
    9900012    2    1    2    0    0 -0.28569606108E+02  0.26587001362E+02 -0.18987682918E+02  0.47787272619E+02  0.20000007181E+02 0.  0.
        -12    1    1    2    0    0  0.28569606108E+02 -0.26587001362E+02  0.18987682918E+02  0.43400727381E+02  0.00000000000E+00 0.  1.
         11    1    3    3    0    0 -0.22337234349E+02  0.16557440677E+02 -0.15335835505E+02  0.31753562493E+02  0.51100000000E-03 0. -1.
        -11    1    3    3    0    0 -0.70065151617E+01  0.79186720476E+01 -0.64950353691E+01  0.12408952672E+02  0.51100000000E-03 0.  1.
        -12    1    3    3    0    0  0.77414340290E+00  0.21108886377E+01  0.28431879560E+01  0.36247574542E+01  0.00000000000E+00 0.  1.
</event>
<event>
 7    1  0.4031943E-009  0.4778727E+02  0.7816164E-02  0.1312668E+00
        -11   -1    0    0    0    0  0.00000000000E+00  0.00000000000E+00  0.45593999997E+02  0.45594000000E+02  0.51100000000E-03 0.  1.
         11   -1    0    0    0    0 -0.00000000000E+00 -0.00000000000E+00 -0.45593999997E+02  0.45594000000E+02  0.51100000000E-03 0. -1.
    9900012    2    1    2    0    0 -0.43101213964E+02  0.36230682572E+01 -0.35751806560E+01  0.47787272063E+02  0.20000004643E+02 0.  0.
        -12    1    1    2    0    0  0.43101213964E+02 -0.36230682572E+01  0.35751806560E+01  0.43400727937E+02  0.00000000000E+00 0.  1.
         11    1    3    3    0    0 -0.29199086016E+02  0.77021496659E+01  0.45026268927E+01  0.30531678350E+02  0.51100000000E-03 0. -1.
        -11    1    3    3    0    0  0.13481243156E+00 -0.76505983162E+00 -0.12932034696E+00  0.78753726954E+00  0.51100000000E-03 0.  1.
         12    1    3    3    0    0 -0.14036940379E+02 -0.33140215771E+01 -0.79484872017E+01  0.16468056443E+02  0.00000000000E+00 0. -1.
</event>
<event>
 7    1  0.4031943E-009  0.4778727E+02  0.7816164E-02  0.1312668E+00
        -11   -1    0    0    0    0  0.00000000000E+00  0.00000000000E+00  0.45593999997E+02  0.45594000000E+02  0.51100000000E-03 0.  1.
         11   -1    0    0    0    0 -0.00000000000E+00 -0.00000000000E+00 -0.45593999997E+02  0.45594000000E+02  0.51100000000E-03 0. -1.
    9900012    2    1    2    0    0  0.15933184947E+00 -0.91116748433E+00 -0.43390871616E+02  0.47787270139E+02  0.19999995872E+02 0.  0.
        -12    1    1    2    0    0 -0.15933184947E+00  0.91116748433E+00  0.43390871616E+02  0.43400729861E+02  0.00000000000E+00 0.  1.
         11    1    3    3    0    0 -0.73953623414E+01  0.35889452011E+01 -0.13861178612E+02  0.16115340039E+02  0.51100000000E-03 0. -1.
        -11    1    3    3    0    0 -0.11959128227E+01 -0.20163903741E+01 -0.65902154479E+01  0.69947821647E+01  0.51100000000E-03 0.  1.
        -12    1    3    3    0    0  0.87506070136E+01 -0.24837223114E+01 -0.22939477557E+02  0.24677147935E+02  0.00000000000E+00 0.  1.
</event>
<event>
 7    1  0.4031943E-009  0.4778727E+02  0.7816164E-02  0.1312668E+00
        -11   -1    0    0    0    0  0.00000000000E+00  0.00000000000E+00  0.45593999997E+02  0.45594000000E+02  0.51100000000E-03 0.  1.
         11   -1    0    0    0    0 -0.00000000000E+00 -0.00000000000E+00 -0.45593999997E+02  0.45594000000E+02  0.51100000000E-03 0. -1.
    9900012    2    1    2    0    0  0.34846079150E+02 -0.70497965521E+01 -0.24893260171E+02  0.47787271141E+02  0.20000000441E+02 0.  0.
        -12    1    1    2    0    0 -0.34846079150E+02  0.70497965521E+01  0.24893260171E+02  0.43400728859E+02  0.00000000000E+00 0.  1.
         11    1    3    3    0    0  0.10118365458E+02 -0.70593715889E+01 -0.25709439678E+01  0.12602610838E+02  0.51100000000E-03 0. -1.
        -11    1    3    3    0    0  0.17526570068E+02 -0.39717807655E+00 -0.82578415821E+01  0.19378605642E+02  0.51100000000E-03 0.  1.
         12    1    3    3    0    0  0.72011436227E+01  0.40675311343E+00 -0.14064474621E+02  0.15806054661E+02  0.00000000000E+00 0. -1.
</event>
<event>
 7    1  0.4031943E-009  0.4778727E+02  0.7816164E-02  0.1312668E+00
        -11   -1    0    0    0    0  0.00000000000E+00  0.00000000000E+00  0.45593999997E+02  0.45594000000E+02  0.51100000000E-03 0.  1.
         11   -1    0    0    0    0 -0.00000000000E+00 -0.00000000000E+00 -0.45593999997E+02  0.45594000000E+02  0.51100000000E-03 0. -1.
    9900012    2    1    2    0    0 -0.43006543118E+02 -0.55626608473E+01  0.17657106365E+01  0.47787266358E+02  0.19999978632E+02 0.  0.
        -12    1    1    2    0    0  0.43006543118E+02  0.55626608473E+01 -0.17657106365E+01  0.43400733642E+02  0.00000000000E+00 0.  1.
         11    1    3    3    0    0 -0.20006173768E+02 -0.15647796443E+01 -0.26938797299E+01  0.20247284075E+02  0.51100000000E-03 0. -1.
        -11    1    3    3    0    0 -0.18335711561E+02 -0.57109382963E+01 -0.20908009089E+01  0.19317986008E+02  0.51100000000E-03 0.  1.
        -12    1    3    3    0    0 -0.46646577883E+01  0.17130570933E+01  0.65503912754E+01  0.82219962751E+01  0.00000000000E+00 0.  1.
</event>
<event>
 7    1  0.4031943E-009  0.4778727E+02  0.7816164E-02  0.1312668E+00
        -11   -1    0    0    0    0  0.00000000000E+00  0.00000000000E+00  0.45593999997E+02  0.45594000000E+02  0.51100000000E-03 0. -1.
         11   -1    0    0    0    0 -0.00000000000E+00 -0.00000000000E+00 -0.45593999997E+02  0.45594000000E+02  0.51100000000E-03 0.  1.
    9900012    2    1    2    0    0  0.33949084228E+02  0.22666747000E+02  0.14741165834E+02  0.47787266024E+02  0.19999977112E+02 0.  0.
        -12    1    1    2    0    0 -0.33949084228E+02 -0.22666747000E+02 -0.14741165834E+02  0.43400733976E+02  0.00000000000E+00 0.  1.
         11    1    3    3    0    0  0.13293065372E+02  0.13198121652E+02  0.59706271135E+01  0.19660732197E+02  0.51100000000E-03 0. -1.
        -11    1    3    3    0    0  0.10331278666E+01  0.38863900634E+01  0.64399615732E+01  0.75923966070E+01  0.51100000000E-03 0.  1.
         12    1    3    3    0    0  0.19622890989E+02  0.55822352845E+01  0.23305771469E+01  0.20534137220E+02  0.00000000000E+00 0. -1.
</event>
<event>
 7    1  0.4031943E-009  0.4778727E+02  0.7816164E-02  0.1312668E+00
        -11   -1    0    0    0    0  0.00000000000E+00  0.00000000000E+00  0.45593999997E+02  0.45594000000E+02  0.51100000000E-03 0.  1.
         11   -1    0    0    0    0 -0.00000000000E+00 -0.00000000000E+00 -0.45593999997E+02  0.45594000000E+02  0.51100000000E-03 0. -1.
    9900012    2    1    2    0    0  0.33849959022E+02 -0.15530468692E+02 -0.22284705487E+02  0.47787270948E+02  0.19999999562E+02 0.  0.
        -12    1    1    2    0    0 -0.33849959022E+02  0.15530468692E+02  0.22284705487E+02  0.43400729052E+02  0.00000000000E+00 0.  1.
         11    1    3    3    0    0  0.15414318179E+02 -0.77224501418E+01 -0.26308803166E+01  0.17440154031E+02  0.51100000000E-03 0. -1.
        -11    1    3    3    0    0 -0.10459093014E+01  0.11300771459E+01 -0.54977103390E+00  0.16350073618E+01  0.51100000000E-03 0.  1.
         12    1    3    3    0    0  0.19481550144E+02 -0.89380956959E+01 -0.19104054136E+02  0.28712109555E+02  0.00000000000E+00 0. -1.
</event>
<event>
 7    1  0.4031943E-009  0.4778727E+02  0.7816164E-02  0.1312668E+00
        -11   -1    0    0    0    0  0.00000000000E+00  0.00000000000E+00  0.45593999997E+02  0.45594000000E+02  0.51100000000E-03 0. -1.
         11   -1    0    0    0    0 -0.00000000000E+00 -0.00000000000E+00 -0.45593999997E+02  0.45594000000E+02  0.51100000000E-03 0.  1.
    9900012    2    1    2    0    0  0.12864512433E+02 -0.20667078992E+02 -0.35930478755E+02  0.47787272612E+02  0.20000007148E+02 0.  0.
        -12    1    1    2    0    0 -0.12864512433E+02  0.20667078992E+02  0.35930478755E+02  0.43400727388E+02  0.00000000000E+00 0.  1.
         11    1    3    3    0    0  0.53210603491E+01 -0.14952217029E+02 -0.85228566466E+01  0.18014482035E+02  0.51100000000E-03 0. -1.
        -11    1    3    3    0    0  0.43482207252E+01 -0.62302351909E+01 -0.13475856629E+02  0.15470021531E+02  0.51100000000E-03 0.  1.
        -12    1    3    3    0    0  0.31952313589E+01  0.51537322829E+00 -0.13931765479E+02  0.14302769046E+02  0.00000000000E+00 0.  1.
</event>
<event>
 7    1  0.4031943E-009  0.4778727E+02  0.7816164E-02  0.1312668E+00
        -11   -1    0    0    0    0  0.00000000000E+00  0.00000000000E+00  0.45593999997E+02  0.45594000000E+02  0.51100000000E-03 0. -1.
         11   -1    0    0    0    0 -0.00000000000E+00 -0.00000000000E+00 -0.45593999997E+02  0.45594000000E+02  0.51100000000E-03 0.  1.
    9900012    2    1    2    0    0 -0.20435878059E+02  0.22055792517E+02  0.31297604730E+02  0.47787272386E+02  0.20000006116E+02 0.  0.
        -12    1    1    2    0    0  0.20435878059E+02 -0.22055792517E+02 -0.31297604730E+02  0.43400727614E+02  0.00000000000E+00 0.  1.
         11    1    3    3    0    0 -0.11074855887E+02  0.63434515433E+01  0.69077329118E+01  0.14512359720E+02  0.51100000000E-03 0. -1.
        -11    1    3    3    0    0 -0.90573432026E+01  0.38013825573E+01  0.64933891560E+01  0.11774976782E+02  0.51100000000E-03 0.  1.
        -12    1    3    3    0    0 -0.30367896929E+00  0.11910958417E+02  0.17896482662E+02  0.21499935884E+02  0.00000000000E+00 0.  1.
</event>
<event>
 7    1  0.4031943E-009  0.4778727E+02  0.7816164E-02  0.1312668E+00
        -11   -1    0    0    0    0  0.00000000000E+00  0.00000000000E+00  0.45593999997E+02  0.45594000000E+02  0.51100000000E-03 0.  1.
         11   -1    0    0    0    0 -0.00000000000E+00 -0.00000000000E+00 -0.45593999997E+02  0.45594000000E+02  0.51100000000E-03 0. -1.
    9900012    2    1    2    0    0  0.18673019589E+02 -0.16059014093E+02 -0.35735832982E+02  0.47787270132E+02  0.19999995839E+02 0.  0.
        -12    1    1    2    0    0 -0.18673019589E+02  0.16059014093E+02  0.35735832982E+02  0.43400729868E+02  0.00000000000E+00 0.  1.
         11    1    3    3    0    0  0.13846308600E+02  0.28907971722E+00 -0.18552829066E+02  0.23151917750E+02  0.51100000000E-03 0. -1.
        -11    1    3    3    0    0  0.50989114195E+00 -0.28399439231E+01 -0.56975516818E+01  0.63864987192E+01  0.51100000000E-03 0.  1.
        -12    1    3    3    0    0  0.43168198473E+01 -0.13508149887E+02 -0.11485452234E+02  0.18248853662E+02  0.00000000000E+00 0.  1.
</event>
<event>
 7    1  0.4031943E-009  0.4778727E+02  0.7816164E-02  0.1312668E+00
        -11   -1    0    0    0    0  0.00000000000E+00  0.00000000000E+00  0.45593999997E+02  0.45594000000E+02  0.51100000000E-03 0. -1.
         11   -1    0    0    0    0 -0.00000000000E+00 -0.00000000000E+00 -0.45593999997E+02  0.45594000000E+02  0.51100000000E-03 0.  1.
    9900012    2    1    2    0    0  0.10539671693E+02 -0.42068008275E+02  0.16797184779E+01  0.47787268972E+02  0.19999990549E+02 0.  0.
        -12    1    1    2    0    0 -0.10539671693E+02  0.42068008275E+02 -0.16797184779E+01  0.43400731028E+02  0.00000000000E+00 0.  1.
         11    1    3    3    0    0  0.45005272498E+01 -0.97610272325E+01  0.26473595644E+01  0.11069819831E+02  0.51100000000E-03 0. -1.
        -11    1    3    3    0    0  0.61077617181E+01 -0.29088779526E+02 -0.63987958500E+01  0.30404052955E+02  0.51100000000E-03 0.  1.
        -12    1    3    3    0    0 -0.68617274994E-01 -0.32182015166E+01  0.54311547636E+01  0.63133961857E+01  0.00000000000E+00 0.  1.
</event>
<event>
 7    1  0.4031943E-009  0.4778726E+02  0.7816164E-02  0.1312668E+00
        -11   -1    0    0    0    0  0.00000000000E+00  0.00000000000E+00  0.45593999997E+02  0.45594000000E+02  0.51100000000E-03 0.  1.
         11   -1    0    0    0    0 -0.00000000000E+00 -0.00000000000E+00 -0.45593999997E+02  0.45594000000E+02  0.51100000000E-03 0. -1.
    9900012    2    1    2    0    0  0.53646161072E+00  0.23394883760E+02 -0.36551546691E+02  0.47787263339E+02  0.19999964868E+02 0.  0.
        -12    1    1    2    0    0 -0.53646161072E+00 -0.23394883760E+02  0.36551546691E+02  0.43400736661E+02  0.00000000000E+00 0.  1.
         11    1    3    3    0    0  0.12924275750E+01  0.22138081664E+02 -0.28825320383E+02  0.36368449571E+02  0.51100000000E-03 0. -1.
        -11    1    3    3    0    0  0.29910485428E+01  0.15336900850E+01 -0.67440906967E+01  0.75353391595E+01  0.51100000000E-03 0.  1.
         12    1    3    3    0    0 -0.37470145071E+01 -0.27688798855E+00 -0.98213561145E+00  0.38834746083E+01  0.00000000000E+00 0. -1.
</event>
<event>
 7    1  0.4031943E-009  0.4778727E+02  0.7816164E-02  0.1312668E+00
        -11   -1    0    0    0    0  0.00000000000E+00  0.00000000000E+00  0.45593999997E+02  0.45594000000E+02  0.51100000000E-03 0.  1.
         11   -1    0    0    0    0 -0.00000000000E+00 -0.00000000000E+00 -0.45593999997E+02  0.45594000000E+02  0.51100000000E-03 0. -1.
    9900012    2    1    2    0    0  0.20165105822E+02  0.35745718317E+02 -0.14115085951E+02  0.47787268183E+02  0.19999986955E+02 0.  0.
        -12    1    1    2    0    0 -0.20165105822E+02 -0.35745718317E+02  0.14115085951E+02  0.43400731817E+02  0.00000000000E+00 0.  1.
         11    1    3    3    0    0  0.34946638887E+01  0.93392391952E+01 -0.21103665497E+01  0.10192532152E+02  0.51100000000E-03 0. -1.
        -11    1    3    3    0    0  0.91628182742E+01  0.12032659870E+02  0.30940700439E+01  0.15437467796E+02  0.51100000000E-03 0.  1.
         12    1    3    3    0    0  0.75076236592E+01  0.14373819252E+02 -0.15098789445E+02  0.22157268235E+02  0.00000000000E+00 0. -1.
</event>
<event>
 7    1  0.4031943E-009  0.4778728E+02  0.7816164E-02  0.1312668E+00
        -11   -1    0    0    0    0  0.00000000000E+00  0.00000000000E+00  0.45593999997E+02  0.45594000000E+02  0.51100000000E-03 0. -1.
         11   -1    0    0    0    0 -0.00000000000E+00 -0.00000000000E+00 -0.45593999997E+02  0.45594000000E+02  0.51100000000E-03 0.  1.
    9900012    2    1    2    0    0 -0.35541856806E+02 -0.24719901408E+02  0.30538044577E+01  0.47787276129E+02  0.20000023184E+02 0.  0.
        -12    1    1    2    0    0  0.35541856806E+02  0.24719901408E+02 -0.30538044577E+01  0.43400723871E+02  0.00000000000E+00 0.  1.
         11    1    3    3    0    0 -0.16548548146E+02 -0.16225860386E+02  0.15916773892E+01  0.23230721646E+02  0.51100000000E-03 0. -1.
        -11    1    3    3    0    0 -0.35924390233E+01 -0.36494378199E+01  0.59004134141E+01  0.78127391647E+01  0.51100000000E-03 0.  1.
        -12    1    3    3    0    0 -0.15400869636E+02 -0.48446032016E+01 -0.44382863456E+01  0.16743815319E+02  0.00000000000E+00 0.  1.
</event>
<event>
 7    1  0.4031943E-009  0.4778727E+02  0.7816164E-02  0.1312668E+00
        -11   -1    0    0    0    0  0.00000000000E+00  0.00000000000E+00  0.45593999997E+02  0.45594000000E+02  0.51100000000E-03 0. -1.
         11   -1    0    0    0    0 -0.00000000000E+00 -0.00000000000E+00 -0.45593999997E+02  0.45594000000E+02  0.51100000000E-03 0.  1.
    9900012    2    1    2    0    0  0.77404211501E+01  0.38153434622E+02  0.19183972752E+02  0.47787268398E+02  0.19999987936E+02 0.  0.
        -12    1    1    2    0    0 -0.77404211501E+01 -0.38153434622E+02 -0.19183972752E+02  0.43400731602E+02  0.00000000000E+00 0.  1.
         11    1    3    3    0    0 -0.42673550399E+01  0.68315579287E+01  0.44887509266E+00  0.80673410663E+01  0.51100000000E-03 0. -1.
        -11    1    3    3    0    0  0.33486769188E+01  0.11868776292E+01  0.97146832213E+00  0.36832141636E+01  0.51100000000E-03 0.  1.
         12    1    3    3    0    0  0.86590992712E+01  0.30134999064E+02  0.17763629337E+02  0.36036713168E+02  0.00000000000E+00 0. -1.
</event>
<event>
 7    1  0.4031943E-009  0.4778727E+02  0.7816164E-02  0.1312668E+00
        -11   -1    0    0    0    0  0.00000000000E+00  0.00000000000E+00  0.45593999997E+02  0.45594000000E+02  0.51100000000E-03 0.  1.
         11   -1    0    0    0    0 -0.00000000000E+00 -0.00000000000E+00 -0.45593999997E+02  0.45594000000E+02  0.51100000000E-03 0. -1.
    9900012    2    1    2    0    0 -0.20543849938E+02 -0.21613799003E+02 -0.31534382646E+02  0.47787269977E+02  0.19999995135E+02 0.  0.
        -12    1    1    2    0    0  0.20543849938E+02  0.21613799003E+02  0.31534382646E+02  0.43400730023E+02  0.00000000000E+00 0.  1.
         11    1    3    3    0    0 -0.26006578046E+01 -0.99875419512E+01 -0.83627489143E+01  0.13283447779E+02  0.51100000000E-03 0. -1.
        -11    1    3    3    0    0 -0.16747902139E+02 -0.14674808366E+02 -0.19691615865E+02  0.29725443012E+02  0.51100000000E-03 0.  1.
        -12    1    3    3    0    0 -0.11952899946E+01  0.30485513146E+01 -0.34800178673E+01  0.47783791860E+01  0.00000000000E+00 0.  1.
</event>
<event>
 7    1  0.5477221E-009  0.4778727E+02  0.7816164E-02  0.1312668E+00
        -11   -1    0    0    0    0  0.00000000000E+00  0.00000000000E+00  0.45593999997E+02  0.45594000000E+02  0.51100000000E-03 0. -1.
         11   -1    0    0    0    0 -0.00000000000E+00 -0.00000000000E+00 -0.45593999997E+02  0.45594000000E+02  0.51100000000E-03 0.  1.
    9900012    2    1    2    0    0  0.10913659762E+02 -0.19393868006E+02  0.37261147107E+02  0.47787272249E+02  0.20000005490E+02 0.  0.
        -12    1    1    2    0    0 -0.10913659762E+02  0.19393868006E+02 -0.37261147107E+02  0.43400727751E+02  0.00000000000E+00 0.  1.
         11    1    3    3    0    0  0.76338846248E+00 -0.12016320965E+02  0.24350835995E+02  0.27165013260E+02  0.51100000000E-03 0. -1.
        -11    1    3    3    0    0  0.72471031983E+01 -0.43061756691E+01  0.13923135028E+02  0.16276281606E+02  0.51100000000E-03 0.  1.
        -12    1    3    3    0    0  0.29031681013E+01 -0.30713713720E+01 -0.10128239157E+01  0.43459773829E+01  0.00000000000E+00 0.  1.
</event>
<event>
 7    1  0.4031943E-009  0.4778727E+02  0.7816164E-02  0.1312668E+00
        -11   -1    0    0    0    0  0.00000000000E+00  0.00000000000E+00  0.45593999997E+02  0.45594000000E+02  0.51100000000E-03 0.  1.
         11   -1    0    0    0    0 -0.00000000000E+00 -0.00000000000E+00 -0.45593999997E+02  0.45594000000E+02  0.51100000000E-03 0. -1.
    9900012    2    1    2    0    0 -0.38934590080E+02 -0.47902845986E+01 -0.18568099163E+02  0.47787269157E+02  0.19999991392E+02 0.  0.
        -12    1    1    2    0    0  0.38934590080E+02  0.47902845986E+01  0.18568099163E+02  0.43400730843E+02  0.00000000000E+00 0.  1.
         11    1    3    3    0    0 -0.19891976102E+02  0.27483512295E+01 -0.12468301019E+02  0.23636892314E+02  0.51100000000E-03 0. -1.
        -11    1    3    3    0    0  0.14952785881E+01 -0.10248032616E+01 -0.30099287416E+00  0.18375736046E+01  0.51100000000E-03 0.  1.
         12    1    3    3    0    0 -0.20537892566E+02 -0.65138325666E+01 -0.57988052699E+01  0.22312803238E+02  0.00000000000E+00 0. -1.
</event>
<event>
 7    1  0.4031943E-009  0.4778727E+02  0.7816164E-02  0.1312668E+00
        -11   -1    0    0    0    0  0.00000000000E+00  0.00000000000E+00  0.45593999997E+02  0.45594000000E+02  0.51100000000E-03 0.  1.
         11   -1    0    0    0    0 -0.00000000000E+00 -0.00000000000E+00 -0.45593999997E+02  0.45594000000E+02  0.51100000000E-03 0. -1.
    9900012    2    1    2    0    0 -0.66847548100E+01 -0.42829205835E+02 -0.21438729550E+01  0.47787274078E+02  0.20000013830E+02 0.  0.
        -12    1    1    2    0    0  0.66847548100E+01  0.42829205835E+02  0.21438729550E+01  0.43400725922E+02  0.00000000000E+00 0.  1.
         11    1    3    3    0    0  0.10352274874E+01 -0.14944460457E+02  0.30895003009E+01  0.15295542053E+02  0.51100000000E-03 0. -1.
        -11    1    3    3    0    0  0.24715914271E+01 -0.15770908468E+01  0.17673116150E+01  0.34233565878E+01  0.51100000000E-03 0.  1.
         12    1    3    3    0    0 -0.10191573724E+02 -0.26307654531E+02 -0.70006848710E+01  0.29068375437E+02  0.00000000000E+00 0. -1.
</event>
<event>
 7    1  0.4031943E-009  0.4778727E+02  0.7816164E-02  0.1312668E+00
        -11   -1    0    0    0    0  0.00000000000E+00  0.00000000000E+00  0.45593999997E+02  0.45594000000E+02  0.51100000000E-03 0.  1.
         11   -1    0    0    0    0 -0.00000000000E+00 -0.00000000000E+00 -0.45593999997E+02  0.45594000000E+02  0.51100000000E-03 0. -1.
    9900012    2    1    2    0    0 -0.21842444280E+02 -0.45487111178E+01 -0.37226873272E+02  0.47787271452E+02  0.20000001856E+02 0.  0.
        -12    1    1    2    0    0  0.21842444280E+02  0.45487111178E+01  0.37226873272E+02  0.43400728548E+02  0.00000000000E+00 0.  1.
         11    1    3    3    0    0 -0.14871649019E+02 -0.10024863885E+01 -0.34807098669E+02  0.37864297716E+02  0.51100000000E-03 0. -1.
        -11    1    3    3    0    0 -0.27456410781E+01  0.77096418939E+00 -0.26288861121E+01  0.38786561026E+01  0.51100000000E-03 0.  1.
        -12    1    3    3    0    0 -0.42251541829E+01 -0.43171889187E+01  0.20911150917E+00  0.60443176333E+01  0.00000000000E+00 0.  1.
</event>
<event>
 7    1  0.4031943E-009  0.4778728E+02  0.7816164E-02  0.1312668E+00
        -11   -1    0    0    0    0  0.00000000000E+00  0.00000000000E+00  0.45593999997E+02  0.45594000000E+02  0.51100000000E-03 0.  1.
         11   -1    0    0    0    0 -0.00000000000E+00 -0.00000000000E+00 -0.45593999997E+02  0.45594000000E+02  0.51100000000E-03 0. -1.
    9900012    2    1    2    0    0 -0.38859703979E+02  0.86218706738E+01 -0.17297674459E+02  0.47787276631E+02  0.20000025471E+02 0.  0.
        -12    1    1    2    0    0  0.38859703979E+02 -0.86218706738E+01  0.17297674459E+02  0.43400723369E+02  0.00000000000E+00 0.  1.
         11    1    3    3    0    0 -0.16034006809E+02  0.11652433159E+02 -0.88933689321E+01  0.21724653832E+02  0.51100000000E-03 0. -1.
        -11    1    3    3    0    0 -0.13164497173E+01 -0.22579272663E-01 -0.35803749248E+01  0.38147915468E+01  0.51100000000E-03 0.  1.
        -12    1    3    3    0    0 -0.21509247453E+02 -0.30079832126E+01 -0.48239306020E+01  0.22247831253E+02  0.00000000000E+00 0.  1.
</event>
<event>
 7    1  0.4031943E-009  0.4778727E+02  0.7816164E-02  0.1312668E+00
        -11   -1    0    0    0    0  0.00000000000E+00  0.00000000000E+00  0.45593999997E+02  0.45594000000E+02  0.51100000000E-03 0. -1.
         11   -1    0    0    0    0 -0.00000000000E+00 -0.00000000000E+00 -0.45593999997E+02  0.45594000000E+02  0.51100000000E-03 0.  1.
    9900012    2    1    2    0    0  0.19867076276E+02 -0.35008254792E+02  0.16227893884E+02  0.47787272319E+02  0.20000005810E+02 0.  0.
        -12    1    1    2    0    0 -0.19867076276E+02  0.35008254792E+02 -0.16227893884E+02  0.43400727681E+02  0.00000000000E+00 0.  1.
         11    1    3    3    0    0  0.97329016082E+01 -0.74630955745E+01  0.50652573010E+01  0.13269664693E+02  0.51100000000E-03 0.  1.
        -11    1    3    3    0    0  0.79333031513E+01 -0.39351337794E+01  0.42201950761E+01  0.98098228064E+01  0.51100000000E-03 0. -1.
        -12    1    3    3    0    0  0.22008715168E+01 -0.23610025438E+02  0.69424415068E+01  0.24707784820E+02  0.00000000000E+00 0.  1.
</event>
<event>
 7    1  0.4031943E-009  0.4778727E+02  0.7816164E-02  0.1312668E+00
        -11   -1    0    0    0    0  0.00000000000E+00  0.00000000000E+00  0.45593999997E+02  0.45594000000E+02  0.51100000000E-03 0.  1.
         11   -1    0    0    0    0 -0.00000000000E+00 -0.00000000000E+00 -0.45593999997E+02  0.45594000000E+02  0.51100000000E-03 0. -1.
    9900012    2    1    2    0    0  0.18919425394E+02 -0.51881171278E+01 -0.38713845265E+02  0.47787273834E+02  0.20000012718E+02 0.  0.
        -12    1    1    2    0    0 -0.18919425394E+02  0.51881171278E+01  0.38713845265E+02  0.43400726166E+02  0.00000000000E+00 0.  1.
         11    1    3    3    0    0  0.18055671950E+02 -0.76746534746E+01 -0.31777093114E+02  0.37345565233E+02  0.51100000000E-03 0. -1.
        -11    1    3    3    0    0 -0.58912900610E+00 -0.34734427949E+00 -0.72128050227E+01  0.72451554566E+01  0.51100000000E-03 0.  1.
         12    1    3    3    0    0  0.14528824492E+01  0.28338806263E+01  0.27605287166E+00  0.31965531441E+01  0.00000000000E+00 0. -1.
</event>
<event>
 7    1  0.4031943E-009  0.4778726E+02  0.7816164E-02  0.1312668E+00
        -11   -1    0    0    0    0  0.00000000000E+00  0.00000000000E+00  0.45593999997E+02  0.45594000000E+02  0.51100000000E-03 0.  1.
         11   -1    0    0    0    0 -0.00000000000E+00 -0.00000000000E+00 -0.45593999997E+02  0.45594000000E+02  0.51100000000E-03 0. -1.
    9900012    2    1    2    0    0 -0.19271648500E+02  0.38332869323E+02 -0.65436037017E+01  0.47787262035E+02  0.19999958924E+02 0.  0.
        -12    1    1    2    0    0  0.19271648500E+02 -0.38332869323E+02  0.65436037017E+01  0.43400737965E+02  0.00000000000E+00 0.  1.
         11    1    3    3    0    0 -0.90612065096E+01  0.12835371880E+02 -0.43372794171E+01  0.16299209420E+02  0.51100000000E-03 0.  1.
        -11    1    3    3    0    0 -0.11415563709E+02  0.91697403702E+01 -0.35318515326E+01  0.15062310870E+02  0.51100000000E-03 0. -1.
         12    1    3    3    0    0  0.12051217184E+01  0.16327757073E+02  0.13255272481E+01  0.16425741745E+02  0.00000000000E+00 0. -1.
</event>
<event>
 7    1  0.4031943E-009  0.4778727E+02  0.7816164E-02  0.1312668E+00
        -11   -1    0    0    0    0  0.00000000000E+00  0.00000000000E+00  0.45593999997E+02  0.45594000000E+02  0.51100000000E-03 0.  1.
         11   -1    0    0    0    0 -0.00000000000E+00 -0.00000000000E+00 -0.45593999997E+02  0.45594000000E+02  0.51100000000E-03 0. -1.
    9900012    2    1    2    0    0  0.24602253466E+02 -0.18030779230E+02 -0.30874644088E+02  0.47787268177E+02  0.19999986925E+02 0.  0.
        -12    1    1    2    0    0 -0.24602253466E+02  0.18030779230E+02  0.30874644088E+02  0.43400731823E+02  0.00000000000E+00 0.  1.
         11    1    3    3    0    0  0.21385750579E+02 -0.17395644259E+02 -0.26423690493E+02  0.38185994639E+02  0.51100000000E-03 0. -1.
        -11    1    3    3    0    0  0.47960067298E+01  0.55984659560E+00 -0.55335794514E+01  0.73440867757E+01  0.51100000000E-03 0.  1.
         12    1    3    3    0    0 -0.15795038431E+01 -0.11949815668E+01  0.10826258564E+01  0.22571867623E+01  0.00000000000E+00 0. -1.
</event>
<event>
 7    1  0.4031943E-009  0.4778727E+02  0.7816164E-02  0.1312668E+00
        -11   -1    0    0    0    0  0.00000000000E+00  0.00000000000E+00  0.45593999997E+02  0.45594000000E+02  0.51100000000E-03 0. -1.
         11   -1    0    0    0    0 -0.00000000000E+00 -0.00000000000E+00 -0.45593999997E+02  0.45594000000E+02  0.51100000000E-03 0.  1.
    9900012    2    1    2    0    0  0.41725178808E+02 -0.71487720491E+01  0.95670205282E+01  0.47787269935E+02  0.19999994943E+02 0.  0.
        -12    1    1    2    0    0 -0.41725178808E+02  0.71487720491E+01 -0.95670205282E+01  0.43400730065E+02  0.00000000000E+00 0.  1.
         11    1    3    3    0    0  0.19471175237E+01  0.21916178324E+00 -0.33617322325E+01  0.38910849904E+01  0.51100000000E-03 0.  1.
        -11    1    3    3    0    0  0.69789074819E+00  0.13068224498E+01  0.18304006013E+01  0.23548254785E+01  0.51100000000E-03 0. -1.
         12    1    3    3    0    0  0.39080170536E+02 -0.86747562822E+01  0.11098352159E+02  0.41541359467E+02  0.00000000000E+00 0. -1.
</event>
<event>
 7    1  0.4031943E-009  0.4778726E+02  0.7816164E-02  0.1312668E+00
        -11   -1    0    0    0    0  0.00000000000E+00  0.00000000000E+00  0.45593999997E+02  0.45594000000E+02  0.51100000000E-03 0.  1.
         11   -1    0    0    0    0 -0.00000000000E+00 -0.00000000000E+00 -0.45593999997E+02  0.45594000000E+02  0.51100000000E-03 0. -1.
    9900012    2    1    2    0    0  0.13882448783E+02 -0.28391804033E+00 -0.41119593482E+02  0.47787263119E+02  0.19999963866E+02 0.  0.
        -12    1    1    2    0    0 -0.13882448783E+02  0.28391804033E+00  0.41119593482E+02  0.43400736881E+02  0.00000000000E+00 0.  1.
         11    1    3    3    0    0  0.24844566347E+01  0.32805274308E+01 -0.74537312225E+01  0.85142524271E+01  0.51100000000E-03 0. -1.
        -11    1    3    3    0    0 -0.31491410151E+00 -0.43711467033E+01 -0.22990938237E+02  0.23404899822E+02  0.51100000000E-03 0.  1.
         12    1    3    3    0    0  0.11712906250E+02  0.80670123210E+00 -0.10674924022E+02  0.15868110870E+02  0.00000000000E+00 0. -1.
</event>
<event>
 7    1  0.4031943E-009  0.4778728E+02  0.7816164E-02  0.1312668E+00
        -11   -1    0    0    0    0  0.00000000000E+00  0.00000000000E+00  0.45593999997E+02  0.45594000000E+02  0.51100000000E-03 0.  1.
         11   -1    0    0    0    0 -0.00000000000E+00 -0.00000000000E+00 -0.45593999997E+02  0.45594000000E+02  0.51100000000E-03 0. -1.
    9900012    2    1    2    0    0 -0.35503915311E+02  0.23855708615E+02 -0.73484554298E+01  0.47787278426E+02  0.20000033654E+02 0.  0.
        -12    1    1    2    0    0  0.35503915311E+02 -0.23855708615E+02  0.73484554298E+01  0.43400721574E+02  0.00000000000E+00 0.  1.
         11    1    3    3    0    0 -0.16542956980E+01  0.52628953358E+01 -0.40746136119E+01  0.68583699171E+01  0.51100000000E-03 0. -1.
        -11    1    3    3    0    0 -0.28737361487E+01  0.11148112128E+01 -0.43672455230E+01  0.53454651072E+01  0.51100000000E-03 0.  1.
        -12    1    3    3    0    0 -0.30975883464E+02  0.17478002067E+02  0.10934037051E+01  0.35583443402E+02  0.00000000000E+00 0.  1.
</event>
<event>
 7    1  0.4031943E-009  0.4778727E+02  0.7816164E-02  0.1312668E+00
        -11   -1    0    0    0    0  0.00000000000E+00  0.00000000000E+00  0.45593999997E+02  0.45594000000E+02  0.51100000000E-03 0.  1.
         11   -1    0    0    0    0 -0.00000000000E+00 -0.00000000000E+00 -0.45593999997E+02  0.45594000000E+02  0.51100000000E-03 0. -1.
    9900012    2    1    2    0    0 -0.29786284989E+02  0.16276443294E+01  0.31523816918E+02  0.47787273824E+02  0.20000012675E+02 0.  0.
        -12    1    1    2    0    0  0.29786284989E+02 -0.16276443294E+01 -0.31523816918E+02  0.43400726176E+02  0.00000000000E+00 0.  1.
         11    1    3    3    0    0 -0.70775419210E+01  0.11114040529E+01  0.65247102391E+00  0.71939236381E+01  0.51100000000E-03 0. -1.
        -11    1    3    3    0    0  0.67086275436E+00  0.25885144704E+01  0.17718996830E+01  0.32078174428E+01  0.51100000000E-03 0.  1.
         12    1    3    3    0    0 -0.23379605822E+02 -0.20722741940E+01  0.29099446211E+02  0.37385532744E+02  0.00000000000E+00 0. -1.
</event>
<event>
 7    1  0.4031943E-009  0.4778727E+02  0.7816164E-02  0.1312668E+00
        -11   -1    0    0    0    0  0.00000000000E+00  0.00000000000E+00  0.45593999997E+02  0.45594000000E+02  0.51100000000E-03 0.  1.
         11   -1    0    0    0    0 -0.00000000000E+00 -0.00000000000E+00 -0.45593999997E+02  0.45594000000E+02  0.51100000000E-03 0. -1.
    9900012    2    1    2    0    0  0.37590387789E+02  0.21059796079E+02 -0.52029767534E+01  0.47787271526E+02  0.20000002194E+02 0.  0.
        -12    1    1    2    0    0 -0.37590387789E+02 -0.21059796079E+02  0.52029767534E+01  0.43400728474E+02  0.00000000000E+00 0.  1.
         11    1    3    3    0    0  0.42074498476E+01  0.18859725027E+01  0.15828240657E+01  0.48749214132E+01  0.51100000000E-03 0. -1.
        -11    1    3    3    0    0  0.29413018196E+02  0.22591592481E+02 -0.52800013534E+01  0.37461768575E+02  0.51100000000E-03 0.  1.
         12    1    3    3    0    0  0.39699197448E+01 -0.34177689043E+01 -0.15057994658E+01  0.54505815372E+01  0.00000000000E+00 0. -1.
</event>
<event>
 7    1  0.4031943E-009  0.4778727E+02  0.7816164E-02  0.1312668E+00
        -11   -1    0    0    0    0  0.00000000000E+00  0.00000000000E+00  0.45593999997E+02  0.45594000000E+02  0.51100000000E-03 0.  1.
         11   -1    0    0    0    0 -0.00000000000E+00 -0.00000000000E+00 -0.45593999997E+02  0.45594000000E+02  0.51100000000E-03 0. -1.
    9900012    2    1    2    0    0 -0.20242441438E+02  0.30736151605E+02 -0.23003383043E+02  0.47787273252E+02  0.20000010064E+02 0.  0.
        -12    1    1    2    0    0  0.20242441438E+02 -0.30736151605E+02  0.23003383043E+02  0.43400726748E+02  0.00000000000E+00 0.  1.
         11    1    3    3    0    0 -0.70308459606E+01  0.80737195176E+01 -0.11415693814E+01  0.10766657916E+02  0.51100000000E-03 0. -1.
        -11    1    3    3    0    0  0.29314784121E+01  0.22820207915E+01 -0.15398141917E+01  0.40214689579E+01  0.51100000000E-03 0.  1.
         12    1    3    3    0    0 -0.16143073890E+02  0.20380411296E+02 -0.20321999470E+02  0.32999146378E+02  0.00000000000E+00 0. -1.
</event>
<event>
 7    1  0.4031943E-009  0.4778727E+02  0.7816164E-02  0.1312668E+00
        -11   -1    0    0    0    0  0.00000000000E+00  0.00000000000E+00  0.45593999997E+02  0.45594000000E+02  0.51100000000E-03 0.  1.
         11   -1    0    0    0    0 -0.00000000000E+00 -0.00000000000E+00 -0.45593999997E+02  0.45594000000E+02  0.51100000000E-03 0. -1.
    9900012    2    1    2    0    0 -0.27905220425E+02 -0.35261514455E+01 -0.33052811826E+02  0.47787269123E+02  0.19999991241E+02 0.  0.
        -12    1    1    2    0    0  0.27905220425E+02  0.35261514455E+01  0.33052811826E+02  0.43400730877E+02  0.00000000000E+00 0.  1.
         11    1    3    3    0    0 -0.45432464154E+01  0.38788991028E+01 -0.83440424877E-01  0.59744379490E+01  0.51100000000E-03 0. -1.
        -11    1    3    3    0    0 -0.24641231148E+01 -0.10862174908E+01 -0.58370249015E+00  0.27554455212E+01  0.51100000000E-03 0.  1.
        -12    1    3    3    0    0 -0.20897850895E+02 -0.63188330574E+01 -0.32385668911E+02  0.39057385653E+02  0.00000000000E+00 0.  1.
</event>
<event>
 7    1  0.4031943E-009  0.4778727E+02  0.7816164E-02  0.1312668E+00
        -11   -1    0    0    0    0  0.00000000000E+00  0.00000000000E+00  0.45593999997E+02  0.45594000000E+02  0.51100000000E-03 0.  1.
         11   -1    0    0    0    0 -0.00000000000E+00 -0.00000000000E+00 -0.45593999997E+02  0.45594000000E+02  0.51100000000E-03 0. -1.
    9900012    2    1    2    0    0  0.30027312925E+02  0.23616500854E+02 -0.20597201815E+02  0.47787270090E+02  0.19999995651E+02 0.  0.
        -12    1    1    2    0    0 -0.30027312925E+02 -0.23616500854E+02  0.20597201815E+02  0.43400729910E+02  0.00000000000E+00 0.  1.
         11    1    3    3    0    0  0.49599001674E+01 -0.10568678313E+01  0.55553973925E+00  0.51015883749E+01  0.51100000000E-03 0. -1.
        -11    1    3    3    0    0 -0.51295482916E+00  0.68289317028E+00  0.91398327036E+00  0.12509322197E+01  0.51100000000E-03 0.  1.
         12    1    3    3    0    0  0.25580367586E+02  0.23990475515E+02 -0.22066724825E+02  0.41434749496E+02  0.00000000000E+00 0. -1.
</event>
<event>
 7    1  0.4031943E-009  0.4778729E+02  0.7816164E-02  0.1312668E+00
        -11   -1    0    0    0    0  0.00000000000E+00  0.00000000000E+00  0.45593999997E+02  0.45594000000E+02  0.51100000000E-03 0.  1.
         11   -1    0    0    0    0 -0.00000000000E+00 -0.00000000000E+00 -0.45593999997E+02  0.45594000000E+02  0.51100000000E-03 0. -1.
    9900012    2    1    2    0    0 -0.40090807414E+02 -0.16596535151E+02  0.95055414454E+00  0.47787292963E+02  0.20000099933E+02 0.  0.
        -12    1    1    2    0    0  0.40090807414E+02  0.16596535151E+02 -0.95055414454E+00  0.43400707037E+02  0.00000000000E+00 0.  1.
         11    1    3    3    0    0 -0.22930178238E+02 -0.49303840089E+01  0.45590968146E+01  0.23893244328E+02  0.51100000000E-03 0. -1.
        -11    1    3    3    0    0 -0.11444878281E+02 -0.98191927836E+01  0.25469258877E+01  0.15293417458E+02  0.51100000000E-03 0.  1.
         12    1    3    3    0    0 -0.57157508955E+01 -0.18469583586E+01 -0.61554685577E+01  0.86006311770E+01  0.00000000000E+00 0. -1.
</event>
<event>
 7    1  0.4031943E-009  0.4778727E+02  0.7816164E-02  0.1312668E+00
        -11   -1    0    0    0    0  0.00000000000E+00  0.00000000000E+00  0.45593999997E+02  0.45594000000E+02  0.51100000000E-03 0. -1.
         11   -1    0    0    0    0 -0.00000000000E+00 -0.00000000000E+00 -0.45593999997E+02  0.45594000000E+02  0.51100000000E-03 0.  1.
    9900012    2    1    2    0    0 -0.56376689068E+01 -0.88356880269E+01  0.42116156045E+02  0.47787270817E+02  0.19999998964E+02 0.  0.
        -12    1    1    2    0    0  0.56376689068E+01  0.88356880269E+01 -0.42116156045E+02  0.43400729183E+02  0.00000000000E+00 0.  1.
         11    1    3    3    0    0 -0.44016390860E+01 -0.27133924787E+01  0.14205313219E+02  0.15117137603E+02  0.51100000000E-03 0. -1.
        -11    1    3    3    0    0 -0.79574011950E+01 -0.37863440708E+01  0.96313033748E+01  0.13054449056E+02  0.51100000000E-03 0.  1.
        -12    1    3    3    0    0  0.67213713742E+01 -0.23359514773E+01  0.18279539451E+02  0.19615684158E+02  0.00000000000E+00 0.  1.
</event>
<event>
 7    1  0.4031943E-009  0.4778727E+02  0.7816164E-02  0.1312668E+00
        -11   -1    0    0    0    0  0.00000000000E+00  0.00000000000E+00  0.45593999997E+02  0.45594000000E+02  0.51100000000E-03 0.  1.
         11   -1    0    0    0    0 -0.00000000000E+00 -0.00000000000E+00 -0.45593999997E+02  0.45594000000E+02  0.51100000000E-03 0. -1.
    9900012    2    1    2    0    0  0.36143991335E+02  0.21823460514E+02 -0.10048490474E+02  0.47787266144E+02  0.19999977656E+02 0.  0.
        -12    1    1    2    0    0 -0.36143991335E+02 -0.21823460514E+02  0.10048490474E+02  0.43400733856E+02  0.00000000000E+00 0.  1.
         11    1    3    3    0    0  0.22278913249E+02  0.16811992111E+02 -0.10932891665E+02  0.29975342779E+02  0.51100000000E-03 0. -1.
        -11    1    3    3    0    0  0.10578559473E+02  0.65672802683E+01 -0.26619911941E+01  0.12732685813E+02  0.51100000000E-03 0.  1.
        -12    1    3    3    0    0  0.32865186131E+01 -0.15558118650E+01  0.35463923851E+01  0.50792375513E+01  0.00000000000E+00 0.  1.
</event>
<event>
 7    1  0.4031943E-009  0.4778727E+02  0.7816164E-02  0.1312668E+00
        -11   -1    0    0    0    0  0.00000000000E+00  0.00000000000E+00  0.45593999997E+02  0.45594000000E+02  0.51100000000E-03 0.  1.
         11   -1    0    0    0    0 -0.00000000000E+00 -0.00000000000E+00 -0.45593999997E+02  0.45594000000E+02  0.51100000000E-03 0. -1.
    9900012    2    1    2    0    0  0.26310238465E+02 -0.11721000058E+02 -0.32465560357E+02  0.47787273050E+02  0.20000009146E+02 0.  0.
        -12    1    1    2    0    0 -0.26310238465E+02  0.11721000058E+02  0.32465560357E+02  0.43400726950E+02  0.00000000000E+00 0.  1.
         11    1    3    3    0    0  0.56831064992E+01  0.20975101516E+01 -0.31698696617E+01  0.68370550861E+01  0.51100000000E-03 0. -1.
        -11    1    3    3    0    0  0.17934151113E+00  0.18239898803E+01  0.14763101471E+00  0.18387217404E+01  0.51100000000E-03 0.  1.
         12    1    3    3    0    0  0.20447790455E+02 -0.15642500090E+02 -0.29443321710E+02  0.39111496224E+02  0.00000000000E+00 0. -1.
</event>
<event>
 7    1  0.4031943E-009  0.4778728E+02  0.7816164E-02  0.1312668E+00
        -11   -1    0    0    0    0  0.00000000000E+00  0.00000000000E+00  0.45593999997E+02  0.45594000000E+02  0.51100000000E-03 0.  1.
         11   -1    0    0    0    0 -0.00000000000E+00 -0.00000000000E+00 -0.45593999997E+02  0.45594000000E+02  0.51100000000E-03 0. -1.
    9900012    2    1    2    0    0 -0.18546671704E+02  0.23680445129E+02 -0.31287063493E+02  0.47787275872E+02  0.20000022012E+02 0.  0.
        -12    1    1    2    0    0  0.18546671704E+02 -0.23680445129E+02  0.31287063493E+02  0.43400724128E+02  0.00000000000E+00 0.  1.
         11    1    3    3    0    0  0.62117887697E+00  0.68856546623E+01 -0.54759786285E+00  0.69352697861E+01  0.51100000000E-03 0.  1.
        -11    1    3    3    0    0 -0.25926791542E+01  0.50980073911E+01 -0.11733036062E+02  0.13052808129E+02  0.51100000000E-03 0. -1.
        -12    1    3    3    0    0 -0.16575171427E+02  0.11696783076E+02 -0.19006429568E+02  0.27799197957E+02  0.00000000000E+00 0.  1.
</event>
<event>
 7    1  0.4031943E-009  0.4778727E+02  0.7816164E-02  0.1312668E+00
        -11   -1    0    0    0    0  0.00000000000E+00  0.00000000000E+00  0.45593999997E+02  0.45594000000E+02  0.51100000000E-03 0.  1.
         11   -1    0    0    0    0 -0.00000000000E+00 -0.00000000000E+00 -0.45593999997E+02  0.45594000000E+02  0.51100000000E-03 0. -1.
    9900012    2    1    2    0    0 -0.10052242567E+02  0.23001852958E+02 -0.35404668711E+02  0.47787269745E+02  0.19999994076E+02 0.  0.
        -12    1    1    2    0    0  0.10052242567E+02 -0.23001852958E+02  0.35404668711E+02  0.43400730255E+02  0.00000000000E+00 0.  1.
         11    1    3    3    0    0 -0.13348885352E+02  0.16788457290E+02 -0.22548701914E+02  0.31120555852E+02  0.51100000000E-03 0. -1.
        -11    1    3    3    0    0 -0.13997928954E+01  0.16454694643E+01 -0.85692940942E+01  0.88374086384E+01  0.51100000000E-03 0.  1.
        -12    1    3    3    0    0  0.46964356804E+01  0.45679262033E+01 -0.42866727034E+01  0.78293052543E+01  0.00000000000E+00 0.  1.
</event>
<event>
 7    1  0.4031943E-009  0.4778728E+02  0.7816164E-02  0.1312668E+00
        -11   -1    0    0    0    0  0.00000000000E+00  0.00000000000E+00  0.45593999997E+02  0.45594000000E+02  0.51100000000E-03 0.  1.
         11   -1    0    0    0    0 -0.00000000000E+00 -0.00000000000E+00 -0.45593999997E+02  0.45594000000E+02  0.51100000000E-03 0. -1.
    9900012    2    1    2    0    0 -0.17124717930E+02  0.12074968242E+02 -0.38007395193E+02  0.47787275218E+02  0.20000019027E+02 0.  0.
        -12    1    1    2    0    0  0.17124717930E+02 -0.12074968242E+02  0.38007395193E+02  0.43400724782E+02  0.00000000000E+00 0.  1.
         11    1    3    3    0    0 -0.11413554679E+02  0.87781708260E+01 -0.11826695511E+02  0.18633202635E+02  0.51100000000E-03 0. -1.
        -11    1    3    3    0    0 -0.25784207613E+00  0.60639421909E+01 -0.84909239915E+01  0.10437129295E+02  0.51100000000E-03 0.  1.
         12    1    3    3    0    0 -0.54533211750E+01 -0.27671447744E+01 -0.17689775691E+02  0.18716943288E+02  0.00000000000E+00 0. -1.
</event>
<event>
 7    1  0.4031943E-009  0.4778727E+02  0.7816164E-02  0.1312668E+00
        -11   -1    0    0    0    0  0.00000000000E+00  0.00000000000E+00  0.45593999997E+02  0.45594000000E+02  0.51100000000E-03 0.  1.
         11   -1    0    0    0    0 -0.00000000000E+00 -0.00000000000E+00 -0.45593999997E+02  0.45594000000E+02  0.51100000000E-03 0. -1.
    9900012    2    1    2    0    0  0.83342271900E+00  0.35120413255E+02 -0.25484996445E+02  0.47787273458E+02  0.20000011002E+02 0.  0.
        -12    1    1    2    0    0 -0.83342271900E+00 -0.35120413255E+02  0.25484996445E+02  0.43400726542E+02  0.00000000000E+00 0.  1.
         11    1    3    3    0    0 -0.43167139303E+01  0.84362270577E+00 -0.30289525123E-01  0.43984811176E+01  0.51100000000E-03 0. -1.
        -11    1    3    3    0    0  0.34411841337E+01  0.69461852477E+01 -0.57926720553E+01  0.96771011950E+01  0.51100000000E-03 0.  1.
        -12    1    3    3    0    0  0.17089525156E+01  0.27330605301E+02 -0.19662034865E+02  0.33711691145E+02  0.00000000000E+00 0.  1.
</event>
<event>
 7    1  0.4031943E-009  0.4778727E+02  0.7816164E-02  0.1312668E+00
        -11   -1    0    0    0    0  0.00000000000E+00  0.00000000000E+00  0.45593999997E+02  0.45594000000E+02  0.51100000000E-03 0. -1.
         11   -1    0    0    0    0 -0.00000000000E+00 -0.00000000000E+00 -0.45593999997E+02  0.45594000000E+02  0.51100000000E-03 0.  1.
    9900012    2    1    2    0    0 -0.25422422184E+02  0.34819213339E+02  0.49945836086E+01  0.47787273823E+02  0.20000012670E+02 0.  0.
        -12    1    1    2    0    0  0.25422422184E+02 -0.34819213339E+02 -0.49945836086E+01  0.43400726177E+02  0.00000000000E+00 0.  1.
         11    1    3    3    0    0 -0.12511526055E+02  0.75615316290E+01 -0.21561137834E+01  0.14777140174E+02  0.51100000000E-03 0. -1.
        -11    1    3    3    0    0 -0.22978242832E+01  0.75137090679E+01 -0.29906285708E+01  0.84071207856E+01  0.51100000000E-03 0.  1.
         12    1    3    3    0    0 -0.10613071845E+02  0.19743972642E+02  0.10141325963E+02  0.24603012864E+02  0.00000000000E+00 0. -1.
</event>
<event>
 7    1  0.4031943E-009  0.4778726E+02  0.7816164E-02  0.1312668E+00
        -11   -1    0    0    0    0  0.00000000000E+00  0.00000000000E+00  0.45593999997E+02  0.45594000000E+02  0.51100000000E-03 0.  1.
         11   -1    0    0    0    0 -0.00000000000E+00 -0.00000000000E+00 -0.45593999997E+02  0.45594000000E+02  0.51100000000E-03 0. -1.
    9900012    2    1    2    0    0 -0.21815256937E+02 -0.23108621190E+02 -0.29558592103E+02  0.47787260656E+02  0.19999952633E+02 0.  0.
        -12    1    1    2    0    0  0.21815256937E+02  0.23108621190E+02  0.29558592103E+02  0.43400739344E+02  0.00000000000E+00 0.  1.
         11    1    3    3    0    0 -0.99941290709E+01 -0.79945222140E+01 -0.56603673535E+01  0.13994097333E+02  0.51100000000E-03 0. -1.
        -11    1    3    3    0    0 -0.50185812160E+01 -0.34654586145E+01  0.28135662597E+00  0.61053028297E+01  0.51100000000E-03 0.  1.
        -12    1    3    3    0    0 -0.68025466499E+01 -0.11648640362E+02 -0.24179581375E+02  0.27687860493E+02  0.00000000000E+00 0.  1.
</event>
<event>
 7    1  0.4031943E-009  0.4778727E+02  0.7816164E-02  0.1312668E+00
        -11   -1    0    0    0    0  0.00000000000E+00  0.00000000000E+00  0.45593999997E+02  0.45594000000E+02  0.51100000000E-03 0.  1.
         11   -1    0    0    0    0 -0.00000000000E+00 -0.00000000000E+00 -0.45593999997E+02  0.45594000000E+02  0.51100000000E-03 0. -1.
    9900012    2    1    2    0    0  0.14776902794E+02 -0.14668630970E+02 -0.38080148192E+02  0.47787271009E+02  0.19999999836E+02 0.  0.
        -12    1    1    2    0    0 -0.14776902794E+02  0.14668630970E+02  0.38080148192E+02  0.43400728991E+02  0.00000000000E+00 0.  1.
         11    1    3    3    0    0  0.30966962147E+01  0.19149945064E+00 -0.43851404173E+01  0.53717461059E+01  0.51100000000E-03 0. -1.
        -11    1    3    3    0    0  0.24112575368E+00 -0.13493183001E+02 -0.13046422622E+02  0.18770542683E+02  0.51100000000E-03 0.  1.
        -12    1    3    3    0    0  0.11439080825E+02 -0.13669474196E+01 -0.20648585152E+02  0.23644982220E+02  0.00000000000E+00 0.  1.
</event>
<event>
 7    1  0.4031943E-009  0.4778727E+02  0.7816164E-02  0.1312668E+00
        -11   -1    0    0    0    0  0.00000000000E+00  0.00000000000E+00  0.45593999997E+02  0.45594000000E+02  0.51100000000E-03 0.  1.
         11   -1    0    0    0    0 -0.00000000000E+00 -0.00000000000E+00 -0.45593999997E+02  0.45594000000E+02  0.51100000000E-03 0. -1.
    9900012    2    1    2    0    0  0.65943758030E+01 -0.21985975494E+01 -0.42840444150E+02  0.47787270993E+02  0.19999999765E+02 0.  0.
        -12    1    1    2    0    0 -0.65943758030E+01  0.21985975494E+01  0.42840444150E+02  0.43400729007E+02  0.00000000000E+00 0.  1.
         11    1    3    3    0    0 -0.26859555487E+01 -0.23529600085E+01 -0.69091903843E+01  0.77773832386E+01  0.51100000000E-03 0. -1.
        -11    1    3    3    0    0  0.15154998085E+01  0.68717380057E+01 -0.11136472402E+02  0.13173402777E+02  0.51100000000E-03 0.  1.
         12    1    3    3    0    0  0.77648315432E+01 -0.67173755465E+01 -0.24794781363E+02  0.26836484978E+02  0.00000000000E+00 0. -1.
</event>
<event>
 7    1  0.4031943E-009  0.4778727E+02  0.7816164E-02  0.1312668E+00
        -11   -1    0    0    0    0  0.00000000000E+00  0.00000000000E+00  0.45593999997E+02  0.45594000000E+02  0.51100000000E-03 0.  1.
         11   -1    0    0    0    0 -0.00000000000E+00 -0.00000000000E+00 -0.45593999997E+02  0.45594000000E+02  0.51100000000E-03 0. -1.
    9900012    2    1    2    0    0  0.36351492826E+01 -0.43033267903E+02 -0.43065972794E+01  0.47787271471E+02  0.20000001944E+02 0.  0.
        -12    1    1    2    0    0 -0.36351492826E+01  0.43033267903E+02  0.43065972794E+01  0.43400728529E+02  0.00000000000E+00 0.  1.
         11    1    3    3    0    0  0.56435962314E+01 -0.17430683665E+02 -0.88131240516E+01  0.20331012450E+02  0.51100000000E-03 0. -1.
        -11    1    3    3    0    0 -0.31466931938E+01 -0.10852165909E+02 -0.16747113768E+01  0.11422602218E+02  0.51100000000E-03 0.  1.
        -12    1    3    3    0    0  0.11382462450E+01 -0.14750418330E+02  0.61812381491E+01  0.16033656803E+02  0.00000000000E+00 0.  1.
</event>
<event>
 7    1  0.4031943E-009  0.4778726E+02  0.7816164E-02  0.1312668E+00
        -11   -1    0    0    0    0  0.00000000000E+00  0.00000000000E+00  0.45593999997E+02  0.45594000000E+02  0.51100000000E-03 0.  1.
         11   -1    0    0    0    0 -0.00000000000E+00 -0.00000000000E+00 -0.45593999997E+02  0.45594000000E+02  0.51100000000E-03 0. -1.
    9900012    2    1    2    0    0  0.26356043831E+02  0.81032947433E+00 -0.34472107848E+02  0.47787263833E+02  0.19999967122E+02 0.  0.
        -12    1    1    2    0    0 -0.26356043831E+02 -0.81032947433E+00  0.34472107848E+02  0.43400736167E+02  0.00000000000E+00 0.  1.
         11    1    3    3    0    0  0.26394355798E+01 -0.16101949791E+01 -0.91655040206E+01  0.96729422754E+01  0.51100000000E-03 0. -1.
        -11    1    3    3    0    0  0.79201701779E+01 -0.65907229411E+01 -0.96585944140E+01  0.14122859868E+02  0.51100000000E-03 0.  1.
        -12    1    3    3    0    0  0.15796438073E+02  0.90112473945E+01 -0.15648009414E+02  0.23991461690E+02  0.00000000000E+00 0.  1.
</event>
<event>
 7    1  0.4031943E-009  0.4778728E+02  0.7816164E-02  0.1312668E+00
        -11   -1    0    0    0    0  0.00000000000E+00  0.00000000000E+00  0.45593999997E+02  0.45594000000E+02  0.51100000000E-03 0.  1.
         11   -1    0    0    0    0 -0.00000000000E+00 -0.00000000000E+00 -0.45593999997E+02  0.45594000000E+02  0.51100000000E-03 0. -1.
    9900012    2    1    2    0    0  0.27517398894E+02  0.95685243921E+01 -0.32169223254E+02  0.47787276207E+02  0.20000023540E+02 0.  0.
        -12    1    1    2    0    0 -0.27517398894E+02 -0.95685243921E+01  0.32169223254E+02  0.43400723793E+02  0.00000000000E+00 0.  1.
         11    1    3    3    0    0 -0.83262317784E+00  0.39102312320E+00 -0.16981390516E+01  0.19312785762E+01  0.51100000000E-03 0. -1.
        -11    1    3    3    0    0  0.77403445214E+01 -0.47268840789E+01 -0.54372161730E+01  0.10574482795E+02  0.51100000000E-03 0.  1.
         12    1    3    3    0    0  0.20609677551E+02  0.13904385348E+02 -0.25033868029E+02  0.35281514837E+02  0.00000000000E+00 0. -1.
</event>
<event>
 7    1  0.4031943E-009  0.4778727E+02  0.7816164E-02  0.1312668E+00
        -11   -1    0    0    0    0  0.00000000000E+00  0.00000000000E+00  0.45593999997E+02  0.45594000000E+02  0.51100000000E-03 0.  1.
         11   -1    0    0    0    0 -0.00000000000E+00 -0.00000000000E+00 -0.45593999997E+02  0.45594000000E+02  0.51100000000E-03 0. -1.
    9900012    2    1    2    0    0  0.43368213264E+01  0.30537183662E+01 -0.43075399618E+02  0.47787271120E+02  0.20000000344E+02 0.  0.
        -12    1    1    2    0    0 -0.43368213264E+01 -0.30537183662E+01  0.43075399618E+02  0.43400728880E+02  0.00000000000E+00 0.  1.
         11    1    3    3    0    0 -0.50960168728E+01  0.35282430867E+00 -0.50366346763E+01  0.71736714508E+01  0.51100000000E-03 0. -1.
        -11    1    3    3    0    0  0.41126262376E+01  0.22110909644E+01 -0.39713375102E+01  0.61297748494E+01  0.51100000000E-03 0.  1.
         12    1    3    3    0    0  0.53202119616E+01  0.48980309317E+00 -0.34067427431E+02  0.34483824820E+02  0.00000000000E+00 0. -1.
</event>
<event>
 7    1  0.4031943E-009  0.4778727E+02  0.7816164E-02  0.1312668E+00
        -11   -1    0    0    0    0  0.00000000000E+00  0.00000000000E+00  0.45593999997E+02  0.45594000000E+02  0.51100000000E-03 0. -1.
         11   -1    0    0    0    0 -0.00000000000E+00 -0.00000000000E+00 -0.45593999997E+02  0.45594000000E+02  0.51100000000E-03 0.  1.
    9900012    2    1    2    0    0  0.31993432076E+02 -0.31343727025E+01  0.29158520120E+02  0.47787270929E+02  0.19999999476E+02 0.  0.
        -12    1    1    2    0    0 -0.31993432076E+02  0.31343727025E+01 -0.29158520120E+02  0.43400729071E+02  0.00000000000E+00 0.  1.
         11    1    3    3    0    0 -0.10411354337E+01  0.90463602633E-01  0.52746542836E+01  0.53771855768E+01  0.51100000000E-03 0. -1.
        -11    1    3    3    0    0  0.15484758599E+02  0.17696571712E+01  0.16581532541E+02  0.22756464072E+02  0.51100000000E-03 0.  1.
         12    1    3    3    0    0  0.17549808911E+02 -0.49944934764E+01  0.73023332955E+01  0.19653621281E+02  0.00000000000E+00 0. -1.
</event>
<event>
 7    1  0.4031943E-009  0.4778727E+02  0.7816164E-02  0.1312668E+00
        -11   -1    0    0    0    0  0.00000000000E+00  0.00000000000E+00  0.45593999997E+02  0.45594000000E+02  0.51100000000E-03 0.  1.
         11   -1    0    0    0    0 -0.00000000000E+00 -0.00000000000E+00 -0.45593999997E+02  0.45594000000E+02  0.51100000000E-03 0. -1.
    9900012    2    1    2    0    0 -0.36255039200E+02  0.15994565967E+02 -0.17702240459E+02  0.47787270454E+02  0.19999997306E+02 0.  0.
        -12    1    1    2    0    0  0.36255039200E+02 -0.15994565967E+02  0.17702240459E+02  0.43400729546E+02  0.00000000000E+00 0.  1.
         11    1    3    3    0    0 -0.10015377645E+02  0.42014909091E+01 -0.45664236907E+01  0.11781873400E+02  0.51100000000E-03 0. -1.
        -11    1    3    3    0    0 -0.22647652183E+01  0.75320299143E+01 -0.78000117472E+01  0.11077040202E+02  0.51100000000E-03 0.  1.
         12    1    3    3    0    0 -0.23974896337E+02  0.42610451437E+01 -0.53358050211E+01  0.24928356851E+02  0.00000000000E+00 0. -1.
</event>
<event>
 7    1  0.4031943E-009  0.4778727E+02  0.7816164E-02  0.1312668E+00
        -11   -1    0    0    0    0  0.00000000000E+00  0.00000000000E+00  0.45593999997E+02  0.45594000000E+02  0.51100000000E-03 0.  1.
         11   -1    0    0    0    0 -0.00000000000E+00 -0.00000000000E+00 -0.45593999997E+02  0.45594000000E+02  0.51100000000E-03 0. -1.
    9900012    2    1    2    0    0  0.23234414465E+02  0.16705818616E+02 -0.32629758082E+02  0.47787268397E+02  0.19999987928E+02 0.  0.
        -12    1    1    2    0    0 -0.23234414465E+02 -0.16705818616E+02  0.32629758082E+02  0.43400731603E+02  0.00000000000E+00 0.  1.
         11    1    3    3    0    0  0.64999050472E+01  0.18789613087E+01 -0.64776277319E+01  0.93669057066E+01  0.51100000000E-03 0.  1.
        -11    1    3    3    0    0 -0.33119895720E+01  0.26801806441E+01 -0.18142754991E+01  0.46307924870E+01  0.51100000000E-03 0. -1.
         12    1    3    3    0    0  0.20046498990E+02  0.12146676664E+02 -0.24337854851E+02  0.33789570203E+02  0.00000000000E+00 0. -1.
</event>
<event>
 7    1  0.4031943E-009  0.4778727E+02  0.7816164E-02  0.1312668E+00
        -11   -1    0    0    0    0  0.00000000000E+00  0.00000000000E+00  0.45593999997E+02  0.45594000000E+02  0.51100000000E-03 0.  1.
         11   -1    0    0    0    0 -0.00000000000E+00 -0.00000000000E+00 -0.45593999997E+02  0.45594000000E+02  0.51100000000E-03 0. -1.
    9900012    2    1    2    0    0 -0.36021034697E+02  0.11872287391E+02 -0.21098745003E+02  0.47787272020E+02  0.20000004446E+02 0.  0.
        -12    1    1    2    0    0  0.36021034697E+02 -0.11872287391E+02  0.21098745003E+02  0.43400727980E+02  0.00000000000E+00 0.  1.
         11    1    3    3    0    0  0.30621375821E+00  0.19511865270E+01 -0.27033256618E+01  0.33479644000E+01  0.51100000000E-03 0. -1.
        -11    1    3    3    0    0 -0.83960275255E+01 -0.73284927501E+00  0.14579884927E+01  0.85531325826E+01  0.51100000000E-03 0.  1.
         12    1    3    3    0    0 -0.27931220930E+02  0.10653950139E+02 -0.19853407834E+02  0.35886175037E+02  0.00000000000E+00 0. -1.
</event>
<event>
 7    1  0.4031943E-009  0.4778727E+02  0.7816164E-02  0.1312668E+00
        -11   -1    0    0    0    0  0.00000000000E+00  0.00000000000E+00  0.45593999997E+02  0.45594000000E+02  0.51100000000E-03 0. -1.
         11   -1    0    0    0    0 -0.00000000000E+00 -0.00000000000E+00 -0.45593999997E+02  0.45594000000E+02  0.51100000000E-03 0.  1.
    9900012    2    1    2    0    0  0.35186981069E+02 -0.19790294669E+02  0.15932479058E+02  0.47787270873E+02  0.19999999219E+02 0.  0.
        -12    1    1    2    0    0 -0.35186981069E+02  0.19790294669E+02 -0.15932479058E+02  0.43400729127E+02  0.00000000000E+00 0.  1.
         11    1    3    3    0    0  0.23379980813E+02 -0.77359295877E+01  0.13853937891E+02  0.28255967596E+02  0.51100000000E-03 0. -1.
        -11    1    3    3    0    0  0.75015424639E+01 -0.93939808131E+01  0.57034465140E+01  0.13305988022E+02  0.51100000000E-03 0.  1.
        -12    1    3    3    0    0  0.43054577917E+01 -0.26603842680E+01 -0.36249053473E+01  0.62253152552E+01  0.00000000000E+00 0.  1.
</event>
<event>
 7    1  0.4031943E-009  0.4778727E+02  0.7816164E-02  0.1312668E+00
        -11   -1    0    0    0    0  0.00000000000E+00  0.00000000000E+00  0.45593999997E+02  0.45594000000E+02  0.51100000000E-03 0.  1.
         11   -1    0    0    0    0 -0.00000000000E+00 -0.00000000000E+00 -0.45593999997E+02  0.45594000000E+02  0.51100000000E-03 0. -1.
    9900012    2    1    2    0    0 -0.18618464579E+02  0.15928755871E+02 -0.35822486833E+02  0.47787273626E+02  0.20000011770E+02 0.  0.
        -12    1    1    2    0    0  0.18618464579E+02 -0.15928755871E+02  0.35822486833E+02  0.43400726374E+02  0.00000000000E+00 0.  1.
         11    1    3    3    0    0 -0.17643139112E+01  0.65921369509E+01 -0.16303784127E+02  0.17674344409E+02  0.51100000000E-03 0. -1.
        -11    1    3    3    0    0 -0.23858021293E+01  0.76681619545E+01 -0.94793195155E+01  0.12423777940E+02  0.51100000000E-03 0.  1.
        -12    1    3    3    0    0 -0.14468348538E+02  0.16684569659E+01 -0.10039383191E+02  0.17689151278E+02  0.00000000000E+00 0.  1.
</event>
<event>
 7    1  0.4031943E-009  0.4778727E+02  0.7816164E-02  0.1312668E+00
        -11   -1    0    0    0    0  0.00000000000E+00  0.00000000000E+00  0.45593999997E+02  0.45594000000E+02  0.51100000000E-03 0.  1.
         11   -1    0    0    0    0 -0.00000000000E+00 -0.00000000000E+00 -0.45593999997E+02  0.45594000000E+02  0.51100000000E-03 0. -1.
    9900012    2    1    2    0    0 -0.19335295464E+02  0.23945209778E+02 -0.30600602025E+02  0.47787267675E+02  0.19999984638E+02 0.  0.
        -12    1    1    2    0    0  0.19335295464E+02 -0.23945209778E+02  0.30600602025E+02  0.43400732325E+02  0.00000000000E+00 0.  1.
         11    1    3    3    0    0 -0.19047028370E+02  0.13264669971E+02 -0.15352463998E+02  0.27828742521E+02  0.51100000000E-03 0.  1.
        -11    1    3    3    0    0 -0.29170887510E+01  0.25154920157E+01 -0.73509495213E+01  0.82990099402E+01  0.51100000000E-03 0. -1.
        -12    1    3    3    0    0  0.26288216574E+01  0.81650477913E+01 -0.78971885058E+01  0.11659515215E+02  0.00000000000E+00 0.  1.
</event>
<event>
 7    1  0.4031943E-009  0.4778727E+02  0.7816164E-02  0.1312668E+00
        -11   -1    0    0    0    0  0.00000000000E+00  0.00000000000E+00  0.45593999997E+02  0.45594000000E+02  0.51100000000E-03 0.  1.
         11   -1    0    0    0    0 -0.00000000000E+00 -0.00000000000E+00 -0.45593999997E+02  0.45594000000E+02  0.51100000000E-03 0. -1.
    9900012    2    1    2    0    0  0.31268310513E+02 -0.65433808569E+00 -0.30091325704E+02  0.47787270936E+02  0.19999999505E+02 0.  0.
        -12    1    1    2    0    0 -0.31268310513E+02  0.65433808569E+00  0.30091325704E+02  0.43400729064E+02  0.00000000000E+00 0.  1.
         11    1    3    3    0    0  0.17966148267E+02  0.11572497800E+01 -0.16692279321E+02  0.24551046817E+02  0.51100000000E-03 0. -1.
        -11    1    3    3    0    0  0.13952518080E+02 -0.11796355696E+01 -0.51220772326E+01  0.14909727573E+02  0.51100000000E-03 0.  1.
         12    1    3    3    0    0 -0.65035583452E+00 -0.63195229607E+00 -0.82769691506E+01  0.83264965464E+01  0.00000000000E+00 0. -1.
</event>
<event>
 7    1  0.4031943E-009  0.4778727E+02  0.7816164E-02  0.1312668E+00
        -11   -1    0    0    0    0  0.00000000000E+00  0.00000000000E+00  0.45593999997E+02  0.45594000000E+02  0.51100000000E-03 0. -1.
         11   -1    0    0    0    0 -0.00000000000E+00 -0.00000000000E+00 -0.45593999997E+02  0.45594000000E+02  0.51100000000E-03 0.  1.
    9900012    2    1    2    0    0  0.84096323330E+01  0.14126843069E+02  0.40166324694E+02  0.47787271314E+02  0.20000001228E+02 0.  0.
        -12    1    1    2    0    0 -0.84096323330E+01 -0.14126843069E+02 -0.40166324694E+02  0.43400728686E+02  0.00000000000E+00 0.  1.
         11    1    3    3    0    0  0.38918340388E+01  0.13845572735E+01  0.18540022417E+01  0.45277693848E+01  0.51100000000E-03 0.  1.
        -11    1    3    3    0    0  0.37769973324E+01 -0.19652667856E+01  0.36850910339E+01  0.56309749224E+01  0.51100000000E-03 0. -1.
         12    1    3    3    0    0  0.74080096183E+00  0.14707552581E+02  0.34627231419E+02  0.37628527007E+02  0.00000000000E+00 0. -1.
</event>
<event>
 7    1  0.4031943E-009  0.4778727E+02  0.7816164E-02  0.1312668E+00
        -11   -1    0    0    0    0  0.00000000000E+00  0.00000000000E+00  0.45593999997E+02  0.45594000000E+02  0.51100000000E-03 0.  1.
         11   -1    0    0    0    0 -0.00000000000E+00 -0.00000000000E+00 -0.45593999997E+02  0.45594000000E+02  0.51100000000E-03 0. -1.
    9900012    2    1    2    0    0  0.62823569715E+01 -0.14273605329E+02 -0.40502089379E+02  0.47787273482E+02  0.20000011114E+02 0.  0.
        -12    1    1    2    0    0 -0.62823569715E+01  0.14273605329E+02  0.40502089379E+02  0.43400726518E+02  0.00000000000E+00 0.  1.
         11    1    3    3    0    0  0.68463100973E+01 -0.84912360259E+01 -0.77872887634E+01  0.13402049013E+02  0.51100000000E-03 0. -1.
        -11    1    3    3    0    0 -0.42281839052E+01 -0.13697742732E+01 -0.97539904520E+01  0.10718868909E+02  0.51100000000E-03 0.  1.
        -12    1    3    3    0    0  0.36642307794E+01 -0.44125950297E+01 -0.22960810164E+02  0.23666355560E+02  0.00000000000E+00 0.  1.
</event>
<event>
 7    1  0.4031943E-009  0.4778727E+02  0.7816164E-02  0.1312668E+00
        -11   -1    0    0    0    0  0.00000000000E+00  0.00000000000E+00  0.45593999997E+02  0.45594000000E+02  0.51100000000E-03 0. -1.
         11   -1    0    0    0    0 -0.00000000000E+00 -0.00000000000E+00 -0.45593999997E+02  0.45594000000E+02  0.51100000000E-03 0.  1.
    9900012    2    1    2    0    0  0.39183115676E+02  0.52253563190E+00  0.18655663585E+02  0.47787269806E+02  0.19999994352E+02 0.  0.
        -12    1    1    2    0    0 -0.39183115676E+02 -0.52253563190E+00 -0.18655663585E+02  0.43400730194E+02  0.00000000000E+00 0.  1.
         11    1    3    3    0    0  0.27830397910E+02 -0.15663482844E+01  0.16398666792E+02  0.32340389107E+02  0.51100000000E-03 0. -1.
        -11    1    3    3    0    0  0.10927596903E+02  0.14099633666E+01  0.53524560360E+01  0.12249455362E+02  0.51100000000E-03 0.  1.
        -12    1    3    3    0    0  0.42512086268E+00  0.67892054964E+00 -0.30954592429E+01  0.31974253369E+01  0.00000000000E+00 0.  1.
</event>
<event>
 7    1  0.4031943E-009  0.4778726E+02  0.7816164E-02  0.1312668E+00
        -11   -1    0    0    0    0  0.00000000000E+00  0.00000000000E+00  0.45593999997E+02  0.45594000000E+02  0.51100000000E-03 0.  1.
         11   -1    0    0    0    0 -0.00000000000E+00 -0.00000000000E+00 -0.45593999997E+02  0.45594000000E+02  0.51100000000E-03 0. -1.
    9900012    2    1    2    0    0  0.32679204031E+02 -0.26084704547E+02  0.11631068793E+02  0.47787263270E+02  0.19999964554E+02 0.  0.
        -12    1    1    2    0    0 -0.32679204031E+02  0.26084704547E+02 -0.11631068793E+02  0.43400736730E+02  0.00000000000E+00 0.  1.
         11    1    3    3    0    0  0.18394722333E+02 -0.93000098694E+01  0.37643201898E+01  0.20952949674E+02  0.51100000000E-03 0. -1.
        -11    1    3    3    0    0  0.82434163241E+01 -0.77528447804E+00  0.78998358822E+00  0.83173946068E+01  0.51100000000E-03 0.  1.
         12    1    3    3    0    0  0.60410653740E+01 -0.16009410199E+02  0.70767650154E+01  0.18516918990E+02  0.00000000000E+00 0. -1.
</event>
<event>
 7    1  0.4031943E-009  0.4778727E+02  0.7816164E-02  0.1312668E+00
        -11   -1    0    0    0    0  0.00000000000E+00  0.00000000000E+00  0.45593999997E+02  0.45594000000E+02  0.51100000000E-03 0.  1.
         11   -1    0    0    0    0 -0.00000000000E+00 -0.00000000000E+00 -0.45593999997E+02  0.45594000000E+02  0.51100000000E-03 0. -1.
    9900012    2    1    2    0    0 -0.19519848375E+02  0.89619843804E+01 -0.37713149650E+02  0.47787270730E+02  0.19999998568E+02 0.  0.
        -12    1    1    2    0    0  0.19519848375E+02 -0.89619843804E+01  0.37713149650E+02  0.43400729270E+02  0.00000000000E+00 0.  1.
         11    1    3    3    0    0 -0.12581070087E+02  0.18730627815E+01 -0.16075226230E+02  0.20498892344E+02  0.51100000000E-03 0. -1.
        -11    1    3    3    0    0 -0.40789461445E+01  0.25424498255E+00  0.33444876078E+00  0.41005241611E+01  0.51100000000E-03 0.  1.
         12    1    3    3    0    0 -0.28598321438E+01  0.68346766164E+01 -0.21972372181E+02  0.23187854226E+02  0.00000000000E+00 0. -1.
</event>
<event>
 7    1  0.4031943E-009  0.4778727E+02  0.7816164E-02  0.1312668E+00
        -11   -1    0    0    0    0  0.00000000000E+00  0.00000000000E+00  0.45593999997E+02  0.45594000000E+02  0.51100000000E-03 0.  1.
         11   -1    0    0    0    0 -0.00000000000E+00 -0.00000000000E+00 -0.45593999997E+02  0.45594000000E+02  0.51100000000E-03 0. -1.
    9900012    2    1    2    0    0  0.26025744211E+02  0.19024961204E+01 -0.34679450421E+02  0.47787272647E+02  0.20000007309E+02 0.  0.
        -12    1    1    2    0    0 -0.26025744211E+02 -0.19024961204E+01  0.34679450421E+02  0.43400727353E+02  0.00000000000E+00 0.  1.
         11    1    3    3    0    0  0.50016138530E+01  0.37812264771E+01 -0.78898935960E+01  0.10077908316E+02  0.51100000000E-03 0. -1.
        -11    1    3    3    0    0 -0.29443763905E+00 -0.49835692211E+01 -0.48126974831E+01  0.69343141715E+01  0.51100000000E-03 0.  1.
        -12    1    3    3    0    0  0.21318567997E+02  0.31048388644E+01 -0.21976859342E+02  0.30775050160E+02  0.00000000000E+00 0.  1.
</event>
<event>
 7    1  0.4031943E-009  0.4778728E+02  0.7816164E-02  0.1312668E+00
        -11   -1    0    0    0    0  0.00000000000E+00  0.00000000000E+00  0.45593999997E+02  0.45594000000E+02  0.51100000000E-03 0. -1.
         11   -1    0    0    0    0 -0.00000000000E+00 -0.00000000000E+00 -0.45593999997E+02  0.45594000000E+02  0.51100000000E-03 0.  1.
    9900012    2    1    2    0    0  0.18496417856E+02 -0.39260193385E+02 -0.37732074702E+00  0.47787278473E+02  0.20000033869E+02 0.  0.
        -12    1    1    2    0    0 -0.18496417856E+02  0.39260193385E+02  0.37732074702E+00  0.43400721527E+02  0.00000000000E+00 0.  1.
         11    1    3    3    0    0  0.50313229879E+01 -0.65482916432E+01  0.43354900390E+01  0.93268863289E+01  0.51100000000E-03 0. -1.
        -11    1    3    3    0    0  0.76650530282E+01 -0.20282003718E+02  0.42235894636E+01  0.22089622472E+02  0.51100000000E-03 0.  1.
         12    1    3    3    0    0  0.58000418394E+01 -0.12429898024E+02 -0.89364002495E+01  0.16370769672E+02  0.00000000000E+00 0. -1.
</event>
<event>
 7    1  0.4031943E-009  0.4778727E+02  0.7816164E-02  0.1312668E+00
        -11   -1    0    0    0    0  0.00000000000E+00  0.00000000000E+00  0.45593999997E+02  0.45594000000E+02  0.51100000000E-03 0. -1.
         11   -1    0    0    0    0 -0.00000000000E+00 -0.00000000000E+00 -0.45593999997E+02  0.45594000000E+02  0.51100000000E-03 0.  1.
    9900012    2    1    2    0    0  0.36331453406E+02  0.22351063678E+01 -0.23635842500E+02  0.47787271230E+02  0.20000000846E+02 0.  0.
        -12    1    1    2    0    0 -0.36331453406E+02 -0.22351063678E+01  0.23635842500E+02  0.43400728770E+02  0.00000000000E+00 0.  1.
         11    1    3    3    0    0  0.10589076191E+02  0.21030772454E+01 -0.16426141761E+02  0.19656286574E+02  0.51100000000E-03 0. -1.
        -11    1    3    3    0    0  0.12419459327E+01 -0.25628284046E+00  0.16446588013E+01  0.20767795810E+01  0.51100000000E-03 0.  1.
        -12    1    3    3    0    0  0.24500431283E+02  0.38831196283E+00 -0.88543595411E+01  0.26054205075E+02  0.00000000000E+00 0.  1.
</event>
<event>
 7    1  0.4031943E-009  0.4778727E+02  0.7816164E-02  0.1312668E+00
        -11   -1    0    0    0    0  0.00000000000E+00  0.00000000000E+00  0.45593999997E+02  0.45594000000E+02  0.51100000000E-03 0.  1.
         11   -1    0    0    0    0 -0.00000000000E+00 -0.00000000000E+00 -0.45593999997E+02  0.45594000000E+02  0.51100000000E-03 0. -1.
    9900012    2    1    2    0    0 -0.24424341554E+02  0.11692277693E+02 -0.33917041140E+02  0.47787268466E+02  0.19999988244E+02 0.  0.
        -12    1    1    2    0    0  0.24424341554E+02 -0.11692277693E+02  0.33917041140E+02  0.43400731534E+02  0.00000000000E+00 0.  1.
         11    1    3    3    0    0  0.28530874213E+01  0.31244036609E+01 -0.50512346528E+01  0.65891560802E+01  0.51100000000E-03 0. -1.
        -11    1    3    3    0    0 -0.13032857305E+02  0.55963285549E+01 -0.99164867968E+01  0.17306385339E+02  0.51100000000E-03 0.  1.
         12    1    3    3    0    0 -0.14244571669E+02  0.29715454773E+01 -0.18949319690E+02  0.23891727047E+02  0.00000000000E+00 0. -1.
</event>
<event>
 7    1  0.4031943E-009  0.4778727E+02  0.7816164E-02  0.1312668E+00
        -11   -1    0    0    0    0  0.00000000000E+00  0.00000000000E+00  0.45593999997E+02  0.45594000000E+02  0.51100000000E-03 0.  1.
         11   -1    0    0    0    0 -0.00000000000E+00 -0.00000000000E+00 -0.45593999997E+02  0.45594000000E+02  0.51100000000E-03 0. -1.
    9900012    2    1    2    0    0  0.38568704354E+02  0.16424229727E+02 -0.11239354499E+02  0.47787269969E+02  0.19999995097E+02 0.  0.
        -12    1    1    2    0    0 -0.38568704354E+02 -0.16424229727E+02  0.11239354499E+02  0.43400730031E+02  0.00000000000E+00 0.  1.
         11    1    3    3    0    0  0.24319196674E+02  0.18160473112E+02 -0.67651645765E+01  0.31096520103E+02  0.51100000000E-03 0. -1.
        -11    1    3    3    0    0  0.67915383466E+01  0.26729280849E+01 -0.10453626304E+01  0.73730808317E+01  0.51100000000E-03 0.  1.
        -12    1    3    3    0    0  0.74579693336E+01 -0.44091714703E+01 -0.34288272920E+01  0.93176690344E+01  0.00000000000E+00 0.  1.
</event>
<event>
 7    1  0.4031943E-009  0.4778727E+02  0.7816164E-02  0.1312668E+00
        -11   -1    0    0    0    0  0.00000000000E+00  0.00000000000E+00  0.45593999997E+02  0.45594000000E+02  0.51100000000E-03 0. -1.
         11   -1    0    0    0    0 -0.00000000000E+00 -0.00000000000E+00 -0.45593999997E+02  0.45594000000E+02  0.51100000000E-03 0.  1.
    9900012    2    1    2    0    0  0.11876688821E+02  0.38033702695E+02  0.17204800192E+02  0.47787269273E+02  0.19999991922E+02 0.  0.
        -12    1    1    2    0    0 -0.11876688821E+02 -0.38033702695E+02 -0.17204800192E+02  0.43400730727E+02  0.00000000000E+00 0.  1.
         11    1    3    3    0    0  0.18613071556E+01  0.10600751618E+01  0.22539696809E+01  0.31094377723E+01  0.51100000000E-03 0. -1.
        -11    1    3    3    0    0 -0.23375657845E+01  0.14065482474E+01  0.50609336793E+01  0.57494035983E+01  0.51100000000E-03 0.  1.
         12    1    3    3    0    0  0.12352947450E+02  0.35567079285E+02  0.98898968320E+01  0.38928427902E+02  0.00000000000E+00 0. -1.
</event>
<event>
 7    1  0.4031943E-009  0.4778727E+02  0.7816164E-02  0.1312668E+00
        -11   -1    0    0    0    0  0.00000000000E+00  0.00000000000E+00  0.45593999997E+02  0.45594000000E+02  0.51100000000E-03 0.  1.
         11   -1    0    0    0    0 -0.00000000000E+00 -0.00000000000E+00 -0.45593999997E+02  0.45594000000E+02  0.51100000000E-03 0. -1.
    9900012    2    1    2    0    0  0.38688230141E+02 -0.11707280909E+02 -0.15804551902E+02  0.47787269147E+02  0.19999991349E+02 0.  0.
        -12    1    1    2    0    0 -0.38688230141E+02  0.11707280909E+02  0.15804551902E+02  0.43400730853E+02  0.00000000000E+00 0.  1.
         11    1    3    3    0    0  0.18414830191E+02 -0.47782537241E+01 -0.11018786501E+02  0.21985252690E+02  0.51100000000E-03 0. -1.
        -11    1    3    3    0    0  0.21477431756E+02 -0.50757443482E+01 -0.18767668343E+01  0.22148713496E+02  0.51100000000E-03 0.  1.
        -12    1    3    3    0    0 -0.12040318060E+01 -0.18532828366E+01 -0.29089985666E+01  0.36533029607E+01  0.00000000000E+00 0.  1.
</event>
<event>
 7    1  0.4031943E-009  0.4778727E+02  0.7816164E-02  0.1312668E+00
        -11   -1    0    0    0    0  0.00000000000E+00  0.00000000000E+00  0.45593999997E+02  0.45594000000E+02  0.51100000000E-03 0. -1.
         11   -1    0    0    0    0 -0.00000000000E+00 -0.00000000000E+00 -0.45593999997E+02  0.45594000000E+02  0.51100000000E-03 0.  1.
    9900012    2    1    2    0    0  0.36366916129E+02  0.22942925574E+02  0.58900660516E+01  0.47787270735E+02  0.19999998590E+02 0.  0.
        -12    1    1    2    0    0 -0.36366916129E+02 -0.22942925574E+02 -0.58900660516E+01  0.43400729265E+02  0.00000000000E+00 0.  1.
         11    1    3    3    0    0 -0.21599919968E+00  0.26267494255E+01 -0.22049683391E+01  0.34363285402E+01  0.51100000000E-03 0. -1.
        -11    1    3    3    0    0  0.71519628578E+01 -0.47552327321E+00  0.36496017219E+01  0.80434002818E+01  0.51100000000E-03 0.  1.
         12    1    3    3    0    0  0.29430952471E+02  0.20791699422E+02  0.44454326688E+01  0.36307541913E+02  0.00000000000E+00 0. -1.
</event>
<event>
 7    1  0.4031943E-009  0.4778727E+02  0.7816164E-02  0.1312668E+00
        -11   -1    0    0    0    0  0.00000000000E+00  0.00000000000E+00  0.45593999997E+02  0.45594000000E+02  0.51100000000E-03 0.  1.
         11   -1    0    0    0    0 -0.00000000000E+00 -0.00000000000E+00 -0.45593999997E+02  0.45594000000E+02  0.51100000000E-03 0. -1.
    9900012    2    1    2    0    0 -0.29566271901E+02 -0.25321979342E+02 -0.19189995253E+02  0.47787274318E+02  0.20000014927E+02 0.  0.
        -12    1    1    2    0    0  0.29566271901E+02  0.25321979342E+02  0.19189995253E+02  0.43400725682E+02  0.00000000000E+00 0.  1.
         11    1    3    3    0    0 -0.30851622910E+01 -0.64898917381E+01 -0.51302842026E+01  0.88293112638E+01  0.51100000000E-03 0. -1.
        -11    1    3    3    0    0 -0.14618554873E+02 -0.18842575555E+01 -0.10172452319E+02  0.17908974274E+02  0.51100000000E-03 0.  1.
        -12    1    3    3    0    0 -0.11862554736E+02 -0.16947830048E+02 -0.38872587313E+01  0.21048988780E+02  0.00000000000E+00 0.  1.
</event>
<event>
 7    1  0.4031943E-009  0.4778728E+02  0.7816164E-02  0.1312668E+00
        -11   -1    0    0    0    0  0.00000000000E+00  0.00000000000E+00  0.45593999997E+02  0.45594000000E+02  0.51100000000E-03 0. -1.
         11   -1    0    0    0    0 -0.00000000000E+00 -0.00000000000E+00 -0.45593999997E+02  0.45594000000E+02  0.51100000000E-03 0.  1.
    9900012    2    1    2    0    0  0.21995543367E+01 -0.11455641729E+02  0.41803744619E+02  0.47787276148E+02  0.20000023270E+02 0.  0.
        -12    1    1    2    0    0 -0.21995543367E+01  0.11455641729E+02 -0.41803744619E+02  0.43400723852E+02  0.00000000000E+00 0.  1.
         11    1    3    3    0    0 -0.15187342660E+01 -0.54823080733E+01  0.10768166909E+02  0.12178492289E+02  0.51100000000E-03 0.  1.
        -11    1    3    3    0    0 -0.21316722254E+01 -0.51270357015E+01  0.18831710946E+01  0.58631779091E+01  0.51100000000E-03 0. -1.
         12    1    3    3    0    0  0.58499608282E+01 -0.84629795466E+00  0.29152406615E+02  0.29745605950E+02  0.00000000000E+00 0. -1.
</event>
<event>
 7    1  0.4031943E-009  0.4778727E+02  0.7816164E-02  0.1312668E+00
        -11   -1    0    0    0    0  0.00000000000E+00  0.00000000000E+00  0.45593999997E+02  0.45594000000E+02  0.51100000000E-03 0. -1.
         11   -1    0    0    0    0 -0.00000000000E+00 -0.00000000000E+00 -0.45593999997E+02  0.45594000000E+02  0.51100000000E-03 0.  1.
    9900012    2    1    2    0    0 -0.19644332719E+02 -0.35481512241E+02  0.15452689335E+02  0.47787272741E+02  0.20000007737E+02 0.  0.
        -12    1    1    2    0    0  0.19644332719E+02  0.35481512241E+02 -0.15452689335E+02  0.43400727259E+02  0.00000000000E+00 0.  1.
         11    1    3    3    0    0 -0.14904943426E+02 -0.24795560461E+02  0.93885424691E+00  0.28945787339E+02  0.51100000000E-03 0. -1.
        -11    1    3    3    0    0  0.27291163529E+00 -0.16841214467E+01  0.22615742464E+01  0.28329250151E+01  0.51100000000E-03 0.  1.
         12    1    3    3    0    0 -0.50123009281E+01 -0.90018303338E+01  0.12252260841E+02  0.16008560387E+02  0.00000000000E+00 0. -1.
</event>
<event>
 7    1  0.4031943E-009  0.4778727E+02  0.7816164E-02  0.1312668E+00
        -11   -1    0    0    0    0  0.00000000000E+00  0.00000000000E+00  0.45593999997E+02  0.45594000000E+02  0.51100000000E-03 0.  1.
         11   -1    0    0    0    0 -0.00000000000E+00 -0.00000000000E+00 -0.45593999997E+02  0.45594000000E+02  0.51100000000E-03 0. -1.
    9900012    2    1    2    0    0  0.35173417275E+02  0.24374358479E+02 -0.72349552386E+01  0.47787271764E+02  0.20000003281E+02 0.  0.
        -12    1    1    2    0    0 -0.35173417275E+02 -0.24374358479E+02  0.72349552386E+01  0.43400728236E+02  0.00000000000E+00 0.  1.
         11    1    3    3    0    0  0.10370395930E+02 -0.53447199759E+00 -0.91239619256E+00  0.10424166112E+02  0.51100000000E-03 0. -1.
        -11    1    3    3    0    0  0.29407905788E+01  0.83305606108E+01 -0.43712104526E+01  0.98566713651E+01  0.51100000000E-03 0.  1.
         12    1    3    3    0    0  0.21862230766E+02  0.16578269866E+02 -0.19513485935E+01  0.27506434287E+02  0.00000000000E+00 0. -1.
</event>
<event>
 7    1  0.4031943E-009  0.4778727E+02  0.7816164E-02  0.1312668E+00
        -11   -1    0    0    0    0  0.00000000000E+00  0.00000000000E+00  0.45593999997E+02  0.45594000000E+02  0.51100000000E-03 0. -1.
         11   -1    0    0    0    0 -0.00000000000E+00 -0.00000000000E+00 -0.45593999997E+02  0.45594000000E+02  0.51100000000E-03 0.  1.
    9900012    2    1    2    0    0  0.27646352287E+02  0.20913810411E+02  0.26113508431E+02  0.47787267480E+02  0.19999983749E+02 0.  0.
        -12    1    1    2    0    0 -0.27646352287E+02 -0.20913810411E+02 -0.26113508431E+02  0.43400732520E+02  0.00000000000E+00 0.  1.
         11    1    3    3    0    0  0.21115008110E+02  0.99958436296E+01  0.23626502377E+02  0.33226075185E+02  0.51100000000E-03 0. -1.
        -11    1    3    3    0    0  0.77127822371E+00 -0.75857797291E+00 -0.51723301664E+00  0.11991000350E+01  0.51100000000E-03 0.  1.
         12    1    3    3    0    0  0.57600659537E+01  0.11676544754E+02  0.30042390703E+01  0.13362092260E+02  0.00000000000E+00 0. -1.
</event>
<event>
 7    1  0.4031943E-009  0.4778728E+02  0.7816164E-02  0.1312668E+00
        -11   -1    0    0    0    0  0.00000000000E+00  0.00000000000E+00  0.45593999997E+02  0.45594000000E+02  0.51100000000E-03 0.  1.
         11   -1    0    0    0    0 -0.00000000000E+00 -0.00000000000E+00 -0.45593999997E+02  0.45594000000E+02  0.51100000000E-03 0. -1.
    9900012    2    1    2    0    0  0.19163544343E+02 -0.35646366010E+02 -0.15675397071E+02  0.47787275181E+02  0.20000018859E+02 0.  0.
        -12    1    1    2    0    0 -0.19163544343E+02  0.35646366010E+02  0.15675397071E+02  0.43400724819E+02  0.00000000000E+00 0.  1.
         11    1    3    3    0    0  0.12648655063E+02 -0.26632757647E+02 -0.10619706625E+02  0.31338002869E+02  0.51100000000E-03 0. -1.
        -11    1    3    3    0    0  0.96472398670E+01 -0.70691797722E+01 -0.36662681785E+01  0.12509358989E+02  0.51100000000E-03 0.  1.
        -12    1    3    3    0    0 -0.31323505873E+01 -0.19444285911E+01 -0.13894222677E+01  0.39399133221E+01  0.00000000000E+00 0.  1.
</event>
<event>
 7    1  0.4031943E-009  0.4778727E+02  0.7816164E-02  0.1312668E+00
        -11   -1    0    0    0    0  0.00000000000E+00  0.00000000000E+00  0.45593999997E+02  0.45594000000E+02  0.51100000000E-03 0. -1.
         11   -1    0    0    0    0 -0.00000000000E+00 -0.00000000000E+00 -0.45593999997E+02  0.45594000000E+02  0.51100000000E-03 0.  1.
    9900012    2    1    2    0    0 -0.21331750534E+02  0.37442640111E+02  0.51602741913E+01  0.47787270639E+02  0.19999998152E+02 0.  0.
        -12    1    1    2    0    0  0.21331750534E+02 -0.37442640111E+02 -0.51602741913E+01  0.43400729361E+02  0.00000000000E+00 0.  1.
         11    1    3    3    0    0 -0.14321641075E+02  0.17801962529E+02 -0.29004315139E+01  0.23031104537E+02  0.51100000000E-03 0. -1.
        -11    1    3    3    0    0 -0.61776666283E+01  0.17860197067E+02  0.27550784307E+01  0.19098184774E+02  0.51100000000E-03 0.  1.
         12    1    3    3    0    0 -0.83244283037E+00  0.17804805146E+01  0.53056272745E+01  0.56579813277E+01  0.00000000000E+00 0. -1.
</event>
<event>
 7    1  0.4031943E-009  0.4778727E+02  0.7816164E-02  0.1312668E+00
        -11   -1    0    0    0    0  0.00000000000E+00  0.00000000000E+00  0.45593999997E+02  0.45594000000E+02  0.51100000000E-03 0.  1.
         11   -1    0    0    0    0 -0.00000000000E+00 -0.00000000000E+00 -0.45593999997E+02  0.45594000000E+02  0.51100000000E-03 0. -1.
    9900012    2    1    2    0    0  0.39813152881E+02 -0.84360855779E+01 -0.15078763671E+02  0.47787265029E+02  0.19999972572E+02 0.  0.
        -12    1    1    2    0    0 -0.39813152881E+02  0.84360855779E+01  0.15078763671E+02  0.43400734971E+02  0.00000000000E+00 0.  1.
         11    1    3    3    0    0  0.70145334633E+01 -0.81248161130E+00 -0.60983063713E+01  0.93302275930E+01  0.51100000000E-03 0. -1.
        -11    1    3    3    0    0 -0.82503123665E+00 -0.19801844682E+01 -0.32360970785E+01  0.38825419035E+01  0.51100000000E-03 0.  1.
         12    1    3    3    0    0  0.33623650654E+02 -0.56434194983E+01 -0.57443602216E+01  0.34574495532E+02  0.00000000000E+00 0. -1.
</event>
<event>
 7    1  0.4031943E-009  0.4778727E+02  0.7816164E-02  0.1312668E+00
        -11   -1    0    0    0    0  0.00000000000E+00  0.00000000000E+00  0.45593999997E+02  0.45594000000E+02  0.51100000000E-03 0.  1.
         11   -1    0    0    0    0 -0.00000000000E+00 -0.00000000000E+00 -0.45593999997E+02  0.45594000000E+02  0.51100000000E-03 0. -1.
    9900012    2    1    2    0    0  0.36261755220E+02  0.17125224201E+02 -0.16596236849E+02  0.47787271053E+02  0.20000000039E+02 0.  0.
        -12    1    1    2    0    0 -0.36261755220E+02 -0.17125224201E+02  0.16596236849E+02  0.43400728947E+02  0.00000000000E+00 0.  1.
         11    1    3    3    0    0  0.20793635414E+02  0.15303038821E+02 -0.96030591131E+01  0.27545907418E+02  0.51100000000E-03 0. -1.
        -11    1    3    3    0    0  0.90709905655E+00  0.34987603962E+01 -0.37919838834E+01  0.52386348452E+01  0.51100000000E-03 0.  1.
         12    1    3    3    0    0  0.14561020750E+02 -0.16765750162E+01 -0.32011938527E+01  0.15002728790E+02  0.00000000000E+00 0. -1.
</event>
<event>
 7    1  0.4031943E-009  0.4778727E+02  0.7816164E-02  0.1312668E+00
        -11   -1    0    0    0    0  0.00000000000E+00  0.00000000000E+00  0.45593999997E+02  0.45594000000E+02  0.51100000000E-03 0.  1.
         11   -1    0    0    0    0 -0.00000000000E+00 -0.00000000000E+00 -0.45593999997E+02  0.45594000000E+02  0.51100000000E-03 0. -1.
    9900012    2    1    2    0    0  0.13032113981E+02 -0.89764432588E+01 -0.40412999771E+02  0.47787273291E+02  0.20000010242E+02 0.  0.
        -12    1    1    2    0    0 -0.13032113981E+02  0.89764432588E+01  0.40412999771E+02  0.43400726709E+02  0.00000000000E+00 0.  1.
         11    1    3    3    0    0  0.88635650100E+01 -0.19396197904E+01 -0.16952141944E+02  0.19227585037E+02  0.51100000000E-03 0. -1.
        -11    1    3    3    0    0  0.81468333755E+01 -0.18723162358E+01 -0.71703469120E+01  0.11013189240E+02  0.51100000000E-03 0.  1.
        -12    1    3    3    0    0 -0.39782844045E+01 -0.51645072326E+01 -0.16290510915E+02  0.17546499014E+02  0.00000000000E+00 0.  1.
</event>
<event>
 7    1  0.4031943E-009  0.4778727E+02  0.7816164E-02  0.1312668E+00
        -11   -1    0    0    0    0  0.00000000000E+00  0.00000000000E+00  0.45593999997E+02  0.45594000000E+02  0.51100000000E-03 0.  1.
         11   -1    0    0    0    0 -0.00000000000E+00 -0.00000000000E+00 -0.45593999997E+02  0.45594000000E+02  0.51100000000E-03 0. -1.
    9900012    2    1    2    0    0  0.32710018325E+02  0.20333156549E+01 -0.28452480047E+02  0.47787270833E+02  0.19999999036E+02 0.  0.
        -12    1    1    2    0    0 -0.32710018325E+02 -0.20333156549E+01  0.28452480047E+02  0.43400729167E+02  0.00000000000E+00 0.  1.
         11    1    3    3    0    0  0.81051910306E+01  0.47546016889E+01 -0.95930637257E+01  0.13428597498E+02  0.51100000000E-03 0. -1.
        -11    1    3    3    0    0 -0.77137356888E+00 -0.19349267794E+00 -0.55234246290E+01  0.55803831851E+01  0.51100000000E-03 0.  1.
        -12    1    3    3    0    0  0.25376200863E+02 -0.25277933561E+01 -0.13335991693E+02  0.28778290150E+02  0.00000000000E+00 0.  1.
</event>
<event>
 7    1  0.4031943E-009  0.4778729E+02  0.7816164E-02  0.1312668E+00
        -11   -1    0    0    0    0  0.00000000000E+00  0.00000000000E+00  0.45593999997E+02  0.45594000000E+02  0.51100000000E-03 0.  1.
         11   -1    0    0    0    0 -0.00000000000E+00 -0.00000000000E+00 -0.45593999997E+02  0.45594000000E+02  0.51100000000E-03 0. -1.
    9900012    2    1    2    0    0  0.31720544840E+02 -0.17979894161E+02 -0.23540429350E+02  0.47787292944E+02  0.20000099847E+02 0.  0.
        -12    1    1    2    0    0 -0.31720544840E+02  0.17979894161E+02  0.23540429350E+02  0.43400707056E+02  0.00000000000E+00 0.  1.
         11    1    3    3    0    0  0.16559403147E+01 -0.57013180136E+01  0.15621490766E+01  0.61390125767E+01  0.51100000000E-03 0.  1.
        -11    1    3    3    0    0  0.12433877989E+02 -0.85850408884E+01 -0.13144027933E+02  0.20026725131E+02  0.51100000000E-03 0. -1.
        -12    1    3    3    0    0  0.17630726536E+02 -0.36935352588E+01 -0.11958550494E+02  0.21621555236E+02  0.00000000000E+00 0.  1.
</event>
<event>
 7    1  0.4031943E-009  0.4778727E+02  0.7816164E-02  0.1312668E+00
        -11   -1    0    0    0    0  0.00000000000E+00  0.00000000000E+00  0.45593999997E+02  0.45594000000E+02  0.51100000000E-03 0. -1.
         11   -1    0    0    0    0 -0.00000000000E+00 -0.00000000000E+00 -0.45593999997E+02  0.45594000000E+02  0.51100000000E-03 0.  1.
    9900012    2    1    2    0    0  0.13050058114E+02  0.41063566500E+02  0.52060382401E+01  0.47787270229E+02  0.19999996282E+02 0.  0.
        -12    1    1    2    0    0 -0.13050058114E+02 -0.41063566500E+02 -0.52060382401E+01  0.43400729771E+02  0.00000000000E+00 0.  1.
         11    1    3    3    0    0  0.30936664295E+01  0.79566714762E+01  0.50562059689E+01  0.99219258221E+01  0.51100000000E-03 0. -1.
        -11    1    3    3    0    0  0.35635606683E+01  0.26764481424E+01  0.46567202283E+01  0.64457259359E+01  0.51100000000E-03 0.  1.
         12    1    3    3    0    0  0.63928310161E+01  0.30430446882E+02 -0.45068879570E+01  0.31419618471E+02  0.00000000000E+00 0. -1.
</event>
<event>
 7    1  0.4031943E-009  0.4778730E+02  0.7816164E-02  0.1312668E+00
        -11   -1    0    0    0    0  0.00000000000E+00  0.00000000000E+00  0.45593999997E+02  0.45594000000E+02  0.51100000000E-03 0.  1.
         11   -1    0    0    0    0 -0.00000000000E+00 -0.00000000000E+00 -0.45593999997E+02  0.45594000000E+02  0.51100000000E-03 0. -1.
    9900012    2    1    2    0    0  0.24136192131E+02  0.21716766828E+02 -0.28800129180E+02  0.47787295250E+02  0.20000110361E+02 0.  0.
        -12    1    1    2    0    0 -0.24136192131E+02 -0.21716766828E+02  0.28800129180E+02  0.43400704750E+02  0.00000000000E+00 0.  1.
         11    1    3    3    0    0  0.69583303417E+01  0.89721240028E+01 -0.15913651678E+01  0.11465156502E+02  0.51100000000E-03 0. -1.
        -11    1    3    3    0    0  0.13052732741E+02  0.56565092306E+01 -0.10408013604E+02  0.17626590031E+02  0.51100000000E-03 0.  1.
         12    1    3    3    0    0  0.41251290485E+01  0.70881335951E+01 -0.16800750408E+02  0.18695548716E+02  0.00000000000E+00 0. -1.
</event>
<event>
 7    1  0.4031943E-009  0.4778727E+02  0.7816164E-02  0.1312668E+00
        -11   -1    0    0    0    0  0.00000000000E+00  0.00000000000E+00  0.45593999997E+02  0.45594000000E+02  0.51100000000E-03 0. -1.
         11   -1    0    0    0    0 -0.00000000000E+00 -0.00000000000E+00 -0.45593999997E+02  0.45594000000E+02  0.51100000000E-03 0.  1.
    9900012    2    1    2    0    0  0.86297112624E+01  0.14061650002E+02  0.40142516377E+02  0.47787267998E+02  0.19999986110E+02 0.  0.
        -12    1    1    2    0    0 -0.86297112624E+01 -0.14061650002E+02 -0.40142516377E+02  0.43400732002E+02  0.00000000000E+00 0.  1.
         11    1    3    3    0    0 -0.46787733474E+01  0.56500932761E+00  0.14871901009E+02  0.15600756246E+02  0.51100000000E-03 0. -1.
        -11    1    3    3    0    0  0.18197086881E+01  0.31268011992E+01  0.17202560542E+01  0.40059339238E+01  0.51100000000E-03 0.  1.
         12    1    3    3    0    0  0.11488775922E+02  0.10369839476E+02  0.23550359314E+02  0.28180577828E+02  0.00000000000E+00 0. -1.
</event>
<event>
 7    1  0.4031943E-009  0.4778726E+02  0.7816164E-02  0.1312668E+00
        -11   -1    0    0    0    0  0.00000000000E+00  0.00000000000E+00  0.45593999997E+02  0.45594000000E+02  0.51100000000E-03 0. -1.
         11   -1    0    0    0    0 -0.00000000000E+00 -0.00000000000E+00 -0.45593999997E+02  0.45594000000E+02  0.51100000000E-03 0.  1.
    9900012    2    1    2    0    0  0.20242379060E+02  0.17714173580E+02  0.34059919963E+02  0.47787262639E+02  0.19999961677E+02 0.  0.
        -12    1    1    2    0    0 -0.20242379060E+02 -0.17714173580E+02 -0.34059919963E+02  0.43400737361E+02  0.00000000000E+00 0.  1.
         11    1    3    3    0    0  0.14248955738E+02  0.54260910696E+01  0.63440699543E+01  0.16514309788E+02  0.51100000000E-03 0. -1.
        -11    1    3    3    0    0  0.23711895522E+01  0.15564452515E+01  0.32575238473E+01  0.43193198065E+01  0.51100000000E-03 0.  1.
        -12    1    3    3    0    0  0.36222337696E+01  0.10731637259E+02  0.24458326161E+02  0.26953633045E+02  0.00000000000E+00 0.  1.
</event>
<event>
 7    1  0.4031943E-009  0.4778728E+02  0.7816164E-02  0.1312668E+00
        -11   -1    0    0    0    0  0.00000000000E+00  0.00000000000E+00  0.45593999997E+02  0.45594000000E+02  0.51100000000E-03 0. -1.
         11   -1    0    0    0    0 -0.00000000000E+00 -0.00000000000E+00 -0.45593999997E+02  0.45594000000E+02  0.51100000000E-03 0.  1.
    9900012    2    1    2    0    0 -0.39767852480E+02  0.17317995211E+02 -0.14924777792E+01  0.47787279511E+02  0.20000038603E+02 0.  0.
        -12    1    1    2    0    0  0.39767852480E+02 -0.17317995211E+02  0.14924777792E+01  0.43400720489E+02  0.00000000000E+00 0.  1.
         11    1    3    3    0    0 -0.30475862795E+02  0.12630885666E+02 -0.36922224031E+01  0.33195632127E+02  0.51100000000E-03 0. -1.
        -11    1    3    3    0    0 -0.60611700161E+01 -0.50646924128E+00 -0.27960742358E+01  0.66942008074E+01  0.51100000000E-03 0.  1.
        -12    1    3    3    0    0 -0.32308196695E+01  0.51935787867E+01  0.49958188596E+01  0.78974465765E+01  0.00000000000E+00 0.  1.
</event>
<event>
 7    1  0.4031943E-009  0.4778726E+02  0.7816164E-02  0.1312668E+00
        -11   -1    0    0    0    0  0.00000000000E+00  0.00000000000E+00  0.45593999997E+02  0.45594000000E+02  0.51100000000E-03 0. -1.
         11   -1    0    0    0    0 -0.00000000000E+00 -0.00000000000E+00 -0.45593999997E+02  0.45594000000E+02  0.51100000000E-03 0.  1.
    9900012    2    1    2    0    0  0.82803517666E+01  0.42034043026E+02  0.69425376078E+01  0.47787264673E+02  0.19999970949E+02 0.  0.
        -12    1    1    2    0    0 -0.82803517666E+01 -0.42034043026E+02 -0.69425376078E+01  0.43400735327E+02  0.00000000000E+00 0.  1.
         11    1    3    3    0    0  0.70418872587E+01  0.18108416077E+02  0.87382010895E+01  0.21303968352E+02  0.51100000000E-03 0. -1.
        -11    1    3    3    0    0 -0.18369145265E+01  0.14039144288E+01  0.24399282711E+01  0.33613213072E+01  0.51100000000E-03 0.  1.
         12    1    3    3    0    0  0.30753790345E+01  0.22521712520E+02 -0.42355917527E+01  0.23121975014E+02  0.00000000000E+00 0. -1.
</event>
<event>
 7    1  0.4031943E-009  0.4778732E+02  0.7816164E-02  0.1312668E+00
        -11   -1    0    0    0    0  0.00000000000E+00  0.00000000000E+00  0.45593999997E+02  0.45594000000E+02  0.51100000000E-03 0.  1.
         11   -1    0    0    0    0 -0.00000000000E+00 -0.00000000000E+00 -0.45593999997E+02  0.45594000000E+02  0.51100000000E-03 0. -1.
    9900012    2    1    2    0    0 -0.11470791583E+02  0.40776013954E+02  0.94528700775E+01  0.47787318827E+02  0.20000217861E+02 0.  0.
        -12    1    1    2    0    0  0.11470791583E+02 -0.40776013954E+02 -0.94528700775E+01  0.43400681173E+02  0.00000000000E+00 0.  1.
         11    1    3    3    0    0 -0.65187301545E+01  0.97422912191E+01  0.52329458439E+01  0.12837048083E+02  0.51100000000E-03 0.  1.
        -11    1    3    3    0    0 -0.91907691072E+01  0.19497784994E+02  0.63627642199E+01  0.22474844276E+02  0.51100000000E-03 0. -1.
        -12    1    3    3    0    0  0.42387076790E+01  0.11535937741E+02 -0.21428399863E+01  0.12475426468E+02  0.00000000000E+00 0.  1.
</event>
<event>
 7    1  0.4031943E-009  0.4778727E+02  0.7816164E-02  0.1312668E+00
        -11   -1    0    0    0    0  0.00000000000E+00  0.00000000000E+00  0.45593999997E+02  0.45594000000E+02  0.51100000000E-03 0.  1.
         11   -1    0    0    0    0 -0.00000000000E+00 -0.00000000000E+00 -0.45593999997E+02  0.45594000000E+02  0.51100000000E-03 0. -1.
    9900012    2    1    2    0    0  0.41599228590E+01 -0.37647542039E+01 -0.43036556716E+02  0.47787267905E+02  0.19999985686E+02 0.  0.
        -12    1    1    2    0    0 -0.41599228590E+01  0.37647542039E+01  0.43036556716E+02  0.43400732095E+02  0.00000000000E+00 0.  1.
         11    1    3    3    0    0  0.97769813692E+00 -0.40533027920E+01 -0.72767479392E+01  0.83866690648E+01  0.51100000000E-03 0. -1.
        -11    1    3    3    0    0  0.41793963399E+01 -0.65840901461E+01 -0.27625049216E+02  0.28704719843E+02  0.51100000000E-03 0.  1.
         12    1    3    3    0    0 -0.99717161782E+00  0.68726387342E+01 -0.81347595607E+01  0.10695878997E+02  0.00000000000E+00 0. -1.
</event>
<event>
 7    1  0.4031943E-009  0.4778731E+02  0.7816164E-02  0.1312668E+00
        -11   -1    0    0    0    0  0.00000000000E+00  0.00000000000E+00  0.45593999997E+02  0.45594000000E+02  0.51100000000E-03 0.  1.
         11   -1    0    0    0    0 -0.00000000000E+00 -0.00000000000E+00 -0.45593999997E+02  0.45594000000E+02  0.51100000000E-03 0. -1.
    9900012    2    1    2    0    0  0.21496349639E+02  0.16156917446E+01 -0.37668504449E+02  0.47787311814E+02  0.20000185883E+02 0.  0.
        -12    1    1    2    0    0 -0.21496349639E+02 -0.16156917446E+01  0.37668504449E+02  0.43400688186E+02  0.00000000000E+00 0.  1.
         11    1    3    3    0    0  0.98747020731E+01  0.23356400322E+01 -0.18606974510E+02  0.21193972164E+02  0.51100000000E-03 0. -1.
        -11    1    3    3    0    0  0.86126285231E+01  0.58543900787E+01 -0.70578243283E+01  0.12580307539E+02  0.51100000000E-03 0.  1.
         12    1    3    3    0    0  0.30090190429E+01 -0.65743383663E+01 -0.12003705610E+02  0.14013032111E+02  0.00000000000E+00 0. -1.
</event>
<event>
 7    1  0.4031943E-009  0.4778727E+02  0.7816164E-02  0.1312668E+00
        -11   -1    0    0    0    0  0.00000000000E+00  0.00000000000E+00  0.45593999997E+02  0.45594000000E+02  0.51100000000E-03 0.  1.
         11   -1    0    0    0    0 -0.00000000000E+00 -0.00000000000E+00 -0.45593999997E+02  0.45594000000E+02  0.51100000000E-03 0. -1.
    9900012    2    1    2    0    0 -0.30372392495E+02  0.26389199394E+02 -0.16271188786E+02  0.47787266653E+02  0.19999979978E+02 0.  0.
        -12    1    1    2    0    0  0.30372392495E+02 -0.26389199394E+02  0.16271188786E+02  0.43400733347E+02  0.00000000000E+00 0.  1.
         11    1    3    3    0    0 -0.83752141304E+01  0.22099495571E+01 -0.63930541653E+01  0.10765650496E+02  0.51100000000E-03 0. -1.
        -11    1    3    3    0    0 -0.14809572894E+02  0.77412777271E+01 -0.91823852324E+01  0.19067433728E+02  0.51100000000E-03 0.  1.
         12    1    3    3    0    0 -0.71876054706E+01  0.16437972110E+02 -0.69574938847E+00  0.17954182429E+02  0.00000000000E+00 0. -1.
</event>
<event>
 7    1  0.4031943E-009  0.4778727E+02  0.7816164E-02  0.1312668E+00
        -11   -1    0    0    0    0  0.00000000000E+00  0.00000000000E+00  0.45593999997E+02  0.45594000000E+02  0.51100000000E-03 0.  1.
         11   -1    0    0    0    0 -0.00000000000E+00 -0.00000000000E+00 -0.45593999997E+02  0.45594000000E+02  0.51100000000E-03 0. -1.
    9900012    2    1    2    0    0 -0.22992029842E+02  0.28559630769E+02 -0.23223642965E+02  0.47787267996E+02  0.19999986102E+02 0.  0.
        -12    1    1    2    0    0  0.22992029842E+02 -0.28559630769E+02  0.23223642965E+02  0.43400732004E+02  0.00000000000E+00 0.  1.
         11    1    3    3    0    0 -0.11908364188E+02  0.19166939933E+02 -0.18860465219E+02  0.29409146070E+02  0.51100000000E-03 0. -1.
        -11    1    3    3    0    0 -0.98117837937E+01  0.44194651831E+01 -0.67647732070E+01  0.12710819428E+02  0.51100000000E-03 0.  1.
         12    1    3    3    0    0 -0.12718818611E+01  0.49732256520E+01  0.24015954608E+01  0.56673024986E+01  0.00000000000E+00 0. -1.
</event>
<event>
 7    1  0.4031943E-009  0.4778727E+02  0.7816164E-02  0.1312668E+00
        -11   -1    0    0    0    0  0.00000000000E+00  0.00000000000E+00  0.45593999997E+02  0.45594000000E+02  0.51100000000E-03 0.  1.
         11   -1    0    0    0    0 -0.00000000000E+00 -0.00000000000E+00 -0.45593999997E+02  0.45594000000E+02  0.51100000000E-03 0. -1.
    9900012    2    1    2    0    0  0.14492342296E+02  0.23943111400E+02 -0.33171116023E+02  0.47787268359E+02  0.19999987758E+02 0.  0.
        -12    1    1    2    0    0 -0.14492342296E+02 -0.23943111400E+02  0.33171116023E+02  0.43400731641E+02  0.00000000000E+00 0.  1.
         11    1    3    3    0    0  0.64122285754E+00  0.69242150272E+00 -0.73713750158E+01  0.74315398253E+01  0.51100000000E-03 0. -1.
        -11    1    3    3    0    0  0.12727325396E+02  0.21065400168E+02 -0.27841931349E+02  0.37160584461E+02  0.51100000000E-03 0.  1.
        -12    1    3    3    0    0  0.11237940429E+01  0.21852897291E+01  0.20421903424E+01  0.31951440727E+01  0.00000000000E+00 0.  1.
</event>
<event>
 7    1  0.4031943E-009  0.4778728E+02  0.7816164E-02  0.1312668E+00
        -11   -1    0    0    0    0  0.00000000000E+00  0.00000000000E+00  0.45593999997E+02  0.45594000000E+02  0.51100000000E-03 0. -1.
         11   -1    0    0    0    0 -0.00000000000E+00 -0.00000000000E+00 -0.45593999997E+02  0.45594000000E+02  0.51100000000E-03 0.  1.
    9900012    2    1    2    0    0 -0.43171651132E+02  0.44481719910E+01  0.21178998009E+00  0.47787279378E+02  0.20000037998E+02 0.  0.
        -12    1    1    2    0    0  0.43171651132E+02 -0.44481719910E+01 -0.21178998009E+00  0.43400720622E+02  0.00000000000E+00 0.  1.
         11    1    3    3    0    0 -0.16331362069E+02 -0.85602091088E-01  0.19009955140E+01  0.16441852054E+02  0.51100000000E-03 0. -1.
        -11    1    3    3    0    0 -0.18284361346E+02  0.10293022612E+02 -0.13585194478E+01  0.21026406247E+02  0.51100000000E-03 0.  1.
        -12    1    3    3    0    0 -0.85559277162E+01 -0.57592485295E+01 -0.33068608614E+00  0.10319021077E+02  0.00000000000E+00 0.  1.
</event>
<event>
 7    1  0.4031943E-009  0.4778727E+02  0.7816164E-02  0.1312668E+00
        -11   -1    0    0    0    0  0.00000000000E+00  0.00000000000E+00  0.45593999997E+02  0.45594000000E+02  0.51100000000E-03 0.  1.
         11   -1    0    0    0    0 -0.00000000000E+00 -0.00000000000E+00 -0.45593999997E+02  0.45594000000E+02  0.51100000000E-03 0. -1.
    9900012    2    1    2    0    0 -0.19078563761E+02 -0.25149211964E+02 -0.29785044326E+02  0.47787270477E+02  0.19999997413E+02 0.  0.
        -12    1    1    2    0    0  0.19078563761E+02  0.25149211964E+02  0.29785044326E+02  0.43400729523E+02  0.00000000000E+00 0.  1.
         11    1    3    3    0    0 -0.45064769056E+01 -0.16442392046E+01 -0.12334017919E+01  0.49530936700E+01  0.51100000000E-03 0. -1.
        -11    1    3    3    0    0 -0.99845477534E+00  0.10860838927E+01  0.12120663730E+01  0.19093442105E+01  0.51100000000E-03 0.  1.
         12    1    3    3    0    0 -0.13573632080E+02 -0.24591056652E+02 -0.29763708908E+02  0.40924832596E+02  0.00000000000E+00 0. -1.
</event>
<event>
 7    1  0.4031943E-009  0.4778727E+02  0.7816164E-02  0.1312668E+00
        -11   -1    0    0    0    0  0.00000000000E+00  0.00000000000E+00  0.45593999997E+02  0.45594000000E+02  0.51100000000E-03 0.  1.
         11   -1    0    0    0    0 -0.00000000000E+00 -0.00000000000E+00 -0.45593999997E+02  0.45594000000E+02  0.51100000000E-03 0. -1.
    9900012    2    1    2    0    0 -0.33495728798E+02  0.13475923173E+02 -0.24084405450E+02  0.47787274903E+02  0.20000017592E+02 0.  0.
        -12    1    1    2    0    0  0.33495728798E+02 -0.13475923173E+02  0.24084405450E+02  0.43400725097E+02  0.00000000000E+00 0.  1.
         11    1    3    3    0    0 -0.18178111380E+02  0.14011572121E+02 -0.19086404570E+02  0.29850606800E+02  0.51100000000E-03 0. -1.
        -11    1    3    3    0    0 -0.54658187121E+01 -0.12029478899E+01 -0.57622128504E+01  0.80327675812E+01  0.51100000000E-03 0.  1.
        -12    1    3    3    0    0 -0.98517987056E+01  0.66729894186E+00  0.76421196982E+00  0.99039005219E+01  0.00000000000E+00 0.  1.
</event>
<event>
 7    1  0.4031943E-009  0.4778727E+02  0.7816164E-02  0.1312668E+00
        -11   -1    0    0    0    0  0.00000000000E+00  0.00000000000E+00  0.45593999997E+02  0.45594000000E+02  0.51100000000E-03 0.  1.
         11   -1    0    0    0    0 -0.00000000000E+00 -0.00000000000E+00 -0.45593999997E+02  0.45594000000E+02  0.51100000000E-03 0. -1.
    9900012    2    1    2    0    0 -0.58478497282E+01 -0.11253363165E+02 -0.41506479533E+02  0.47787269912E+02  0.19999994835E+02 0.  0.
        -12    1    1    2    0    0  0.58478497282E+01  0.11253363165E+02  0.41506479533E+02  0.43400730088E+02  0.00000000000E+00 0.  1.
         11    1    3    3    0    0 -0.10521270313E+01 -0.71935419921E+01 -0.13319239165E+02  0.15174193550E+02  0.51100000000E-03 0. -1.
        -11    1    3    3    0    0 -0.10279069391E+02 -0.20274060993E+01 -0.19585527015E+02  0.22211765165E+02  0.51100000000E-03 0.  1.
        -12    1    3    3    0    0  0.54833466945E+01 -0.20324150737E+01 -0.86017133532E+01  0.10401311197E+02  0.00000000000E+00 0.  1.
</event>
<event>
 7    1  0.4031943E-009  0.4778727E+02  0.7816164E-02  0.1312668E+00
        -11   -1    0    0    0    0  0.00000000000E+00  0.00000000000E+00  0.45593999997E+02  0.45594000000E+02  0.51100000000E-03 0. -1.
         11   -1    0    0    0    0 -0.00000000000E+00 -0.00000000000E+00 -0.45593999997E+02  0.45594000000E+02  0.51100000000E-03 0.  1.
    9900012    2    1    2    0    0 -0.31610106308E+02  0.19021882621E+02  0.22860281953E+02  0.47787270395E+02  0.19999997038E+02 0.  0.
        -12    1    1    2    0    0  0.31610106308E+02 -0.19021882621E+02 -0.22860281953E+02  0.43400729605E+02  0.00000000000E+00 0.  1.
         11    1    3    3    0    0 -0.17985444160E+01  0.45886632106E+01 -0.90981081527E-01  0.49293883896E+01  0.51100000000E-03 0. -1.
        -11    1    3    3    0    0 -0.21950162981E+01  0.69284108318E+00 -0.21038262086E+01  0.31183666065E+01  0.51100000000E-03 0.  1.
         12    1    3    3    0    0 -0.27616545594E+02  0.13740378328E+02  0.25055089244E+02  0.39739515399E+02  0.00000000000E+00 0. -1.
</event>
<event>
 7    1  0.4031943E-009  0.4778727E+02  0.7816164E-02  0.1312668E+00
        -11   -1    0    0    0    0  0.00000000000E+00  0.00000000000E+00  0.45593999997E+02  0.45594000000E+02  0.51100000000E-03 0. -1.
         11   -1    0    0    0    0 -0.00000000000E+00 -0.00000000000E+00 -0.45593999997E+02  0.45594000000E+02  0.51100000000E-03 0.  1.
    9900012    2    1    2    0    0  0.31072629382E+02 -0.20208304686E+02  0.22577406926E+02  0.47787272143E+02  0.20000005009E+02 0.  0.
        -12    1    1    2    0    0 -0.31072629382E+02  0.20208304686E+02 -0.22577406926E+02  0.43400727857E+02  0.00000000000E+00 0.  1.
         11    1    3    3    0    0  0.11667962866E+02 -0.23876239461E+00  0.94257025782E+01  0.15001407743E+02  0.51100000000E-03 0. -1.
        -11    1    3    3    0    0  0.56877917853E+00 -0.12647221186E+01  0.47412981901E+01  0.49399332566E+01  0.51100000000E-03 0.  1.
         12    1    3    3    0    0  0.18835887337E+02 -0.18704820173E+02  0.84104061579E+01  0.27845931143E+02  0.00000000000E+00 0. -1.
</event>
<event>
 7    1  0.4031943E-009  0.4778727E+02  0.7816164E-02  0.1312668E+00
        -11   -1    0    0    0    0  0.00000000000E+00  0.00000000000E+00  0.45593999997E+02  0.45594000000E+02  0.51100000000E-03 0. -1.
         11   -1    0    0    0    0 -0.00000000000E+00 -0.00000000000E+00 -0.45593999997E+02  0.45594000000E+02  0.51100000000E-03 0.  1.
    9900012    2    1    2    0    0  0.20718955991E+02  0.34359800731E+02 -0.16545459880E+02  0.47787270901E+02  0.19999999348E+02 0.  0.
        -12    1    1    2    0    0 -0.20718955991E+02 -0.34359800731E+02  0.16545459880E+02  0.43400729099E+02  0.00000000000E+00 0.  1.
         11    1    3    3    0    0  0.14937739512E+01  0.17281845262E+01  0.55175470520E+00  0.23499821041E+01  0.51100000000E-03 0. -1.
        -11    1    3    3    0    0 -0.16893055842E+01  0.10377164045E+01  0.21627182217E+01  0.29339323544E+01  0.51100000000E-03 0.  1.
         12    1    3    3    0    0  0.20914487624E+02  0.31593899800E+02 -0.19259932807E+02  0.42503356443E+02  0.00000000000E+00 0. -1.
</event>
<event>
 7    1  0.4031943E-009  0.4778729E+02  0.7816164E-02  0.1312668E+00
        -11   -1    0    0    0    0  0.00000000000E+00  0.00000000000E+00  0.45593999997E+02  0.45594000000E+02  0.51100000000E-03 0. -1.
         11   -1    0    0    0    0 -0.00000000000E+00 -0.00000000000E+00 -0.45593999997E+02  0.45594000000E+02  0.51100000000E-03 0.  1.
    9900012    2    1    2    0    0 -0.38414122429E+02  0.12754259473E+02  0.15662233416E+02  0.47787291570E+02  0.20000093583E+02 0.  0.
        -12    1    1    2    0    0  0.38414122429E+02 -0.12754259473E+02 -0.15662233416E+02  0.43400708430E+02  0.00000000000E+00 0.  1.
         11    1    3    3    0    0 -0.12047408078E+02  0.14427581516E+01  0.10859995485E+02  0.16283767829E+02  0.51100000000E-03 0. -1.
        -11    1    3    3    0    0 -0.16011208203E+02  0.23896330819E+01  0.70394435988E+01  0.17652843987E+02  0.51100000000E-03 0.  1.
        -12    1    3    3    0    0 -0.10355506147E+02  0.89218682395E+01 -0.22372056681E+01  0.13850679754E+02  0.00000000000E+00 0.  1.
</event>
<event>
 7    1  0.4031943E-009  0.4778727E+02  0.7816164E-02  0.1312668E+00
        -11   -1    0    0    0    0  0.00000000000E+00  0.00000000000E+00  0.45593999997E+02  0.45594000000E+02  0.51100000000E-03 0.  1.
         11   -1    0    0    0    0 -0.00000000000E+00 -0.00000000000E+00 -0.45593999997E+02  0.45594000000E+02  0.51100000000E-03 0. -1.
    9900012    2    1    2    0    0 -0.40808679336E+00 -0.14652882361E+02 -0.40850332286E+02  0.47787272539E+02  0.20000006814E+02 0.  0.
        -12    1    1    2    0    0  0.40808679336E+00  0.14652882361E+02  0.40850332286E+02  0.43400727461E+02  0.00000000000E+00 0.  1.
         11    1    3    3    0    0 -0.42891141366E+01 -0.81559132284E+01 -0.15263868645E+02  0.17829781461E+02  0.51100000000E-03 0. -1.
        -11    1    3    3    0    0 -0.46259644793E+01 -0.34998371374E+01 -0.14804570510E+02  0.15900431302E+02  0.51100000000E-03 0.  1.
        -12    1    3    3    0    0  0.85069918225E+01 -0.29971319948E+01 -0.10781893130E+02  0.14057059776E+02  0.00000000000E+00 0.  1.
</event>
<event>
 7    1  0.4031943E-009  0.4778727E+02  0.7816164E-02  0.1312668E+00
        -11   -1    0    0    0    0  0.00000000000E+00  0.00000000000E+00  0.45593999997E+02  0.45594000000E+02  0.51100000000E-03 0.  1.
         11   -1    0    0    0    0 -0.00000000000E+00 -0.00000000000E+00 -0.45593999997E+02  0.45594000000E+02  0.51100000000E-03 0. -1.
    9900012    2    1    2    0    0 -0.30385643286E+02 -0.95599977521E+01 -0.29477830068E+02  0.47787270278E+02  0.19999996504E+02 0.  0.
        -12    1    1    2    0    0  0.30385643286E+02  0.95599977521E+01  0.29477830068E+02  0.43400729722E+02  0.00000000000E+00 0.  1.
         11    1    3    3    0    0 -0.27930822936E+02 -0.61023218220E+01 -0.20142452473E+02  0.34972669234E+02  0.51100000000E-03 0. -1.
        -11    1    3    3    0    0 -0.20431254898E+01  0.18922130396E+01 -0.11185770815E+01  0.30010076479E+01  0.51100000000E-03 0.  1.
        -12    1    3    3    0    0 -0.41169486012E+00 -0.53498889697E+01 -0.82168005142E+01  0.98135933958E+01  0.00000000000E+00 0.  1.
</event>
<event>
 7    1  0.4031943E-009  0.4778728E+02  0.7816164E-02  0.1312668E+00
        -11   -1    0    0    0    0  0.00000000000E+00  0.00000000000E+00  0.45593999997E+02  0.45594000000E+02  0.51100000000E-03 0.  1.
         11   -1    0    0    0    0 -0.00000000000E+00 -0.00000000000E+00 -0.45593999997E+02  0.45594000000E+02  0.51100000000E-03 0. -1.
    9900012    2    1    2    0    0 -0.15662962515E+02 -0.39397293529E+02 -0.92815835866E+01  0.47787275052E+02  0.20000018272E+02 0.  0.
        -12    1    1    2    0    0  0.15662962515E+02  0.39397293529E+02  0.92815835866E+01  0.43400724948E+02  0.00000000000E+00 0.  1.
         11    1    3    3    0    0 -0.13505548724E+02 -0.11787558075E+02 -0.34751758751E+01  0.18259880047E+02  0.51100000000E-03 0. -1.
        -11    1    3    3    0    0 -0.22994369776E+01 -0.16435039128E+02 -0.75230734776E+01  0.18220717779E+02  0.51100000000E-03 0.  1.
        -12    1    3    3    0    0  0.14202318639E+00 -0.11174696325E+02  0.17166657661E+01  0.11306677226E+02  0.00000000000E+00 0.  1.
</event>
<event>
 7    1  0.4031943E-009  0.4778727E+02  0.7816164E-02  0.1312668E+00
        -11   -1    0    0    0    0  0.00000000000E+00  0.00000000000E+00  0.45593999997E+02  0.45594000000E+02  0.51100000000E-03 0.  1.
         11   -1    0    0    0    0 -0.00000000000E+00 -0.00000000000E+00 -0.45593999997E+02  0.45594000000E+02  0.51100000000E-03 0. -1.
    9900012    2    1    2    0    0 -0.10670989380E+02  0.43674440196E+01 -0.41841116612E+02  0.47787267046E+02  0.19999981770E+02 0.  0.
        -12    1    1    2    0    0  0.10670989380E+02 -0.43674440196E+01  0.41841116612E+02  0.43400732954E+02  0.00000000000E+00 0.  1.
         11    1    3    3    0    0 -0.41842731026E+01 -0.67465222591E+00 -0.24275946498E+02  0.24643150685E+02  0.51100000000E-03 0. -1.
        -11    1    3    3    0    0 -0.67482769997E+01 -0.24252110913E+01 -0.58756002638E+01  0.92705754958E+01  0.51100000000E-03 0.  1.
        -12    1    3    3    0    0  0.26156072228E+00  0.74673073369E+01 -0.11689569850E+02  0.13873540865E+02  0.00000000000E+00 0.  1.
</event>
<event>
 7    1  0.4031943E-009  0.4778727E+02  0.7816164E-02  0.1312668E+00
        -11   -1    0    0    0    0  0.00000000000E+00  0.00000000000E+00  0.45593999997E+02  0.45594000000E+02  0.51100000000E-03 0.  1.
         11   -1    0    0    0    0 -0.00000000000E+00 -0.00000000000E+00 -0.45593999997E+02  0.45594000000E+02  0.51100000000E-03 0. -1.
    9900012    2    1    2    0    0 -0.16347170415E+02 -0.11122574747E+02 -0.38635236739E+02  0.47787272271E+02  0.20000005590E+02 0.  0.
        -12    1    1    2    0    0  0.16347170415E+02  0.11122574747E+02  0.38635236739E+02  0.43400727729E+02  0.00000000000E+00 0.  1.
         11    1    3    3    0    0 -0.11573503760E+01 -0.48741285633E+01 -0.81165847307E+01  0.95381097234E+01  0.51100000000E-03 0. -1.
        -11    1    3    3    0    0  0.30451921579E+01 -0.15400366513E+01 -0.16746971835E+01  0.38012523046E+01  0.51100000000E-03 0.  1.
         12    1    3    3    0    0 -0.18235012197E+02 -0.47084095327E+01 -0.28843954825E+02  0.34447910242E+02  0.00000000000E+00 0. -1.
</event>
<event>
 7    1  0.4031943E-009  0.4778728E+02  0.7816164E-02  0.1312668E+00
        -11   -1    0    0    0    0  0.00000000000E+00  0.00000000000E+00  0.45593999997E+02  0.45594000000E+02  0.51100000000E-03 0.  1.
         11   -1    0    0    0    0 -0.00000000000E+00 -0.00000000000E+00 -0.45593999997E+02  0.45594000000E+02  0.51100000000E-03 0. -1.
    9900012    2    1    2    0    0  0.14035501988E+02 -0.12605568642E+01 -0.41049219370E+02  0.47787277303E+02  0.20000028537E+02 0.  0.
        -12    1    1    2    0    0 -0.14035501988E+02  0.12605568642E+01  0.41049219370E+02  0.43400722697E+02  0.00000000000E+00 0.  1.
         11    1    3    3    0    0  0.98323651451E+01  0.77338648743E+01 -0.18898246699E+02  0.22663446313E+02  0.51100000000E-03 0. -1.
        -11    1    3    3    0    0  0.41708791331E+01 -0.18176167382E+01 -0.68495821625E+01  0.82229398278E+01  0.51100000000E-03 0.  1.
        -12    1    3    3    0    0  0.32257709905E-01 -0.71768050003E+01 -0.15301390509E+02  0.16900891163E+02  0.00000000000E+00 0.  1.
</event>
<event>
 7    1  0.4031943E-009  0.4778727E+02  0.7816164E-02  0.1312668E+00
        -11   -1    0    0    0    0  0.00000000000E+00  0.00000000000E+00  0.45593999997E+02  0.45594000000E+02  0.51100000000E-03 0.  1.
         11   -1    0    0    0    0 -0.00000000000E+00 -0.00000000000E+00 -0.45593999997E+02  0.45594000000E+02  0.51100000000E-03 0. -1.
    9900012    2    1    2    0    0  0.29725115851E+02 -0.98513768031E+01 -0.30049807312E+02  0.47787273545E+02  0.20000011403E+02 0.  0.
        -12    1    1    2    0    0 -0.29725115851E+02  0.98513768031E+01  0.30049807312E+02  0.43400726455E+02  0.00000000000E+00 0.  1.
         11    1    3    3    0    0  0.31221965950E+01  0.40942757886E+01 -0.54430405099E+01  0.74925226769E+01  0.51100000000E-03 0. -1.
        -11    1    3    3    0    0  0.14814491828E+02 -0.18733365465E+01 -0.99422904581E+01  0.17939556788E+02  0.51100000000E-03 0.  1.
         12    1    3    3    0    0  0.11788427429E+02 -0.12072316045E+02 -0.14664476344E+02  0.22355194081E+02  0.00000000000E+00 0. -1.
</event>
<event>
 7    1  0.4031943E-009  0.4778727E+02  0.7816164E-02  0.1312668E+00
        -11   -1    0    0    0    0  0.00000000000E+00  0.00000000000E+00  0.45593999997E+02  0.45594000000E+02  0.51100000000E-03 0.  1.
         11   -1    0    0    0    0 -0.00000000000E+00 -0.00000000000E+00 -0.45593999997E+02  0.45594000000E+02  0.51100000000E-03 0. -1.
    9900012    2    1    2    0    0 -0.22302422916E+02  0.83252189261E+01 -0.36289338178E+02  0.47787269551E+02  0.19999993191E+02 0.  0.
        -12    1    1    2    0    0  0.22302422916E+02 -0.83252189261E+01  0.36289338178E+02  0.43400730449E+02  0.00000000000E+00 0.  1.
         11    1    3    3    0    0  0.17677948710E+01 -0.25914762983E+00 -0.30682764533E+01  0.35505741585E+01  0.51100000000E-03 0. -1.
        -11    1    3    3    0    0 -0.70409789859E+01 -0.26387817137E+01 -0.37650182831E+01  0.84091567321E+01  0.51100000000E-03 0.  1.
         12    1    3    3    0    0 -0.17029238801E+02  0.11223148270E+02 -0.29456043442E+02  0.35827538661E+02  0.00000000000E+00 0. -1.
</event>
<event>
 7    1  0.4031943E-009  0.4778727E+02  0.7816164E-02  0.1312668E+00
        -11   -1    0    0    0    0  0.00000000000E+00  0.00000000000E+00  0.45593999997E+02  0.45594000000E+02  0.51100000000E-03 0.  1.
         11   -1    0    0    0    0 -0.00000000000E+00 -0.00000000000E+00 -0.45593999997E+02  0.45594000000E+02  0.51100000000E-03 0. -1.
    9900012    2    1    2    0    0  0.37986550647E+02 -0.20985500604E+02  0.50397590958E+00  0.47787271235E+02  0.20000000869E+02 0.  0.
        -12    1    1    2    0    0 -0.37986550647E+02  0.20985500604E+02 -0.50397590958E+00  0.43400728765E+02  0.00000000000E+00 0.  1.
         11    1    3    3    0    0  0.50118417106E+01 -0.34113166528E+01 -0.60684323508E+01  0.85779665478E+01  0.51100000000E-03 0. -1.
        -11    1    3    3    0    0  0.58691646122E+01  0.68587941379E+00  0.18208695433E+01  0.61832911924E+01  0.51100000000E-03 0.  1.
         12    1    3    3    0    0  0.27105544324E+02 -0.18260063365E+02  0.47515387172E+01  0.33026013495E+02  0.00000000000E+00 0. -1.
</event>
<event>
 7    1  0.4031943E-009  0.4778727E+02  0.7816164E-02  0.1312668E+00
        -11   -1    0    0    0    0  0.00000000000E+00  0.00000000000E+00  0.45593999997E+02  0.45594000000E+02  0.51100000000E-03 0. -1.
         11   -1    0    0    0    0 -0.00000000000E+00 -0.00000000000E+00 -0.45593999997E+02  0.45594000000E+02  0.51100000000E-03 0.  1.
    9900012    2    1    2    0    0 -0.89214494390E+00  0.43385873470E+02 -0.70246808824E+00  0.47787269582E+02  0.19999993332E+02 0.  0.
        -12    1    1    2    0    0  0.89214494390E+00 -0.43385873470E+02  0.70246808824E+00  0.43400730418E+02  0.00000000000E+00 0.  1.
         11    1    3    3    0    0 -0.50520554838E+01  0.92278892469E+01  0.62769770012E+01  0.12250618152E+02  0.51100000000E-03 0. -1.
        -11    1    3    3    0    0  0.12975390847E+00  0.13471778034E+02 -0.47564271382E+00  0.13480796554E+02  0.51100000000E-03 0.  1.
         12    1    3    3    0    0  0.40301566314E+01  0.20686206189E+02 -0.65038023756E+01  0.22055854876E+02  0.00000000000E+00 0. -1.
</event>
<event>
 7    1  0.4031943E-009  0.4778727E+02  0.7816164E-02  0.1312668E+00
        -11   -1    0    0    0    0  0.00000000000E+00  0.00000000000E+00  0.45593999997E+02  0.45594000000E+02  0.51100000000E-03 0.  1.
         11   -1    0    0    0    0 -0.00000000000E+00 -0.00000000000E+00 -0.45593999997E+02  0.45594000000E+02  0.51100000000E-03 0. -1.
    9900012    2    1    2    0    0  0.27772320627E+02  0.29812487085E+02 -0.14951155479E+02  0.47787271558E+02  0.20000002340E+02 0.  0.
        -12    1    1    2    0    0 -0.27772320627E+02 -0.29812487085E+02  0.14951155479E+02  0.43400728442E+02  0.00000000000E+00 0.  1.
         11    1    3    3    0    0  0.26233978682E+02  0.27031508915E+02 -0.12570034581E+02  0.39710576442E+02  0.51100000000E-03 0. -1.
        -11    1    3    3    0    0  0.26233388662E+01  0.28460433726E+01  0.14202476214E+01  0.41229811124E+01  0.51100000000E-03 0.  1.
         12    1    3    3    0    0 -0.10849969212E+01 -0.65065203080E-01 -0.38013685198E+01  0.39537140037E+01  0.00000000000E+00 0. -1.
</event>
<event>
 7    1  0.4031943E-009  0.4778726E+02  0.7816164E-02  0.1312668E+00
        -11   -1    0    0    0    0  0.00000000000E+00  0.00000000000E+00  0.45593999997E+02  0.45594000000E+02  0.51100000000E-03 0.  1.
         11   -1    0    0    0    0 -0.00000000000E+00 -0.00000000000E+00 -0.45593999997E+02  0.45594000000E+02  0.51100000000E-03 0. -1.
    9900012    2    1    2    0    0  0.31414968977E+02 -0.29855808078E+02  0.23139814369E+01  0.47787261966E+02  0.19999958606E+02 0.  0.
        -12    1    1    2    0    0 -0.31414968977E+02  0.29855808078E+02 -0.23139814369E+01  0.43400738034E+02  0.00000000000E+00 0.  1.
         11    1    3    3    0    0  0.49707247740E+00 -0.49241043637E+01 -0.14800700096E+01  0.51657034687E+01  0.51100000000E-03 0. -1.
        -11    1    3    3    0    0  0.24180206833E+01 -0.97031369387E+01  0.23697600509E+01  0.10276840635E+02  0.51100000000E-03 0.  1.
         12    1    3    3    0    0  0.28499875816E+02 -0.15228566776E+02  0.14242913956E+01  0.32344717862E+02  0.00000000000E+00 0. -1.
</event>
<event>
 7    1  0.4031943E-009  0.4778728E+02  0.7816164E-02  0.1312668E+00
        -11   -1    0    0    0    0  0.00000000000E+00  0.00000000000E+00  0.45593999997E+02  0.45594000000E+02  0.51100000000E-03 0.  1.
         11   -1    0    0    0    0 -0.00000000000E+00 -0.00000000000E+00 -0.45593999997E+02  0.45594000000E+02  0.51100000000E-03 0. -1.
    9900012    2    1    2    0    0 -0.69539930886E+01 -0.27302440113E+02 -0.33012745452E+02  0.47787278597E+02  0.20000034436E+02 0.  0.
        -12    1    1    2    0    0  0.69539930886E+01  0.27302440113E+02  0.33012745452E+02  0.43400721403E+02  0.00000000000E+00 0.  1.
         11    1    3    3    0    0 -0.37526436882E+00 -0.34745076183E+01  0.23336573271E+00  0.35024971610E+01  0.51100000000E-03 0. -1.
        -11    1    3    3    0    0 -0.73022023120E+01 -0.21581214349E+02 -0.18492462492E+02  0.29343519568E+02  0.51100000000E-03 0.  1.
         12    1    3    3    0    0  0.72347359229E+00 -0.22467181464E+01 -0.14753648692E+02  0.14941261868E+02  0.00000000000E+00 0. -1.
</event>
<event>
 7    1  0.4031943E-009  0.4778727E+02  0.7816164E-02  0.1312668E+00
        -11   -1    0    0    0    0  0.00000000000E+00  0.00000000000E+00  0.45593999997E+02  0.45594000000E+02  0.51100000000E-03 0.  1.
         11   -1    0    0    0    0 -0.00000000000E+00 -0.00000000000E+00 -0.45593999997E+02  0.45594000000E+02  0.51100000000E-03 0. -1.
    9900012    2    1    2    0    0 -0.20208190448E+01 -0.26239764397E+02 -0.34511072188E+02  0.47787273638E+02  0.20000011824E+02 0.  0.
        -12    1    1    2    0    0  0.20208190448E+01  0.26239764397E+02  0.34511072188E+02  0.43400726362E+02  0.00000000000E+00 0.  1.
         11    1    3    3    0    0 -0.27155511977E+01 -0.85412269080E+01 -0.52325617620E+01  0.10378173166E+02  0.51100000000E-03 0. -1.
        -11    1    3    3    0    0 -0.63774605243E+01 -0.38170136018E+01 -0.12256329891E+02  0.14333848689E+02  0.51100000000E-03 0.  1.
        -12    1    3    3    0    0  0.70721926773E+01 -0.13881523887E+02 -0.17022180534E+02  0.23075251783E+02  0.00000000000E+00 0.  1.
</event>
<event>
 7    1  0.4031943E-009  0.4778727E+02  0.7816164E-02  0.1312668E+00
        -11   -1    0    0    0    0  0.00000000000E+00  0.00000000000E+00  0.45593999997E+02  0.45594000000E+02  0.51100000000E-03 0. -1.
         11   -1    0    0    0    0 -0.00000000000E+00 -0.00000000000E+00 -0.45593999997E+02  0.45594000000E+02  0.51100000000E-03 0.  1.
    9900012    2    1    2    0    0  0.39664973355E+02  0.17543275669E+02 -0.15957875748E+01  0.47787272236E+02  0.20000005433E+02 0.  0.
        -12    1    1    2    0    0 -0.39664973355E+02 -0.17543275669E+02  0.15957875748E+01  0.43400727764E+02  0.00000000000E+00 0.  1.
         11    1    3    3    0    0  0.33945083239E+01  0.22727832432E+01  0.99238243848E+00  0.42039331104E+01  0.51100000000E-03 0. -1.
        -11    1    3    3    0    0  0.30948646225E+01 -0.38162879917E+01 -0.19987465463E+01  0.53044537028E+01  0.51100000000E-03 0.  1.
        -12    1    3    3    0    0  0.33175600408E+02  0.19086780418E+02 -0.58942346694E+00  0.38278885423E+02  0.00000000000E+00 0.  1.
</event>
<event>
 7    1  0.4031943E-009  0.4778727E+02  0.7816164E-02  0.1312668E+00
        -11   -1    0    0    0    0  0.00000000000E+00  0.00000000000E+00  0.45593999997E+02  0.45594000000E+02  0.51100000000E-03 0.  1.
         11   -1    0    0    0    0 -0.00000000000E+00 -0.00000000000E+00 -0.45593999997E+02  0.45594000000E+02  0.51100000000E-03 0. -1.
    9900012    2    1    2    0    0  0.13529797591E+02  0.37747067077E+02  0.16605023541E+02  0.47787270713E+02  0.19999998490E+02 0.  0.
        -12    1    1    2    0    0 -0.13529797591E+02 -0.37747067077E+02 -0.16605023541E+02  0.43400729287E+02  0.00000000000E+00 0.  1.
         11    1    3    3    0    0  0.13383850850E+01  0.15845919609E+02  0.56911034656E+00  0.15912521162E+02  0.51100000000E-03 0. -1.
        -11    1    3    3    0    0 -0.12225530980E+00  0.97422352015E+01  0.29526795821E+01  0.10180589868E+02  0.51100000000E-03 0.  1.
        -12    1    3    3    0    0  0.12313667816E+02  0.12158912267E+02  0.13083233613E+02  0.21694159683E+02  0.00000000000E+00 0.  1.
</event>
<event>
 7    1  0.4031943E-009  0.4778727E+02  0.7816164E-02  0.1312668E+00
        -11   -1    0    0    0    0  0.00000000000E+00  0.00000000000E+00  0.45593999997E+02  0.45594000000E+02  0.51100000000E-03 0.  1.
         11   -1    0    0    0    0 -0.00000000000E+00 -0.00000000000E+00 -0.45593999997E+02  0.45594000000E+02  0.51100000000E-03 0. -1.
    9900012    2    1    2    0    0  0.62090238473E+01 -0.42269185088E+02 -0.76411786277E+01  0.47787267334E+02  0.19999983081E+02 0.  0.
        -12    1    1    2    0    0 -0.62090238473E+01  0.42269185088E+02  0.76411786277E+01  0.43400732666E+02  0.00000000000E+00 0.  1.
         11    1    3    3    0    0 -0.20646302770E+01 -0.21507105274E+02 -0.42265197027E+01  0.22015488741E+02  0.51100000000E-03 0. -1.
        -11    1    3    3    0    0 -0.19387009972E+01 -0.11711170705E+02 -0.21914406433E+01  0.12071142994E+02  0.51100000000E-03 0.  1.
        -12    1    3    3    0    0  0.10212355121E+02 -0.90509091096E+01 -0.12232182816E+01  0.13700635598E+02  0.00000000000E+00 0.  1.
</event>
<event>
 7    1  0.4031943E-009  0.4778727E+02  0.7816164E-02  0.1312668E+00
        -11   -1    0    0    0    0  0.00000000000E+00  0.00000000000E+00  0.45593999997E+02  0.45594000000E+02  0.51100000000E-03 0.  1.
         11   -1    0    0    0    0 -0.00000000000E+00 -0.00000000000E+00 -0.45593999997E+02  0.45594000000E+02  0.51100000000E-03 0. -1.
    9900012    2    1    2    0    0  0.37794825399E+02  0.14044219528E+02 -0.16060331186E+02  0.47787272277E+02  0.20000005618E+02 0.  0.
        -12    1    1    2    0    0 -0.37794825399E+02 -0.14044219528E+02  0.16060331186E+02  0.43400727723E+02  0.00000000000E+00 0.  1.
         11    1    3    3    0    0  0.34009432384E+01 -0.32158975500E+00 -0.89068438130E+01  0.95394812150E+01  0.51100000000E-03 0. -1.
        -11    1    3    3    0    0  0.16695254018E+02  0.75806663991E+01 -0.58586542663E+01  0.19248943863E+02  0.51100000000E-03 0.  1.
        -12    1    3    3    0    0  0.17698628143E+02  0.67851428843E+01 -0.12948331071E+01  0.18998847198E+02  0.00000000000E+00 0.  1.
</event>
<event>
 7    1  0.4031943E-009  0.4778727E+02  0.7816164E-02  0.1312668E+00
        -11   -1    0    0    0    0  0.00000000000E+00  0.00000000000E+00  0.45593999997E+02  0.45594000000E+02  0.51100000000E-03 0.  1.
         11   -1    0    0    0    0 -0.00000000000E+00 -0.00000000000E+00 -0.45593999997E+02  0.45594000000E+02  0.51100000000E-03 0. -1.
    9900012    2    1    2    0    0 -0.16267095748E+02  0.92041266465E+01 -0.39170003116E+02  0.47787268491E+02  0.19999988357E+02 0.  0.
        -12    1    1    2    0    0  0.16267095748E+02 -0.92041266465E+01  0.39170003116E+02  0.43400731509E+02  0.00000000000E+00 0.  1.
         11    1    3    3    0    0  0.67178480214E+00  0.17081322759E+01 -0.49921342500E+01  0.53188735014E+01  0.51100000000E-03 0. -1.
        -11    1    3    3    0    0 -0.10695178215E+02  0.59625845335E+01 -0.61310674320E+01  0.13694131571E+02  0.51100000000E-03 0.  1.
        -12    1    3    3    0    0 -0.62437023358E+01  0.15334098371E+01 -0.28046801434E+02  0.28774263419E+02  0.00000000000E+00 0.  1.
</event>
<event>
 7    1  0.4031943E-009  0.4778727E+02  0.7816164E-02  0.1312668E+00
        -11   -1    0    0    0    0  0.00000000000E+00  0.00000000000E+00  0.45593999997E+02  0.45594000000E+02  0.51100000000E-03 0.  1.
         11   -1    0    0    0    0 -0.00000000000E+00 -0.00000000000E+00 -0.45593999997E+02  0.45594000000E+02  0.51100000000E-03 0. -1.
    9900012    2    1    2    0    0  0.18693440966E+02  0.25425749774E+02 -0.29794458056E+02  0.47787271693E+02  0.20000002957E+02 0.  0.
        -12    1    1    2    0    0 -0.18693440966E+02 -0.25425749774E+02  0.29794458056E+02  0.43400728307E+02  0.00000000000E+00 0.  1.
         11    1    3    3    0    0  0.52193220083E+01  0.18566146040E+02 -0.17518853963E+02  0.26054814247E+02  0.51100000000E-03 0. -1.
        -11    1    3    3    0    0  0.40845153743E+01  0.35028112926E+01 -0.10221813978E+02  0.11551555482E+02  0.51100000000E-03 0.  1.
        -12    1    3    3    0    0  0.93896035837E+01  0.33567924410E+01 -0.20537901148E+01  0.10180901963E+02  0.00000000000E+00 0.  1.
</event>
<event>
 7    1  0.4031943E-009  0.4778727E+02  0.7816164E-02  0.1312668E+00
        -11   -1    0    0    0    0  0.00000000000E+00  0.00000000000E+00  0.45593999997E+02  0.45594000000E+02  0.51100000000E-03 0.  1.
         11   -1    0    0    0    0 -0.00000000000E+00 -0.00000000000E+00 -0.45593999997E+02  0.45594000000E+02  0.51100000000E-03 0. -1.
    9900012    2    1    2    0    0 -0.14961531986E+00  0.99758304906E+01 -0.42238416460E+02  0.47787269548E+02  0.19999993178E+02 0.  0.
        -12    1    1    2    0    0  0.14961531986E+00 -0.99758304906E+01  0.42238416460E+02  0.43400730452E+02  0.00000000000E+00 0.  1.
         11    1    3    3    0    0 -0.19615424494E+00  0.82186703649E+01 -0.12673294699E+02  0.15106204614E+02  0.51100000000E-03 0. -1.
        -11    1    3    3    0    0 -0.57279589455E+01 -0.29169134395E+01 -0.12095703929E+02  0.13697589259E+02  0.51100000000E-03 0.  1.
        -12    1    3    3    0    0  0.57744978705E+01  0.46740735652E+01 -0.17469417831E+02  0.18983475675E+02  0.00000000000E+00 0.  1.
</event>
<event>
 7    1  0.4031943E-009  0.4778727E+02  0.7816164E-02  0.1312668E+00
        -11   -1    0    0    0    0  0.00000000000E+00  0.00000000000E+00  0.45593999997E+02  0.45594000000E+02  0.51100000000E-03 0.  1.
         11   -1    0    0    0    0 -0.00000000000E+00 -0.00000000000E+00 -0.45593999997E+02  0.45594000000E+02  0.51100000000E-03 0. -1.
    9900012    2    1    2    0    0 -0.10512501526E+02  0.18629873092E+02 -0.37762920980E+02  0.47787273501E+02  0.20000011199E+02 0.  0.
        -12    1    1    2    0    0  0.10512501526E+02 -0.18629873092E+02  0.37762920980E+02  0.43400726499E+02  0.00000000000E+00 0.  1.
         11    1    3    3    0    0 -0.18289030492E+01  0.96285108182E+01 -0.19277404627E+02  0.21625712389E+02  0.51100000000E-03 0. -1.
        -11    1    3    3    0    0  0.10140211981E+00  0.92992792084E+01 -0.12269492890E+02  0.15395692002E+02  0.51100000000E-03 0.  1.
        -12    1    3    3    0    0 -0.87850005969E+01 -0.29791693470E+00 -0.62160234624E+01  0.10765869109E+02  0.00000000000E+00 0.  1.
</event>
<event>
 7    1  0.4031943E-009  0.4778727E+02  0.7816164E-02  0.1312668E+00
        -11   -1    0    0    0    0  0.00000000000E+00  0.00000000000E+00  0.45593999997E+02  0.45594000000E+02  0.51100000000E-03 0.  1.
         11   -1    0    0    0    0 -0.00000000000E+00 -0.00000000000E+00 -0.45593999997E+02  0.45594000000E+02  0.51100000000E-03 0. -1.
    9900012    2    1    2    0    0  0.32490250675E+02  0.28095647881E+02  0.62162109506E+01  0.47787273078E+02  0.20000009270E+02 0.  0.
        -12    1    1    2    0    0 -0.32490250675E+02 -0.28095647881E+02 -0.62162109506E+01  0.43400726922E+02  0.00000000000E+00 0.  1.
         11    1    3    3    0    0  0.27005716223E+01 -0.56553734151E+00  0.17953640144E-01  0.27592104244E+01  0.51100000000E-03 0. -1.
        -11    1    3    3    0    0  0.22598482615E+02  0.18890672928E+02  0.11718282206E+02  0.31699638457E+02  0.51100000000E-03 0.  1.
         12    1    3    3    0    0  0.71911964374E+01  0.97705122951E+01 -0.55200248952E+01  0.13328424196E+02  0.00000000000E+00 0. -1.
</event>
<event>
 7    1  0.4031943E-009  0.4778727E+02  0.7816164E-02  0.1312668E+00
        -11   -1    0    0    0    0  0.00000000000E+00  0.00000000000E+00  0.45593999997E+02  0.45594000000E+02  0.51100000000E-03 0.  1.
         11   -1    0    0    0    0 -0.00000000000E+00 -0.00000000000E+00 -0.45593999997E+02  0.45594000000E+02  0.51100000000E-03 0. -1.
    9900012    2    1    2    0    0 -0.24072985502E+02  0.69547177645E+01 -0.35436514509E+02  0.47787270850E+02  0.19999999114E+02 0.  0.
        -12    1    1    2    0    0  0.24072985502E+02 -0.69547177645E+01  0.35436514509E+02  0.43400729150E+02  0.00000000000E+00 0.  1.
         11    1    3    3    0    0 -0.10118501138E+02 -0.41116311040E+00 -0.28899973261E+02  0.30622892991E+02  0.51100000000E-03 0. -1.
        -11    1    3    3    0    0 -0.24829308678E+01  0.13163605578E+01 -0.48025935376E+00  0.28510349210E+01  0.51100000000E-03 0.  1.
         12    1    3    3    0    0 -0.11471553496E+02  0.60495203170E+01 -0.60562818947E+01  0.14313342938E+02  0.00000000000E+00 0. -1.
</event>
<event>
 7    1  0.4031943E-009  0.4778727E+02  0.7816164E-02  0.1312668E+00
        -11   -1    0    0    0    0  0.00000000000E+00  0.00000000000E+00  0.45593999997E+02  0.45594000000E+02  0.51100000000E-03 0.  1.
         11   -1    0    0    0    0 -0.00000000000E+00 -0.00000000000E+00 -0.45593999997E+02  0.45594000000E+02  0.51100000000E-03 0. -1.
    9900012    2    1    2    0    0 -0.25356466673E+02 -0.31575452361E+02 -0.15609742219E+02  0.47787266756E+02  0.19999980448E+02 0.  0.
        -12    1    1    2    0    0  0.25356466673E+02  0.31575452361E+02  0.15609742219E+02  0.43400733244E+02  0.00000000000E+00 0.  1.
         11    1    3    3    0    0 -0.21947926660E+02 -0.24425907654E+02 -0.16513963268E+02  0.36756597129E+02  0.51100000000E-03 0. -1.
        -11    1    3    3    0    0 -0.15293282207E+01 -0.58991697418E+01 -0.27891938210E+01  0.67021377845E+01  0.51100000000E-03 0.  1.
        -12    1    3    3    0    0 -0.18792117925E+01 -0.12503749651E+01  0.36934148701E+01  0.43285318432E+01  0.00000000000E+00 0.  1.
</event>
<event>
 7    1  0.4031943E-009  0.4778726E+02  0.7816164E-02  0.1312668E+00
        -11   -1    0    0    0    0  0.00000000000E+00  0.00000000000E+00  0.45593999997E+02  0.45594000000E+02  0.51100000000E-03 0. -1.
         11   -1    0    0    0    0 -0.00000000000E+00 -0.00000000000E+00 -0.45593999997E+02  0.45594000000E+02  0.51100000000E-03 0.  1.
    9900012    2    1    2    0    0  0.68617317844E+01 -0.42452510318E+02  0.58587502926E+01  0.47787263251E+02  0.19999964467E+02 0.  0.
        -12    1    1    2    0    0 -0.68617317844E+01  0.42452510318E+02 -0.58587502926E+01  0.43400736749E+02  0.00000000000E+00 0.  1.
         11    1    3    3    0    0 -0.17542431269E+01 -0.34828639000E+01 -0.45461847295E+01  0.59896164944E+01  0.51100000000E-03 0.  1.
        -11    1    3    3    0    0 -0.20233118796E-01 -0.13643729519E+02  0.22765591304E+01  0.13832370957E+02  0.51100000000E-03 0. -1.
        -12    1    3    3    0    0  0.86362080300E+01 -0.25325916899E+02  0.81283758917E+01  0.27965275799E+02  0.00000000000E+00 0.  1.
</event>
<event>
 7    1  0.4031943E-009  0.4778727E+02  0.7816164E-02  0.1312668E+00
        -11   -1    0    0    0    0  0.00000000000E+00  0.00000000000E+00  0.45593999997E+02  0.45594000000E+02  0.51100000000E-03 0.  1.
         11   -1    0    0    0    0 -0.00000000000E+00 -0.00000000000E+00 -0.45593999997E+02  0.45594000000E+02  0.51100000000E-03 0. -1.
    9900012    2    1    2    0    0  0.23367903651E+02  0.22211953987E+02 -0.29055004292E+02  0.47787273101E+02  0.20000009375E+02 0.  0.
        -12    1    1    2    0    0 -0.23367903651E+02 -0.22211953987E+02  0.29055004292E+02  0.43400726899E+02  0.00000000000E+00 0.  1.
         11    1    3    3    0    0  0.62266332332E+01  0.10183839494E+02 -0.12512871769E+02  0.17293163633E+02  0.51100000000E-03 0. -1.
        -11    1    3    3    0    0  0.10425313411E+02 -0.63594047057E+00 -0.32331535026E+01  0.10933657295E+02  0.51100000000E-03 0.  1.
        -12    1    3    3    0    0  0.67159570065E+01  0.12664054963E+02 -0.13308979021E+02  0.19560452173E+02  0.00000000000E+00 0.  1.
</event>
<event>
 7    1  0.4031943E-009  0.4778727E+02  0.7816164E-02  0.1312668E+00
        -11   -1    0    0    0    0  0.00000000000E+00  0.00000000000E+00  0.45593999997E+02  0.45594000000E+02  0.51100000000E-03 0.  1.
         11   -1    0    0    0    0 -0.00000000000E+00 -0.00000000000E+00 -0.45593999997E+02  0.45594000000E+02  0.51100000000E-03 0. -1.
    9900012    2    1    2    0    0 -0.19399217770E+02 -0.11429646555E+02 -0.37103328008E+02  0.47787269364E+02  0.19999992337E+02 0.  0.
        -12    1    1    2    0    0  0.19399217770E+02  0.11429646555E+02  0.37103328008E+02  0.43400730636E+02  0.00000000000E+00 0.  1.
         11    1    3    3    0    0 -0.11792269000E+01 -0.11192166722E+02 -0.18503861498E+02  0.21657517462E+02  0.51100000000E-03 0. -1.
        -11    1    3    3    0    0 -0.24920936603E+01  0.34246721681E+00 -0.16971871899E+01  0.30345113651E+01  0.51100000000E-03 0.  1.
         12    1    3    3    0    0 -0.15727897210E+02 -0.57994705002E+00 -0.16902279321E+02  0.23095240537E+02  0.00000000000E+00 0. -1.
</event>
<event>
 7    1  0.4031943E-009  0.4778726E+02  0.7816164E-02  0.1312668E+00
        -11   -1    0    0    0    0  0.00000000000E+00  0.00000000000E+00  0.45593999997E+02  0.45594000000E+02  0.51100000000E-03 0.  1.
         11   -1    0    0    0    0 -0.00000000000E+00 -0.00000000000E+00 -0.45593999997E+02  0.45594000000E+02  0.51100000000E-03 0. -1.
    9900012    2    1    2    0    0  0.21082671068E+02  0.35243754744E+02  0.14036474445E+02  0.47787264031E+02  0.19999968024E+02 0.  0.
        -12    1    1    2    0    0 -0.21082671068E+02 -0.35243754744E+02 -0.14036474445E+02  0.43400735969E+02  0.00000000000E+00 0.  1.
         11    1    3    3    0    0  0.14302840375E+02  0.13723098209E+02  0.64547684796E+01  0.20846071660E+02  0.51100000000E-03 0. -1.
        -11    1    3    3    0    0  0.77149596537E+01  0.13075339031E+02  0.99114068799E+01  0.18130666833E+02  0.51100000000E-03 0.  1.
         12    1    3    3    0    0 -0.93512896068E+00  0.84453175033E+01 -0.23297009141E+01  0.88105255379E+01  0.00000000000E+00 0. -1.
</event>
<event>
 7    1  0.4031943E-009  0.4778727E+02  0.7816164E-02  0.1312668E+00
        -11   -1    0    0    0    0  0.00000000000E+00  0.00000000000E+00  0.45593999997E+02  0.45594000000E+02  0.51100000000E-03 0. -1.
         11   -1    0    0    0    0 -0.00000000000E+00 -0.00000000000E+00 -0.45593999997E+02  0.45594000000E+02  0.51100000000E-03 0.  1.
    9900012    2    1    2    0    0 -0.30666770894E+01  0.37237098054E+02  0.22082052864E+02  0.47787273756E+02  0.20000012363E+02 0.  0.
        -12    1    1    2    0    0  0.30666770894E+01 -0.37237098054E+02 -0.22082052864E+02  0.43400726244E+02  0.00000000000E+00 0.  1.
         11    1    3    3    0    0 -0.55152546482E+01  0.19325256050E+01  0.33650268053E+01  0.67435965708E+01  0.51100000000E-03 0. -1.
        -11    1    3    3    0    0 -0.13495850951E+01  0.44266617973E+01  0.56419293868E+01  0.72971283437E+01  0.51100000000E-03 0.  1.
        -12    1    3    3    0    0  0.37981626539E+01  0.30877910651E+02  0.13075096672E+02  0.33746548841E+02  0.00000000000E+00 0.  1.
</event>
<event>
 7    1  0.4031943E-009  0.4778727E+02  0.7816164E-02  0.1312668E+00
        -11   -1    0    0    0    0  0.00000000000E+00  0.00000000000E+00  0.45593999997E+02  0.45594000000E+02  0.51100000000E-03 0.  1.
         11   -1    0    0    0    0 -0.00000000000E+00 -0.00000000000E+00 -0.45593999997E+02  0.45594000000E+02  0.51100000000E-03 0. -1.
    9900012    2    1    2    0    0  0.17683860252E+01  0.22138242827E+00 -0.43364118212E+02  0.47787274803E+02  0.20000017137E+02 0.  0.
        -12    1    1    2    0    0 -0.17683860252E+01 -0.22138242827E+00  0.43364118212E+02  0.43400725197E+02  0.00000000000E+00 0.  1.
         11    1    3    3    0    0 -0.61768181155E+01  0.28860058010E+01 -0.19178293143E+02  0.20354091472E+02  0.51100000000E-03 0. -1.
        -11    1    3    3    0    0 -0.53789593486E+00  0.26188831862E+01 -0.30647792370E+01  0.40670324823E+01  0.51100000000E-03 0.  1.
        -12    1    3    3    0    0  0.84831000756E+01 -0.52835065589E+01 -0.21121045832E+02  0.23366150849E+02  0.00000000000E+00 0.  1.
</event>
<event>
 7    1  0.4031943E-009  0.4778727E+02  0.7816164E-02  0.1312668E+00
        -11   -1    0    0    0    0  0.00000000000E+00  0.00000000000E+00  0.45593999997E+02  0.45594000000E+02  0.51100000000E-03 0.  1.
         11   -1    0    0    0    0 -0.00000000000E+00 -0.00000000000E+00 -0.45593999997E+02  0.45594000000E+02  0.51100000000E-03 0. -1.
    9900012    2    1    2    0    0  0.77977314457E+01 -0.39727520917E+02 -0.15637854833E+02  0.47787273765E+02  0.20000012406E+02 0.  0.
        -12    1    1    2    0    0 -0.77977314457E+01  0.39727520917E+02  0.15637854833E+02  0.43400726235E+02  0.00000000000E+00 0.  1.
         11    1    3    3    0    0  0.53623733282E+01 -0.64254884979E+01 -0.43968553965E+01  0.94537975325E+01  0.51100000000E-03 0. -1.
        -11    1    3    3    0    0  0.37952889143E+00 -0.33384297621E+01 -0.73075190096E+01  0.80429465865E+01  0.51100000000E-03 0.  1.
        -12    1    3    3    0    0  0.20558292261E+01 -0.29963602657E+02 -0.39334804265E+01  0.30290529646E+02  0.00000000000E+00 0.  1.
</event>
<event>
 7    1  0.4031943E-009  0.4778727E+02  0.7816164E-02  0.1312668E+00
        -11   -1    0    0    0    0  0.00000000000E+00  0.00000000000E+00  0.45593999997E+02  0.45594000000E+02  0.51100000000E-03 0.  1.
         11   -1    0    0    0    0 -0.00000000000E+00 -0.00000000000E+00 -0.45593999997E+02  0.45594000000E+02  0.51100000000E-03 0. -1.
    9900012    2    1    2    0    0 -0.26958920368E+01 -0.29037225704E+02 -0.32143346860E+02  0.47787273533E+02  0.20000011348E+02 0.  0.
        -12    1    1    2    0    0  0.26958920368E+01  0.29037225704E+02  0.32143346860E+02  0.43400726467E+02  0.00000000000E+00 0.  1.
         11    1    3    3    0    0 -0.24602178112E+01 -0.74588146636E+01 -0.23760795618E+01  0.82056286906E+01  0.51100000000E-03 0. -1.
        -11    1    3    3    0    0 -0.52340617547E+01 -0.12184741805E+02 -0.83623377009E+01  0.15677755814E+02  0.51100000000E-03 0.  1.
         12    1    3    3    0    0  0.49983875290E+01 -0.93936692363E+01 -0.21404929597E+02  0.23903889028E+02  0.00000000000E+00 0. -1.
</event>
<event>
 7    1  0.4031943E-009  0.4778727E+02  0.7816164E-02  0.1312668E+00
        -11   -1    0    0    0    0  0.00000000000E+00  0.00000000000E+00  0.45593999997E+02  0.45594000000E+02  0.51100000000E-03 0.  1.
         11   -1    0    0    0    0 -0.00000000000E+00 -0.00000000000E+00 -0.45593999997E+02  0.45594000000E+02  0.51100000000E-03 0. -1.
    9900012    2    1    2    0    0  0.42860166901E+02  0.37765116525E+00  0.68181160224E+01  0.47787271512E+02  0.20000002134E+02 0.  0.
        -12    1    1    2    0    0 -0.42860166901E+02 -0.37765116525E+00 -0.68181160224E+01  0.43400728488E+02  0.00000000000E+00 0.  1.
         11    1    3    3    0    0  0.18019880506E+02  0.23897240150E+01  0.68434766395E+01  0.19423183238E+02  0.51100000000E-03 0. -1.
        -11    1    3    3    0    0  0.90566140185E+01 -0.20659757777E+01  0.64444198498E+01  0.11305797666E+02  0.51100000000E-03 0.  1.
        -12    1    3    3    0    0  0.15783672376E+02  0.53902927907E-01 -0.64697804669E+01  0.17058290608E+02  0.00000000000E+00 0.  1.
</event>
<event>
 7    1  0.4031943E-009  0.4778727E+02  0.7816164E-02  0.1312668E+00
        -11   -1    0    0    0    0  0.00000000000E+00  0.00000000000E+00  0.45593999997E+02  0.45594000000E+02  0.51100000000E-03 0. -1.
         11   -1    0    0    0    0 -0.00000000000E+00 -0.00000000000E+00 -0.45593999997E+02  0.45594000000E+02  0.51100000000E-03 0.  1.
    9900012    2    1    2    0    0  0.74561191023E+01  0.31286908912E+02  0.29140333603E+02  0.47787269317E+02  0.19999992125E+02 0.  0.
        -12    1    1    2    0    0 -0.74561191023E+01 -0.31286908912E+02 -0.29140333603E+02  0.43400730683E+02  0.00000000000E+00 0.  1.
         11    1    3    3    0    0 -0.26791185372E+01  0.15061244644E+02  0.19414993475E+02  0.24717619995E+02  0.51100000000E-03 0. -1.
        -11    1    3    3    0    0 -0.11830927234E+01  0.28165358366E+01  0.10183581804E+00  0.30566244954E+01  0.51100000000E-03 0.  1.
        -12    1    3    3    0    0  0.11318330363E+02  0.13409128432E+02  0.96235043099E+01  0.20013024826E+02  0.00000000000E+00 0.  1.
</event>
<event>
 7    1  0.4031943E-009  0.4778727E+02  0.7816164E-02  0.1312668E+00
        -11   -1    0    0    0    0  0.00000000000E+00  0.00000000000E+00  0.45593999997E+02  0.45594000000E+02  0.51100000000E-03 0. -1.
         11   -1    0    0    0    0 -0.00000000000E+00 -0.00000000000E+00 -0.45593999997E+02  0.45594000000E+02  0.51100000000E-03 0.  1.
    9900012    2    1    2    0    0  0.29834396523E+02  0.27872338051E+02  0.14719548817E+02  0.47787267728E+02  0.19999984881E+02 0.  0.
        -12    1    1    2    0    0 -0.29834396523E+02 -0.27872338051E+02 -0.14719548817E+02  0.43400732272E+02  0.00000000000E+00 0.  1.
         11    1    3    3    0    0  0.23544757936E+02  0.22201471978E+02  0.96579829054E+01  0.33771846533E+02  0.51100000000E-03 0. -1.
        -11    1    3    3    0    0  0.75828243606E+01  0.49186153927E+01  0.32064464165E+00  0.90440486460E+01  0.51100000000E-03 0.  1.
        -12    1    3    3    0    0 -0.12931857730E+01  0.75225068075E+00  0.47409212701E+01  0.49713725489E+01  0.00000000000E+00 0.  1.
</event>
<event>
 7    1  0.4031943E-009  0.4778727E+02  0.7816164E-02  0.1312668E+00
        -11   -1    0    0    0    0  0.00000000000E+00  0.00000000000E+00  0.45593999997E+02  0.45594000000E+02  0.51100000000E-03 0.  1.
         11   -1    0    0    0    0 -0.00000000000E+00 -0.00000000000E+00 -0.45593999997E+02  0.45594000000E+02  0.51100000000E-03 0. -1.
    9900012    2    1    2    0    0 -0.31945411742E+02 -0.41989100857E+01 -0.29077197396E+02  0.47787267452E+02  0.19999983621E+02 0.  0.
        -12    1    1    2    0    0  0.31945411742E+02  0.41989100857E+01  0.29077197396E+02  0.43400732548E+02  0.00000000000E+00 0.  1.
         11    1    3    3    0    0 -0.12576180186E+02 -0.81387544342E+01 -0.91829119280E+01  0.17570586318E+02  0.51100000000E-03 0. -1.
        -11    1    3    3    0    0 -0.17542694438E+02  0.12947605019E+01 -0.10969030857E+02  0.20730223614E+02  0.51100000000E-03 0.  1.
         12    1    3    3    0    0 -0.18265371182E+01  0.26450838466E+01 -0.89252546111E+01  0.94864575197E+01  0.00000000000E+00 0. -1.
</event>
<event>
 7    1  0.4031943E-009  0.4778728E+02  0.7816164E-02  0.1312668E+00
        -11   -1    0    0    0    0  0.00000000000E+00  0.00000000000E+00  0.45593999997E+02  0.45594000000E+02  0.51100000000E-03 0.  1.
         11   -1    0    0    0    0 -0.00000000000E+00 -0.00000000000E+00 -0.45593999997E+02  0.45594000000E+02  0.51100000000E-03 0. -1.
    9900012    2    1    2    0    0  0.35020081253E+02 -0.18104558757E+02 -0.18150530387E+02  0.47787275443E+02  0.20000020053E+02 0.  0.
        -12    1    1    2    0    0 -0.35020081253E+02  0.18104558757E+02  0.18150530387E+02  0.43400724557E+02  0.00000000000E+00 0.  1.
         11    1    3    3    0    0  0.16287838993E+02 -0.11967371413E+02 -0.78150574555E+01  0.21669951567E+02  0.51100000000E-03 0. -1.
        -11    1    3    3    0    0  0.65511177857E+01 -0.92814701485E+01 -0.41132862792E+01  0.12082299311E+02  0.51100000000E-03 0.  1.
        -12    1    3    3    0    0  0.12181124474E+02  0.31442828042E+01 -0.62221866526E+01  0.14035024565E+02  0.00000000000E+00 0.  1.
</event>
<event>
 7    1  0.4031943E-009  0.4778727E+02  0.7816164E-02  0.1312668E+00
        -11   -1    0    0    0    0  0.00000000000E+00  0.00000000000E+00  0.45593999997E+02  0.45594000000E+02  0.51100000000E-03 0.  1.
         11   -1    0    0    0    0 -0.00000000000E+00 -0.00000000000E+00 -0.45593999997E+02  0.45594000000E+02  0.51100000000E-03 0. -1.
    9900012    2    1    2    0    0  0.22897560129E+02  0.25647859542E+02 -0.26486079574E+02  0.47787269935E+02  0.19999994943E+02 0.  0.
        -12    1    1    2    0    0 -0.22897560129E+02 -0.25647859542E+02  0.26486079574E+02  0.43400730065E+02  0.00000000000E+00 0.  1.
         11    1    3    3    0    0  0.91475337054E+01  0.24955361688E+00 -0.42491290224E+01  0.10089338314E+02  0.51100000000E-03 0. -1.
        -11    1    3    3    0    0  0.53932342541E+01  0.93793335202E+01 -0.28320176493E+01  0.11183881134E+02  0.51100000000E-03 0.  1.
         12    1    3    3    0    0  0.83567921692E+01  0.16018972405E+02 -0.19404932903E+02  0.26514050487E+02  0.00000000000E+00 0. -1.
</event>
<event>
 7    1  0.4031943E-009  0.4778727E+02  0.7816164E-02  0.1312668E+00
        -11   -1    0    0    0    0  0.00000000000E+00  0.00000000000E+00  0.45593999997E+02  0.45594000000E+02  0.51100000000E-03 0.  1.
         11   -1    0    0    0    0 -0.00000000000E+00 -0.00000000000E+00 -0.45593999997E+02  0.45594000000E+02  0.51100000000E-03 0. -1.
    9900012    2    1    2    0    0  0.12118980197E+02 -0.26964134440E+02 -0.31775601199E+02  0.47787273524E+02  0.20000011304E+02 0.  0.
        -12    1    1    2    0    0 -0.12118980197E+02  0.26964134440E+02  0.31775601199E+02  0.43400726476E+02  0.00000000000E+00 0.  1.
         11    1    3    3    0    0  0.12382981235E+01 -0.30385981241E+00  0.13500305662E+01  0.18569587554E+01  0.51100000000E-03 0. -1.
        -11    1    3    3    0    0  0.38624226584E+01  0.36208919590E+00 -0.45644629307E+01  0.59903037890E+01  0.51100000000E-03 0.  1.
         12    1    3    3    0    0  0.70182594147E+01 -0.27022363823E+02 -0.28561168835E+02  0.39940010979E+02  0.00000000000E+00 0. -1.
</event>
<event>
 7    1  0.4031943E-009  0.4778726E+02  0.7816164E-02  0.1312668E+00
        -11   -1    0    0    0    0  0.00000000000E+00  0.00000000000E+00  0.45593999997E+02  0.45594000000E+02  0.51100000000E-03 0. -1.
         11   -1    0    0    0    0 -0.00000000000E+00 -0.00000000000E+00 -0.45593999997E+02  0.45594000000E+02  0.51100000000E-03 0.  1.
    9900012    2    1    2    0    0  0.38779375577E+02 -0.17992505739E+02  0.74869317539E+01  0.47787258301E+02  0.19999941897E+02 0.  0.
        -12    1    1    2    0    0 -0.38779375577E+02  0.17992505739E+02 -0.74869317539E+01  0.43400741699E+02  0.00000000000E+00 0.  1.
         11    1    3    3    0    0  0.40327420553E+01 -0.31365911073E+01 -0.21332456223E+01  0.55364202699E+01  0.51100000000E-03 0. -1.
        -11    1    3    3    0    0  0.91116210369E+01 -0.21275400210E+01  0.99087329333E+01  0.13628318057E+02  0.51100000000E-03 0.  1.
        -12    1    3    3    0    0  0.25635012485E+02 -0.12728374611E+02 -0.28855555712E+00  0.28622519974E+02  0.00000000000E+00 0.  1.
</event>
<event>
 7    1  0.4031943E-009  0.4778728E+02  0.7816164E-02  0.1312668E+00
        -11   -1    0    0    0    0  0.00000000000E+00  0.00000000000E+00  0.45593999997E+02  0.45594000000E+02  0.51100000000E-03 0. -1.
         11   -1    0    0    0    0 -0.00000000000E+00 -0.00000000000E+00 -0.45593999997E+02  0.45594000000E+02  0.51100000000E-03 0.  1.
    9900012    2    1    2    0    0 -0.40244941245E+02  0.74063535631E+00  0.16230189405E+02  0.47787275528E+02  0.20000020443E+02 0.  0.
        -12    1    1    2    0    0  0.40244941245E+02 -0.74063535631E+00 -0.16230189405E+02  0.43400724472E+02  0.00000000000E+00 0.  1.
         11    1    3    3    0    0 -0.12296994904E+02  0.26805649703E+01  0.60393438447E+01  0.13959770291E+02  0.51100000000E-03 0. -1.
        -11    1    3    3    0    0 -0.21660964022E+02 -0.23671982656E+01  0.14517914409E+02  0.26183407514E+02  0.51100000000E-03 0.  1.
         12    1    3    3    0    0 -0.62869823194E+01  0.42726865162E+00 -0.43270688489E+01  0.76440977237E+01  0.00000000000E+00 0. -1.
</event>
<event>
 7    1  0.5193860E-009  0.4778727E+02  0.7816164E-02  0.1312668E+00
        -11   -1    0    0    0    0  0.00000000000E+00  0.00000000000E+00  0.45593999997E+02  0.45594000000E+02  0.51100000000E-03 0.  1.
         11   -1    0    0    0    0 -0.00000000000E+00 -0.00000000000E+00 -0.45593999997E+02  0.45594000000E+02  0.51100000000E-03 0. -1.
    9900012    2    1    2    0    0  0.20347787050E+02 -0.37847858574E+02  0.60934726032E+01  0.47787271379E+02  0.20000001524E+02 0.  0.
        -12    1    1    2    0    0 -0.20347787050E+02  0.37847858574E+02 -0.60934726032E+01  0.43400728621E+02  0.00000000000E+00 0.  1.
         11    1    3    3    0    0  0.10665235141E+02 -0.13958457588E+02  0.49992017285E+01  0.18264112271E+02  0.51100000000E-03 0. -1.
        -11    1    3    3    0    0  0.11726965247E+02 -0.14226345896E+02 -0.32709487787E+01  0.18724575766E+02  0.51100000000E-03 0.  1.
        -12    1    3    3    0    0 -0.20444133377E+01 -0.96630550901E+01  0.43652196533E+01  0.10798583342E+02  0.00000000000E+00 0.  1.
</event>
<event>
 7    1  0.4031943E-009  0.4778727E+02  0.7816164E-02  0.1312668E+00
        -11   -1    0    0    0    0  0.00000000000E+00  0.00000000000E+00  0.45593999997E+02  0.45594000000E+02  0.51100000000E-03 0. -1.
         11   -1    0    0    0    0 -0.00000000000E+00 -0.00000000000E+00 -0.45593999997E+02  0.45594000000E+02  0.51100000000E-03 0.  1.
    9900012    2    1    2    0    0 -0.89472899481E+01  0.42340476162E+02 -0.32944948735E+01  0.47787267108E+02  0.19999982054E+02 0.  0.
        -12    1    1    2    0    0  0.89472899481E+01 -0.42340476162E+02  0.32944948735E+01  0.43400732892E+02  0.00000000000E+00 0.  1.
         11    1    3    3    0    0 -0.25456499043E+01  0.26944322707E+01  0.17099812250E+01  0.40821972940E+01  0.51100000000E-03 0. -1.
        -11    1    3    3    0    0 -0.36986513044E+01  0.33583724422E+02  0.22631543246E+01  0.33862493046E+02  0.51100000000E-03 0.  1.
         12    1    3    3    0    0 -0.27029887394E+01  0.60623194691E+01 -0.72676304230E+01  0.98425767681E+01  0.00000000000E+00 0. -1.
</event>
<event>
 7    1  0.4031943E-009  0.4778727E+02  0.7816164E-02  0.1312668E+00
        -11   -1    0    0    0    0  0.00000000000E+00  0.00000000000E+00  0.45593999997E+02  0.45594000000E+02  0.51100000000E-03 0. -1.
         11   -1    0    0    0    0 -0.00000000000E+00 -0.00000000000E+00 -0.45593999997E+02  0.45594000000E+02  0.51100000000E-03 0.  1.
    9900012    2    1    2    0    0 -0.28641170641E+02  0.23604141947E+01  0.32522836078E+02  0.47787273308E+02  0.20000010321E+02 0.  0.
        -12    1    1    2    0    0  0.28641170641E+02 -0.23604141947E+01 -0.32522836078E+02  0.43400726692E+02  0.00000000000E+00 0.  1.
         11    1    3    3    0    0 -0.39713052271E+01  0.17407874728E+01  0.57337248119E+01  0.71886860213E+01  0.51100000000E-03 0. -1.
        -11    1    3    3    0    0 -0.14819275179E+02 -0.86937565988E+00  0.34763807021E+01  0.15246375107E+02  0.51100000000E-03 0.  1.
        -12    1    3    3    0    0 -0.98505902345E+01  0.14890023818E+01  0.23312730564E+02  0.25352212180E+02  0.00000000000E+00 0.  1.
</event>
<event>
 7    1  0.4031943E-009  0.4778727E+02  0.7816164E-02  0.1312668E+00
        -11   -1    0    0    0    0  0.00000000000E+00  0.00000000000E+00  0.45593999997E+02  0.45594000000E+02  0.51100000000E-03 0. -1.
         11   -1    0    0    0    0 -0.00000000000E+00 -0.00000000000E+00 -0.45593999997E+02  0.45594000000E+02  0.51100000000E-03 0.  1.
    9900012    2    1    2    0    0  0.33788196725E+02 -0.23909748605E+01  0.27134193677E+02  0.47787268840E+02  0.19999989951E+02 0.  0.
        -12    1    1    2    0    0 -0.33788196725E+02  0.23909748605E+01 -0.27134193677E+02  0.43400731160E+02  0.00000000000E+00 0.  1.
         11    1    3    3    0    0  0.56988297375E+01  0.98772429645E+00  0.74528628309E+01  0.94338446192E+01  0.51100000000E-03 0. -1.
        -11    1    3    3    0    0  0.19728974040E+02 -0.99045900805E+01  0.15398230163E+02  0.26915401051E+02  0.51100000000E-03 0.  1.
        -12    1    3    3    0    0  0.83603929473E+01  0.65258909235E+01  0.42831006831E+01  0.11438023170E+02  0.00000000000E+00 0.  1.
</event>
<event>
 7    1  0.4031943E-009  0.4778728E+02  0.7816164E-02  0.1312668E+00
        -11   -1    0    0    0    0  0.00000000000E+00  0.00000000000E+00  0.45593999997E+02  0.45594000000E+02  0.51100000000E-03 0.  1.
         11   -1    0    0    0    0 -0.00000000000E+00 -0.00000000000E+00 -0.45593999997E+02  0.45594000000E+02  0.51100000000E-03 0. -1.
    9900012    2    1    2    0    0 -0.16983197643E+02  0.39911708708E+02  0.14998019142E+01  0.47787275352E+02  0.20000019641E+02 0.  0.
        -12    1    1    2    0    0  0.16983197643E+02 -0.39911708708E+02 -0.14998019142E+01  0.43400724648E+02  0.00000000000E+00 0.  1.
         11    1    3    3    0    0 -0.82680421456E+01  0.81586966829E+01 -0.80471679731E+00  0.11643557097E+02  0.51100000000E-03 0. -1.
        -11    1    3    3    0    0 -0.62273345290E+00 -0.16163980911E+01  0.17710625718E+00  0.17412370975E+01  0.51100000000E-03 0.  1.
         12    1    3    3    0    0 -0.80924220442E+01  0.33369410116E+02  0.21274124543E+01  0.34402481158E+02  0.00000000000E+00 0. -1.
</event>
<event>
 7    1  0.4031943E-009  0.4778727E+02  0.7816164E-02  0.1312668E+00
        -11   -1    0    0    0    0  0.00000000000E+00  0.00000000000E+00  0.45593999997E+02  0.45594000000E+02  0.51100000000E-03 0. -1.
         11   -1    0    0    0    0 -0.00000000000E+00 -0.00000000000E+00 -0.45593999997E+02  0.45594000000E+02  0.51100000000E-03 0.  1.
    9900012    2    1    2    0    0  0.10715311689E+02  0.15375392098E+02  0.39145915218E+02  0.47787271147E+02  0.20000000466E+02 0.  0.
        -12    1    1    2    0    0 -0.10715311689E+02 -0.15375392098E+02 -0.39145915218E+02  0.43400728853E+02  0.00000000000E+00 0.  1.
         11    1    3    3    0    0 -0.25532585473E+00  0.10148809447E+02  0.14416892034E+02  0.17632648713E+02  0.51100000000E-03 0. -1.
        -11    1    3    3    0    0 -0.14169085099E+01  0.46210577379E+01  0.76073041228E+01  0.90129285262E+01  0.51100000000E-03 0.  1.
        -12    1    3    3    0    0  0.12387546053E+02  0.60552491375E+00  0.17121719061E+02  0.21141693907E+02  0.00000000000E+00 0.  1.
</event>
<event>
 7    1  0.4031943E-009  0.4778728E+02  0.7816164E-02  0.1312668E+00
        -11   -1    0    0    0    0  0.00000000000E+00  0.00000000000E+00  0.45593999997E+02  0.45594000000E+02  0.51100000000E-03 0.  1.
         11   -1    0    0    0    0 -0.00000000000E+00 -0.00000000000E+00 -0.45593999997E+02  0.45594000000E+02  0.51100000000E-03 0. -1.
    9900012    2    1    2    0    0 -0.18503445203E+02  0.30855438970E+02 -0.24273172693E+02  0.47787279833E+02  0.20000040072E+02 0.  0.
        -12    1    1    2    0    0  0.18503445203E+02 -0.30855438970E+02  0.24273172693E+02  0.43400720167E+02  0.00000000000E+00 0.  1.
         11    1    3    3    0    0 -0.60024175879E+01  0.42622818853E+01 -0.82204057780E+01  0.11034995930E+02  0.51100000000E-03 0. -1.
        -11    1    3    3    0    0 -0.15497056595E+02  0.17768562097E+02 -0.98176908638E+01  0.25539530463E+02  0.51100000000E-03 0.  1.
        -12    1    3    3    0    0  0.29960289802E+01  0.88245949871E+01 -0.62350760511E+01  0.11212753440E+02  0.00000000000E+00 0.  1.
</event>
<event>
 7    1  0.4031943E-009  0.4778727E+02  0.7816164E-02  0.1312668E+00
        -11   -1    0    0    0    0  0.00000000000E+00  0.00000000000E+00  0.45593999997E+02  0.45594000000E+02  0.51100000000E-03 0.  1.
         11   -1    0    0    0    0 -0.00000000000E+00 -0.00000000000E+00 -0.45593999997E+02  0.45594000000E+02  0.51100000000E-03 0. -1.
    9900012    2    1    2    0    0  0.96669736770E+01 -0.20341077744E+02 -0.37100047241E+02  0.47787270408E+02  0.19999997097E+02 0.  0.
        -12    1    1    2    0    0 -0.96669736770E+01  0.20341077744E+02  0.37100047241E+02  0.43400729592E+02  0.00000000000E+00 0.  1.
         11    1    3    3    0    0  0.47889557831E+01 -0.26869449626E+01 -0.71473399811E+01  0.90132258260E+01  0.51100000000E-03 0. -1.
        -11    1    3    3    0    0 -0.15534564051E+01 -0.11677823249E+02 -0.59130936926E+01  0.13181405840E+02  0.51100000000E-03 0.  1.
         12    1    3    3    0    0  0.64314742990E+01 -0.59763095322E+01 -0.24039613567E+02  0.25592638741E+02  0.00000000000E+00 0. -1.
</event>
<event>
 7    1  0.4031943E-009  0.4778727E+02  0.7816164E-02  0.1312668E+00
        -11   -1    0    0    0    0  0.00000000000E+00  0.00000000000E+00  0.45593999997E+02  0.45594000000E+02  0.51100000000E-03 0. -1.
         11   -1    0    0    0    0 -0.00000000000E+00 -0.00000000000E+00 -0.45593999997E+02  0.45594000000E+02  0.51100000000E-03 0.  1.
    9900012    2    1    2    0    0  0.66960917149E+01 -0.13057564924E+02  0.40844656921E+02  0.47787266769E+02  0.19999980504E+02 0.  0.
        -12    1    1    2    0    0 -0.66960917149E+01  0.13057564924E+02 -0.40844656921E+02  0.43400733231E+02  0.00000000000E+00 0.  1.
         11    1    3    3    0    0 -0.24279653185E+01  0.81371869644E+00  0.53841992586E+01  0.59621099975E+01  0.51100000000E-03 0. -1.
        -11    1    3    3    0    0 -0.35897113301E+01 -0.56496459938E+01  0.76867827990E+01  0.10192701180E+02  0.51100000000E-03 0.  1.
         12    1    3    3    0    0  0.12713768364E+02 -0.82216376267E+01  0.27773674864E+02  0.31632455591E+02  0.00000000000E+00 0. -1.
</event>
<event>
 7    1  0.4472897E-009  0.4778727E+02  0.7816164E-02  0.1312668E+00
        -11   -1    0    0    0    0  0.00000000000E+00  0.00000000000E+00  0.45593999997E+02  0.45594000000E+02  0.51100000000E-03 0.  1.
         11   -1    0    0    0    0 -0.00000000000E+00 -0.00000000000E+00 -0.45593999997E+02  0.45594000000E+02  0.51100000000E-03 0. -1.
    9900012    2    1    2    0    0 -0.30827389938E+02  0.77658687345E+01 -0.29546347051E+02  0.47787270609E+02  0.19999998015E+02 0.  0.
        -12    1    1    2    0    0  0.30827389938E+02 -0.77658687345E+01  0.29546347051E+02  0.43400729391E+02  0.00000000000E+00 0.  1.
         11    1    3    3    0    0 -0.24494623189E+02  0.38302798192E+01 -0.21534531704E+02  0.32838904741E+02  0.51100000000E-03 0. -1.
        -11    1    3    3    0    0 -0.56017662011E+01 -0.84160563813E+00 -0.85932688396E-01  0.56652863397E+01  0.51100000000E-03 0.  1.
        -12    1    3    3    0    0 -0.73100054845E+00  0.47771945534E+01 -0.79258826590E+01  0.92830795283E+01  0.00000000000E+00 0.  1.
</event>
<event>
 7    1  0.4031943E-009  0.4778727E+02  0.7816164E-02  0.1312668E+00
        -11   -1    0    0    0    0  0.00000000000E+00  0.00000000000E+00  0.45593999997E+02  0.45594000000E+02  0.51100000000E-03 0. -1.
         11   -1    0    0    0    0 -0.00000000000E+00 -0.00000000000E+00 -0.45593999997E+02  0.45594000000E+02  0.51100000000E-03 0.  1.
    9900012    2    1    2    0    0  0.73650005273E+01 -0.40087227248E+02  0.14912878870E+02  0.47787274460E+02  0.20000015571E+02 0.  0.
        -12    1    1    2    0    0 -0.73650005273E+01  0.40087227248E+02 -0.14912878870E+02  0.43400725540E+02  0.00000000000E+00 0.  1.
         11    1    3    3    0    0  0.11304030352E+00  0.11063089402E+01  0.15736949432E+01  0.19269700612E+01  0.51100000000E-03 0. -1.
        -11    1    3    3    0    0  0.41013464205E+01 -0.35745494933E+01 -0.89818151021E+00  0.55140889390E+01  0.51100000000E-03 0.  1.
         12    1    3    3    0    0  0.31506138033E+01 -0.37618986695E+02  0.14237365437E+02  0.40346215459E+02  0.00000000000E+00 0. -1.
</event>
<event>
 7    1  0.4031943E-009  0.4778727E+02  0.7816164E-02  0.1312668E+00
        -11   -1    0    0    0    0  0.00000000000E+00  0.00000000000E+00  0.45593999997E+02  0.45594000000E+02  0.51100000000E-03 0.  1.
         11   -1    0    0    0    0 -0.00000000000E+00 -0.00000000000E+00 -0.45593999997E+02  0.45594000000E+02  0.51100000000E-03 0. -1.
    9900012    2    1    2    0    0  0.38627977996E+01 -0.43226601105E+02 -0.40413011728E+00  0.47787267621E+02  0.19999984389E+02 0.  0.
        -12    1    1    2    0    0 -0.38627977996E+01  0.43226601105E+02  0.40413011728E+00  0.43400732379E+02  0.00000000000E+00 0.  1.
         11    1    3    3    0    0 -0.58887003603E+01 -0.98566728100E+01  0.10685975109E+01  0.11531378570E+02  0.51100000000E-03 0. -1.
        -11    1    3    3    0    0  0.11025737865E+01  0.21881362576E+00  0.97116243826E+00  0.14854982666E+01  0.51100000000E-03 0.  1.
         12    1    3    3    0    0  0.86489243734E+01 -0.33588741921E+02 -0.24438900665E+01  0.34770390784E+02  0.00000000000E+00 0. -1.
</event>
<event>
 7    1  0.4031943E-009  0.4778727E+02  0.7816164E-02  0.1312668E+00
        -11   -1    0    0    0    0  0.00000000000E+00  0.00000000000E+00  0.45593999997E+02  0.45594000000E+02  0.51100000000E-03 0. -1.
         11   -1    0    0    0    0 -0.00000000000E+00 -0.00000000000E+00 -0.45593999997E+02  0.45594000000E+02  0.51100000000E-03 0.  1.
    9900012    2    1    2    0    0 -0.34488761502E+01 -0.42146242612E+02  0.97684465154E+01  0.47787273504E+02  0.20000011216E+02 0.  0.
        -12    1    1    2    0    0  0.34488761502E+01  0.42146242612E+02 -0.97684465154E+01  0.43400726496E+02  0.00000000000E+00 0.  1.
         11    1    3    3    0    0  0.68550833061E+00 -0.14859704517E+02 -0.10674928718E+01  0.14913761474E+02  0.51100000000E-03 0. -1.
        -11    1    3    3    0    0 -0.67196059711E+00 -0.26832483936E+02  0.11693802875E+02  0.29277615189E+02  0.51100000000E-03 0.  1.
        -12    1    3    3    0    0 -0.34624238837E+01 -0.45405415884E+00 -0.85786348759E+00  0.35958968412E+01  0.00000000000E+00 0.  1.
</event>
<event>
 7    1  0.4031943E-009  0.4778726E+02  0.7816164E-02  0.1312668E+00
        -11   -1    0    0    0    0  0.00000000000E+00  0.00000000000E+00  0.45593999997E+02  0.45594000000E+02  0.51100000000E-03 0. -1.
         11   -1    0    0    0    0 -0.00000000000E+00 -0.00000000000E+00 -0.45593999997E+02  0.45594000000E+02  0.51100000000E-03 0.  1.
    9900012    2    1    2    0    0  0.23077520405E+02 -0.31230330272E+02 -0.19383455406E+02  0.47787264747E+02  0.19999971289E+02 0.  0.
        -12    1    1    2    0    0 -0.23077520405E+02  0.31230330272E+02  0.19383455406E+02  0.43400735253E+02  0.00000000000E+00 0.  1.
         11    1    3    3    0    0  0.11950254057E+02 -0.11830471921E+02 -0.51077118608E+01  0.17574338071E+02  0.51100000000E-03 0. -1.
        -11    1    3    3    0    0  0.31468104497E+01 -0.16330562473E+02 -0.45072117710E+01  0.17230921186E+02  0.51100000000E-03 0.  1.
        -12    1    3    3    0    0  0.79804558986E+01 -0.30692958776E+01 -0.97685317741E+01  0.12982005491E+02  0.00000000000E+00 0.  1.
</event>
<event>
 7    1  0.4031943E-009  0.4778726E+02  0.7816164E-02  0.1312668E+00
        -11   -1    0    0    0    0  0.00000000000E+00  0.00000000000E+00  0.45593999997E+02  0.45594000000E+02  0.51100000000E-03 0. -1.
         11   -1    0    0    0    0 -0.00000000000E+00 -0.00000000000E+00 -0.45593999997E+02  0.45594000000E+02  0.51100000000E-03 0.  1.
    9900012    2    1    2    0    0 -0.23509165826E+02  0.31542147437E+01  0.36345481395E+02  0.47787263067E+02  0.19999963629E+02 0.  0.
        -12    1    1    2    0    0  0.23509165826E+02 -0.31542147437E+01 -0.36345481395E+02  0.43400736933E+02  0.00000000000E+00 0.  1.
         11    1    3    3    0    0 -0.13912208601E+02 -0.15354200069E+01  0.24744697324E+02  0.28428983603E+02  0.51100000000E-03 0.  1.
        -11    1    3    3    0    0 -0.80249779971E+01  0.38245821872E+01  0.13864485509E+02  0.16469719471E+02  0.51100000000E-03 0. -1.
        -12    1    3    3    0    0 -0.15719792279E+01  0.86505256343E+00 -0.22637014388E+01  0.28885599932E+01  0.00000000000E+00 0.  1.
</event>
<event>
 7    1  0.4031943E-009  0.4778728E+02  0.7816164E-02  0.1312668E+00
        -11   -1    0    0    0    0  0.00000000000E+00  0.00000000000E+00  0.45593999997E+02  0.45594000000E+02  0.51100000000E-03 0.  1.
         11   -1    0    0    0    0 -0.00000000000E+00 -0.00000000000E+00 -0.45593999997E+02  0.45594000000E+02  0.51100000000E-03 0. -1.
    9900012    2    1    2    0    0  0.16570250766E+02 -0.39104570262E+02 -0.89376894228E+01  0.47787275144E+02  0.20000018691E+02 0.  0.
        -12    1    1    2    0    0 -0.16570250766E+02  0.39104570262E+02  0.89376894228E+01  0.43400724856E+02  0.00000000000E+00 0.  1.
         11    1    3    3    0    0  0.17554741778E+02 -0.32716747315E+02 -0.13021011542E+01  0.37151715727E+02  0.51100000000E-03 0. -1.
        -11    1    3    3    0    0 -0.86999918909E+00 -0.40218339395E+01 -0.21114190230E+01  0.46249472838E+01  0.51100000000E-03 0.  1.
         12    1    3    3    0    0 -0.11449182303E+00 -0.23659890076E+01 -0.55241692457E+01  0.60106121333E+01  0.00000000000E+00 0. -1.
</event>
<event>
 7    1  0.4031943E-009  0.4778727E+02  0.7816164E-02  0.1312668E+00
        -11   -1    0    0    0    0  0.00000000000E+00  0.00000000000E+00  0.45593999997E+02  0.45594000000E+02  0.51100000000E-03 0.  1.
         11   -1    0    0    0    0 -0.00000000000E+00 -0.00000000000E+00 -0.45593999997E+02  0.45594000000E+02  0.51100000000E-03 0. -1.
    9900012    2    1    2    0    0  0.43494758441E+01 -0.11405830557E+02 -0.41648677632E+02  0.47787271213E+02  0.20000000767E+02 0.  0.
        -12    1    1    2    0    0 -0.43494758441E+01  0.11405830557E+02  0.41648677632E+02  0.43400728787E+02  0.00000000000E+00 0.  1.
         11    1    3    3    0    0  0.52193535558E+01 -0.58524574159E+01 -0.35551454833E+02  0.36406027665E+02  0.51100000000E-03 0. -1.
        -11    1    3    3    0    0  0.22619227411E+01  0.89229780123E+00 -0.12966906815E+01  0.27557026032E+01  0.51100000000E-03 0.  1.
         12    1    3    3    0    0 -0.31318004529E+01 -0.64456709425E+01 -0.48005321173E+01  0.86255409444E+01  0.00000000000E+00 0. -1.
</event>
<event>
 7    1  0.4031943E-009  0.4778727E+02  0.7816164E-02  0.1312668E+00
        -11   -1    0    0    0    0  0.00000000000E+00  0.00000000000E+00  0.45593999997E+02  0.45594000000E+02  0.51100000000E-03 0. -1.
         11   -1    0    0    0    0 -0.00000000000E+00 -0.00000000000E+00 -0.45593999997E+02  0.45594000000E+02  0.51100000000E-03 0.  1.
    9900012    2    1    2    0    0  0.12043891568E+01  0.22979140617E+02  0.36798532806E+02  0.47787268746E+02  0.19999989519E+02 0.  0.
        -12    1    1    2    0    0 -0.12043891568E+01 -0.22979140617E+02 -0.36798532806E+02  0.43400731254E+02  0.00000000000E+00 0.  1.
         11    1    3    3    0    0  0.13765530789E+01  0.25038053338E+00  0.20172737610E+01  0.24549913398E+01  0.51100000000E-03 0. -1.
        -11    1    3    3    0    0 -0.81804540460E+01  0.12135107649E+02  0.24497280144E+02  0.28535896706E+02  0.51100000000E-03 0.  1.
         12    1    3    3    0    0  0.80082901239E+01  0.10593652434E+02  0.10283978901E+02  0.16796380700E+02  0.00000000000E+00 0. -1.
</event>
<event>
 7    1  0.4031943E-009  0.4778727E+02  0.7816164E-02  0.1312668E+00
        -11   -1    0    0    0    0  0.00000000000E+00  0.00000000000E+00  0.45593999997E+02  0.45594000000E+02  0.51100000000E-03 0.  1.
         11   -1    0    0    0    0 -0.00000000000E+00 -0.00000000000E+00 -0.45593999997E+02  0.45594000000E+02  0.51100000000E-03 0. -1.
    9900012    2    1    2    0    0 -0.23331639539E+02  0.18485384622E+02 -0.31583991577E+02  0.47787269912E+02  0.19999994837E+02 0.  0.
        -12    1    1    2    0    0  0.23331639539E+02 -0.18485384622E+02  0.31583991577E+02  0.43400730088E+02  0.00000000000E+00 0.  1.
         11    1    3    3    0    0 -0.39372758577E+01  0.20277204285E+00 -0.89899952580E+01  0.98164796481E+01  0.51100000000E-03 0. -1.
        -11    1    3    3    0    0 -0.12397211944E+02  0.24008920323E+01 -0.13073469382E+02  0.18176103777E+02  0.51100000000E-03 0.  1.
        -12    1    3    3    0    0 -0.69971517373E+01  0.15881720547E+02 -0.95205269368E+01  0.19794686487E+02  0.00000000000E+00 0.  1.
</event>
<event>
 7    1  0.4031943E-009  0.4778727E+02  0.7816164E-02  0.1312668E+00
        -11   -1    0    0    0    0  0.00000000000E+00  0.00000000000E+00  0.45593999997E+02  0.45594000000E+02  0.51100000000E-03 0.  1.
         11   -1    0    0    0    0 -0.00000000000E+00 -0.00000000000E+00 -0.45593999997E+02  0.45594000000E+02  0.51100000000E-03 0. -1.
    9900012    2    1    2    0    0  0.29938386838E+02  0.18987953802E+02 -0.25035448514E+02  0.47787273297E+02  0.20000010268E+02 0.  0.
        -12    1    1    2    0    0 -0.29938386838E+02 -0.18987953802E+02  0.25035448514E+02  0.43400726703E+02  0.00000000000E+00 0.  1.
         11    1    3    3    0    0 -0.10798285000E+01  0.57552700598E+00  0.71032699673E+00  0.14148588719E+01  0.51100000000E-03 0. -1.
        -11    1    3    3    0    0  0.41686404597E+00  0.49759163174E+01 -0.48224391251E+01  0.69418612927E+01  0.51100000000E-03 0.  1.
         12    1    3    3    0    0  0.30601351292E+02  0.13436510479E+02 -0.20923336386E+02  0.39430553132E+02  0.00000000000E+00 0. -1.
</event>
<event>
 7    1  0.4031943E-009  0.4778727E+02  0.7816164E-02  0.1312668E+00
        -11   -1    0    0    0    0  0.00000000000E+00  0.00000000000E+00  0.45593999997E+02  0.45594000000E+02  0.51100000000E-03 0. -1.
         11   -1    0    0    0    0 -0.00000000000E+00 -0.00000000000E+00 -0.45593999997E+02  0.45594000000E+02  0.51100000000E-03 0.  1.
    9900012    2    1    2    0    0  0.19728408086E+02  0.28641322573E+02  0.25963199001E+02  0.47787272510E+02  0.20000006681E+02 0.  0.
        -12    1    1    2    0    0 -0.19728408086E+02 -0.28641322573E+02 -0.25963199001E+02  0.43400727490E+02  0.00000000000E+00 0.  1.
         11    1    3    3    0    0  0.76250265044E+01  0.10985899833E+02  0.35540616550E+01  0.13836993129E+02  0.51100000000E-03 0. -1.
        -11    1    3    3    0    0  0.27307065117E+01 -0.16191741927E+01  0.35020493552E+00  0.31939202992E+01  0.51100000000E-03 0.  1.
         12    1    3    3    0    0  0.93726750697E+01  0.19274596932E+02  0.22058932411E+02  0.30756359082E+02  0.00000000000E+00 0. -1.
</event>
<event>
 7    1  0.4031943E-009  0.4778727E+02  0.7816164E-02  0.1312668E+00
        -11   -1    0    0    0    0  0.00000000000E+00  0.00000000000E+00  0.45593999997E+02  0.45594000000E+02  0.51100000000E-03 0. -1.
         11   -1    0    0    0    0 -0.00000000000E+00 -0.00000000000E+00 -0.45593999997E+02  0.45594000000E+02  0.51100000000E-03 0.  1.
    9900012    2    1    2    0    0  0.21266100105E+02  0.10240767163E+02  0.36421185932E+02  0.47787272927E+02  0.20000008585E+02 0.  0.
        -12    1    1    2    0    0 -0.21266100105E+02 -0.10240767163E+02 -0.36421185932E+02  0.43400727073E+02  0.00000000000E+00 0.  1.
         11    1    3    3    0    0  0.88967490817E+01  0.14007792893E+01  0.14259957634E+02  0.16865963323E+02  0.51100000000E-03 0. -1.
        -11    1    3    3    0    0  0.11303344963E+02  0.73025187470E+01  0.24484184945E+02  0.27938641701E+02  0.51100000000E-03 0.  1.
        -12    1    3    3    0    0  0.10660060607E+01  0.15374691266E+01 -0.23229566472E+01  0.29826679033E+01  0.00000000000E+00 0.  1.
</event>
<event>
 7    1  0.4031943E-009  0.4778727E+02  0.7816164E-02  0.1312668E+00
        -11   -1    0    0    0    0  0.00000000000E+00  0.00000000000E+00  0.45593999997E+02  0.45594000000E+02  0.51100000000E-03 0.  1.
         11   -1    0    0    0    0 -0.00000000000E+00 -0.00000000000E+00 -0.45593999997E+02  0.45594000000E+02  0.51100000000E-03 0. -1.
    9900012    2    1    2    0    0  0.31335258808E+02  0.20368488867E+02 -0.22064663234E+02  0.47787272507E+02  0.20000006668E+02 0.  0.
        -12    1    1    2    0    0 -0.31335258808E+02 -0.20368488867E+02  0.22064663234E+02  0.43400727493E+02  0.00000000000E+00 0.  1.
         11    1    3    3    0    0  0.24069271383E+00 -0.63907911723E+00  0.71689820135E+00  0.99010019331E+00  0.51100000000E-03 0.  1.
        -11    1    3    3    0    0  0.83026398325E+01  0.36021508015E+01 -0.14242909024E+02  0.16875123001E+02  0.51100000000E-03 0. -1.
         12    1    3    3    0    0  0.22791926262E+02  0.17405417183E+02 -0.85386524109E+01  0.29922049312E+02  0.00000000000E+00 0. -1.
</event>
<event>
 7    1  0.4031943E-009  0.4778727E+02  0.7816164E-02  0.1312668E+00
        -11   -1    0    0    0    0  0.00000000000E+00  0.00000000000E+00  0.45593999997E+02  0.45594000000E+02  0.51100000000E-03 0.  1.
         11   -1    0    0    0    0 -0.00000000000E+00 -0.00000000000E+00 -0.45593999997E+02  0.45594000000E+02  0.51100000000E-03 0. -1.
    9900012    2    1    2    0    0 -0.17422624922E+02 -0.34985693301E+02 -0.18869993008E+02  0.47787271538E+02  0.20000002251E+02 0.  0.
        -12    1    1    2    0    0  0.17422624922E+02  0.34985693301E+02  0.18869993008E+02  0.43400728462E+02  0.00000000000E+00 0.  1.
         11    1    3    3    0    0 -0.69835426255E+01 -0.11488716484E+02 -0.68411117535E+01  0.15085134548E+02  0.51100000000E-03 0. -1.
        -11    1    3    3    0    0 -0.28114418316E+01 -0.25982013672E+01 -0.95848435949E+01  0.10321050456E+02  0.51100000000E-03 0.  1.
         12    1    3    3    0    0 -0.76276404650E+01 -0.20898775450E+02 -0.24440376590E+01  0.22381086534E+02  0.00000000000E+00 0. -1.
</event>
<event>
 7    1  0.4031943E-009  0.4778727E+02  0.7816164E-02  0.1312668E+00
        -11   -1    0    0    0    0  0.00000000000E+00  0.00000000000E+00  0.45593999997E+02  0.45594000000E+02  0.51100000000E-03 0. -1.
         11   -1    0    0    0    0 -0.00000000000E+00 -0.00000000000E+00 -0.45593999997E+02  0.45594000000E+02  0.51100000000E-03 0.  1.
    9900012    2    1    2    0    0 -0.32588389913E+01 -0.45917351991E+01  0.43033931521E+02  0.47787270445E+02  0.19999997267E+02 0.  0.
        -12    1    1    2    0    0  0.32588389913E+01  0.45917351991E+01 -0.43033931521E+02  0.43400729555E+02  0.00000000000E+00 0.  1.
         11    1    3    3    0    0 -0.14108528062E+01  0.60879529081E+01  0.60852368372E+01  0.87226018984E+01  0.51100000000E-03 0. -1.
        -11    1    3    3    0    0 -0.23794243275E+01 -0.15886250357E+01  0.42628013948E+01  0.51338938075E+01  0.51100000000E-03 0.  1.
         12    1    3    3    0    0  0.53143814235E+00 -0.90910630715E+01  0.32685893289E+02  0.33930774739E+02  0.00000000000E+00 0. -1.
</event>
<event>
 7    1  0.4031943E-009  0.4778727E+02  0.7816164E-02  0.1312668E+00
        -11   -1    0    0    0    0  0.00000000000E+00  0.00000000000E+00  0.45593999997E+02  0.45594000000E+02  0.51100000000E-03 0.  1.
         11   -1    0    0    0    0 -0.00000000000E+00 -0.00000000000E+00 -0.45593999997E+02  0.45594000000E+02  0.51100000000E-03 0. -1.
    9900012    2    1    2    0    0 -0.26311113208E+02 -0.28716921304E+00 -0.34514725296E+02  0.47787269515E+02  0.19999993024E+02 0.  0.
        -12    1    1    2    0    0  0.26311113208E+02  0.28716921304E+00  0.34514725296E+02  0.43400730485E+02  0.00000000000E+00 0.  1.
         11    1    3    3    0    0 -0.61316200417E+01 -0.68473272549E+00 -0.13136178295E+02  0.14512918510E+02  0.51100000000E-03 0. -1.
        -11    1    3    3    0    0 -0.20885916651E+02  0.39959119091E+01 -0.15380011411E+02  0.26243734064E+02  0.51100000000E-03 0.  1.
        -12    1    3    3    0    0  0.70642348545E+00 -0.35983483966E+01 -0.59985355907E+01  0.70306169400E+01  0.00000000000E+00 0.  1.
</event>
<event>
 7    1  0.4031943E-009  0.4778728E+02  0.7816164E-02  0.1312668E+00
        -11   -1    0    0    0    0  0.00000000000E+00  0.00000000000E+00  0.45593999997E+02  0.45594000000E+02  0.51100000000E-03 0.  1.
         11   -1    0    0    0    0 -0.00000000000E+00 -0.00000000000E+00 -0.45593999997E+02  0.45594000000E+02  0.51100000000E-03 0. -1.
    9900012    2    1    2    0    0  0.24895278336E+02  0.15892459598E+02 -0.31800581226E+02  0.47787284317E+02  0.20000060514E+02 0.  0.
        -12    1    1    2    0    0 -0.24895278336E+02 -0.15892459598E+02  0.31800581226E+02  0.43400715683E+02  0.00000000000E+00 0.  1.
         11    1    3    3    0    0  0.19152366724E+01  0.69270919048E+01 -0.15699155190E+02  0.17266042039E+02  0.51100000000E-03 0. -1.
        -11    1    3    3    0    0  0.40509806402E+01  0.97143243131E+00 -0.67809638138E+01  0.79583663915E+01  0.51100000000E-03 0.  1.
        -12    1    3    3    0    0  0.18929061023E+02  0.79939352621E+01 -0.93204622223E+01  0.22562875886E+02  0.00000000000E+00 0.  1.
</event>
<event>
 7    1  0.4031943E-009  0.4778727E+02  0.7816164E-02  0.1312668E+00
        -11   -1    0    0    0    0  0.00000000000E+00  0.00000000000E+00  0.45593999997E+02  0.45594000000E+02  0.51100000000E-03 0.  1.
         11   -1    0    0    0    0 -0.00000000000E+00 -0.00000000000E+00 -0.45593999997E+02  0.45594000000E+02  0.51100000000E-03 0. -1.
    9900012    2    1    2    0    0  0.36972104041E+02  0.22021514029E+02 -0.56338065251E+01  0.47787270359E+02  0.19999996877E+02 0.  0.
        -12    1    1    2    0    0 -0.36972104041E+02 -0.22021514029E+02  0.56338065251E+01  0.43400729641E+02  0.00000000000E+00 0.  1.
         11    1    3    3    0    0 -0.16582734675E+00 -0.24675110116E+00  0.56880542207E+00  0.64181358987E+00  0.51100000000E-03 0.  1.
        -11    1    3    3    0    0  0.28796164999E+02  0.75213197580E+01 -0.47725841515E+01  0.30142443984E+02  0.51100000000E-03 0. -1.
        -12    1    3    3    0    0  0.83417663888E+01  0.14746945372E+02 -0.14300277957E+01  0.17003012786E+02  0.00000000000E+00 0.  1.
</event>
<event>
 7    1  0.4031943E-009  0.4778727E+02  0.7816164E-02  0.1312668E+00
        -11   -1    0    0    0    0  0.00000000000E+00  0.00000000000E+00  0.45593999997E+02  0.45594000000E+02  0.51100000000E-03 0. -1.
         11   -1    0    0    0    0 -0.00000000000E+00 -0.00000000000E+00 -0.45593999997E+02  0.45594000000E+02  0.51100000000E-03 0.  1.
    9900012    2    1    2    0    0 -0.27932327915E+02 -0.17241036848E+02  0.28392865553E+02  0.47787272948E+02  0.20000008679E+02 0.  0.
        -12    1    1    2    0    0  0.27932327915E+02  0.17241036848E+02 -0.28392865553E+02  0.43400727052E+02  0.00000000000E+00 0.  1.
         11    1    3    3    0    0 -0.35566424442E+01 -0.35597096733E+01  0.14252702482E+02  0.15114918681E+02  0.51100000000E-03 0. -1.
        -11    1    3    3    0    0 -0.57825721645E+01 -0.64408669217E+01  0.84816887450E+00  0.86972580876E+01  0.51100000000E-03 0.  1.
        -12    1    3    3    0    0 -0.18593113306E+02 -0.72404602532E+01  0.13291994197E+02  0.23975096179E+02  0.00000000000E+00 0.  1.
</event>
<event>
 7    1  0.4031943E-009  0.4778727E+02  0.7816164E-02  0.1312668E+00
        -11   -1    0    0    0    0  0.00000000000E+00  0.00000000000E+00  0.45593999997E+02  0.45594000000E+02  0.51100000000E-03 0.  1.
         11   -1    0    0    0    0 -0.00000000000E+00 -0.00000000000E+00 -0.45593999997E+02  0.45594000000E+02  0.51100000000E-03 0. -1.
    9900012    2    1    2    0    0  0.16927189928E+02  0.39962054432E+02  0.35707941465E+00  0.47787273520E+02  0.20000011286E+02 0.  0.
        -12    1    1    2    0    0 -0.16927189928E+02 -0.39962054432E+02 -0.35707941465E+00  0.43400726480E+02  0.00000000000E+00 0.  1.
         11    1    3    3    0    0  0.17408767383E+02  0.27960995019E+02  0.60983213434E+01  0.33497342398E+02  0.51100000000E-03 0. -1.
        -11    1    3    3    0    0  0.11561517069E+01  0.23419809434E+00 -0.26896466748E+00  0.12099081661E+01  0.51100000000E-03 0.  1.
         12    1    3    3    0    0 -0.16377291621E+01  0.11766861318E+02 -0.54722772613E+01  0.13080022956E+02  0.00000000000E+00 0. -1.
</event>
<event>
 7    1  0.4031943E-009  0.4778729E+02  0.7816164E-02  0.1312668E+00
        -11   -1    0    0    0    0  0.00000000000E+00  0.00000000000E+00  0.45593999997E+02  0.45594000000E+02  0.51100000000E-03 0.  1.
         11   -1    0    0    0    0 -0.00000000000E+00 -0.00000000000E+00 -0.45593999997E+02  0.45594000000E+02  0.51100000000E-03 0. -1.
    9900012    2    1    2    0    0 -0.28414285198E+02  0.17483154144E+02  0.27759490875E+02  0.47787290147E+02  0.20000087094E+02 0.  0.
        -12    1    1    2    0    0  0.28414285198E+02 -0.17483154144E+02 -0.27759490875E+02  0.43400709853E+02  0.00000000000E+00 0.  1.
         11    1    3    3    0    0 -0.47279598417E+01  0.67422087982E+01  0.62128924454E+01  0.10315571557E+02  0.51100000000E-03 0. -1.
        -11    1    3    3    0    0 -0.72767276366E+01  0.10918175511E+02  0.14661664838E+02  0.19675409466E+02  0.51100000000E-03 0.  1.
        -12    1    3    3    0    0 -0.16409597720E+02 -0.17723016475E+00  0.68849335913E+01  0.17796309124E+02  0.00000000000E+00 0.  1.
</event>
<event>
 7    1  0.4031943E-009  0.4778727E+02  0.7816164E-02  0.1312668E+00
        -11   -1    0    0    0    0  0.00000000000E+00  0.00000000000E+00  0.45593999997E+02  0.45594000000E+02  0.51100000000E-03 0.  1.
         11   -1    0    0    0    0 -0.00000000000E+00 -0.00000000000E+00 -0.45593999997E+02  0.45594000000E+02  0.51100000000E-03 0. -1.
    9900012    2    1    2    0    0  0.12599785462E+02 -0.17345232613E+02 -0.37736081303E+02  0.47787268207E+02  0.19999987061E+02 0.  0.
        -12    1    1    2    0    0 -0.12599785462E+02  0.17345232613E+02  0.37736081303E+02  0.43400731793E+02  0.00000000000E+00 0.  1.
         11    1    3    3    0    0  0.22119582511E+01 -0.10276302809E+01 -0.91467649892E+01  0.94663664268E+01  0.51100000000E-03 0. -1.
        -11    1    3    3    0    0  0.12337838623E+02 -0.18489096539E+02 -0.22824995578E+02  0.31859839549E+02  0.51100000000E-03 0.  1.
        -12    1    3    3    0    0 -0.19500114117E+01  0.21714942069E+01 -0.57643207364E+01  0.64610622306E+01  0.00000000000E+00 0.  1.
</event>
<event>
 7    1  0.4031943E-009  0.4778727E+02  0.7816164E-02  0.1312668E+00
        -11   -1    0    0    0    0  0.00000000000E+00  0.00000000000E+00  0.45593999997E+02  0.45594000000E+02  0.51100000000E-03 0.  1.
         11   -1    0    0    0    0 -0.00000000000E+00 -0.00000000000E+00 -0.45593999997E+02  0.45594000000E+02  0.51100000000E-03 0. -1.
    9900012    2    1    2    0    0 -0.28940049565E+02  0.27122278373E+02 -0.17620421568E+02  0.47787266029E+02  0.19999977134E+02 0.  0.
        -12    1    1    2    0    0  0.28940049565E+02 -0.27122278373E+02  0.17620421568E+02  0.43400733971E+02  0.00000000000E+00 0.  1.
         11    1    3    3    0    0 -0.38199473409E+01  0.11783247678E+02 -0.34980867507E+01  0.12871423181E+02  0.51100000000E-03 0. -1.
        -11    1    3    3    0    0 -0.74994429375E+01  0.11663577295E+02 -0.72608444096E+01  0.15652493140E+02  0.51100000000E-03 0.  1.
        -12    1    3    3    0    0 -0.17620659286E+02  0.36754534000E+01 -0.68614904080E+01  0.19263349709E+02  0.00000000000E+00 0.  1.
</event>
<event>
 7    1  0.4031943E-009  0.4778727E+02  0.7816164E-02  0.1312668E+00
        -11   -1    0    0    0    0  0.00000000000E+00  0.00000000000E+00  0.45593999997E+02  0.45594000000E+02  0.51100000000E-03 0. -1.
         11   -1    0    0    0    0 -0.00000000000E+00 -0.00000000000E+00 -0.45593999997E+02  0.45594000000E+02  0.51100000000E-03 0.  1.
    9900012    2    1    2    0    0 -0.35131591178E+02 -0.25338533072E+02 -0.27116827705E+01  0.47787272122E+02  0.20000004912E+02 0.  0.
        -12    1    1    2    0    0  0.35131591178E+02  0.25338533072E+02  0.27116827705E+01  0.43400727878E+02  0.00000000000E+00 0.  1.
         11    1    3    3    0    0 -0.10358038087E+02  0.69790233958E-01 -0.26413378433E+01  0.10689737581E+02  0.51100000000E-03 0. -1.
        -11    1    3    3    0    0 -0.11866113972E+02 -0.53442040664E+01 -0.19805531538E+01  0.13163881227E+02  0.51100000000E-03 0.  1.
        -12    1    3    3    0    0 -0.12907439119E+02 -0.20064119240E+02  0.19102082266E+01  0.23933653314E+02  0.00000000000E+00 0.  1.
</event>
<event>
 7    1  0.4031943E-009  0.4778726E+02  0.7816164E-02  0.1312668E+00
        -11   -1    0    0    0    0  0.00000000000E+00  0.00000000000E+00  0.45593999997E+02  0.45594000000E+02  0.51100000000E-03 0.  1.
         11   -1    0    0    0    0 -0.00000000000E+00 -0.00000000000E+00 -0.45593999997E+02  0.45594000000E+02  0.51100000000E-03 0. -1.
    9900012    2    1    2    0    0  0.20586132561E+02 -0.28874634409E+02 -0.25021800638E+02  0.47787264139E+02  0.19999968516E+02 0.  0.
        -12    1    1    2    0    0 -0.20586132561E+02  0.28874634409E+02  0.25021800638E+02  0.43400735861E+02  0.00000000000E+00 0.  1.
         11    1    3    3    0    0 -0.14183099404E+01 -0.84929227717E+00 -0.10449032103E+01  0.19556900161E+01  0.51100000000E-03 0. -1.
        -11    1    3    3    0    0  0.17514154656E+02 -0.14340012686E+02 -0.72732083343E+01  0.23775641671E+02  0.51100000000E-03 0.  1.
         12    1    3    3    0    0  0.44902878453E+01 -0.13685329447E+02 -0.16703689094E+02  0.22055932452E+02  0.00000000000E+00 0. -1.
</event>
<event>
 7    1  0.4031943E-009  0.4778727E+02  0.7816164E-02  0.1312668E+00
        -11   -1    0    0    0    0  0.00000000000E+00  0.00000000000E+00  0.45593999997E+02  0.45594000000E+02  0.51100000000E-03 0.  1.
         11   -1    0    0    0    0 -0.00000000000E+00 -0.00000000000E+00 -0.45593999997E+02  0.45594000000E+02  0.51100000000E-03 0. -1.
    9900012    2    1    2    0    0 -0.16063810538E+02 -0.69445360794E+01 -0.39715873198E+02  0.47787272192E+02  0.20000005233E+02 0.  0.
        -12    1    1    2    0    0  0.16063810538E+02  0.69445360794E+01  0.39715873198E+02  0.43400727808E+02  0.00000000000E+00 0.  1.
         11    1    3    3    0    0 -0.81234875700E+00  0.16072244604E+00 -0.50413020534E+01  0.51088617971E+01  0.51100000000E-03 0. -1.
        -11    1    3    3    0    0 -0.56651556532E+01 -0.75905687076E+01 -0.35626066793E+01  0.10119431234E+02  0.51100000000E-03 0.  1.
        -12    1    3    3    0    0 -0.95863061279E+01  0.48531018212E+00 -0.31111964465E+02  0.32558979162E+02  0.00000000000E+00 0.  1.
</event>
<event>
 7    1  0.4031943E-009  0.4778728E+02  0.7816164E-02  0.1312668E+00
        -11   -1    0    0    0    0  0.00000000000E+00  0.00000000000E+00  0.45593999997E+02  0.45594000000E+02  0.51100000000E-03 0. -1.
         11   -1    0    0    0    0 -0.00000000000E+00 -0.00000000000E+00 -0.45593999997E+02  0.45594000000E+02  0.51100000000E-03 0.  1.
    9900012    2    1    2    0    0  0.22027584442E+02 -0.49902016520E+01  0.37060845918E+02  0.47787275478E+02  0.20000020215E+02 0.  0.
        -12    1    1    2    0    0 -0.22027584442E+02  0.49902016520E+01 -0.37060845918E+02  0.43400724522E+02  0.00000000000E+00 0.  1.
         11    1    3    3    0    0  0.14577103319E+01 -0.38379289943E+01  0.57591410843E+01  0.70726462280E+01  0.51100000000E-03 0. -1.
        -11    1    3    3    0    0  0.14807096507E+02 -0.27316321085E+00  0.82816221573E+01  0.16967910623E+02  0.51100000000E-03 0.  1.
        -12    1    3    3    0    0  0.57627776035E+01 -0.87910944679E+00  0.23020082676E+02  0.23746718627E+02  0.00000000000E+00 0.  1.
</event>
<event>
 7    1  0.4031943E-009  0.4778727E+02  0.7816164E-02  0.1312668E+00
        -11   -1    0    0    0    0  0.00000000000E+00  0.00000000000E+00  0.45593999997E+02  0.45594000000E+02  0.51100000000E-03 0. -1.
         11   -1    0    0    0    0 -0.00000000000E+00 -0.00000000000E+00 -0.45593999997E+02  0.45594000000E+02  0.51100000000E-03 0.  1.
    9900012    2    1    2    0    0 -0.12530290563E+02 -0.39842453590E+02  0.11798071612E+02  0.47787265174E+02  0.19999973232E+02 0.  0.
        -12    1    1    2    0    0  0.12530290563E+02  0.39842453590E+02 -0.11798071612E+02  0.43400734826E+02  0.00000000000E+00 0.  1.
         11    1    3    3    0    0 -0.18713209320E+01 -0.10230572506E+02  0.95862971908E+01  0.14144382274E+02  0.51100000000E-03 0. -1.
        -11    1    3    3    0    0  0.25453762346E+01 -0.45576270210E+01  0.85288300878E+00  0.52894530838E+01  0.51100000000E-03 0.  1.
         12    1    3    3    0    0 -0.13204345866E+02 -0.25054254063E+02  0.13588914122E+01  0.28353429815E+02  0.00000000000E+00 0. -1.
</event>
<event>
 7    1  0.4031943E-009  0.4778726E+02  0.7816164E-02  0.1312668E+00
        -11   -1    0    0    0    0  0.00000000000E+00  0.00000000000E+00  0.45593999997E+02  0.45594000000E+02  0.51100000000E-03 0. -1.
         11   -1    0    0    0    0 -0.00000000000E+00 -0.00000000000E+00 -0.45593999997E+02  0.45594000000E+02  0.51100000000E-03 0.  1.
    9900012    2    1    2    0    0 -0.32198502205E+02  0.27297318130E+02  0.10086482422E+02  0.47787259811E+02  0.19999948781E+02 0.  0.
        -12    1    1    2    0    0  0.32198502205E+02 -0.27297318130E+02 -0.10086482422E+02  0.43400740189E+02  0.00000000000E+00 0.  1.
         11    1    3    3    0    0 -0.47256540927E+01  0.34721016733E+01  0.57596378657E+01  0.82195331521E+01  0.51100000000E-03 0. -1.
        -11    1    3    3    0    0 -0.25651229407E+01 -0.10772307353E+01 -0.24422902089E+01  0.37020350462E+01  0.51100000000E-03 0.  1.
         12    1    3    3    0    0 -0.24907725171E+02  0.24902447192E+02  0.67691347655E+01  0.35865691612E+02  0.00000000000E+00 0. -1.
</event>
<event>
 7    1  0.4031943E-009  0.4778728E+02  0.7816164E-02  0.1312668E+00
        -11   -1    0    0    0    0  0.00000000000E+00  0.00000000000E+00  0.45593999997E+02  0.45594000000E+02  0.51100000000E-03 0.  1.
         11   -1    0    0    0    0 -0.00000000000E+00 -0.00000000000E+00 -0.45593999997E+02  0.45594000000E+02  0.51100000000E-03 0. -1.
    9900012    2    1    2    0    0  0.11247062570E+02  0.13263246211E+02 -0.39764464528E+02  0.47787277014E+02  0.20000027218E+02 0.  0.
        -12    1    1    2    0    0 -0.11247062570E+02 -0.13263246211E+02  0.39764464528E+02  0.43400722986E+02  0.00000000000E+00 0.  1.
         11    1    3    3    0    0  0.99119726856E-01  0.49343089645E+01 -0.15776344400E+02  0.16530283499E+02  0.51100000000E-03 0. -1.
        -11    1    3    3    0    0  0.68197606642E+01  0.12014997746E+02 -0.13440170922E+02  0.19274529852E+02  0.51100000000E-03 0.  1.
        -12    1    3    3    0    0  0.43281821786E+01 -0.36860604990E+01 -0.10547949207E+02  0.11982463663E+02  0.00000000000E+00 0.  1.
</event>
<event>
 7    1  0.4031943E-009  0.4778727E+02  0.7816164E-02  0.1312668E+00
        -11   -1    0    0    0    0  0.00000000000E+00  0.00000000000E+00  0.45593999997E+02  0.45594000000E+02  0.51100000000E-03 0.  1.
         11   -1    0    0    0    0 -0.00000000000E+00 -0.00000000000E+00 -0.45593999997E+02  0.45594000000E+02  0.51100000000E-03 0. -1.
    9900012    2    1    2    0    0  0.39877729332E+01  0.10161810267E+02 -0.42005457032E+02  0.47787272571E+02  0.20000006962E+02 0.  0.
        -12    1    1    2    0    0 -0.39877729332E+01 -0.10161810267E+02  0.42005457032E+02  0.43400727429E+02  0.00000000000E+00 0.  1.
         11    1    3    3    0    0  0.46725720627E+01 -0.78071472659E+00 -0.20373777150E+02  0.20917295255E+02  0.51100000000E-03 0. -1.
        -11    1    3    3    0    0 -0.28948463496E+01 -0.11666163237E+01 -0.20276379542E+01  0.37218872859E+01  0.51100000000E-03 0.  1.
         12    1    3    3    0    0  0.22100472201E+01  0.12109141317E+02 -0.19604041928E+02  0.23148090031E+02  0.00000000000E+00 0. -1.
</event>
<event>
 7    1  0.4031943E-009  0.4778730E+02  0.7816164E-02  0.1312668E+00
        -11   -1    0    0    0    0  0.00000000000E+00  0.00000000000E+00  0.45593999997E+02  0.45594000000E+02  0.51100000000E-03 0. -1.
         11   -1    0    0    0    0 -0.00000000000E+00 -0.00000000000E+00 -0.45593999997E+02  0.45594000000E+02  0.51100000000E-03 0.  1.
    9900012    2    1    2    0    0 -0.27049427168E+02  0.27425354602E+02  0.19994984041E+02  0.47787297564E+02  0.20000120913E+02 0.  0.
        -12    1    1    2    0    0  0.27049427168E+02 -0.27425354602E+02 -0.19994984041E+02  0.43400702436E+02  0.00000000000E+00 0.  1.
         11    1    3    3    0    0 -0.74153543528E+00 -0.80234522522E+00 -0.14635973081E+01  0.18264035709E+01  0.51100000000E-03 0. -1.
        -11    1    3    3    0    0  0.99365150354E+00  0.31847185550E+01  0.43669255124E+00  0.33645915399E+01  0.51100000000E-03 0.  1.
         12    1    3    3    0    0 -0.27301543236E+02  0.25042981272E+02  0.21021888798E+02  0.42596302453E+02  0.00000000000E+00 0. -1.
</event>
<event>
 7    1  0.4031943E-009  0.4778727E+02  0.7816164E-02  0.1312668E+00
        -11   -1    0    0    0    0  0.00000000000E+00  0.00000000000E+00  0.45593999997E+02  0.45594000000E+02  0.51100000000E-03 0.  1.
         11   -1    0    0    0    0 -0.00000000000E+00 -0.00000000000E+00 -0.45593999997E+02  0.45594000000E+02  0.51100000000E-03 0. -1.
    9900012    2    1    2    0    0 -0.32819418647E+02  0.26812398169E+02 -0.93597133258E+01  0.47787272247E+02  0.20000005484E+02 0.  0.
        -12    1    1    2    0    0  0.32819418647E+02 -0.26812398169E+02  0.93597133258E+01  0.43400727753E+02  0.00000000000E+00 0.  1.
         11    1    3    3    0    0 -0.73350968339E+01  0.63654726386E+01 -0.34509559360E+01  0.10306890152E+02  0.51100000000E-03 0. -1.
        -11    1    3    3    0    0 -0.75960780566E+01 -0.16877464816E+01 -0.44942208971E+01  0.89859285420E+01  0.51100000000E-03 0.  1.
        -12    1    3    3    0    0 -0.17888243757E+02  0.22134672012E+02 -0.14145364927E+01  0.28494453553E+02  0.00000000000E+00 0.  1.
</event>
<event>
 7    1  0.4031943E-009  0.4778727E+02  0.7816164E-02  0.1312668E+00
        -11   -1    0    0    0    0  0.00000000000E+00  0.00000000000E+00  0.45593999997E+02  0.45594000000E+02  0.51100000000E-03 0.  1.
         11   -1    0    0    0    0 -0.00000000000E+00 -0.00000000000E+00 -0.45593999997E+02  0.45594000000E+02  0.51100000000E-03 0. -1.
    9900012    2    1    2    0    0 -0.37498895448E+02 -0.15414210102E+01 -0.21796329724E+02  0.47787272725E+02  0.20000007663E+02 0.  0.
        -12    1    1    2    0    0  0.37498895448E+02  0.15414210102E+01  0.21796329724E+02  0.43400727275E+02  0.00000000000E+00 0.  1.
         11    1    3    3    0    0 -0.47204183697E+01  0.18922131896E+01 -0.51373734165E+01  0.72287914773E+01  0.51100000000E-03 0. -1.
        -11    1    3    3    0    0  0.10399428757E+01  0.16925247851E+01  0.81697247190E+00  0.21479212308E+01  0.51100000000E-03 0.  1.
         12    1    3    3    0    0 -0.33818419954E+02 -0.51261589849E+01 -0.17475928780E+02  0.38410560017E+02  0.00000000000E+00 0. -1.
</event>
<event>
 7    1  0.4031943E-009  0.4778727E+02  0.7816164E-02  0.1312668E+00
        -11   -1    0    0    0    0  0.00000000000E+00  0.00000000000E+00  0.45593999997E+02  0.45594000000E+02  0.51100000000E-03 0.  1.
         11   -1    0    0    0    0 -0.00000000000E+00 -0.00000000000E+00 -0.45593999997E+02  0.45594000000E+02  0.51100000000E-03 0. -1.
    9900012    2    1    2    0    0 -0.21742898204E+02 -0.27890669259E+02 -0.25159100960E+02  0.47787269417E+02  0.19999992580E+02 0.  0.
        -12    1    1    2    0    0  0.21742898204E+02  0.27890669259E+02  0.25159100960E+02  0.43400730583E+02  0.00000000000E+00 0.  1.
         11    1    3    3    0    0 -0.11167986965E+02 -0.11016527156E+02 -0.16161448795E+02  0.22522882383E+02  0.51100000000E-03 0. -1.
        -11    1    3    3    0    0 -0.60578894599E+01 -0.26250822175E+00 -0.54976176256E+00  0.60884459045E+01  0.51100000000E-03 0.  1.
        -12    1    3    3    0    0 -0.45170217790E+01 -0.16611633881E+02 -0.84478904027E+01  0.19175941129E+02  0.00000000000E+00 0.  1.
</event>
<event>
 7    1  0.4031943E-009  0.4778727E+02  0.7816164E-02  0.1312668E+00
        -11   -1    0    0    0    0  0.00000000000E+00  0.00000000000E+00  0.45593999997E+02  0.45594000000E+02  0.51100000000E-03 0. -1.
         11   -1    0    0    0    0 -0.00000000000E+00 -0.00000000000E+00 -0.45593999997E+02  0.45594000000E+02  0.51100000000E-03 0.  1.
    9900012    2    1    2    0    0  0.24854650091E+02 -0.17832280428E+02  0.30787652816E+02  0.47787269334E+02  0.19999992204E+02 0.  0.
        -12    1    1    2    0    0 -0.24854650091E+02  0.17832280428E+02 -0.30787652816E+02  0.43400730666E+02  0.00000000000E+00 0.  1.
         11    1    3    3    0    0  0.88709470712E+01 -0.95786382547E+01  0.22263407255E+02  0.25808977423E+02  0.51100000000E-03 0. -1.
        -11    1    3    3    0    0  0.65456182868E+01 -0.54655301688E+01  0.86356438286E+01  0.12136370272E+02  0.51100000000E-03 0.  1.
        -12    1    3    3    0    0  0.94380847333E+01 -0.27881120040E+01 -0.11139826835E+00  0.98419216393E+01  0.00000000000E+00 0.  1.
</event>
<event>
 7    1  0.4031943E-009  0.4778729E+02  0.7816164E-02  0.1312668E+00
        -11   -1    0    0    0    0  0.00000000000E+00  0.00000000000E+00  0.45593999997E+02  0.45594000000E+02  0.51100000000E-03 0.  1.
         11   -1    0    0    0    0 -0.00000000000E+00 -0.00000000000E+00 -0.45593999997E+02  0.45594000000E+02  0.51100000000E-03 0. -1.
    9900012    2    1    2    0    0 -0.11828364405E+02 -0.41624022472E+02  0.33395525168E+01  0.47787285003E+02  0.20000063643E+02 0.  0.
        -12    1    1    2    0    0  0.11828364405E+02  0.41624022472E+02 -0.33395525168E+01  0.43400714997E+02  0.00000000000E+00 0.  1.
         11    1    3    3    0    0 -0.79006426341E+01 -0.62473270871E+01  0.33977402417E+01  0.10629858361E+02  0.51100000000E-03 0. -1.
        -11    1    3    3    0    0  0.19781590265E+01 -0.91024783186E+00  0.20981872798E+00  0.21876216330E+01  0.51100000000E-03 0.  1.
        -12    1    3    3    0    0 -0.59058807975E+01 -0.34466447553E+02 -0.26800645288E+00  0.34969805009E+02  0.00000000000E+00 0.  1.
</event>
<event>
 7    1  0.4031943E-009  0.4778727E+02  0.7816164E-02  0.1312668E+00
        -11   -1    0    0    0    0  0.00000000000E+00  0.00000000000E+00  0.45593999997E+02  0.45594000000E+02  0.51100000000E-03 0. -1.
         11   -1    0    0    0    0 -0.00000000000E+00 -0.00000000000E+00 -0.45593999997E+02  0.45594000000E+02  0.51100000000E-03 0.  1.
    9900012    2    1    2    0    0 -0.36886020550E+02  0.11784173586E+02  0.19600463433E+02  0.47787269293E+02  0.19999992016E+02 0.  0.
        -12    1    1    2    0    0  0.36886020550E+02 -0.11784173586E+02 -0.19600463433E+02  0.43400730707E+02  0.00000000000E+00 0.  1.
         11    1    3    3    0    0 -0.52453797316E+01  0.51372777313E+01  0.64497966831E+01  0.97726919799E+01  0.51100000000E-03 0. -1.
        -11    1    3    3    0    0 -0.11635556323E+02  0.81518618905E+01  0.33896834202E+00  0.14211049328E+02  0.51100000000E-03 0.  1.
         12    1    3    3    0    0 -0.20005084495E+02 -0.15049660357E+01  0.12811698408E+02  0.23803527985E+02  0.00000000000E+00 0. -1.
</event>
<event>
 7    1  0.4031943E-009  0.4778727E+02  0.7816164E-02  0.1312668E+00
        -11   -1    0    0    0    0  0.00000000000E+00  0.00000000000E+00  0.45593999997E+02  0.45594000000E+02  0.51100000000E-03 0. -1.
         11   -1    0    0    0    0 -0.00000000000E+00 -0.00000000000E+00 -0.45593999997E+02  0.45594000000E+02  0.51100000000E-03 0.  1.
    9900012    2    1    2    0    0 -0.41689516051E+02 -0.11454688209E+02 -0.37944088344E+01  0.47787272253E+02  0.20000005512E+02 0.  0.
        -12    1    1    2    0    0  0.41689516051E+02  0.11454688209E+02  0.37944088344E+01  0.43400727747E+02  0.00000000000E+00 0.  1.
         11    1    3    3    0    0 -0.33677860047E+02 -0.86265976238E+01 -0.34729886550E+01  0.34938203938E+02  0.51100000000E-03 0. -1.
        -11    1    3    3    0    0 -0.77564380637E+01  0.16240542418E+01  0.14398929429E+01  0.80543885903E+01  0.51100000000E-03 0.  1.
        -12    1    3    3    0    0 -0.25521793999E+00 -0.44521448267E+01 -0.17613131223E+01  0.47946797254E+01  0.00000000000E+00 0.  1.
</event>
<event>
 7    1  0.5798858E-009  0.4778727E+02  0.7816164E-02  0.1312668E+00
        -11   -1    0    0    0    0  0.00000000000E+00  0.00000000000E+00  0.45593999997E+02  0.45594000000E+02  0.51100000000E-03 0. -1.
         11   -1    0    0    0    0 -0.00000000000E+00 -0.00000000000E+00 -0.45593999997E+02  0.45594000000E+02  0.51100000000E-03 0.  1.
    9900012    2    1    2    0    0 -0.35211624069E+02 -0.47057279162E+00  0.25368156329E+02  0.47787271160E+02  0.20000000528E+02 0.  0.
        -12    1    1    2    0    0  0.35211624069E+02  0.47057279162E+00 -0.25368156329E+02  0.43400728840E+02  0.00000000000E+00 0.  1.
         11    1    3    3    0    0 -0.14426752378E+02  0.92708850498E+00  0.17398717730E+02  0.22620920763E+02  0.51100000000E-03 0. -1.
        -11    1    3    3    0    0  0.61130371619E+00  0.20553619860E+01  0.24656324604E+00  0.21584714087E+01  0.51100000000E-03 0.  1.
        -12    1    3    3    0    0 -0.21396175407E+02 -0.34530232826E+01  0.77228753533E+01  0.23007878989E+02  0.00000000000E+00 0.  1.
</event>
<event>
 7    1  0.4031943E-009  0.4778727E+02  0.7816164E-02  0.1312668E+00
        -11   -1    0    0    0    0  0.00000000000E+00  0.00000000000E+00  0.45593999997E+02  0.45594000000E+02  0.51100000000E-03 0.  1.
         11   -1    0    0    0    0 -0.00000000000E+00 -0.00000000000E+00 -0.45593999997E+02  0.45594000000E+02  0.51100000000E-03 0. -1.
    9900012    2    1    2    0    0 -0.12713403555E+02  0.39082507462E+02 -0.13948123176E+02  0.47787272361E+02  0.20000006002E+02 0.  0.
        -12    1    1    2    0    0  0.12713403555E+02 -0.39082507462E+02  0.13948123176E+02  0.43400727639E+02  0.00000000000E+00 0.  1.
         11    1    3    3    0    0 -0.21496180482E+01 -0.13783278506E+01 -0.14820500797E+01  0.29524766073E+01  0.51100000000E-03 0. -1.
        -11    1    3    3    0    0 -0.53854804518E+00  0.82936897965E+01  0.13478796769E+01  0.84197449084E+01  0.51100000000E-03 0.  1.
         12    1    3    3    0    0 -0.10025237461E+02  0.32167145516E+02 -0.13813952774E+02  0.36415050845E+02  0.00000000000E+00 0. -1.
</event>
<event>
 7    1  0.4031943E-009  0.4778727E+02  0.7816164E-02  0.1312668E+00
        -11   -1    0    0    0    0  0.00000000000E+00  0.00000000000E+00  0.45593999997E+02  0.45594000000E+02  0.51100000000E-03 0.  1.
         11   -1    0    0    0    0 -0.00000000000E+00 -0.00000000000E+00 -0.45593999997E+02  0.45594000000E+02  0.51100000000E-03 0. -1.
    9900012    2    1    2    0    0 -0.24694670086E+02  0.31256925081E+02 -0.17227927956E+02  0.47787267313E+02  0.19999982985E+02 0.  0.
        -12    1    1    2    0    0  0.24694670086E+02 -0.31256925081E+02  0.17227927956E+02  0.43400732687E+02  0.00000000000E+00 0.  1.
         11    1    3    3    0    0 -0.42437095704E+01  0.70410419992E+01 -0.57909140005E+01  0.10055845493E+02  0.51100000000E-03 0. -1.
        -11    1    3    3    0    0 -0.14601816893E+02  0.19642959863E+02 -0.15787960067E+02  0.29125909636E+02  0.51100000000E-03 0.  1.
        -12    1    3    3    0    0 -0.58491436222E+01  0.45729232188E+01  0.43509461121E+01  0.86055121840E+01  0.00000000000E+00 0.  1.
</event>
<event>
 7    1  0.4031943E-009  0.4778727E+02  0.7816164E-02  0.1312668E+00
        -11   -1    0    0    0    0  0.00000000000E+00  0.00000000000E+00  0.45593999997E+02  0.45594000000E+02  0.51100000000E-03 0.  1.
         11   -1    0    0    0    0 -0.00000000000E+00 -0.00000000000E+00 -0.45593999997E+02  0.45594000000E+02  0.51100000000E-03 0. -1.
    9900012    2    1    2    0    0 -0.71397275280E+01  0.15540033977E+02 -0.39889281031E+02  0.47787272975E+02  0.20000008801E+02 0.  0.
        -12    1    1    2    0    0  0.71397275280E+01 -0.15540033977E+02  0.39889281031E+02  0.43400727025E+02  0.00000000000E+00 0.  1.
         11    1    3    3    0    0  0.30467096288E+01 -0.19169943427E+01 -0.74657668774E+01  0.82882436137E+01  0.51100000000E-03 0. -1.
        -11    1    3    3    0    0 -0.13526672362E+01  0.30440103887E+00 -0.92125634723E+01  0.93163133608E+01  0.51100000000E-03 0.  1.
        -12    1    3    3    0    0 -0.88337699206E+01  0.17152627281E+02 -0.23210950681E+02  0.30182716000E+02  0.00000000000E+00 0.  1.
</event>
<event>
 7    1  0.4031943E-009  0.4778726E+02  0.7816164E-02  0.1312668E+00
        -11   -1    0    0    0    0  0.00000000000E+00  0.00000000000E+00  0.45593999997E+02  0.45594000000E+02  0.51100000000E-03 0.  1.
         11   -1    0    0    0    0 -0.00000000000E+00 -0.00000000000E+00 -0.45593999997E+02  0.45594000000E+02  0.51100000000E-03 0. -1.
    9900012    2    1    2    0    0 -0.24808979289E+02  0.33584378548E+02 -0.11841790441E+02  0.47787263408E+02  0.19999965184E+02 0.  0.
        -12    1    1    2    0    0  0.24808979289E+02 -0.33584378548E+02  0.11841790441E+02  0.43400736592E+02  0.00000000000E+00 0.  1.
         11    1    3    3    0    0 -0.14126839200E+02  0.30486116989E+02 -0.11096411474E+02  0.35385042924E+02  0.51100000000E-03 0. -1.
        -11    1    3    3    0    0 -0.63693390439E+01  0.45390114877E+01 -0.72906401006E+00  0.78551027831E+01  0.51100000000E-03 0.  1.
         12    1    3    3    0    0 -0.43128010449E+01 -0.14407499287E+01 -0.16314956895E-01  0.45471177012E+01  0.00000000000E+00 0. -1.
</event>
<event>
 7    1  0.4031943E-009  0.4778725E+02  0.7816164E-02  0.1312668E+00
        -11   -1    0    0    0    0  0.00000000000E+00  0.00000000000E+00  0.45593999997E+02  0.45594000000E+02  0.51100000000E-03 0.  1.
         11   -1    0    0    0    0 -0.00000000000E+00 -0.00000000000E+00 -0.45593999997E+02  0.45594000000E+02  0.51100000000E-03 0. -1.
    9900012    2    1    2    0    0 -0.23953163059E+02  0.34584496074E+01 -0.36026523709E+02  0.47787247648E+02  0.19999893325E+02 0.  0.
        -12    1    1    2    0    0  0.23953163059E+02 -0.34584496074E+01  0.36026523709E+02  0.43400752352E+02  0.00000000000E+00 0.  1.
         11    1    3    3    0    0 -0.18291182641E+02  0.43081438758E+01 -0.22900584727E+02  0.29623710895E+02  0.51100000000E-03 0. -1.
        -11    1    3    3    0    0 -0.56012194324E+01 -0.55144973440E+01 -0.76285985585E+01  0.10953486035E+02  0.51100000000E-03 0.  1.
        -12    1    3    3    0    0 -0.60760985359E-01  0.46648030756E+01 -0.54973404226E+01  0.72100507178E+01  0.00000000000E+00 0.  1.
</event>
<event>
 7    1  0.4031943E-009  0.4778727E+02  0.7816164E-02  0.1312668E+00
        -11   -1    0    0    0    0  0.00000000000E+00  0.00000000000E+00  0.45593999997E+02  0.45594000000E+02  0.51100000000E-03 0.  1.
         11   -1    0    0    0    0 -0.00000000000E+00 -0.00000000000E+00 -0.45593999997E+02  0.45594000000E+02  0.51100000000E-03 0. -1.
    9900012    2    1    2    0    0 -0.15418208690E+02 -0.10228384166E+02 -0.39259165414E+02  0.47787273383E+02  0.20000010664E+02 0.  0.
        -12    1    1    2    0    0  0.15418208690E+02  0.10228384166E+02  0.39259165414E+02  0.43400726617E+02  0.00000000000E+00 0.  1.
         11    1    3    3    0    0 -0.71729220841E+01 -0.21439963272E+01 -0.21736769535E+02  0.22989882157E+02  0.51100000000E-03 0.  1.
        -11    1    3    3    0    0  0.21335897850E+01  0.16866653525E+01 -0.55555730220E+01  0.61855830159E+01  0.51100000000E-03 0. -1.
        -12    1    3    3    0    0 -0.10378876391E+02 -0.97710531915E+01 -0.11966822856E+02  0.18611808211E+02  0.00000000000E+00 0.  1.
</event>
<event>
 7    1  0.4031943E-009  0.4778727E+02  0.7816164E-02  0.1312668E+00
        -11   -1    0    0    0    0  0.00000000000E+00  0.00000000000E+00  0.45593999997E+02  0.45594000000E+02  0.51100000000E-03 0.  1.
         11   -1    0    0    0    0 -0.00000000000E+00 -0.00000000000E+00 -0.45593999997E+02  0.45594000000E+02  0.51100000000E-03 0. -1.
    9900012    2    1    2    0    0  0.39616663495E+02 -0.17457546864E+02  0.30622190365E+01  0.47787272421E+02  0.20000006275E+02 0.  0.
        -12    1    1    2    0    0 -0.39616663495E+02  0.17457546864E+02 -0.30622190365E+01  0.43400727579E+02  0.00000000000E+00 0.  1.
         11    1    3    3    0    0  0.34288653770E+02 -0.10849618914E+02  0.59367641901E+01  0.36450942063E+02  0.51100000000E-03 0. -1.
        -11    1    3    3    0    0  0.54785158784E+01 -0.28248053822E+01  0.60582833743E+00  0.61936007228E+01  0.51100000000E-03 0.  1.
        -12    1    3    3    0    0 -0.15050615358E+00 -0.37831225679E+01 -0.34803734910E+01  0.51427296354E+01  0.00000000000E+00 0.  1.
</event>
<event>
 7    1  0.4031943E-009  0.4778727E+02  0.7816164E-02  0.1312668E+00
        -11   -1    0    0    0    0  0.00000000000E+00  0.00000000000E+00  0.45593999997E+02  0.45594000000E+02  0.51100000000E-03 0.  1.
         11   -1    0    0    0    0 -0.00000000000E+00 -0.00000000000E+00 -0.45593999997E+02  0.45594000000E+02  0.51100000000E-03 0. -1.
    9900012    2    1    2    0    0 -0.99443149848E+01  0.29778479797E+02 -0.29966247264E+02  0.47787271497E+02  0.20000002061E+02 0.  0.
        -12    1    1    2    0    0  0.99443149848E+01 -0.29778479797E+02  0.29966247264E+02  0.43400728503E+02  0.00000000000E+00 0.  1.
         11    1    3    3    0    0 -0.78557476070E+01  0.11015701461E+02 -0.18017502260E+02  0.22531951471E+02  0.51100000000E-03 0. -1.
        -11    1    3    3    0    0 -0.43194138547E+01  0.15634610959E+02 -0.13508424879E+02  0.21108669756E+02  0.51100000000E-03 0.  1.
        -12    1    3    3    0    0  0.22308464769E+01  0.31281673769E+01  0.15596798755E+01  0.41466502692E+01  0.00000000000E+00 0.  1.
</event>
<event>
 7    1  0.4031943E-009  0.4778727E+02  0.7816164E-02  0.1312668E+00
        -11   -1    0    0    0    0  0.00000000000E+00  0.00000000000E+00  0.45593999997E+02  0.45594000000E+02  0.51100000000E-03 0. -1.
         11   -1    0    0    0    0 -0.00000000000E+00 -0.00000000000E+00 -0.45593999997E+02  0.45594000000E+02  0.51100000000E-03 0.  1.
    9900012    2    1    2    0    0 -0.20997546783E+02  0.32667755188E+02  0.19378969666E+02  0.47787266536E+02  0.19999979442E+02 0.  0.
        -12    1    1    2    0    0  0.20997546783E+02 -0.32667755188E+02 -0.19378969666E+02  0.43400733464E+02  0.00000000000E+00 0.  1.
         11    1    3    3    0    0 -0.10265107895E+02  0.22595179477E+02  0.13345579156E+02  0.28178343794E+02  0.51100000000E-03 0. -1.
        -11    1    3    3    0    0 -0.11153400113E+02  0.11820424862E+02  0.37077111157E+01  0.16669370114E+02  0.51100000000E-03 0.  1.
        -12    1    3    3    0    0  0.42096122543E+00 -0.17478491509E+01  0.23256793941E+01  0.29395526278E+01  0.00000000000E+00 0.  1.
</event>
<event>
 7    1  0.4031943E-009  0.4778727E+02  0.7816164E-02  0.1312668E+00
        -11   -1    0    0    0    0  0.00000000000E+00  0.00000000000E+00  0.45593999997E+02  0.45594000000E+02  0.51100000000E-03 0.  1.
         11   -1    0    0    0    0 -0.00000000000E+00 -0.00000000000E+00 -0.45593999997E+02  0.45594000000E+02  0.51100000000E-03 0. -1.
    9900012    2    1    2    0    0 -0.17369530467E+02 -0.23506050037E+02 -0.32084082555E+02  0.47787270393E+02  0.19999997032E+02 0.  0.
        -12    1    1    2    0    0  0.17369530467E+02  0.23506050037E+02  0.32084082555E+02  0.43400729607E+02  0.00000000000E+00 0.  1.
         11    1    3    3    0    0 -0.72248336055E+01 -0.44278808223E+01 -0.13775130544E+02  0.16172772519E+02  0.51100000000E-03 0. -1.
        -11    1    3    3    0    0 -0.78185887277E+01 -0.29740897963E+01 -0.20509955754E+01  0.86129044417E+01  0.51100000000E-03 0.  1.
         12    1    3    3    0    0 -0.23261081341E+01 -0.16104079418E+02 -0.16257956436E+02  0.23001593432E+02  0.00000000000E+00 0. -1.
</event>
<event>
 7    1  0.4031943E-009  0.4778727E+02  0.7816164E-02  0.1312668E+00
        -11   -1    0    0    0    0  0.00000000000E+00  0.00000000000E+00  0.45593999997E+02  0.45594000000E+02  0.51100000000E-03 0.  1.
         11   -1    0    0    0    0 -0.00000000000E+00 -0.00000000000E+00 -0.45593999997E+02  0.45594000000E+02  0.51100000000E-03 0. -1.
    9900012    2    1    2    0    0  0.10156413952E+01  0.97393329303E+01 -0.42281640832E+02  0.47787270918E+02  0.19999999425E+02 0.  0.
        -12    1    1    2    0    0 -0.10156413952E+01 -0.97393329303E+01  0.42281640832E+02  0.43400729082E+02  0.00000000000E+00 0.  1.
         11    1    3    3    0    0  0.54879641073E+01  0.10252871533E+02 -0.23721745992E+02  0.26418939378E+02  0.51100000000E-03 0. -1.
        -11    1    3    3    0    0  0.16307348154E+00  0.38120668199E+00  0.10863723618E+01  0.11628055144E+01  0.51100000000E-03 0.  1.
         12    1    3    3    0    0 -0.46353961936E+01 -0.89474528456E+00 -0.19646267202E+02  0.20205526026E+02  0.00000000000E+00 0. -1.
</event>
<event>
 7    1  0.4031943E-009  0.4778727E+02  0.7816164E-02  0.1312668E+00
        -11   -1    0    0    0    0  0.00000000000E+00  0.00000000000E+00  0.45593999997E+02  0.45594000000E+02  0.51100000000E-03 0. -1.
         11   -1    0    0    0    0 -0.00000000000E+00 -0.00000000000E+00 -0.45593999997E+02  0.45594000000E+02  0.51100000000E-03 0.  1.
    9900012    2    1    2    0    0  0.30491800613E+02 -0.26680287494E+02  0.15557503639E+02  0.47787267692E+02  0.19999984715E+02 0.  0.
        -12    1    1    2    0    0 -0.30491800613E+02  0.26680287494E+02 -0.15557503639E+02  0.43400732308E+02  0.00000000000E+00 0.  1.
         11    1    3    3    0    0  0.21864334286E+02 -0.20169213690E+02  0.48181383648E+01  0.30134046397E+02  0.51100000000E-03 0. -1.
        -11    1    3    3    0    0  0.11158873098E+01 -0.40518215051E+01 -0.14098007655E+00  0.42050371747E+01  0.51100000000E-03 0.  1.
        -12    1    3    3    0    0  0.75115790171E+01 -0.24592522984E+01  0.10880345350E+02  0.13448184121E+02  0.00000000000E+00 0.  1.
</event>
<event>
 7    1  0.4031943E-009  0.4778727E+02  0.7816164E-02  0.1312668E+00
        -11   -1    0    0    0    0  0.00000000000E+00  0.00000000000E+00  0.45593999997E+02  0.45594000000E+02  0.51100000000E-03 0.  1.
         11   -1    0    0    0    0 -0.00000000000E+00 -0.00000000000E+00 -0.45593999997E+02  0.45594000000E+02  0.51100000000E-03 0. -1.
    9900012    2    1    2    0    0  0.42413494229E+02 -0.72185228747E+01  0.57106393712E+01  0.47787274577E+02  0.20000016108E+02 0.  0.
        -12    1    1    2    0    0 -0.42413494229E+02  0.72185228747E+01 -0.57106393712E+01  0.43400725423E+02  0.00000000000E+00 0.  1.
         11    1    3    3    0    0  0.30013596700E+02 -0.11891229050E+02 -0.98092604024E+00  0.32298289913E+02  0.51100000000E-03 0. -1.
        -11    1    3    3    0    0  0.50425075371E+01  0.17730427476E+01  0.35787540237E+00  0.53571109669E+01  0.51100000000E-03 0.  1.
         12    1    3    3    0    0  0.73573899919E+01  0.28996634276E+01  0.63336900090E+01  0.10131873697E+02  0.00000000000E+00 0. -1.
</event>
<event>
 7    1  0.4031943E-009  0.4778727E+02  0.7816164E-02  0.1312668E+00
        -11   -1    0    0    0    0  0.00000000000E+00  0.00000000000E+00  0.45593999997E+02  0.45594000000E+02  0.51100000000E-03 0.  1.
         11   -1    0    0    0    0 -0.00000000000E+00 -0.00000000000E+00 -0.45593999997E+02  0.45594000000E+02  0.51100000000E-03 0. -1.
    9900012    2    1    2    0    0 -0.23180077124E+02 -0.31974179883E+02  0.17998864659E+02  0.47787270931E+02  0.19999999484E+02 0.  0.
        -12    1    1    2    0    0  0.23180077124E+02  0.31974179883E+02 -0.17998864659E+02  0.43400729069E+02  0.00000000000E+00 0.  1.
         11    1    3    3    0    0 -0.14860135294E+01  0.96708839177E+00  0.79662542960E+00  0.19437357082E+01  0.51100000000E-03 0. -1.
        -11    1    3    3    0    0 -0.12094262474E+02 -0.13518696663E+02  0.15929461582E+02  0.24140714381E+02  0.51100000000E-03 0.  1.
         12    1    3    3    0    0 -0.95998011199E+01 -0.19422571612E+02  0.12727776475E+01  0.21702820842E+02  0.00000000000E+00 0. -1.
</event>
<event>
 7    1  0.4031943E-009  0.4778728E+02  0.7816164E-02  0.1312668E+00
        -11   -1    0    0    0    0  0.00000000000E+00  0.00000000000E+00  0.45593999997E+02  0.45594000000E+02  0.51100000000E-03 0.  1.
         11   -1    0    0    0    0 -0.00000000000E+00 -0.00000000000E+00 -0.45593999997E+02  0.45594000000E+02  0.51100000000E-03 0. -1.
    9900012    2    1    2    0    0 -0.25734627191E+02  0.25637122150E+02 -0.23750574966E+02  0.47787275582E+02  0.20000020687E+02 0.  0.
        -12    1    1    2    0    0  0.25734627191E+02 -0.25637122150E+02  0.23750574966E+02  0.43400724418E+02  0.00000000000E+00 0.  1.
         11    1    3    3    0    0 -0.39013894757E+01 -0.34165378348E+00 -0.15822121782E+01  0.42238563880E+01  0.51100000000E-03 0.  1.
        -11    1    3    3    0    0 -0.20094178977E+01  0.13593442258E+02 -0.11275454332E+02  0.17775131599E+02  0.51100000000E-03 0. -1.
         12    1    3    3    0    0 -0.19823819818E+02  0.12385333676E+02 -0.10892908457E+02  0.25788287595E+02  0.00000000000E+00 0. -1.
</event>
<event>
 7    1  0.4031943E-009  0.4778727E+02  0.7816164E-02  0.1312668E+00
        -11   -1    0    0    0    0  0.00000000000E+00  0.00000000000E+00  0.45593999997E+02  0.45594000000E+02  0.51100000000E-03 0. -1.
         11   -1    0    0    0    0 -0.00000000000E+00 -0.00000000000E+00 -0.45593999997E+02  0.45594000000E+02  0.51100000000E-03 0.  1.
    9900012    2    1    2    0    0  0.75506389403E+01  0.29993557186E+02  0.30446639822E+02  0.47787268468E+02  0.19999988252E+02 0.  0.
        -12    1    1    2    0    0 -0.75506389403E+01 -0.29993557186E+02 -0.30446639822E+02  0.43400731532E+02  0.00000000000E+00 0.  1.
         11    1    3    3    0    0 -0.21875977270E+01  0.41764206329E+01  0.80941989050E+01  0.93671836372E+01  0.51100000000E-03 0. -1.
        -11    1    3    3    0    0 -0.28142505639E+01  0.12835062816E+02  0.83434999432E+01  0.15565115975E+02  0.51100000000E-03 0.  1.
         12    1    3    3    0    0  0.12552487231E+02  0.12982073737E+02  0.14008940974E+02  0.22854968856E+02  0.00000000000E+00 0. -1.
</event>
<event>
 7    1  0.4031943E-009  0.4778727E+02  0.7816164E-02  0.1312668E+00
        -11   -1    0    0    0    0  0.00000000000E+00  0.00000000000E+00  0.45593999997E+02  0.45594000000E+02  0.51100000000E-03 0.  1.
         11   -1    0    0    0    0 -0.00000000000E+00 -0.00000000000E+00 -0.45593999997E+02  0.45594000000E+02  0.51100000000E-03 0. -1.
    9900012    2    1    2    0    0  0.10114772314E+02  0.26101302952E+02 -0.33166799636E+02  0.47787271517E+02  0.20000002155E+02 0.  0.
        -12    1    1    2    0    0 -0.10114772314E+02 -0.26101302952E+02  0.33166799636E+02  0.43400728483E+02  0.00000000000E+00 0.  1.
         11    1    3    3    0    0  0.36616817417E+01  0.15908438826E+02 -0.17851808120E+02  0.24190357427E+02  0.51100000000E-03 0. -1.
        -11    1    3    3    0    0  0.98816056166E+01  0.10591558075E+02 -0.12737002608E+02  0.19288817167E+02  0.51100000000E-03 0.  1.
         12    1    3    3    0    0 -0.34285150446E+01 -0.39869394997E+00 -0.25779889090E+01  0.43080969223E+01  0.00000000000E+00 0. -1.
</event>
<event>
 7    1  0.4031943E-009  0.4778727E+02  0.7816164E-02  0.1312668E+00
        -11   -1    0    0    0    0  0.00000000000E+00  0.00000000000E+00  0.45593999997E+02  0.45594000000E+02  0.51100000000E-03 0. -1.
         11   -1    0    0    0    0 -0.00000000000E+00 -0.00000000000E+00 -0.45593999997E+02  0.45594000000E+02  0.51100000000E-03 0.  1.
    9900012    2    1    2    0    0  0.18016510024E+02 -0.20698043179E+02  0.33624688960E+02  0.47787270369E+02  0.19999996919E+02 0.  0.
        -12    1    1    2    0    0 -0.18016510024E+02  0.20698043179E+02 -0.33624688960E+02  0.43400729631E+02  0.00000000000E+00 0.  1.
         11    1    3    3    0    0  0.24751471288E+01 -0.57216056088E+01  0.15425462618E+02  0.16637548536E+02  0.51100000000E-03 0. -1.
        -11    1    3    3    0    0  0.16526336076E+02 -0.83177066154E+01  0.12482436847E+02  0.22318495857E+02  0.51100000000E-03 0.  1.
        -12    1    3    3    0    0 -0.98497318058E+00 -0.66587309550E+01  0.57167894947E+01  0.88312259751E+01  0.00000000000E+00 0.  1.
</event>
<event>
 7    1  0.4031943E-009  0.4778730E+02  0.7816164E-02  0.1312668E+00
        -11   -1    0    0    0    0  0.00000000000E+00  0.00000000000E+00  0.45593999997E+02  0.45594000000E+02  0.51100000000E-03 0. -1.
         11   -1    0    0    0    0 -0.00000000000E+00 -0.00000000000E+00 -0.45593999997E+02  0.45594000000E+02  0.51100000000E-03 0.  1.
    9900012    2    1    2    0    0 -0.98787534185E+01  0.87444279866E+01  0.41346894108E+02  0.47787303665E+02  0.20000148731E+02 0.  0.
        -12    1    1    2    0    0  0.98787534185E+01 -0.87444279866E+01 -0.41346894108E+02  0.43400696335E+02  0.00000000000E+00 0.  1.
         11    1    3    3    0    0 -0.46377917448E+01 -0.12348212233E+00  0.13976721045E+02  0.14726611678E+02  0.51100000000E-03 0. -1.
        -11    1    3    3    0    0 -0.99539210082E+01  0.88467931596E+01  0.16435223331E+02  0.21153317916E+02  0.51100000000E-03 0.  1.
         12    1    3    3    0    0  0.47129593345E+01  0.21116949328E-01  0.10934949733E+02  0.11907374071E+02  0.00000000000E+00 0. -1.
</event>
<event>
 7    1  0.4031943E-009  0.4778728E+02  0.7816164E-02  0.1312668E+00
        -11   -1    0    0    0    0  0.00000000000E+00  0.00000000000E+00  0.45593999997E+02  0.45594000000E+02  0.51100000000E-03 0.  1.
         11   -1    0    0    0    0 -0.00000000000E+00 -0.00000000000E+00 -0.45593999997E+02  0.45594000000E+02  0.51100000000E-03 0. -1.
    9900012    2    1    2    0    0 -0.18590507971E+02  0.39140995600E+02  0.24491367668E+01  0.47787276572E+02  0.20000025201E+02 0.  0.
        -12    1    1    2    0    0  0.18590507971E+02 -0.39140995600E+02 -0.24491367668E+01  0.43400723428E+02  0.00000000000E+00 0.  1.
         11    1    3    3    0    0 -0.84170315804E+01  0.21517392207E+02  0.19932368348E+01  0.23190894363E+02  0.51100000000E-03 0.  1.
        -11    1    3    3    0    0 -0.94525600599E+01  0.17319077434E+02  0.46983105948E+01  0.20282392797E+02  0.51100000000E-03 0. -1.
        -12    1    3    3    0    0 -0.72091633047E+00  0.30452595960E+00 -0.42424106629E+01  0.43139894121E+01  0.00000000000E+00 0.  1.
</event>
<event>
 7    1  0.4031943E-009  0.4778728E+02  0.7816164E-02  0.1312668E+00
        -11   -1    0    0    0    0  0.00000000000E+00  0.00000000000E+00  0.45593999997E+02  0.45594000000E+02  0.51100000000E-03 0.  1.
         11   -1    0    0    0    0 -0.00000000000E+00 -0.00000000000E+00 -0.45593999997E+02  0.45594000000E+02  0.51100000000E-03 0. -1.
    9900012    2    1    2    0    0  0.24135949755E+02 -0.69971035605E+01 -0.35385298877E+02  0.47787275289E+02  0.20000019354E+02 0.  0.
        -12    1    1    2    0    0 -0.24135949755E+02  0.69971035605E+01  0.35385298877E+02  0.43400724711E+02  0.00000000000E+00 0.  1.
         11    1    3    3    0    0  0.11967290217E+02  0.75737572614E+00 -0.27288143404E+02  0.29806583565E+02  0.51100000000E-03 0. -1.
        -11    1    3    3    0    0  0.64591410864E+00 -0.12158577330E+01  0.11747675502E+01  0.18098602490E+01  0.51100000000E-03 0.  1.
         12    1    3    3    0    0  0.11522745429E+02 -0.65386215535E+01 -0.92719230235E+01  0.16170831475E+02  0.00000000000E+00 0. -1.
</event>
<event>
 7    1  0.4031943E-009  0.4778727E+02  0.7816164E-02  0.1312668E+00
        -11   -1    0    0    0    0  0.00000000000E+00  0.00000000000E+00  0.45593999997E+02  0.45594000000E+02  0.51100000000E-03 0.  1.
         11   -1    0    0    0    0 -0.00000000000E+00 -0.00000000000E+00 -0.45593999997E+02  0.45594000000E+02  0.51100000000E-03 0. -1.
    9900012    2    1    2    0    0 -0.32828868312E+02  0.74822863135E+01 -0.27384377569E+02  0.47787270306E+02  0.19999996635E+02 0.  0.
        -12    1    1    2    0    0  0.32828868312E+02 -0.74822863135E+01  0.27384377569E+02  0.43400729694E+02  0.00000000000E+00 0.  1.
         11    1    3    3    0    0 -0.15538352788E+02  0.72437348717E+01 -0.16936403567E+02  0.24098835413E+02  0.51100000000E-03 0. -1.
        -11    1    3    3    0    0 -0.11100565942E+01  0.41603921713E+01 -0.38621003623E+01  0.57841946830E+01  0.51100000000E-03 0.  1.
        -12    1    3    3    0    0 -0.16180458930E+02 -0.39218407295E+01 -0.65858736396E+01  0.17904240210E+02  0.00000000000E+00 0.  1.
</event>
<event>
 7    1  0.4031943E-009  0.4778728E+02  0.7816164E-02  0.1312668E+00
        -11   -1    0    0    0    0  0.00000000000E+00  0.00000000000E+00  0.45593999997E+02  0.45594000000E+02  0.51100000000E-03 0. -1.
         11   -1    0    0    0    0 -0.00000000000E+00 -0.00000000000E+00 -0.45593999997E+02  0.45594000000E+02  0.51100000000E-03 0.  1.
    9900012    2    1    2    0    0 -0.18588961692E+02 -0.38164123588E+02 -0.90317714948E+01  0.47787277398E+02  0.20000028969E+02 0.  0.
        -12    1    1    2    0    0  0.18588961692E+02  0.38164123588E+02  0.90317714948E+01  0.43400722602E+02  0.00000000000E+00 0.  1.
         11    1    3    3    0    0 -0.80570074013E+01 -0.56745044268E+01 -0.59222883259E+01  0.11497341781E+02  0.51100000000E-03 0. -1.
        -11    1    3    3    0    0 -0.54906279480E+01 -0.16636861551E+02 -0.75428694635E+01  0.19074250641E+02  0.51100000000E-03 0.  1.
         12    1    3    3    0    0 -0.50413263428E+01 -0.15852757610E+02  0.44333862945E+01  0.17215684976E+02  0.00000000000E+00 0. -1.
</event>
<event>
 7    1  0.4031943E-009  0.4778727E+02  0.7816164E-02  0.1312668E+00
        -11   -1    0    0    0    0  0.00000000000E+00  0.00000000000E+00  0.45593999997E+02  0.45594000000E+02  0.51100000000E-03 0.  1.
         11   -1    0    0    0    0 -0.00000000000E+00 -0.00000000000E+00 -0.45593999997E+02  0.45594000000E+02  0.51100000000E-03 0. -1.
    9900012    2    1    2    0    0  0.12395123054E+02 -0.12943477156E+02 -0.39527843814E+02  0.47787272898E+02  0.20000008450E+02 0.  0.
        -12    1    1    2    0    0 -0.12395123054E+02  0.12943477156E+02  0.39527843814E+02  0.43400727102E+02  0.00000000000E+00 0.  1.
         11    1    3    3    0    0  0.10492533262E+01 -0.25511985114E+01 -0.35516315572E+01  0.44970694198E+01  0.51100000000E-03 0. -1.
        -11    1    3    3    0    0  0.13266392050E+02  0.15521808148E+00 -0.18025541119E+02  0.22381719853E+02  0.51100000000E-03 0.  1.
        -12    1    3    3    0    0 -0.19205223231E+01 -0.10547496726E+02 -0.17950671138E+02  0.20908483624E+02  0.00000000000E+00 0.  1.
</event>
<event>
 7    1  0.4031943E-009  0.4778727E+02  0.7816164E-02  0.1312668E+00
        -11   -1    0    0    0    0  0.00000000000E+00  0.00000000000E+00  0.45593999997E+02  0.45594000000E+02  0.51100000000E-03 0.  1.
         11   -1    0    0    0    0 -0.00000000000E+00 -0.00000000000E+00 -0.45593999997E+02  0.45594000000E+02  0.51100000000E-03 0. -1.
    9900012    2    1    2    0    0  0.51494907445E+01 -0.57937038088E+01 -0.42702916186E+02  0.47787270634E+02  0.19999998128E+02 0.  0.
        -12    1    1    2    0    0 -0.51494907445E+01  0.57937038088E+01  0.42702916186E+02  0.43400729366E+02  0.00000000000E+00 0.  1.
         11    1    3    3    0    0 -0.42618160334E+01 -0.13201413141E+01 -0.42765973983E+01  0.61802212387E+01  0.51100000000E-03 0.  1.
        -11    1    3    3    0    0  0.52568239865E+01 -0.30921534302E+00 -0.38229926640E+01  0.65073101758E+01  0.51100000000E-03 0. -1.
         12    1    3    3    0    0  0.41544827915E+01 -0.41643471517E+01 -0.34603326123E+02  0.35099739219E+02  0.00000000000E+00 0. -1.
</event>
<event>
 7    1  0.4031943E-009  0.4778727E+02  0.7816164E-02  0.1312668E+00
        -11   -1    0    0    0    0  0.00000000000E+00  0.00000000000E+00  0.45593999997E+02  0.45594000000E+02  0.51100000000E-03 0. -1.
         11   -1    0    0    0    0 -0.00000000000E+00 -0.00000000000E+00 -0.45593999997E+02  0.45594000000E+02  0.51100000000E-03 0.  1.
    9900012    2    1    2    0    0  0.36679745802E+02  0.15873044585E+02  0.16919396727E+02  0.47787270949E+02  0.19999999566E+02 0.  0.
        -12    1    1    2    0    0 -0.36679745802E+02 -0.15873044585E+02 -0.16919396727E+02  0.43400729051E+02  0.00000000000E+00 0.  1.
         11    1    3    3    0    0  0.14992668906E+01 -0.26815791155E+00 -0.20006087185E+01  0.25143876751E+01  0.51100000000E-03 0. -1.
        -11    1    3    3    0    0  0.19229616593E+01 -0.77158841212E+00 -0.16668461346E+01  0.26592304373E+01  0.51100000000E-03 0.  1.
         12    1    3    3    0    0  0.33257517253E+02  0.16912790909E+02  0.20586851580E+02  0.42613652837E+02  0.00000000000E+00 0. -1.
</event>
<event>
 7    1  0.4031943E-009  0.4778727E+02  0.7816164E-02  0.1312668E+00
        -11   -1    0    0    0    0  0.00000000000E+00  0.00000000000E+00  0.45593999997E+02  0.45594000000E+02  0.51100000000E-03 0.  1.
         11   -1    0    0    0    0 -0.00000000000E+00 -0.00000000000E+00 -0.45593999997E+02  0.45594000000E+02  0.51100000000E-03 0. -1.
    9900012    2    1    2    0    0 -0.17634996512E+01  0.58760134724E+01 -0.42964938505E+02  0.47787269521E+02  0.19999993054E+02 0.  0.
        -12    1    1    2    0    0  0.17634996512E+01 -0.58760134724E+01  0.42964938505E+02  0.43400730479E+02  0.00000000000E+00 0.  1.
         11    1    3    3    0    0 -0.51757348762E+01  0.79370850725E+01 -0.29741846887E+02  0.31214788281E+02  0.51100000000E-03 0. -1.
        -11    1    3    3    0    0 -0.31464154026E+01 -0.84544817992E+00 -0.52296519969E+01  0.61614911166E+01  0.51100000000E-03 0.  1.
        -12    1    3    3    0    0  0.65586506276E+01 -0.12156234201E+01 -0.79934396218E+01  0.10410990123E+02  0.00000000000E+00 0.  1.
</event>
<event>
 7    1  0.4031943E-009  0.4778727E+02  0.7816164E-02  0.1312668E+00
        -11   -1    0    0    0    0  0.00000000000E+00  0.00000000000E+00  0.45593999997E+02  0.45594000000E+02  0.51100000000E-03 0.  1.
         11   -1    0    0    0    0 -0.00000000000E+00 -0.00000000000E+00 -0.45593999997E+02  0.45594000000E+02  0.51100000000E-03 0. -1.
    9900012    2    1    2    0    0  0.26900916796E+02  0.99062138291E+01 -0.32585751876E+02  0.47787267031E+02  0.19999981703E+02 0.  0.
        -12    1    1    2    0    0 -0.26900916796E+02 -0.99062138291E+01  0.32585751876E+02  0.43400732969E+02  0.00000000000E+00 0.  1.
         11    1    3    3    0    0  0.93057165871E+01  0.92495270877E+01 -0.25162585257E+02  0.28377910593E+02  0.51100000000E-03 0. -1.
        -11    1    3    3    0    0  0.35772191091E+00  0.37852982116E+00  0.20197039577E+00  0.55860727971E+00  0.51100000000E-03 0.  1.
        -12    1    3    3    0    0  0.17237478298E+02  0.27815692022E+00 -0.76251370143E+01  0.18850749159E+02  0.00000000000E+00 0.  1.
</event>
<event>
 7    1  0.4031943E-009  0.4778727E+02  0.7816164E-02  0.1312668E+00
        -11   -1    0    0    0    0  0.00000000000E+00  0.00000000000E+00  0.45593999997E+02  0.45594000000E+02  0.51100000000E-03 0.  1.
         11   -1    0    0    0    0 -0.00000000000E+00 -0.00000000000E+00 -0.45593999997E+02  0.45594000000E+02  0.51100000000E-03 0. -1.
    9900012    2    1    2    0    0 -0.45757682181E+01 -0.43070253395E+02 -0.27638769619E+01  0.47787269612E+02  0.19999993471E+02 0.  0.
        -12    1    1    2    0    0  0.45757682181E+01  0.43070253395E+02  0.27638769619E+01  0.43400730388E+02  0.00000000000E+00 0.  1.
         11    1    3    3    0    0 -0.77175637157E+01 -0.14169606810E+02 -0.71427820077E+01  0.17645335983E+02  0.51100000000E-03 0. -1.
        -11    1    3    3    0    0 -0.84966298115E+00 -0.43429248000E+01 -0.13193669406E+01  0.46177540412E+01  0.51100000000E-03 0.  1.
        -12    1    3    3    0    0  0.39914584787E+01 -0.24557721785E+02  0.56982719864E+01  0.25524179589E+02  0.00000000000E+00 0.  1.
</event>
<event>
 7    1  0.4031943E-009  0.4778727E+02  0.7816164E-02  0.1312668E+00
        -11   -1    0    0    0    0  0.00000000000E+00  0.00000000000E+00  0.45593999997E+02  0.45594000000E+02  0.51100000000E-03 0.  1.
         11   -1    0    0    0    0 -0.00000000000E+00 -0.00000000000E+00 -0.45593999997E+02  0.45594000000E+02  0.51100000000E-03 0. -1.
    9900012    2    1    2    0    0  0.63323712566E+01  0.18151424347E+02 -0.38910795957E+02  0.47787272200E+02  0.20000005268E+02 0.  0.
        -12    1    1    2    0    0 -0.63323712566E+01 -0.18151424347E+02  0.38910795957E+02  0.43400727800E+02  0.00000000000E+00 0.  1.
         11    1    3    3    0    0 -0.72028436368E+00  0.61013117293E+01 -0.13921197976E+01  0.62994295118E+01  0.51100000000E-03 0.  1.
        -11    1    3    3    0    0 -0.38727842917E+00  0.87556597007E+01 -0.13204824149E+02  0.15848625885E+02  0.51100000000E-03 0. -1.
        -12    1    3    3    0    0  0.74399340494E+01  0.32944529167E+01 -0.24313852011E+02  0.25639216803E+02  0.00000000000E+00 0.  1.
</event>
<event>
 7    1  0.4031943E-009  0.4778727E+02  0.7816164E-02  0.1312668E+00
        -11   -1    0    0    0    0  0.00000000000E+00  0.00000000000E+00  0.45593999997E+02  0.45594000000E+02  0.51100000000E-03 0.  1.
         11   -1    0    0    0    0 -0.00000000000E+00 -0.00000000000E+00 -0.45593999997E+02  0.45594000000E+02  0.51100000000E-03 0. -1.
    9900012    2    1    2    0    0  0.29638284586E+02 -0.30036492582E+02  0.10149100222E+02  0.47787273794E+02  0.20000012538E+02 0.  0.
        -12    1    1    2    0    0 -0.29638284586E+02  0.30036492582E+02 -0.10149100222E+02  0.43400726206E+02  0.00000000000E+00 0.  1.
         11    1    3    3    0    0  0.67837359188E+01 -0.11922499772E+02  0.23815067212E+01  0.13922523060E+02  0.51100000000E-03 0. -1.
        -11    1    3    3    0    0  0.23865224602E+01 -0.89123858584E+01  0.66919595726E+01  0.11397738123E+02  0.51100000000E-03 0.  1.
        -12    1    3    3    0    0  0.20468026208E+02 -0.92016069517E+01  0.10756339280E+01  0.22467012611E+02  0.00000000000E+00 0.  1.
</event>
<event>
 7    1  0.4031943E-009  0.4778727E+02  0.7816164E-02  0.1312668E+00
        -11   -1    0    0    0    0  0.00000000000E+00  0.00000000000E+00  0.45593999997E+02  0.45594000000E+02  0.51100000000E-03 0.  1.
         11   -1    0    0    0    0 -0.00000000000E+00 -0.00000000000E+00 -0.45593999997E+02  0.45594000000E+02  0.51100000000E-03 0. -1.
    9900012    2    1    2    0    0  0.24580135760E+02 -0.35768046706E+02 -0.29508403875E+00  0.47787270586E+02  0.19999997908E+02 0.  0.
        -12    1    1    2    0    0 -0.24580135760E+02  0.35768046706E+02  0.29508403875E+00  0.43400729414E+02  0.00000000000E+00 0.  1.
         11    1    3    3    0    0  0.18665981237E+01 -0.32892304494E+01 -0.30489744835E+01  0.48579286910E+01  0.51100000000E-03 0. -1.
        -11    1    3    3    0    0  0.10035900335E+02 -0.12156184044E+02 -0.67657795402E+01  0.17154237934E+02  0.51100000000E-03 0.  1.
        -12    1    3    3    0    0  0.12677637301E+02 -0.20322632212E+02  0.95196699849E+01  0.25775103961E+02  0.00000000000E+00 0.  1.
</event>
<event>
 7    1  0.4031943E-009  0.4778727E+02  0.7816164E-02  0.1312668E+00
        -11   -1    0    0    0    0  0.00000000000E+00  0.00000000000E+00  0.45593999997E+02  0.45594000000E+02  0.51100000000E-03 0.  1.
         11   -1    0    0    0    0 -0.00000000000E+00 -0.00000000000E+00 -0.45593999997E+02  0.45594000000E+02  0.51100000000E-03 0. -1.
    9900012    2    1    2    0    0 -0.16907410537E+02  0.35333231398E+02 -0.18690260448E+02  0.47787267199E+02  0.19999982466E+02 0.  0.
        -12    1    1    2    0    0  0.16907410537E+02 -0.35333231398E+02  0.18690260448E+02  0.43400732801E+02  0.00000000000E+00 0.  1.
         11    1    3    3    0    0 -0.67768837401E+01  0.16408790751E+02 -0.94721002682E+01  0.20122009117E+02  0.51100000000E-03 0. -1.
        -11    1    3    3    0    0  0.24811486982E+01  0.65547433747E+01 -0.69232215081E+01  0.98514849582E+01  0.51100000000E-03 0.  1.
        -12    1    3    3    0    0 -0.12611675495E+02  0.12369697272E+02 -0.22949386719E+01  0.17813773124E+02  0.00000000000E+00 0.  1.
</event>
<event>
 7    1  0.4031943E-009  0.4778727E+02  0.7816164E-02  0.1312668E+00
        -11   -1    0    0    0    0  0.00000000000E+00  0.00000000000E+00  0.45593999997E+02  0.45594000000E+02  0.51100000000E-03 0.  1.
         11   -1    0    0    0    0 -0.00000000000E+00 -0.00000000000E+00 -0.45593999997E+02  0.45594000000E+02  0.51100000000E-03 0. -1.
    9900012    2    1    2    0    0  0.21462068882E+02  0.82901305788E+01 -0.36800499751E+02  0.47787269042E+02  0.19999990872E+02 0.  0.
        -12    1    1    2    0    0 -0.21462068882E+02 -0.82901305788E+01  0.36800499751E+02  0.43400730958E+02  0.00000000000E+00 0.  1.
         11    1    3    3    0    0  0.12061762250E+02 -0.23376896458E+01 -0.10949408947E+02  0.16457231177E+02  0.51100000000E-03 0. -1.
        -11    1    3    3    0    0  0.11513586073E+01 -0.57327212716E+00 -0.10639202784E+02  0.10716664767E+02  0.51100000000E-03 0.  1.
        -12    1    3    3    0    0  0.82489480254E+01  0.11201092352E+02 -0.15211888019E+02  0.20613373099E+02  0.00000000000E+00 0.  1.
</event>
<event>
 7    1  0.4031943E-009  0.4778727E+02  0.7816164E-02  0.1312668E+00
        -11   -1    0    0    0    0  0.00000000000E+00  0.00000000000E+00  0.45593999997E+02  0.45594000000E+02  0.51100000000E-03 0. -1.
         11   -1    0    0    0    0 -0.00000000000E+00 -0.00000000000E+00 -0.45593999997E+02  0.45594000000E+02  0.51100000000E-03 0.  1.
    9900012    2    1    2    0    0 -0.56855916336E+01 -0.24260576533E+02  0.35534794962E+02  0.47787272138E+02  0.20000004986E+02 0.  0.
        -12    1    1    2    0    0  0.56855916336E+01  0.24260576533E+02 -0.35534794962E+02  0.43400727862E+02  0.00000000000E+00 0.  1.
         11    1    3    3    0    0 -0.17250520067E+01  0.22255108448E+01  0.34968070216E+01  0.44895837840E+01  0.51100000000E-03 0. -1.
        -11    1    3    3    0    0 -0.39714241205E+01 -0.60649427421E+01  0.31112855253E+01  0.78889693808E+01  0.51100000000E-03 0.  1.
         12    1    3    3    0    0  0.10884493546E-01 -0.20421144636E+02  0.28926702415E+02  0.35408718973E+02  0.00000000000E+00 0. -1.
</event>
<event>
 7    1  0.4031943E-009  0.4778727E+02  0.7816164E-02  0.1312668E+00
        -11   -1    0    0    0    0  0.00000000000E+00  0.00000000000E+00  0.45593999997E+02  0.45594000000E+02  0.51100000000E-03 0.  1.
         11   -1    0    0    0    0 -0.00000000000E+00 -0.00000000000E+00 -0.45593999997E+02  0.45594000000E+02  0.51100000000E-03 0. -1.
    9900012    2    1    2    0    0 -0.31521572822E+02 -0.29832967284E+02  0.86592705383E-01  0.47787274333E+02  0.20000014994E+02 0.  0.
        -12    1    1    2    0    0  0.31521572822E+02  0.29832967284E+02 -0.86592705383E-01  0.43400725667E+02  0.00000000000E+00 0.  1.
         11    1    3    3    0    0 -0.27634701996E+02 -0.28420519839E+02  0.23473828165E+01  0.39710362736E+02  0.51100000000E-03 0. -1.
        -11    1    3    3    0    0 -0.23249876053E+01 -0.10914993180E+01  0.21734835631E+01  0.33646647955E+01  0.51100000000E-03 0.  1.
        -12    1    3    3    0    0 -0.15618832208E+01 -0.32094812681E+00 -0.44342736742E+01  0.47122468010E+01  0.00000000000E+00 0.  1.
</event>
<event>
 7    1  0.4031943E-009  0.4778727E+02  0.7816164E-02  0.1312668E+00
        -11   -1    0    0    0    0  0.00000000000E+00  0.00000000000E+00  0.45593999997E+02  0.45594000000E+02  0.51100000000E-03 0.  1.
         11   -1    0    0    0    0 -0.00000000000E+00 -0.00000000000E+00 -0.45593999997E+02  0.45594000000E+02  0.51100000000E-03 0. -1.
    9900012    2    1    2    0    0  0.68440513258E+01 -0.12203089966E+02 -0.41083660523E+02  0.47787267227E+02  0.19999982595E+02 0.  0.
        -12    1    1    2    0    0 -0.68440513258E+01  0.12203089966E+02  0.41083660523E+02  0.43400732773E+02  0.00000000000E+00 0.  1.
         11    1    3    3    0    0  0.80785093008E+01 -0.72326418913E+01 -0.30805376454E+02  0.32657995039E+02  0.51100000000E-03 0. -1.
        -11    1    3    3    0    0  0.43353551000E+01 -0.18113395296E+01 -0.43461865508E+01  0.64004369015E+01  0.51100000000E-03 0.  1.
        -12    1    3    3    0    0 -0.55698130750E+01 -0.31591085456E+01 -0.59320975178E+01  0.87288352862E+01  0.00000000000E+00 0.  1.
</event>
<event>
 7    1  0.4031943E-009  0.4778727E+02  0.7816164E-02  0.1312668E+00
        -11   -1    0    0    0    0  0.00000000000E+00  0.00000000000E+00  0.45593999997E+02  0.45594000000E+02  0.51100000000E-03 0. -1.
         11   -1    0    0    0    0 -0.00000000000E+00 -0.00000000000E+00 -0.45593999997E+02  0.45594000000E+02  0.51100000000E-03 0.  1.
    9900012    2    1    2    0    0 -0.30646963146E+02  0.30297246315E+02  0.51442876536E+01  0.47787272128E+02  0.20000004939E+02 0.  0.
        -12    1    1    2    0    0  0.30646963146E+02 -0.30297246315E+02 -0.51442876536E+01  0.43400727872E+02  0.00000000000E+00 0.  1.
         11    1    3    3    0    0 -0.56852872893E+01  0.16303235353E+02  0.34046138895E+01  0.17598561604E+02  0.51100000000E-03 0.  1.
        -11    1    3    3    0    0 -0.12169940832E+02  0.11350047710E+02  0.35093610504E+01  0.17007253104E+02  0.51100000000E-03 0. -1.
        -12    1    3    3    0    0 -0.12791735025E+02  0.26439632517E+01 -0.17696872862E+01  0.13181457420E+02  0.00000000000E+00 0.  1.
</event>
<event>
 7    1  0.4031943E-009  0.4778727E+02  0.7816164E-02  0.1312668E+00
        -11   -1    0    0    0    0  0.00000000000E+00  0.00000000000E+00  0.45593999997E+02  0.45594000000E+02  0.51100000000E-03 0. -1.
         11   -1    0    0    0    0 -0.00000000000E+00 -0.00000000000E+00 -0.45593999997E+02  0.45594000000E+02  0.51100000000E-03 0.  1.
    9900012    2    1    2    0    0  0.12395375745E+02 -0.28148799296E+02  0.30620628228E+02  0.47787272878E+02  0.20000008359E+02 0.  0.
        -12    1    1    2    0    0 -0.12395375745E+02  0.28148799296E+02 -0.30620628228E+02  0.43400727122E+02  0.00000000000E+00 0.  1.
         11    1    3    3    0    0  0.71994163065E+01 -0.51609825223E+01  0.31534132896E+01  0.94027310600E+01  0.51100000000E-03 0. -1.
        -11    1    3    3    0    0 -0.36630255037E+01 -0.87942644564E+01  0.13860764659E+02  0.16818966685E+02  0.51100000000E-03 0.  1.
         12    1    3    3    0    0  0.88589849424E+01 -0.14193552317E+02  0.13606450280E+02  0.21565575133E+02  0.00000000000E+00 0. -1.
</event>
<event>
 7    1  0.4031943E-009  0.4778727E+02  0.7816164E-02  0.1312668E+00
        -11   -1    0    0    0    0  0.00000000000E+00  0.00000000000E+00  0.45593999997E+02  0.45594000000E+02  0.51100000000E-03 0.  1.
         11   -1    0    0    0    0 -0.00000000000E+00 -0.00000000000E+00 -0.45593999997E+02  0.45594000000E+02  0.51100000000E-03 0. -1.
    9900012    2    1    2    0    0 -0.33907260681E+02 -0.41314674793E+01 -0.26774089300E+02  0.47787271800E+02  0.20000003446E+02 0.  0.
        -12    1    1    2    0    0  0.33907260681E+02  0.41314674793E+01  0.26774089300E+02  0.43400728200E+02  0.00000000000E+00 0.  1.
         11    1    3    3    0    0  0.11872844802E+01 -0.20069920227E+01 -0.28034326823E+01  0.36464909820E+01  0.51100000000E-03 0. -1.
        -11    1    3    3    0    0 -0.57154546339E+01 -0.49355552315E+01 -0.48267568347E+01  0.89623495199E+01  0.51100000000E-03 0.  1.
         12    1    3    3    0    0 -0.29379090527E+02  0.28110797749E+01 -0.19143899783E+02  0.35178431298E+02  0.00000000000E+00 0. -1.
</event>
<event>
 7    1  0.4031943E-009  0.4778727E+02  0.7816164E-02  0.1312668E+00
        -11   -1    0    0    0    0  0.00000000000E+00  0.00000000000E+00  0.45593999997E+02  0.45594000000E+02  0.51100000000E-03 0. -1.
         11   -1    0    0    0    0 -0.00000000000E+00 -0.00000000000E+00 -0.45593999997E+02  0.45594000000E+02  0.51100000000E-03 0.  1.
    9900012    2    1    2    0    0  0.31843804377E+02  0.28877233164E+02 -0.59749900856E+01  0.47787274442E+02  0.20000015491E+02 0.  0.
        -12    1    1    2    0    0 -0.31843804377E+02 -0.28877233164E+02  0.59749900856E+01  0.43400725558E+02  0.00000000000E+00 0.  1.
         11    1    3    3    0    0  0.21871511311E+02  0.12492914043E+02  0.29355771533E-01  0.25188028314E+02  0.51100000000E-03 0. -1.
        -11    1    3    3    0    0  0.46624449809E+01  0.11003344089E+00 -0.10946794996E+01  0.47904930880E+01  0.51100000000E-03 0.  1.
        -12    1    3    3    0    0  0.53098480846E+01  0.16274285680E+02 -0.49096663576E+01  0.17808753040E+02  0.00000000000E+00 0.  1.
</event>
<event>
 7    1  0.4031943E-009  0.4778727E+02  0.7816164E-02  0.1312668E+00
        -11   -1    0    0    0    0  0.00000000000E+00  0.00000000000E+00  0.45593999997E+02  0.45594000000E+02  0.51100000000E-03 0.  1.
         11   -1    0    0    0    0 -0.00000000000E+00 -0.00000000000E+00 -0.45593999997E+02  0.45594000000E+02  0.51100000000E-03 0. -1.
    9900012    2    1    2    0    0 -0.39328514863E+01  0.27914980609E+02 -0.32998633706E+02  0.47787270862E+02  0.19999999168E+02 0.  0.
        -12    1    1    2    0    0  0.39328514863E+01 -0.27914980609E+02  0.32998633706E+02  0.43400729138E+02  0.00000000000E+00 0.  1.
         11    1    3    3    0    0 -0.15203548282E+01  0.19547815219E+02 -0.28675703630E+02  0.34737940894E+02  0.51100000000E-03 0. -1.
        -11    1    3    3    0    0  0.62470797911E+00  0.38702934306E+01 -0.61759781787E+01  0.73151991103E+01  0.51100000000E-03 0.  1.
        -12    1    3    3    0    0 -0.30372046372E+01  0.44968719592E+01  0.18530481018E+01  0.57341308577E+01  0.00000000000E+00 0.  1.
</event>
<event>
 7    1  0.4031943E-009  0.4778728E+02  0.7816164E-02  0.1312668E+00
        -11   -1    0    0    0    0  0.00000000000E+00  0.00000000000E+00  0.45593999997E+02  0.45594000000E+02  0.51100000000E-03 0. -1.
         11   -1    0    0    0    0 -0.00000000000E+00 -0.00000000000E+00 -0.45593999997E+02  0.45594000000E+02  0.51100000000E-03 0.  1.
    9900012    2    1    2    0    0 -0.36332378238E+02  0.18676870785E+02 -0.14654530560E+02  0.47787280228E+02  0.20000041873E+02 0.  0.
        -12    1    1    2    0    0  0.36332378238E+02 -0.18676870785E+02  0.14654530560E+02  0.43400719772E+02  0.00000000000E+00 0.  1.
         11    1    3    3    0    0 -0.18111814071E+02  0.14178207437E+02 -0.14385215030E+02  0.27129205421E+02  0.51100000000E-03 0. -1.
        -11    1    3    3    0    0 -0.66877793173E+01  0.26578468717E+01 -0.42037352800E+01  0.83343825660E+01  0.51100000000E-03 0.  1.
        -12    1    3    3    0    0 -0.11532784850E+02  0.18408164761E+01  0.39344197497E+01  0.12323692241E+02  0.00000000000E+00 0.  1.
</event>
<event>
 7    1  0.4031943E-009  0.4778727E+02  0.7816164E-02  0.1312668E+00
        -11   -1    0    0    0    0  0.00000000000E+00  0.00000000000E+00  0.45593999997E+02  0.45594000000E+02  0.51100000000E-03 0.  1.
         11   -1    0    0    0    0 -0.00000000000E+00 -0.00000000000E+00 -0.45593999997E+02  0.45594000000E+02  0.51100000000E-03 0. -1.
    9900012    2    1    2    0    0  0.23436579775E+01  0.29935760070E+02 -0.31336578695E+02  0.47787266965E+02  0.19999981399E+02 0.  0.
        -12    1    1    2    0    0 -0.23436579775E+01 -0.29935760070E+02  0.31336578695E+02  0.43400733035E+02  0.00000000000E+00 0.  1.
         11    1    3    3    0    0  0.60350982347E+01  0.27169112705E+02 -0.24058583414E+02  0.36788565234E+02  0.51100000000E-03 0. -1.
        -11    1    3    3    0    0 -0.81019653152E+00  0.26967250064E+01  0.35652889853E+00  0.28382842170E+01  0.51100000000E-03 0.  1.
         12    1    3    3    0    0 -0.28812437257E+01  0.69922358850E-01 -0.76345241796E+01  0.81604175134E+01  0.00000000000E+00 0. -1.
</event>
<event>
 7    1  0.4031943E-009  0.4778727E+02  0.7816164E-02  0.1312668E+00
        -11   -1    0    0    0    0  0.00000000000E+00  0.00000000000E+00  0.45593999997E+02  0.45594000000E+02  0.51100000000E-03 0. -1.
         11   -1    0    0    0    0 -0.00000000000E+00 -0.00000000000E+00 -0.45593999997E+02  0.45594000000E+02  0.51100000000E-03 0.  1.
    9900012    2    1    2    0    0 -0.21590587746E+02 -0.25289768661E+02  0.27890809444E+02  0.47787272707E+02  0.20000007578E+02 0.  0.
        -12    1    1    2    0    0  0.21590587746E+02  0.25289768661E+02 -0.27890809444E+02  0.43400727293E+02  0.00000000000E+00 0.  1.
         11    1    3    3    0    0 -0.22944133804E+02 -0.22006936150E+02  0.17933044364E+02  0.36501131423E+02  0.51100000000E-03 0. -1.
        -11    1    3    3    0    0  0.10708854018E+00  0.72120232205E+00  0.36195405487E+00  0.81400967053E+00  0.51100000000E-03 0.  1.
         12    1    3    3    0    0  0.12464575175E+01 -0.40040348326E+01  0.95958110259E+01  0.10472131613E+02  0.00000000000E+00 0. -1.
</event>
<event>
 7    1  0.4031943E-009  0.4778727E+02  0.7816164E-02  0.1312668E+00
        -11   -1    0    0    0    0  0.00000000000E+00  0.00000000000E+00  0.45593999997E+02  0.45594000000E+02  0.51100000000E-03 0.  1.
         11   -1    0    0    0    0 -0.00000000000E+00 -0.00000000000E+00 -0.45593999997E+02  0.45594000000E+02  0.51100000000E-03 0. -1.
    9900012    2    1    2    0    0  0.42597499424E+02  0.32224375533E+01 -0.76610680826E+01  0.47787273910E+02  0.20000013065E+02 0.  0.
        -12    1    1    2    0    0 -0.42597499424E+02 -0.32224375533E+01  0.76610680826E+01  0.43400726090E+02  0.00000000000E+00 0.  1.
         11    1    3    3    0    0  0.34382060924E+02  0.38613217780E+01 -0.56658005592E+01  0.35059053260E+02  0.51100000000E-03 0. -1.
        -11    1    3    3    0    0  0.47549795385E+01  0.43204540934E+01 -0.18237565155E+01  0.66784910027E+01  0.51100000000E-03 0.  1.
        -12    1    3    3    0    0  0.34604589614E+01 -0.49593383181E+01 -0.17151100797E+00  0.60497296470E+01  0.00000000000E+00 0.  1.
</event>
<event>
 7    1  0.4031943E-009  0.4778727E+02  0.7816164E-02  0.1312668E+00
        -11   -1    0    0    0    0  0.00000000000E+00  0.00000000000E+00  0.45593999997E+02  0.45594000000E+02  0.51100000000E-03 0.  1.
         11   -1    0    0    0    0 -0.00000000000E+00 -0.00000000000E+00 -0.45593999997E+02  0.45594000000E+02  0.51100000000E-03 0. -1.
    9900012    2    1    2    0    0  0.12089412583E+02 -0.41491276438E+02  0.39929308754E+01  0.47787269429E+02  0.19999992636E+02 0.  0.
        -12    1    1    2    0    0 -0.12089412583E+02  0.41491276438E+02 -0.39929308754E+01  0.43400730571E+02  0.00000000000E+00 0.  1.
         11    1    3    3    0    0  0.69145567477E+01 -0.95489239120E+01 -0.13342186215E+01  0.11864787503E+02  0.51100000000E-03 0. -1.
        -11    1    3    3    0    0 -0.27195852031E+01 -0.91879399821E+01 -0.36005332324E+01  0.10236123515E+02  0.51100000000E-03 0.  1.
         12    1    3    3    0    0  0.78944410381E+01 -0.22754412544E+02  0.89276827293E+01  0.25686358412E+02  0.00000000000E+00 0. -1.
</event>
<event>
 7    1  0.4155188E-009  0.4778727E+02  0.7816164E-02  0.1312668E+00
        -11   -1    0    0    0    0  0.00000000000E+00  0.00000000000E+00  0.45593999997E+02  0.45594000000E+02  0.51100000000E-03 0.  1.
         11   -1    0    0    0    0 -0.00000000000E+00 -0.00000000000E+00 -0.45593999997E+02  0.45594000000E+02  0.51100000000E-03 0. -1.
    9900012    2    1    2    0    0 -0.88344446654E+01  0.23360422599E+02 -0.35494601823E+02  0.47787268265E+02  0.19999987328E+02 0.  0.
        -12    1    1    2    0    0  0.88344446654E+01 -0.23360422599E+02  0.35494601823E+02  0.43400731735E+02  0.00000000000E+00 0.  1.
         11    1    3    3    0    0 -0.97145990765E+01  0.15221910974E+02 -0.17377001095E+02  0.25060729763E+02  0.51100000000E-03 0. -1.
        -11    1    3    3    0    0  0.18847085670E+01  0.92527950895E+01 -0.76520986343E+01  0.12154051058E+02  0.51100000000E-03 0.  1.
        -12    1    3    3    0    0 -0.10045541560E+01 -0.11142834642E+01 -0.10465502094E+02  0.10572487445E+02  0.00000000000E+00 0.  1.
</event>
<event>
 7    1  0.4031943E-009  0.4778727E+02  0.7816164E-02  0.1312668E+00
        -11   -1    0    0    0    0  0.00000000000E+00  0.00000000000E+00  0.45593999997E+02  0.45594000000E+02  0.51100000000E-03 0. -1.
         11   -1    0    0    0    0 -0.00000000000E+00 -0.00000000000E+00 -0.45593999997E+02  0.45594000000E+02  0.51100000000E-03 0.  1.
    9900012    2    1    2    0    0 -0.42196159803E+02  0.81683559863E+01  0.60320294142E+01  0.47787270508E+02  0.19999997552E+02 0.  0.
        -12    1    1    2    0    0  0.42196159803E+02 -0.81683559863E+01 -0.60320294142E+01  0.43400729492E+02  0.00000000000E+00 0.  1.
         11    1    3    3    0    0 -0.69484557766E+01  0.58230993992E+00 -0.34310027280E+01  0.77712227176E+01  0.51100000000E-03 0. -1.
        -11    1    3    3    0    0  0.86520187712E+00 -0.10493775044E+01 -0.68560457541E+00  0.15230959687E+01  0.51100000000E-03 0.  1.
         12    1    3    3    0    0 -0.36112905903E+02  0.86354235508E+01  0.10148636718E+02  0.38492951821E+02  0.00000000000E+00 0. -1.
</event>
<event>
 7    1  0.4031943E-009  0.4778726E+02  0.7816164E-02  0.1312668E+00
        -11   -1    0    0    0    0  0.00000000000E+00  0.00000000000E+00  0.45593999997E+02  0.45594000000E+02  0.51100000000E-03 0. -1.
         11   -1    0    0    0    0 -0.00000000000E+00 -0.00000000000E+00 -0.45593999997E+02  0.45594000000E+02  0.51100000000E-03 0.  1.
    9900012    2    1    2    0    0  0.23033349405E+02 -0.10225477293E+02 -0.35334520891E+02  0.47787263402E+02  0.19999965153E+02 0.  0.
        -12    1    1    2    0    0 -0.23033349405E+02  0.10225477293E+02  0.35334520891E+02  0.43400736598E+02  0.00000000000E+00 0.  1.
         11    1    3    3    0    0  0.13093560244E+02 -0.13874694007E+01 -0.21082869676E+02  0.24856664805E+02  0.51100000000E-03 0. -1.
        -11    1    3    3    0    0 -0.15123050315E+01 -0.14935327340E+01 -0.73973387157E+01  0.76966438706E+01  0.51100000000E-03 0.  1.
        -12    1    3    3    0    0  0.11452094193E+02 -0.73444751579E+01 -0.68543124993E+01  0.15233954726E+02  0.00000000000E+00 0.  1.
</event>
<event>
 7    1  0.4570663E-009  0.4778727E+02  0.7816164E-02  0.1312668E+00
        -11   -1    0    0    0    0  0.00000000000E+00  0.00000000000E+00  0.45593999997E+02  0.45594000000E+02  0.51100000000E-03 0.  1.
         11   -1    0    0    0    0 -0.00000000000E+00 -0.00000000000E+00 -0.45593999997E+02  0.45594000000E+02  0.51100000000E-03 0. -1.
    9900012    2    1    2    0    0 -0.36102117068E+02  0.17945614298E+02  0.16069080201E+02  0.47787271114E+02  0.20000000318E+02 0.  0.
        -12    1    1    2    0    0  0.36102117068E+02 -0.17945614298E+02 -0.16069080201E+02  0.43400728886E+02  0.00000000000E+00 0.  1.
         11    1    3    3    0    0 -0.16636456233E+02  0.12180744956E+02  0.64496242395E+01  0.21604163412E+02  0.51100000000E-03 0.  1.
        -11    1    3    3    0    0 -0.72678795091E+00  0.26165005726E+01 -0.24624487325E+01  0.36657809527E+01  0.51100000000E-03 0. -1.
        -12    1    3    3    0    0 -0.18738872885E+02  0.31483687691E+01  0.12081904694E+02  0.22517326749E+02  0.00000000000E+00 0.  1.
</event>
<event>
 7    1  0.4031943E-009  0.4778727E+02  0.7816164E-02  0.1312668E+00
        -11   -1    0    0    0    0  0.00000000000E+00  0.00000000000E+00  0.45593999997E+02  0.45594000000E+02  0.51100000000E-03 0. -1.
         11   -1    0    0    0    0 -0.00000000000E+00 -0.00000000000E+00 -0.45593999997E+02  0.45594000000E+02  0.51100000000E-03 0.  1.
    9900012    2    1    2    0    0 -0.14050696618E+02  0.40046159741E+02  0.90833061233E+01  0.47787269181E+02  0.19999991505E+02 0.  0.
        -12    1    1    2    0    0  0.14050696618E+02 -0.40046159741E+02 -0.90833061233E+01  0.43400730819E+02  0.00000000000E+00 0.  1.
         11    1    3    3    0    0 -0.72856710872E+01  0.84310451143E+01 -0.11765792704E+01  0.11204814320E+02  0.51100000000E-03 0. -1.
        -11    1    3    3    0    0  0.35980499167E+01  0.11704508919E+02  0.63665322276E+01  0.13801239984E+02  0.51100000000E-03 0.  1.
        -12    1    3    3    0    0 -0.10363075447E+02  0.19910605708E+02  0.38933531661E+01  0.22781214877E+02  0.00000000000E+00 0.  1.
</event>
<event>
 7    1  0.4031943E-009  0.4778727E+02  0.7816164E-02  0.1312668E+00
        -11   -1    0    0    0    0  0.00000000000E+00  0.00000000000E+00  0.45593999997E+02  0.45594000000E+02  0.51100000000E-03 0.  1.
         11   -1    0    0    0    0 -0.00000000000E+00 -0.00000000000E+00 -0.45593999997E+02  0.45594000000E+02  0.51100000000E-03 0. -1.
    9900012    2    1    2    0    0 -0.41498597632E+02 -0.95806516446E+01  0.83487019019E+01  0.47787270573E+02  0.19999997851E+02 0.  0.
        -12    1    1    2    0    0  0.41498597632E+02  0.95806516446E+01 -0.83487019019E+01  0.43400729427E+02  0.00000000000E+00 0.  1.
         11    1    3    3    0    0 -0.10699941315E+02 -0.29732794345E+01  0.43403631795E+01  0.11923417611E+02  0.51100000000E-03 0. -1.
        -11    1    3    3    0    0 -0.66645942580E+01 -0.64381439490E+01  0.69047192127E+01  0.11556022750E+02  0.51100000000E-03 0.  1.
         12    1    3    3    0    0 -0.24134062059E+02 -0.16922826103E+00 -0.28963804902E+01  0.24307830212E+02  0.00000000000E+00 0. -1.
</event>
<event>
 7    1  0.4031943E-009  0.4778727E+02  0.7816164E-02  0.1312668E+00
        -11   -1    0    0    0    0  0.00000000000E+00  0.00000000000E+00  0.45593999997E+02  0.45594000000E+02  0.51100000000E-03 0.  1.
         11   -1    0    0    0    0 -0.00000000000E+00 -0.00000000000E+00 -0.45593999997E+02  0.45594000000E+02  0.51100000000E-03 0. -1.
    9900012    2    1    2    0    0  0.41015706776E+02 -0.54094803142E+01 -0.13117654695E+02  0.47787267929E+02  0.19999985795E+02 0.  0.
        -12    1    1    2    0    0 -0.41015706776E+02  0.54094803142E+01  0.13117654695E+02  0.43400732071E+02  0.00000000000E+00 0.  1.
         11    1    3    3    0    0  0.16250667536E+02 -0.88958017091E+00  0.20921746689E+01  0.16408922674E+02  0.51100000000E-03 0. -1.
        -11    1    3    3    0    0  0.43965650641E+01  0.33988722936E+01 -0.24595112506E+01  0.60771138778E+01  0.51100000000E-03 0.  1.
        -12    1    3    3    0    0  0.20368474177E+02 -0.79187724369E+01 -0.12750318113E+02  0.25301231377E+02  0.00000000000E+00 0.  1.
</event>
<event>
 7    1  0.4031943E-009  0.4778727E+02  0.7816164E-02  0.1312668E+00
        -11   -1    0    0    0    0  0.00000000000E+00  0.00000000000E+00  0.45593999997E+02  0.45594000000E+02  0.51100000000E-03 0.  1.
         11   -1    0    0    0    0 -0.00000000000E+00 -0.00000000000E+00 -0.45593999997E+02  0.45594000000E+02  0.51100000000E-03 0. -1.
    9900012    2    1    2    0    0  0.23916933733E+00 -0.76191784414E+01 -0.42726036113E+02  0.47787271388E+02  0.20000001566E+02 0.  0.
        -12    1    1    2    0    0 -0.23916933733E+00  0.76191784414E+01  0.42726036113E+02  0.43400728612E+02  0.00000000000E+00 0.  1.
         11    1    3    3    0    0 -0.13282600218E+01 -0.95670201362E+01 -0.14875465732E+02  0.17736167285E+02  0.51100000000E-03 0. -1.
        -11    1    3    3    0    0 -0.65695845327E+00 -0.42173461014E+01 -0.70398690281E+01  0.82327005741E+01  0.51100000000E-03 0.  1.
         12    1    3    3    0    0  0.22243878124E+01  0.61651877962E+01 -0.20810701354E+02  0.21818403529E+02  0.00000000000E+00 0. -1.
</event>
<event>
 7    1  0.4031943E-009  0.4778727E+02  0.7816164E-02  0.1312668E+00
        -11   -1    0    0    0    0  0.00000000000E+00  0.00000000000E+00  0.45593999997E+02  0.45594000000E+02  0.51100000000E-03 0.  1.
         11   -1    0    0    0    0 -0.00000000000E+00 -0.00000000000E+00 -0.45593999997E+02  0.45594000000E+02  0.51100000000E-03 0. -1.
    9900012    2    1    2    0    0  0.13464941284E+02  0.15277270745E+02 -0.38326537445E+02  0.47787272843E+02  0.20000008202E+02 0.  0.
        -12    1    1    2    0    0 -0.13464941284E+02 -0.15277270745E+02  0.38326537445E+02  0.43400727157E+02  0.00000000000E+00 0.  1.
         11    1    3    3    0    0  0.56565436032E+01  0.84623603315E+01 -0.77194238100E+01  0.12774878948E+02  0.51100000000E-03 0.  1.
        -11    1    3    3    0    0  0.42569474426E+01  0.10731723018E+02 -0.23174556230E+02  0.25891147854E+02  0.51100000000E-03 0. -1.
         12    1    3    3    0    0  0.35514502380E+01 -0.39168126048E+01 -0.74325574052E+01  0.91212460418E+01  0.00000000000E+00 0. -1.
</event>
<event>
 7    1  0.4031943E-009  0.4778727E+02  0.7816164E-02  0.1312668E+00
        -11   -1    0    0    0    0  0.00000000000E+00  0.00000000000E+00  0.45593999997E+02  0.45594000000E+02  0.51100000000E-03 0.  1.
         11   -1    0    0    0    0 -0.00000000000E+00 -0.00000000000E+00 -0.45593999997E+02  0.45594000000E+02  0.51100000000E-03 0. -1.
    9900012    2    1    2    0    0 -0.39321005004E+01 -0.41946083598E+02 -0.10425345541E+02  0.47787272204E+02  0.20000005286E+02 0.  0.
        -12    1    1    2    0    0  0.39321005004E+01  0.41946083598E+02  0.10425345541E+02  0.43400727796E+02  0.00000000000E+00 0.  1.
         11    1    3    3    0    0  0.64896059067E+00 -0.25595017585E+02 -0.40885596727E+01  0.25927637676E+02  0.51100000000E-03 0. -1.
        -11    1    3    3    0    0 -0.51153890608E+01 -0.11265203822E+02  0.15407257625E+01  0.12467792850E+02  0.51100000000E-03 0.  1.
         12    1    3    3    0    0  0.53432796966E+00 -0.50858621912E+01 -0.78775116312E+01  0.93918416781E+01  0.00000000000E+00 0. -1.
</event>
<event>
 7    1  0.4031943E-009  0.4778727E+02  0.7816164E-02  0.1312668E+00
        -11   -1    0    0    0    0  0.00000000000E+00  0.00000000000E+00  0.45593999997E+02  0.45594000000E+02  0.51100000000E-03 0. -1.
         11   -1    0    0    0    0 -0.00000000000E+00 -0.00000000000E+00 -0.45593999997E+02  0.45594000000E+02  0.51100000000E-03 0.  1.
    9900012    2    1    2    0    0  0.89572316573E+01 -0.33223099598E+01  0.42336200400E+02  0.47787267210E+02  0.19999982516E+02 0.  0.
        -12    1    1    2    0    0 -0.89572316573E+01  0.33223099598E+01 -0.42336200400E+02  0.43400732790E+02  0.00000000000E+00 0.  1.
         11    1    3    3    0    0 -0.73407075170E+00  0.20827066737E+01  0.11068165262E+02  0.11286310712E+02  0.51100000000E-03 0. -1.
        -11    1    3    3    0    0  0.13887052623E+01 -0.74752143686E+01  0.24313058219E+02  0.25474146352E+02  0.51100000000E-03 0.  1.
         12    1    3    3    0    0  0.83025971467E+01  0.20701977352E+01  0.69549769189E+01  0.11026810146E+02  0.00000000000E+00 0. -1.
</event>
<event>
 7    1  0.4031943E-009  0.4778727E+02  0.7816164E-02  0.1312668E+00
        -11   -1    0    0    0    0  0.00000000000E+00  0.00000000000E+00  0.45593999997E+02  0.45594000000E+02  0.51100000000E-03 0.  1.
         11   -1    0    0    0    0 -0.00000000000E+00 -0.00000000000E+00 -0.45593999997E+02  0.45594000000E+02  0.51100000000E-03 0. -1.
    9900012    2    1    2    0    0 -0.69571731352E+01  0.20795822327E+02 -0.37453369368E+02  0.47787270038E+02  0.19999995409E+02 0.  0.
        -12    1    1    2    0    0  0.69571731352E+01 -0.20795822327E+02  0.37453369368E+02  0.43400729962E+02  0.00000000000E+00 0.  1.
         11    1    3    3    0    0 -0.68055449243E+01  0.10445822327E+02 -0.11442888154E+02  0.16922480178E+02  0.51100000000E-03 0. -1.
        -11    1    3    3    0    0 -0.65359919937E+01  0.57592008599E+01 -0.14749916278E+02  0.17130312792E+02  0.51100000000E-03 0.  1.
        -12    1    3    3    0    0  0.63843637827E+01  0.45907991399E+01 -0.11260564936E+02  0.13734477068E+02  0.00000000000E+00 0.  1.
</event>
<event>
 7    1  0.4031943E-009  0.4778727E+02  0.7816164E-02  0.1312668E+00
        -11   -1    0    0    0    0  0.00000000000E+00  0.00000000000E+00  0.45593999997E+02  0.45594000000E+02  0.51100000000E-03 0. -1.
         11   -1    0    0    0    0 -0.00000000000E+00 -0.00000000000E+00 -0.45593999997E+02  0.45594000000E+02  0.51100000000E-03 0.  1.
    9900012    2    1    2    0    0 -0.42629980579E+02 -0.74869140467E+01 -0.32022165373E+01  0.47787270549E+02  0.19999997742E+02 0.  0.
        -12    1    1    2    0    0  0.42629980579E+02  0.74869140467E+01  0.32022165373E+01  0.43400729451E+02  0.00000000000E+00 0.  1.
         11    1    3    3    0    0 -0.32917092785E+02 -0.33859747361E+01  0.39947348078E+00  0.33093192679E+02  0.51100000000E-03 0. -1.
        -11    1    3    3    0    0 -0.80465432783E+01  0.16669019513E+01 -0.16527812057E+01  0.83819512537E+01  0.51100000000E-03 0.  1.
        -12    1    3    3    0    0 -0.16663445157E+01 -0.57678412619E+01 -0.19489088124E+01  0.63121266168E+01  0.00000000000E+00 0.  1.
</event>
<event>
 7    1  0.4031943E-009  0.4778727E+02  0.7816164E-02  0.1312668E+00
        -11   -1    0    0    0    0  0.00000000000E+00  0.00000000000E+00  0.45593999997E+02  0.45594000000E+02  0.51100000000E-03 0. -1.
         11   -1    0    0    0    0 -0.00000000000E+00 -0.00000000000E+00 -0.45593999997E+02  0.45594000000E+02  0.51100000000E-03 0.  1.
    9900012    2    1    2    0    0 -0.49553125627E+01 -0.16792540700E+02  0.39712449928E+02  0.47787271607E+02  0.20000002565E+02 0.  0.
        -12    1    1    2    0    0  0.49553125627E+01  0.16792540700E+02 -0.39712449928E+02  0.43400728393E+02  0.00000000000E+00 0.  1.
         11    1    3    3    0    0  0.11139821493E+01 -0.90746389882E+01  0.12404456638E+02  0.15409755798E+02  0.51100000000E-03 0. -1.
        -11    1    3    3    0    0  0.21108864556E+01 -0.70524090467E+01  0.58480080751E+01  0.94016761111E+01  0.51100000000E-03 0.  1.
        -12    1    3    3    0    0 -0.81801811675E+01 -0.66549266505E+00  0.21459985215E+02  0.22975839698E+02  0.00000000000E+00 0.  1.
</event>
<event>
 7    1  0.4031943E-009  0.4778727E+02  0.7816164E-02  0.1312668E+00
        -11   -1    0    0    0    0  0.00000000000E+00  0.00000000000E+00  0.45593999997E+02  0.45594000000E+02  0.51100000000E-03 0.  1.
         11   -1    0    0    0    0 -0.00000000000E+00 -0.00000000000E+00 -0.45593999997E+02  0.45594000000E+02  0.51100000000E-03 0. -1.
    9900012    2    1    2    0    0 -0.31944763483E+02 -0.20977532894E+02  0.20569360848E+02  0.47787269522E+02  0.19999993061E+02 0.  0.
        -12    1    1    2    0    0  0.31944763483E+02  0.20977532894E+02 -0.20569360848E+02  0.43400730478E+02  0.00000000000E+00 0.  1.
         11    1    3    3    0    0 -0.70719086398E+01 -0.60876544492E+01 -0.95240628106E+00  0.93796858417E+01  0.51100000000E-03 0. -1.
        -11    1    3    3    0    0 -0.20462986515E+01 -0.53602634971E+01  0.18470892473E+00  0.57405470625E+01  0.51100000000E-03 0.  1.
        -12    1    3    3    0    0 -0.22826556192E+02 -0.95296149474E+01  0.21337058204E+02  0.32667036618E+02  0.00000000000E+00 0.  1.
</event>
<event>
 7    1  0.4031943E-009  0.4778727E+02  0.7816164E-02  0.1312668E+00
        -11   -1    0    0    0    0  0.00000000000E+00  0.00000000000E+00  0.45593999997E+02  0.45594000000E+02  0.51100000000E-03 0. -1.
         11   -1    0    0    0    0 -0.00000000000E+00 -0.00000000000E+00 -0.45593999997E+02  0.45594000000E+02  0.51100000000E-03 0.  1.
    9900012    2    1    2    0    0  0.25776062213E+01  0.39355386350E+02  0.18114428515E+02  0.47787274096E+02  0.20000013913E+02 0.  0.
        -12    1    1    2    0    0 -0.25776062213E+01 -0.39355386350E+02 -0.18114428515E+02  0.43400725904E+02  0.00000000000E+00 0.  1.
         11    1    3    3    0    0  0.39471730510E+01  0.16118279453E+02  0.11799306035E+02  0.20361795864E+02  0.51100000000E-03 0. -1.
        -11    1    3    3    0    0  0.58372772162E+01  0.96878961590E+01  0.20245944399E+01  0.11490349002E+02  0.51100000000E-03 0.  1.
         12    1    3    3    0    0 -0.72068440459E+01  0.13549210737E+02  0.42905280400E+01  0.15935129230E+02  0.00000000000E+00 0. -1.
</event>
<event>
 7    1  0.4031943E-009  0.4778727E+02  0.7816164E-02  0.1312668E+00
        -11   -1    0    0    0    0  0.00000000000E+00  0.00000000000E+00  0.45593999997E+02  0.45594000000E+02  0.51100000000E-03 0. -1.
         11   -1    0    0    0    0 -0.00000000000E+00 -0.00000000000E+00 -0.45593999997E+02  0.45594000000E+02  0.51100000000E-03 0.  1.
    9900012    2    1    2    0    0 -0.24505106463E+02  0.31554577002E+02  0.16953810298E+02  0.47787271249E+02  0.20000000933E+02 0.  0.
        -12    1    1    2    0    0  0.24505106463E+02 -0.31554577002E+02 -0.16953810298E+02  0.43400728751E+02  0.00000000000E+00 0.  1.
         11    1    3    3    0    0 -0.11538313312E+02  0.19289774324E+02  0.98714079189E+01  0.24549394333E+02  0.51100000000E-03 0. -1.
        -11    1    3    3    0    0 -0.13403250246E+02  0.68634016819E+01  0.89365607370E+01  0.17510440253E+02  0.51100000000E-03 0.  1.
        -12    1    3    3    0    0  0.43645709470E+00  0.54014009959E+01 -0.18541583577E+01  0.57274366630E+01  0.00000000000E+00 0.  1.
</event>
<event>
 7    1  0.4031943E-009  0.4778727E+02  0.7816164E-02  0.1312668E+00
        -11   -1    0    0    0    0  0.00000000000E+00  0.00000000000E+00  0.45593999997E+02  0.45594000000E+02  0.51100000000E-03 0.  1.
         11   -1    0    0    0    0 -0.00000000000E+00 -0.00000000000E+00 -0.45593999997E+02  0.45594000000E+02  0.51100000000E-03 0. -1.
    9900012    2    1    2    0    0 -0.19265695747E+00  0.14736235934E+02 -0.40821930675E+02  0.47787265095E+02  0.19999972875E+02 0.  0.
        -12    1    1    2    0    0  0.19265695747E+00 -0.14736235934E+02  0.40821930675E+02  0.43400734905E+02  0.00000000000E+00 0.  1.
         11    1    3    3    0    0 -0.20976084597E+01  0.36223962003E+01 -0.48664139652E+01  0.64190108758E+01  0.51100000000E-03 0.  1.
        -11    1    3    3    0    0 -0.60493143426E+01  0.96270585778E+01 -0.14424543228E+02  0.18366869860E+02  0.51100000000E-03 0. -1.
         12    1    3    3    0    0  0.79542658449E+01  0.14867811561E+01 -0.21530973483E+02  0.23001384359E+02  0.00000000000E+00 0. -1.
</event>
<event>
 7    1  0.4031943E-009  0.4778727E+02  0.7816164E-02  0.1312668E+00
        -11   -1    0    0    0    0  0.00000000000E+00  0.00000000000E+00  0.45593999997E+02  0.45594000000E+02  0.51100000000E-03 0. -1.
         11   -1    0    0    0    0 -0.00000000000E+00 -0.00000000000E+00 -0.45593999997E+02  0.45594000000E+02  0.51100000000E-03 0.  1.
    9900012    2    1    2    0    0  0.21090656613E+02  0.30342359468E+01  0.37810063950E+02  0.47787270512E+02  0.19999997573E+02 0.  0.
        -12    1    1    2    0    0 -0.21090656613E+02 -0.30342359468E+01 -0.37810063950E+02  0.43400729488E+02  0.00000000000E+00 0.  1.
         11    1    3    3    0    0  0.92842250817E+01  0.18051341847E+01  0.19083120135E+02  0.21298375974E+02  0.51100000000E-03 0. -1.
        -11    1    3    3    0    0  0.24972279267E+01  0.65824752046E+01  0.11701850516E+02  0.13656442908E+02  0.51100000000E-03 0.  1.
         12    1    3    3    0    0  0.93092036049E+01 -0.53533734426E+01  0.70250932996E+01  0.12832451630E+02  0.00000000000E+00 0. -1.
</event>
<event>
 7    1  0.4031943E-009  0.4778726E+02  0.7816164E-02  0.1312668E+00
        -11   -1    0    0    0    0  0.00000000000E+00  0.00000000000E+00  0.45593999997E+02  0.45594000000E+02  0.51100000000E-03 0.  1.
         11   -1    0    0    0    0 -0.00000000000E+00 -0.00000000000E+00 -0.45593999997E+02  0.45594000000E+02  0.51100000000E-03 0. -1.
    9900012    2    1    2    0    0 -0.33897698781E+02  0.27646799719E+01 -0.26961573054E+02  0.47787264297E+02  0.19999969235E+02 0.  0.
        -12    1    1    2    0    0  0.33897698781E+02 -0.27646799719E+01  0.26961573054E+02  0.43400735703E+02  0.00000000000E+00 0.  1.
         11    1    3    3    0    0 -0.29398377454E+02  0.62756302303E+01 -0.18544129608E+02  0.35320431409E+02  0.51100000000E-03 0. -1.
        -11    1    3    3    0    0 -0.15712989972E+01  0.17461814400E+01 -0.30882011643E+00  0.23692826521E+01  0.51100000000E-03 0.  1.
        -12    1    3    3    0    0 -0.29280223294E+01 -0.52571316984E+01 -0.81086233300E+01  0.10097550236E+02  0.00000000000E+00 0.  1.
</event>
<event>
 7    1  0.4031943E-009  0.4778726E+02  0.7816164E-02  0.1312668E+00
        -11   -1    0    0    0    0  0.00000000000E+00  0.00000000000E+00  0.45593999997E+02  0.45594000000E+02  0.51100000000E-03 0. -1.
         11   -1    0    0    0    0 -0.00000000000E+00 -0.00000000000E+00 -0.45593999997E+02  0.45594000000E+02  0.51100000000E-03 0.  1.
    9900012    2    1    2    0    0  0.32975497034E+02  0.10648902149E+02  0.26131242761E+02  0.47787258418E+02  0.19999942430E+02 0.  0.
        -12    1    1    2    0    0 -0.32975497034E+02 -0.10648902149E+02 -0.26131242761E+02  0.43400741582E+02  0.00000000000E+00 0.  1.
         11    1    3    3    0    0  0.65700970840E+01  0.57964378434E+01  0.53653301457E+01  0.10273832547E+02  0.51100000000E-03 0. -1.
        -11    1    3    3    0    0  0.50250708831E+01  0.73861593873E+01  0.10107926469E+02  0.13489880119E+02  0.51100000000E-03 0.  1.
         12    1    3    3    0    0  0.21380329067E+02 -0.25336950814E+01  0.10657986146E+02  0.24023545752E+02  0.00000000000E+00 0. -1.
</event>
<event>
 7    1  0.4031943E-009  0.4778727E+02  0.7816164E-02  0.1312668E+00
        -11   -1    0    0    0    0  0.00000000000E+00  0.00000000000E+00  0.45593999997E+02  0.45594000000E+02  0.51100000000E-03 0.  1.
         11   -1    0    0    0    0 -0.00000000000E+00 -0.00000000000E+00 -0.45593999997E+02  0.45594000000E+02  0.51100000000E-03 0. -1.
    9900012    2    1    2    0    0  0.66527938040E+01  0.42835540936E+02  0.21166462451E+01  0.47787269314E+02  0.19999992112E+02 0.  0.
        -12    1    1    2    0    0 -0.66527938040E+01 -0.42835540936E+02 -0.21166462451E+01  0.43400730686E+02  0.00000000000E+00 0.  1.
         11    1    3    3    0    0  0.27379291505E+01  0.37463041695E+01 -0.35264566672E+01  0.58281170073E+01  0.51100000000E-03 0. -1.
        -11    1    3    3    0    0 -0.19679688951E+01  0.35068478023E+01 -0.28231417715E+01  0.49133504662E+01  0.51100000000E-03 0.  1.
        -12    1    3    3    0    0  0.58828335487E+01  0.35582388965E+02  0.84662446838E+01  0.37045801841E+02  0.00000000000E+00 0.  1.
</event>
<event>
 7    1  0.4031943E-009  0.4778732E+02  0.7816164E-02  0.1312668E+00
        -11   -1    0    0    0    0  0.00000000000E+00  0.00000000000E+00  0.45593999997E+02  0.45594000000E+02  0.51100000000E-03 0.  1.
         11   -1    0    0    0    0 -0.00000000000E+00 -0.00000000000E+00 -0.45593999997E+02  0.45594000000E+02  0.51100000000E-03 0. -1.
    9900012    2    1    2    0    0 -0.35495349261E+02 -0.23832849267E+02 -0.74628578902E+01  0.47787322918E+02  0.20000236510E+02 0.  0.
        -12    1    1    2    0    0  0.35495349261E+02  0.23832849267E+02  0.74628578902E+01  0.43400677082E+02  0.00000000000E+00 0.  1.
         11    1    3    3    0    0 -0.27380069823E+02 -0.18357713371E+02 -0.25140414251E+01  0.33060463825E+02  0.51100000000E-03 0. -1.
        -11    1    3    3    0    0 -0.52151218907E+01  0.33711310993E+00 -0.62032723030E+01  0.81112100891E+01  0.51100000000E-03 0.  1.
         12    1    3    3    0    0 -0.29001575464E+01 -0.58122490054E+01  0.12544558379E+01  0.66156490040E+01  0.00000000000E+00 0. -1.
</event>
<event>
 7    1  0.4031943E-009  0.4778727E+02  0.7816164E-02  0.1312668E+00
        -11   -1    0    0    0    0  0.00000000000E+00  0.00000000000E+00  0.45593999997E+02  0.45594000000E+02  0.51100000000E-03 0.  1.
         11   -1    0    0    0    0 -0.00000000000E+00 -0.00000000000E+00 -0.45593999997E+02  0.45594000000E+02  0.51100000000E-03 0. -1.
    9900012    2    1    2    0    0 -0.17050413861E+02 -0.39026357726E+02 -0.83576622871E+01  0.47787265800E+02  0.19999976088E+02 0.  0.
        -12    1    1    2    0    0  0.17050413861E+02  0.39026357726E+02  0.83576622871E+01  0.43400734200E+02  0.00000000000E+00 0.  1.
         11    1    3    3    0    0 -0.28788686855E+01 -0.11050204519E+02  0.73135334371E+00  0.11442455279E+02  0.51100000000E-03 0. -1.
        -11    1    3    3    0    0 -0.17678646603E+02 -0.24102506335E+02 -0.85615169499E+01  0.31092843711E+02  0.51100000000E-03 0.  1.
        -12    1    3    3    0    0  0.35071014275E+01 -0.38736468723E+01 -0.52749868083E+00  0.52519668099E+01  0.00000000000E+00 0.  1.
</event>
<event>
 7    1  0.4031943E-009  0.4778727E+02  0.7816164E-02  0.1312668E+00
        -11   -1    0    0    0    0  0.00000000000E+00  0.00000000000E+00  0.45593999997E+02  0.45594000000E+02  0.51100000000E-03 0.  1.
         11   -1    0    0    0    0 -0.00000000000E+00 -0.00000000000E+00 -0.45593999997E+02  0.45594000000E+02  0.51100000000E-03 0. -1.
    9900012    2    1    2    0    0 -0.72066169664E+01  0.96606330819E+01 -0.41693644353E+02  0.47787272597E+02  0.20000007079E+02 0.  0.
        -12    1    1    2    0    0  0.72066169664E+01 -0.96606330819E+01  0.41693644353E+02  0.43400727403E+02  0.00000000000E+00 0.  1.
         11    1    3    3    0    0 -0.31281410182E+01 -0.17818728534E+01 -0.87936454793E+01  0.95020281083E+01  0.51100000000E-03 0. -1.
        -11    1    3    3    0    0 -0.65958631513E+01  0.12225915936E+02 -0.32829711618E+02  0.35647838593E+02  0.51100000000E-03 0.  1.
        -12    1    3    3    0    0  0.25173872031E+01 -0.78341000052E+00 -0.70287256236E-01  0.26374058955E+01  0.00000000000E+00 0.  1.
</event>
<event>
 7    1  0.4031943E-009  0.4778728E+02  0.7816164E-02  0.1312668E+00
        -11   -1    0    0    0    0  0.00000000000E+00  0.00000000000E+00  0.45593999997E+02  0.45594000000E+02  0.51100000000E-03 0.  1.
         11   -1    0    0    0    0 -0.00000000000E+00 -0.00000000000E+00 -0.45593999997E+02  0.45594000000E+02  0.51100000000E-03 0. -1.
    9900012    2    1    2    0    0  0.35270975499E+02  0.95378314953E+01 -0.23422441362E+02  0.47787277637E+02  0.20000030057E+02 0.  0.
        -12    1    1    2    0    0 -0.35270975499E+02 -0.95378314953E+01  0.23422441362E+02  0.43400722363E+02  0.00000000000E+00 0.  1.
         11    1    3    3    0    0  0.10627719088E+02  0.38356513504E+00 -0.85885166347E+01  0.13669606924E+02  0.51100000000E-03 0. -1.
        -11    1    3    3    0    0  0.16750137655E+02  0.13670106956E+02 -0.10839917779E+02  0.24185589787E+02  0.51100000000E-03 0.  1.
         12    1    3    3    0    0  0.78931187567E+01 -0.45158405963E+01 -0.39940069488E+01  0.99320809253E+01  0.00000000000E+00 0. -1.
</event>
<event>
 7    1  0.4031943E-009  0.4778731E+02  0.7816164E-02  0.1312668E+00
        -11   -1    0    0    0    0  0.00000000000E+00  0.00000000000E+00  0.45593999997E+02  0.45594000000E+02  0.51100000000E-03 0.  1.
         11   -1    0    0    0    0 -0.00000000000E+00 -0.00000000000E+00 -0.45593999997E+02  0.45594000000E+02  0.51100000000E-03 0. -1.
    9900012    2    1    2    0    0  0.15968321569E+01  0.39225558698E+02 -0.18504736486E+02  0.47787313364E+02  0.20000192951E+02 0.  0.
        -12    1    1    2    0    0 -0.15968321569E+01 -0.39225558698E+02  0.18504736486E+02  0.43400686636E+02  0.00000000000E+00 0.  1.
         11    1    3    3    0    0 -0.72749655818E+01  0.10458263507E+02 -0.67038782437E+01  0.14395915517E+02  0.51100000000E-03 0.  1.
        -11    1    3    3    0    0  0.27982510790E+01  0.12254307400E+02 -0.92644588274E+01  0.15615007416E+02  0.51100000000E-03 0. -1.
        -12    1    3    3    0    0  0.60735466598E+01  0.16512987790E+02 -0.25363994145E+01  0.17776390431E+02  0.00000000000E+00 0.  1.
</event>
<event>
 7    1  0.4031943E-009  0.4778728E+02  0.7816164E-02  0.1312668E+00
        -11   -1    0    0    0    0  0.00000000000E+00  0.00000000000E+00  0.45593999997E+02  0.45594000000E+02  0.51100000000E-03 0. -1.
         11   -1    0    0    0    0 -0.00000000000E+00 -0.00000000000E+00 -0.45593999997E+02  0.45594000000E+02  0.51100000000E-03 0.  1.
    9900012    2    1    2    0    0 -0.28668216415E+02  0.32317347829E+02  0.41647597899E+01  0.47787276190E+02  0.20000023463E+02 0.  0.
        -12    1    1    2    0    0  0.28668216415E+02 -0.32317347829E+02 -0.41647597899E+01  0.43400723810E+02  0.00000000000E+00 0.  1.
         11    1    3    3    0    0 -0.19626173966E+02  0.11535996294E+02  0.33967080773E+01  0.23017461655E+02  0.51100000000E-03 0. -1.
        -11    1    3    3    0    0 -0.48204508739E+01  0.35507826847E+01  0.33216755392E+01  0.68467753688E+01  0.51100000000E-03 0.  1.
        -12    1    3    3    0    0 -0.42215915752E+01  0.17230568850E+02 -0.25536238266E+01  0.17923039166E+02  0.00000000000E+00 0.  1.
</event>
<event>
 7    1  0.4031943E-009  0.4778727E+02  0.7816164E-02  0.1312668E+00
        -11   -1    0    0    0    0  0.00000000000E+00  0.00000000000E+00  0.45593999997E+02  0.45594000000E+02  0.51100000000E-03 0.  1.
         11   -1    0    0    0    0 -0.00000000000E+00 -0.00000000000E+00 -0.45593999997E+02  0.45594000000E+02  0.51100000000E-03 0. -1.
    9900012    2    1    2    0    0  0.80427925281E+01  0.32153373902E+01 -0.42527618237E+02  0.47787271676E+02  0.20000002878E+02 0.  0.
        -12    1    1    2    0    0 -0.80427925281E+01 -0.32153373902E+01  0.42527618237E+02  0.43400728324E+02  0.00000000000E+00 0.  1.
         11    1    3    3    0    0  0.25529112211E+01  0.69128332960E+01 -0.34495271719E+02  0.35273621746E+02  0.51100000000E-03 0. -1.
        -11    1    3    3    0    0  0.40963476068E+01 -0.24470912192E+01 -0.91597838347E+01  0.10328114993E+02  0.51100000000E-03 0.  1.
         12    1    3    3    0    0  0.13935337002E+01 -0.12504046865E+01  0.11274373167E+01  0.21855349361E+01  0.00000000000E+00 0. -1.
</event>
<event>
 7    1  0.4031943E-009  0.4778727E+02  0.7816164E-02  0.1312668E+00
        -11   -1    0    0    0    0  0.00000000000E+00  0.00000000000E+00  0.45593999997E+02  0.45594000000E+02  0.51100000000E-03 0.  1.
         11   -1    0    0    0    0 -0.00000000000E+00 -0.00000000000E+00 -0.45593999997E+02  0.45594000000E+02  0.51100000000E-03 0. -1.
    9900012    2    1    2    0    0 -0.37589382860E+02 -0.20922164871E+02  0.57379885687E+01  0.47787271901E+02  0.20000003905E+02 0.  0.
        -12    1    1    2    0    0  0.37589382860E+02  0.20922164871E+02 -0.57379885687E+01  0.43400728099E+02  0.00000000000E+00 0.  1.
         11    1    3    3    0    0 -0.10226644539E+02 -0.38374544120E+01 -0.26341906148E+01  0.11236070280E+02  0.51100000000E-03 0. -1.
        -11    1    3    3    0    0 -0.24555812777E+00 -0.41716135756E+01 -0.21842484408E+01  0.47152518629E+01  0.51100000000E-03 0.  1.
        -12    1    3    3    0    0 -0.27117180194E+02 -0.12913096884E+02  0.10556427624E+02  0.31835949758E+02  0.00000000000E+00 0.  1.
</event>
<event>
 7    1  0.4031943E-009  0.4778727E+02  0.7816164E-02  0.1312668E+00
        -11   -1    0    0    0    0  0.00000000000E+00  0.00000000000E+00  0.45593999997E+02  0.45594000000E+02  0.51100000000E-03 0.  1.
         11   -1    0    0    0    0 -0.00000000000E+00 -0.00000000000E+00 -0.45593999997E+02  0.45594000000E+02  0.51100000000E-03 0. -1.
    9900012    2    1    2    0    0 -0.19739501557E+02 -0.39199658970E+01 -0.38452688442E+02  0.47787270712E+02  0.19999998483E+02 0.  0.
        -12    1    1    2    0    0  0.19739501557E+02  0.39199658970E+01  0.38452688442E+02  0.43400729288E+02  0.00000000000E+00 0.  1.
         11    1    3    3    0    0 -0.12160201591E+02 -0.88508906266E+01 -0.20621486327E+02  0.25523606058E+02  0.51100000000E-03 0. -1.
        -11    1    3    3    0    0 -0.11782682352E+01 -0.24756260699E+00 -0.12267925875E+02  0.12326865328E+02  0.51100000000E-03 0.  1.
        -12    1    3    3    0    0 -0.64010317308E+01  0.51784873366E+01 -0.55632762393E+01  0.99367993252E+01  0.00000000000E+00 0.  1.
</event>
<event>
 7    1  0.4031943E-009  0.4778727E+02  0.7816164E-02  0.1312668E+00
        -11   -1    0    0    0    0  0.00000000000E+00  0.00000000000E+00  0.45593999997E+02  0.45594000000E+02  0.51100000000E-03 0.  1.
         11   -1    0    0    0    0 -0.00000000000E+00 -0.00000000000E+00 -0.45593999997E+02  0.45594000000E+02  0.51100000000E-03 0. -1.
    9900012    2    1    2    0    0  0.12083365805E+02  0.31786145491E+02 -0.26967687893E+02  0.47787274607E+02  0.20000016244E+02 0.  0.
        -12    1    1    2    0    0 -0.12083365805E+02 -0.31786145491E+02  0.26967687893E+02  0.43400725393E+02  0.00000000000E+00 0.  1.
         11    1    3    3    0    0  0.36754133630E+01  0.10361490337E+02 -0.17694353525E+01  0.11135530842E+02  0.51100000000E-03 0.  1.
        -11    1    3    3    0    0  0.11596423162E+02  0.14721045234E+02 -0.14819382460E+02  0.23891427327E+02  0.51100000000E-03 0. -1.
         12    1    3    3    0    0 -0.31884707198E+01  0.67036099190E+01 -0.10378870080E+02  0.12760316439E+02  0.00000000000E+00 0. -1.
</event>
<event>
 7    1  0.4031943E-009  0.4778727E+02  0.7816164E-02  0.1312668E+00
        -11   -1    0    0    0    0  0.00000000000E+00  0.00000000000E+00  0.45593999997E+02  0.45594000000E+02  0.51100000000E-03 0.  1.
         11   -1    0    0    0    0 -0.00000000000E+00 -0.00000000000E+00 -0.45593999997E+02  0.45594000000E+02  0.51100000000E-03 0. -1.
    9900012    2    1    2    0    0  0.38936887809E+02 -0.55358665397E+01  0.18354737079E+02  0.47787269316E+02  0.19999992121E+02 0.  0.
        -12    1    1    2    0    0 -0.38936887809E+02  0.55358665397E+01 -0.18354737079E+02  0.43400730684E+02  0.00000000000E+00 0.  1.
         11    1    3    3    0    0  0.18070460134E+02 -0.15872919265E+00  0.17345456086E+02  0.25048584222E+02  0.51100000000E-03 0. -1.
        -11    1    3    3    0    0 -0.38426521180E+00  0.28199601526E+00 -0.50611741309E+00  0.69522413837E+00  0.51100000000E-03 0.  1.
         12    1    3    3    0    0  0.21250692887E+02 -0.56591333623E+01  0.15153984059E+01  0.22043460956E+02  0.00000000000E+00 0. -1.
</event>
<event>
 7    1  0.4031943E-009  0.4778727E+02  0.7816164E-02  0.1312668E+00
        -11   -1    0    0    0    0  0.00000000000E+00  0.00000000000E+00  0.45593999997E+02  0.45594000000E+02  0.51100000000E-03 0.  1.
         11   -1    0    0    0    0 -0.00000000000E+00 -0.00000000000E+00 -0.45593999997E+02  0.45594000000E+02  0.51100000000E-03 0. -1.
    9900012    2    1    2    0    0  0.41713910101E+02 -0.93014739742E+01 -0.75535045635E+01  0.47787272527E+02  0.20000006760E+02 0.  0.
        -12    1    1    2    0    0 -0.41713910101E+02  0.93014739742E+01  0.75535045635E+01  0.43400727473E+02  0.00000000000E+00 0.  1.
         11    1    3    3    0    0  0.13777896281E+02 -0.52641319678E+01 -0.42133025975E+01  0.15339277374E+02  0.51100000000E-03 0. -1.
        -11    1    3    3    0    0  0.68531352045E+01 -0.54090818471E+01  0.46115186454E+01  0.98736889276E+01  0.51100000000E-03 0.  1.
        -12    1    3    3    0    0  0.21082878615E+02  0.13717398408E+01 -0.79517206115E+01  0.22574306225E+02  0.00000000000E+00 0.  1.
</event>
<event>
 7    1  0.4031943E-009  0.4778727E+02  0.7816164E-02  0.1312668E+00
        -11   -1    0    0    0    0  0.00000000000E+00  0.00000000000E+00  0.45593999997E+02  0.45594000000E+02  0.51100000000E-03 0. -1.
         11   -1    0    0    0    0 -0.00000000000E+00 -0.00000000000E+00 -0.45593999997E+02  0.45594000000E+02  0.51100000000E-03 0.  1.
    9900012    2    1    2    0    0 -0.10777531889E+02 -0.29064592470E+02  0.30376265424E+02  0.47787271548E+02  0.20000002296E+02 0.  0.
        -12    1    1    2    0    0  0.10777531889E+02  0.29064592470E+02 -0.30376265424E+02  0.43400728452E+02  0.00000000000E+00 0.  1.
         11    1    3    3    0    0  0.24597368103E+01 -0.57280092410E+01  0.11284331582E+02  0.12891723491E+02  0.51100000000E-03 0. -1.
        -11    1    3    3    0    0 -0.51150154196E+01 -0.89452051205E+01  0.14418671675E+02  0.17722250718E+02  0.51100000000E-03 0.  1.
        -12    1    3    3    0    0 -0.81222532799E+01 -0.14391378109E+02  0.46732621663E+01  0.17173297339E+02  0.00000000000E+00 0.  1.
</event>
<event>
 7    1  0.4031943E-009  0.4778727E+02  0.7816164E-02  0.1312668E+00
        -11   -1    0    0    0    0  0.00000000000E+00  0.00000000000E+00  0.45593999997E+02  0.45594000000E+02  0.51100000000E-03 0.  1.
         11   -1    0    0    0    0 -0.00000000000E+00 -0.00000000000E+00 -0.45593999997E+02  0.45594000000E+02  0.51100000000E-03 0. -1.
    9900012    2    1    2    0    0 -0.13044533995E+02  0.36061724543E+02 -0.20322782808E+02  0.47787270222E+02  0.19999996252E+02 0.  0.
        -12    1    1    2    0    0  0.13044533995E+02 -0.36061724543E+02  0.20322782808E+02  0.43400729778E+02  0.00000000000E+00 0.  1.
         11    1    3    3    0    0 -0.40398688095E+01  0.69227423538E+01 -0.82487121558E+01  0.11501571814E+02  0.51100000000E-03 0. -1.
        -11    1    3    3    0    0 -0.10455238173E+02  0.13512232935E+02 -0.10700586648E+01  0.17118337243E+02  0.51100000000E-03 0.  1.
         12    1    3    3    0    0  0.14505729874E+01  0.15626749254E+02 -0.11004011987E+02  0.19167361166E+02  0.00000000000E+00 0. -1.
</event>
<event>
 7    1  0.4031943E-009  0.4778727E+02  0.7816164E-02  0.1312668E+00
        -11   -1    0    0    0    0  0.00000000000E+00  0.00000000000E+00  0.45593999997E+02  0.45594000000E+02  0.51100000000E-03 0.  1.
         11   -1    0    0    0    0 -0.00000000000E+00 -0.00000000000E+00 -0.45593999997E+02  0.45594000000E+02  0.51100000000E-03 0. -1.
    9900012    2    1    2    0    0 -0.21903658126E+02  0.25713400168E+02 -0.27252050140E+02  0.47787269311E+02  0.19999992096E+02 0.  0.
        -12    1    1    2    0    0  0.21903658126E+02 -0.25713400168E+02  0.27252050140E+02  0.43400730689E+02  0.00000000000E+00 0.  1.
         11    1    3    3    0    0 -0.11837787049E+02  0.12903697661E+02 -0.16757533738E+02  0.24237441135E+02  0.51100000000E-03 0. -1.
        -11    1    3    3    0    0 -0.53533866023E+01  0.12810274758E+02 -0.12255409744E+02  0.18519097055E+02  0.51100000000E-03 0.  1.
        -12    1    3    3    0    0 -0.47124844743E+01 -0.57225138048E-03  0.17608933410E+01  0.50307311205E+01  0.00000000000E+00 0.  1.
</event>
<event>
 7    1  0.4031943E-009  0.4778727E+02  0.7816164E-02  0.1312668E+00
        -11   -1    0    0    0    0  0.00000000000E+00  0.00000000000E+00  0.45593999997E+02  0.45594000000E+02  0.51100000000E-03 0.  1.
         11   -1    0    0    0    0 -0.00000000000E+00 -0.00000000000E+00 -0.45593999997E+02  0.45594000000E+02  0.51100000000E-03 0. -1.
    9900012    2    1    2    0    0  0.13736380934E+02 -0.19001629074E+02 -0.36522229597E+02  0.47787270474E+02  0.19999997400E+02 0.  0.
        -12    1    1    2    0    0 -0.13736380934E+02  0.19001629074E+02  0.36522229597E+02  0.43400729526E+02  0.00000000000E+00 0.  1.
         11    1    3    3    0    0  0.10427537277E+02 -0.97106238416E+01 -0.25822998033E+02  0.29493337836E+02  0.51100000000E-03 0. -1.
        -11    1    3    3    0    0 -0.93262606263E-01 -0.76001200668E+01 -0.12062646419E+02  0.14257558060E+02  0.51100000000E-03 0.  1.
         12    1    3    3    0    0  0.34021062632E+01 -0.16908851653E+01  0.13634148545E+01  0.40363745779E+01  0.00000000000E+00 0. -1.
</event>
<event>
 7    1  0.4031943E-009  0.4778727E+02  0.7816164E-02  0.1312668E+00
        -11   -1    0    0    0    0  0.00000000000E+00  0.00000000000E+00  0.45593999997E+02  0.45594000000E+02  0.51100000000E-03 0.  1.
         11   -1    0    0    0    0 -0.00000000000E+00 -0.00000000000E+00 -0.45593999997E+02  0.45594000000E+02  0.51100000000E-03 0. -1.
    9900012    2    1    2    0    0 -0.18171051298E+02  0.14021006555E+01 -0.39388706490E+02  0.47787272005E+02  0.20000004380E+02 0.  0.
        -12    1    1    2    0    0  0.18171051298E+02 -0.14021006555E+01  0.39388706490E+02  0.43400727995E+02  0.00000000000E+00 0.  1.
         11    1    3    3    0    0 -0.25669344782E+01  0.32472350560E+01 -0.17646644369E+02  0.18125610221E+02  0.51100000000E-03 0. -1.
        -11    1    3    3    0    0  0.18943754124E+00 -0.41975754232E+01 -0.42163947224E+01  0.59526053735E+01  0.51100000000E-03 0.  1.
        -12    1    3    3    0    0 -0.15793554361E+02  0.23524410228E+01 -0.17525667399E+02  0.23709056411E+02  0.00000000000E+00 0.  1.
</event>
<event>
 7    1  0.4031943E-009  0.4778728E+02  0.7816164E-02  0.1312668E+00
        -11   -1    0    0    0    0  0.00000000000E+00  0.00000000000E+00  0.45593999997E+02  0.45594000000E+02  0.51100000000E-03 0.  1.
         11   -1    0    0    0    0 -0.00000000000E+00 -0.00000000000E+00 -0.45593999997E+02  0.45594000000E+02  0.51100000000E-03 0. -1.
    9900012    2    1    2    0    0 -0.34929031552E+02 -0.21114857250E+02 -0.14756302708E+02  0.47787275219E+02  0.20000019035E+02 0.  0.
        -12    1    1    2    0    0  0.34929031552E+02  0.21114857250E+02  0.14756302708E+02  0.43400724781E+02  0.00000000000E+00 0.  1.
         11    1    3    3    0    0 -0.31249398301E+01 -0.30836739043E+01 -0.56618355897E+01  0.71645429858E+01  0.51100000000E-03 0.  1.
        -11    1    3    3    0    0 -0.85521545760E+01 -0.93170714143E+01 -0.94521983852E+01  0.15788958870E+02  0.51100000000E-03 0. -1.
        -12    1    3    3    0    0 -0.23251937146E+02 -0.87141119318E+01  0.35773126654E+00  0.24833773363E+02  0.00000000000E+00 0.  1.
</event>
<event>
 7    1  0.4031943E-009  0.4778727E+02  0.7816164E-02  0.1312668E+00
        -11   -1    0    0    0    0  0.00000000000E+00  0.00000000000E+00  0.45593999997E+02  0.45594000000E+02  0.51100000000E-03 0.  1.
         11   -1    0    0    0    0 -0.00000000000E+00 -0.00000000000E+00 -0.45593999997E+02  0.45594000000E+02  0.51100000000E-03 0. -1.
    9900012    2    1    2    0    0  0.94951330577E+01 -0.41665219104E+02 -0.75812396101E+01  0.47787271564E+02  0.20000002370E+02 0.  0.
        -12    1    1    2    0    0 -0.94951330577E+01  0.41665219104E+02  0.75812396101E+01  0.43400728436E+02  0.00000000000E+00 0.  1.
         11    1    3    3    0    0  0.76482887084E+01 -0.33982954815E+02 -0.46785229640E+01  0.35145783752E+02  0.51100000000E-03 0. -1.
        -11    1    3    3    0    0  0.17535685442E+01 -0.63702352363E+01  0.25125307591E+01  0.70687842435E+01  0.51100000000E-03 0.  1.
        -12    1    3    3    0    0  0.93275805051E-01 -0.13120290523E+01 -0.54152474052E+01  0.55727035691E+01  0.00000000000E+00 0.  1.
</event>
<event>
 7    1  0.4031943E-009  0.4778727E+02  0.7816164E-02  0.1312668E+00
        -11   -1    0    0    0    0  0.00000000000E+00  0.00000000000E+00  0.45593999997E+02  0.45594000000E+02  0.51100000000E-03 0. -1.
         11   -1    0    0    0    0 -0.00000000000E+00 -0.00000000000E+00 -0.45593999997E+02  0.45594000000E+02  0.51100000000E-03 0.  1.
    9900012    2    1    2    0    0 -0.76949864429E+01 -0.34992987795E+01  0.42569537387E+02  0.47787269342E+02  0.19999992238E+02 0.  0.
        -12    1    1    2    0    0  0.76949864429E+01  0.34992987795E+01 -0.42569537387E+02  0.43400730658E+02  0.00000000000E+00 0.  1.
         11    1    3    3    0    0 -0.12512510974E+02 -0.57388326392E+01  0.31211810465E+02  0.34112669841E+02  0.51100000000E-03 0. -1.
        -11    1    3    3    0    0  0.16812743100E+01  0.44874178657E+00 -0.17094140197E-01  0.17402140579E+01  0.51100000000E-03 0.  1.
         12    1    3    3    0    0  0.31362502211E+01  0.17907920732E+01  0.11374821062E+02  0.11934385443E+02  0.00000000000E+00 0. -1.
</event>
<event>
 7    1  0.4031943E-009  0.4778727E+02  0.7816164E-02  0.1312668E+00
        -11   -1    0    0    0    0  0.00000000000E+00  0.00000000000E+00  0.45593999997E+02  0.45594000000E+02  0.51100000000E-03 0. -1.
         11   -1    0    0    0    0 -0.00000000000E+00 -0.00000000000E+00 -0.45593999997E+02  0.45594000000E+02  0.51100000000E-03 0.  1.
    9900012    2    1    2    0    0 -0.24388422347E+02  0.34904067057E+02  0.83984950570E+01  0.47787265433E+02  0.19999974415E+02 0.  0.
        -12    1    1    2    0    0  0.24388422347E+02 -0.34904067057E+02 -0.83984950570E+01  0.43400734567E+02  0.00000000000E+00 0.  1.
         11    1    3    3    0    0 -0.47828375983E+01  0.14311975556E+02  0.73905391200E+01  0.16802626240E+02  0.51100000000E-03 0. -1.
        -11    1    3    3    0    0  0.11382602032E+01 -0.55618136374E+00 -0.39739650096E+00  0.13277417820E+01  0.51100000000E-03 0.  1.
         12    1    3    3    0    0 -0.20743844952E+02  0.21148272865E+02  0.14053524380E+01  0.29656897411E+02  0.00000000000E+00 0. -1.
</event>
<event>
 7    1  0.4031943E-009  0.4778727E+02  0.7816164E-02  0.1312668E+00
        -11   -1    0    0    0    0  0.00000000000E+00  0.00000000000E+00  0.45593999997E+02  0.45594000000E+02  0.51100000000E-03 0. -1.
         11   -1    0    0    0    0 -0.00000000000E+00 -0.00000000000E+00 -0.45593999997E+02  0.45594000000E+02  0.51100000000E-03 0.  1.
    9900012    2    1    2    0    0  0.22580025209E+02 -0.34592132482E+02  0.13309781096E+02  0.47787269120E+02  0.19999991225E+02 0.  0.
        -12    1    1    2    0    0 -0.22580025209E+02  0.34592132482E+02 -0.13309781096E+02  0.43400730880E+02  0.00000000000E+00 0.  1.
         11    1    3    3    0    0  0.21031788554E+02 -0.22715167805E+02  0.91250478963E+01  0.32273541447E+02  0.51100000000E-03 0. -1.
        -11    1    3    3    0    0  0.48626922428E+01 -0.10015911843E+02  0.29720414663E+01  0.11523770938E+02  0.51100000000E-03 0.  1.
        -12    1    3    3    0    0 -0.33144555883E+01 -0.18610528345E+01  0.12126917338E+01  0.39899567342E+01  0.00000000000E+00 0.  1.
</event>
<event>
 7    1  0.4031943E-009  0.4778727E+02  0.7816164E-02  0.1312668E+00
        -11   -1    0    0    0    0  0.00000000000E+00  0.00000000000E+00  0.45593999997E+02  0.45594000000E+02  0.51100000000E-03 0. -1.
         11   -1    0    0    0    0 -0.00000000000E+00 -0.00000000000E+00 -0.45593999997E+02  0.45594000000E+02  0.51100000000E-03 0.  1.
    9900012    2    1    2    0    0 -0.17184816074E+02  0.15955302750E+02  0.36520323819E+02  0.47787266813E+02  0.19999980705E+02 0.  0.
        -12    1    1    2    0    0  0.17184816074E+02 -0.15955302750E+02 -0.36520323819E+02  0.43400733187E+02  0.00000000000E+00 0.  1.
         11    1    3    3    0    0 -0.78208364001E+01  0.81697983866E+01  0.16449246157E+02  0.19962183926E+02  0.51100000000E-03 0. -1.
        -11    1    3    3    0    0 -0.12376468651E+02  0.83176495670E+01  0.19752843139E+02  0.24749446113E+02  0.51100000000E-03 0.  1.
        -12    1    3    3    0    0  0.30124889766E+01 -0.53214520329E+00  0.31823452253E+00  0.30756367735E+01  0.00000000000E+00 0.  1.
</event>
<event>
 7    1  0.4760362E-009  0.4778727E+02  0.7816164E-02  0.1312668E+00
        -11   -1    0    0    0    0  0.00000000000E+00  0.00000000000E+00  0.45593999997E+02  0.45594000000E+02  0.51100000000E-03 0. -1.
         11   -1    0    0    0    0 -0.00000000000E+00 -0.00000000000E+00 -0.45593999997E+02  0.45594000000E+02  0.51100000000E-03 0.  1.
    9900012    2    1    2    0    0 -0.87316542548E+01 -0.12708145303E+01  0.42494313774E+02  0.47787268915E+02  0.19999990291E+02 0.  0.
        -12    1    1    2    0    0  0.87316542548E+01  0.12708145303E+01 -0.42494313774E+02  0.43400731085E+02  0.00000000000E+00 0.  1.
         11    1    3    3    0    0 -0.18506885349E+01  0.20387920041E+01  0.16446229241E+02  0.16675136503E+02  0.51100000000E-03 0. -1.
        -11    1    3    3    0    0  0.31543036586E+01 -0.42593688651E+01  0.16099067805E+02  0.16949095526E+02  0.51100000000E-03 0.  1.
        -12    1    3    3    0    0 -0.10035269378E+02  0.94976233062E+00  0.99490167285E+01  0.14163036886E+02  0.00000000000E+00 0.  1.
</event>
<event>
 7    1  0.4031943E-009  0.4778727E+02  0.7816164E-02  0.1312668E+00
        -11   -1    0    0    0    0  0.00000000000E+00  0.00000000000E+00  0.45593999997E+02  0.45594000000E+02  0.51100000000E-03 0. -1.
         11   -1    0    0    0    0 -0.00000000000E+00 -0.00000000000E+00 -0.45593999997E+02  0.45594000000E+02  0.51100000000E-03 0.  1.
    9900012    2    1    2    0    0  0.37896440710E+02  0.19296722374E+02 -0.86671470411E+01  0.47787272463E+02  0.20000006470E+02 0.  0.
        -12    1    1    2    0    0 -0.37896440710E+02 -0.19296722374E+02  0.86671470411E+01  0.43400727537E+02  0.00000000000E+00 0.  1.
         11    1    3    3    0    0  0.27605250755E+02  0.49031034111E+01 -0.42939613234E+00  0.28040589752E+02  0.51100000000E-03 0. -1.
        -11    1    3    3    0    0  0.40379784415E+01  0.53471205451E+01 -0.15567399809E+01  0.68789830387E+01  0.51100000000E-03 0.  1.
         12    1    3    3    0    0  0.62532115133E+01  0.90464984178E+01 -0.66810109279E+01  0.12867699673E+02  0.00000000000E+00 0. -1.
</event>
<event>
 7    1  0.4031943E-009  0.4778727E+02  0.7816164E-02  0.1312668E+00
        -11   -1    0    0    0    0  0.00000000000E+00  0.00000000000E+00  0.45593999997E+02  0.45594000000E+02  0.51100000000E-03 0.  1.
         11   -1    0    0    0    0 -0.00000000000E+00 -0.00000000000E+00 -0.45593999997E+02  0.45594000000E+02  0.51100000000E-03 0. -1.
    9900012    2    1    2    0    0 -0.41763920752E+02  0.26811185901E+01 -0.11498256457E+02  0.47787269879E+02  0.19999994686E+02 0.  0.
        -12    1    1    2    0    0  0.41763920752E+02 -0.26811185901E+01  0.11498256457E+02  0.43400730121E+02  0.00000000000E+00 0.  1.
         11    1    3    3    0    0 -0.62104600570E+01 -0.34475951535E+01 -0.14406755027E+01  0.72478460681E+01  0.51100000000E-03 0. -1.
        -11    1    3    3    0    0 -0.35519429309E+02  0.49791188646E+01 -0.60541736219E+01  0.36374091076E+02  0.51100000000E-03 0.  1.
        -12    1    3    3    0    0 -0.34031386078E-01  0.11495948790E+01 -0.40034073324E+01  0.41653327346E+01  0.00000000000E+00 0.  1.
</event>
<event>
 7    1  0.4031943E-009  0.4778727E+02  0.7816164E-02  0.1312668E+00
        -11   -1    0    0    0    0  0.00000000000E+00  0.00000000000E+00  0.45593999997E+02  0.45594000000E+02  0.51100000000E-03 0. -1.
         11   -1    0    0    0    0 -0.00000000000E+00 -0.00000000000E+00 -0.45593999997E+02  0.45594000000E+02  0.51100000000E-03 0.  1.
    9900012    2    1    2    0    0  0.18333681691E+02  0.33319279088E+02  0.20912321190E+02  0.47787269352E+02  0.19999992282E+02 0.  0.
        -12    1    1    2    0    0 -0.18333681691E+02 -0.33319279088E+02 -0.20912321190E+02  0.43400730648E+02  0.00000000000E+00 0.  1.
         11    1    3    3    0    0  0.28815314289E+01  0.52534330778E+01 -0.15549248324E+01  0.61902806054E+01  0.51100000000E-03 0. -1.
        -11    1    3    3    0    0  0.12240792733E+02  0.11276736666E+02  0.55419985385E+01  0.17541822728E+02  0.51100000000E-03 0.  1.
         12    1    3    3    0    0  0.32113575283E+01  0.16789109344E+02  0.16925247484E+02  0.24055166018E+02  0.00000000000E+00 0. -1.
</event>
<event>
 7    1  0.4031943E-009  0.4778728E+02  0.7816164E-02  0.1312668E+00
        -11   -1    0    0    0    0  0.00000000000E+00  0.00000000000E+00  0.45593999997E+02  0.45594000000E+02  0.51100000000E-03 0. -1.
         11   -1    0    0    0    0 -0.00000000000E+00 -0.00000000000E+00 -0.45593999997E+02  0.45594000000E+02  0.51100000000E-03 0.  1.
    9900012    2    1    2    0    0  0.21202189356E+02 -0.15101341446E+02 -0.34728072270E+02  0.47787281682E+02  0.20000048499E+02 0.  0.
        -12    1    1    2    0    0 -0.21202189356E+02  0.15101341446E+02  0.34728072270E+02  0.43400718318E+02  0.00000000000E+00 0.  1.
         11    1    3    3    0    0  0.11862974227E+01 -0.31118582021E+01 -0.18012021373E+01  0.37861976237E+01  0.51100000000E-03 0. -1.
        -11    1    3    3    0    0  0.50441719440E+01 -0.11716519347E+02 -0.22119646834E+02  0.25534276425E+02  0.51100000000E-03 0.  1.
         12    1    3    3    0    0  0.14971719989E+02 -0.27296389652E+00 -0.10807223299E+02  0.18466807633E+02  0.00000000000E+00 0. -1.
</event>
<event>
 7    1  0.4031943E-009  0.4778727E+02  0.7816164E-02  0.1312668E+00
        -11   -1    0    0    0    0  0.00000000000E+00  0.00000000000E+00  0.45593999997E+02  0.45594000000E+02  0.51100000000E-03 0. -1.
         11   -1    0    0    0    0 -0.00000000000E+00 -0.00000000000E+00 -0.45593999997E+02  0.45594000000E+02  0.51100000000E-03 0.  1.
    9900012    2    1    2    0    0 -0.25043451235E+02 -0.28927885296E+02  0.20484785077E+02  0.47787269394E+02  0.19999992477E+02 0.  0.
        -12    1    1    2    0    0  0.25043451235E+02  0.28927885296E+02 -0.20484785077E+02  0.43400730606E+02  0.00000000000E+00 0.  1.
         11    1    3    3    0    0 -0.20472751411E+01 -0.95247931521E+00  0.54321863777E+01  0.58827885780E+01  0.51100000000E-03 0.  1.
        -11    1    3    3    0    0 -0.91719643029E+01 -0.26093157350E+01  0.47863451170E+00  0.95479080973E+01  0.51100000000E-03 0. -1.
         12    1    3    3    0    0 -0.13824211791E+02 -0.25366090245E+02  0.14573964188E+02  0.32356572719E+02  0.00000000000E+00 0. -1.
</event>
<event>
 7    1  0.4031943E-009  0.4778727E+02  0.7816164E-02  0.1312668E+00
        -11   -1    0    0    0    0  0.00000000000E+00  0.00000000000E+00  0.45593999997E+02  0.45594000000E+02  0.51100000000E-03 0.  1.
         11   -1    0    0    0    0 -0.00000000000E+00 -0.00000000000E+00 -0.45593999997E+02  0.45594000000E+02  0.51100000000E-03 0. -1.
    9900012    2    1    2    0    0  0.18972514266E+02 -0.21907457575E+02 -0.32306814559E+02  0.47787271182E+02  0.20000000627E+02 0.  0.
        -12    1    1    2    0    0 -0.18972514266E+02  0.21907457575E+02  0.32306814559E+02  0.43400728818E+02  0.00000000000E+00 0.  1.
         11    1    3    3    0    0  0.17506211749E+01 -0.12288561217E+02 -0.22602187665E+02  0.25786281212E+02  0.51100000000E-03 0. -1.
        -11    1    3    3    0    0  0.41451471499E+01 -0.22642476794E+01 -0.27365577083E+01  0.54587371067E+01  0.51100000000E-03 0.  1.
         12    1    3    3    0    0  0.13076745941E+02 -0.73546486788E+01 -0.69680691863E+01  0.16542252863E+02  0.00000000000E+00 0. -1.
</event>
<event>
 7    1  0.4031943E-009  0.4778727E+02  0.7816164E-02  0.1312668E+00
        -11   -1    0    0    0    0  0.00000000000E+00  0.00000000000E+00  0.45593999997E+02  0.45594000000E+02  0.51100000000E-03 0.  1.
         11   -1    0    0    0    0 -0.00000000000E+00 -0.00000000000E+00 -0.45593999997E+02  0.45594000000E+02  0.51100000000E-03 0. -1.
    9900012    2    1    2    0    0  0.14423700439E+02  0.35445012642E+02 -0.20475141228E+02  0.47787268856E+02  0.19999990022E+02 0.  0.
        -12    1    1    2    0    0 -0.14423700439E+02 -0.35445012642E+02  0.20475141228E+02  0.43400731144E+02  0.00000000000E+00 0.  1.
         11    1    3    3    0    0  0.86049737955E+01  0.14772876821E+02 -0.70022852856E+01  0.18474724979E+02  0.51100000000E-03 0. -1.
        -11    1    3    3    0    0  0.88967462918E+01  0.53012265112E+01 -0.52861972250E+01  0.11627509556E+02  0.51100000000E-03 0.  1.
         12    1    3    3    0    0 -0.30780196485E+01  0.15370909310E+02 -0.81866587171E+01  0.17685034321E+02  0.00000000000E+00 0. -1.
</event>
<event>
 7    1  0.4031943E-009  0.4778727E+02  0.7816164E-02  0.1312668E+00
        -11   -1    0    0    0    0  0.00000000000E+00  0.00000000000E+00  0.45593999997E+02  0.45594000000E+02  0.51100000000E-03 0.  1.
         11   -1    0    0    0    0 -0.00000000000E+00 -0.00000000000E+00 -0.45593999997E+02  0.45594000000E+02  0.51100000000E-03 0. -1.
    9900012    2    1    2    0    0  0.36197205245E+02 -0.23909001388E+02  0.13211797195E+01  0.47787268084E+02  0.19999986504E+02 0.  0.
        -12    1    1    2    0    0 -0.36197205245E+02  0.23909001388E+02 -0.13211797195E+01  0.43400731916E+02  0.00000000000E+00 0.  1.
         11    1    3    3    0    0  0.78552699483E+01 -0.26141534911E+01 -0.50134095944E+01  0.96784988742E+01  0.51100000000E-03 0.  1.
        -11    1    3    3    0    0  0.21899967050E+02 -0.14994244337E+02 -0.89474255636E+00  0.26556288983E+02  0.51100000000E-03 0. -1.
         12    1    3    3    0    0  0.64419682468E+01 -0.63006035603E+01  0.72293318702E+01  0.11552480227E+02  0.00000000000E+00 0. -1.
</event>
<event>
 7    1  0.4031943E-009  0.4778724E+02  0.7816164E-02  0.1312668E+00
        -11   -1    0    0    0    0  0.00000000000E+00  0.00000000000E+00  0.45593999997E+02  0.45594000000E+02  0.51100000000E-03 0.  1.
         11   -1    0    0    0    0 -0.00000000000E+00 -0.00000000000E+00 -0.45593999997E+02  0.45594000000E+02  0.51100000000E-03 0. -1.
    9900012    2    1    2    0    0  0.11741750364E+01  0.25705008893E+02 -0.34949958274E+02  0.47787242489E+02  0.19999869803E+02 0.  0.
        -12    1    1    2    0    0 -0.11741750364E+01 -0.25705008893E+02  0.34949958274E+02  0.43400757511E+02  0.00000000000E+00 0.  1.
         11    1    3    3    0    0  0.42883991831E+01  0.25541440663E+01 -0.64912543322E+00  0.50334266215E+01  0.51100000000E-03 0. -1.
        -11    1    3    3    0    0 -0.41716672645E+01  0.66780634948E+01 -0.56614058558E+01  0.96979820752E+01  0.51100000000E-03 0.  1.
         12    1    3    3    0    0  0.10574431177E+01  0.16472801332E+02 -0.28639426985E+02  0.33055833792E+02  0.00000000000E+00 0. -1.
</event>
<event>
 7    1  0.4031943E-009  0.4778727E+02  0.7816164E-02  0.1312668E+00
        -11   -1    0    0    0    0  0.00000000000E+00  0.00000000000E+00  0.45593999997E+02  0.45594000000E+02  0.51100000000E-03 0.  1.
         11   -1    0    0    0    0 -0.00000000000E+00 -0.00000000000E+00 -0.45593999997E+02  0.45594000000E+02  0.51100000000E-03 0. -1.
    9900012    2    1    2    0    0 -0.22294658020E+02  0.21618280471E+02 -0.30318666238E+02  0.47787270177E+02  0.19999996043E+02 0.  0.
        -12    1    1    2    0    0  0.22294658020E+02 -0.21618280471E+02  0.30318666238E+02  0.43400729823E+02  0.00000000000E+00 0.  1.
         11    1    3    3    0    0 -0.10978719651E+02  0.11661001231E+02 -0.15197420562E+02  0.22078786807E+02  0.51100000000E-03 0. -1.
        -11    1    3    3    0    0 -0.49590696135E+01 -0.30873838280E+01 -0.68612452223E+01  0.90111595588E+01  0.51100000000E-03 0.  1.
        -12    1    3    3    0    0 -0.63568687556E+01  0.13044663068E+02 -0.82600004540E+01  0.16697323811E+02  0.00000000000E+00 0.  1.
</event>
<event>
 7    1  0.4031943E-009  0.4778727E+02  0.7816164E-02  0.1312668E+00
        -11   -1    0    0    0    0  0.00000000000E+00  0.00000000000E+00  0.45593999997E+02  0.45594000000E+02  0.51100000000E-03 0.  1.
         11   -1    0    0    0    0 -0.00000000000E+00 -0.00000000000E+00 -0.45593999997E+02  0.45594000000E+02  0.51100000000E-03 0. -1.
    9900012    2    1    2    0    0  0.18348761679E+01 -0.43358631459E+02  0.53435301800E+00  0.47787271600E+02  0.20000002531E+02 0.  0.
        -12    1    1    2    0    0 -0.18348761679E+01  0.43358631459E+02 -0.53435301800E+00  0.43400728400E+02  0.00000000000E+00 0.  1.
         11    1    3    3    0    0  0.91245481027E+01 -0.21959205187E+02 -0.71997470067E+00  0.23790385334E+02  0.51100000000E-03 0. -1.
        -11    1    3    3    0    0 -0.35717512678E-01  0.67820818406E+00 -0.21311619307E+00  0.71180113410E+00  0.51100000000E-03 0.  1.
         12    1    3    3    0    0 -0.72539544222E+01 -0.22077634456E+02  0.14674439117E+01  0.23285085131E+02  0.00000000000E+00 0. -1.
</event>
<event>
 7    1  0.4031943E-009  0.4778727E+02  0.7816164E-02  0.1312668E+00
        -11   -1    0    0    0    0  0.00000000000E+00  0.00000000000E+00  0.45593999997E+02  0.45594000000E+02  0.51100000000E-03 0.  1.
         11   -1    0    0    0    0 -0.00000000000E+00 -0.00000000000E+00 -0.45593999997E+02  0.45594000000E+02  0.51100000000E-03 0. -1.
    9900012    2    1    2    0    0  0.10783712173E+02  0.17252369375E+02 -0.38336540118E+02  0.47787274136E+02  0.20000014096E+02 0.  0.
        -12    1    1    2    0    0 -0.10783712173E+02 -0.17252369375E+02  0.38336540118E+02  0.43400725864E+02  0.00000000000E+00 0.  1.
         11    1    3    3    0    0  0.70394892582E+01  0.13314016002E+02 -0.31027862094E+02  0.34489790628E+02  0.51100000000E-03 0. -1.
        -11    1    3    3    0    0 -0.21105595463E+01  0.26811688278E+01 -0.63834341580E+01  0.72381876042E+01  0.51100000000E-03 0.  1.
        -12    1    3    3    0    0  0.58547824608E+01  0.12571845452E+01 -0.92524386581E+00  0.60592959043E+01  0.00000000000E+00 0.  1.
</event>
<event>
 7    1  0.4031943E-009  0.4778727E+02  0.7816164E-02  0.1312668E+00
        -11   -1    0    0    0    0  0.00000000000E+00  0.00000000000E+00  0.45593999997E+02  0.45594000000E+02  0.51100000000E-03 0.  1.
         11   -1    0    0    0    0 -0.00000000000E+00 -0.00000000000E+00 -0.45593999997E+02  0.45594000000E+02  0.51100000000E-03 0. -1.
    9900012    2    1    2    0    0 -0.39304896361E+02 -0.97315206711E+01 -0.15621969570E+02  0.47787270677E+02  0.19999998325E+02 0.  0.
        -12    1    1    2    0    0  0.39304896361E+02  0.97315206711E+01  0.15621969570E+02  0.43400729323E+02  0.00000000000E+00 0.  1.
         11    1    3    3    0    0 -0.13818764540E+02 -0.41658719484E+01 -0.13567196767E+02  0.19808623649E+02  0.51100000000E-03 0. -1.
        -11    1    3    3    0    0 -0.12068506683E+02  0.79064106189E+00 -0.45527732903E+01  0.12922914212E+02  0.51100000000E-03 0.  1.
        -12    1    3    3    0    0 -0.13417625139E+02 -0.63562897846E+01  0.24980004873E+01  0.15055732816E+02  0.00000000000E+00 0.  1.
</event>
<event>
 7    1  0.4031943E-009  0.4778727E+02  0.7816164E-02  0.1312668E+00
        -11   -1    0    0    0    0  0.00000000000E+00  0.00000000000E+00  0.45593999997E+02  0.45594000000E+02  0.51100000000E-03 0.  1.
         11   -1    0    0    0    0 -0.00000000000E+00 -0.00000000000E+00 -0.45593999997E+02  0.45594000000E+02  0.51100000000E-03 0. -1.
    9900012    2    1    2    0    0 -0.76842144201E+01 -0.32631402368E+02 -0.27563883939E+02  0.47787271094E+02  0.20000000226E+02 0.  0.
        -12    1    1    2    0    0  0.76842144201E+01  0.32631402368E+02  0.27563883939E+02  0.43400728906E+02  0.00000000000E+00 0.  1.
         11    1    3    3    0    0 -0.58845963654E+01 -0.41471855275E+01 -0.28825223728E+01  0.77547764426E+01  0.51100000000E-03 0. -1.
        -11    1    3    3    0    0 -0.58207852692E+01 -0.71844816434E+01 -0.40053547210E+01  0.10076764577E+02  0.51100000000E-03 0.  1.
         12    1    3    3    0    0  0.40211672145E+01 -0.21299735198E+02 -0.20676006845E+02  0.29955730075E+02  0.00000000000E+00 0. -1.
</event>
<event>
 7    1  0.4031943E-009  0.4778727E+02  0.7816164E-02  0.1312668E+00
        -11   -1    0    0    0    0  0.00000000000E+00  0.00000000000E+00  0.45593999997E+02  0.45594000000E+02  0.51100000000E-03 0.  1.
         11   -1    0    0    0    0 -0.00000000000E+00 -0.00000000000E+00 -0.45593999997E+02  0.45594000000E+02  0.51100000000E-03 0. -1.
    9900012    2    1    2    0    0  0.43190558007E+02  0.19938891441E+01 -0.37713580326E+01  0.47787273781E+02  0.20000012478E+02 0.  0.
        -12    1    1    2    0    0 -0.43190558007E+02 -0.19938891441E+01  0.37713580326E+01  0.43400726219E+02  0.00000000000E+00 0.  1.
         11    1    3    3    0    0  0.21743414534E+02  0.41828521993E+01 -0.16092825250E+01  0.22200498162E+02  0.51100000000E-03 0. -1.
        -11    1    3    3    0    0  0.17840593327E+02 -0.38286039721E+01  0.35956807441E+01  0.18597685310E+02  0.51100000000E-03 0.  1.
        -12    1    3    3    0    0  0.36065501461E+01  0.16396409169E+01 -0.57577562516E+01  0.69890903089E+01  0.00000000000E+00 0.  1.
</event>
<event>
 7    1  0.4031943E-009  0.4778727E+02  0.7816164E-02  0.1312668E+00
        -11   -1    0    0    0    0  0.00000000000E+00  0.00000000000E+00  0.45593999997E+02  0.45594000000E+02  0.51100000000E-03 0.  1.
         11   -1    0    0    0    0 -0.00000000000E+00 -0.00000000000E+00 -0.45593999997E+02  0.45594000000E+02  0.51100000000E-03 0. -1.
    9900012    2    1    2    0    0 -0.11401056707E+02  0.20266423371E+02 -0.36645755951E+02  0.47787269136E+02  0.19999991301E+02 0.  0.
        -12    1    1    2    0    0  0.11401056707E+02 -0.20266423371E+02  0.36645755951E+02  0.43400730864E+02  0.00000000000E+00 0.  1.
         11    1    3    3    0    0  0.12083216119E+01  0.25803288958E+01 -0.73244359649E+01  0.78591030527E+01  0.51100000000E-03 0. -1.
        -11    1    3    3    0    0  0.33676852282E+01  0.55034406932E+01 -0.39513813961E+01  0.75658825300E+01  0.51100000000E-03 0.  1.
        -12    1    3    3    0    0 -0.15977063547E+02  0.12182653782E+02 -0.25369938590E+02  0.32362283554E+02  0.00000000000E+00 0.  1.
</event>
<event>
 7    1  0.4031943E-009  0.4778727E+02  0.7816164E-02  0.1312668E+00
        -11   -1    0    0    0    0  0.00000000000E+00  0.00000000000E+00  0.45593999997E+02  0.45594000000E+02  0.51100000000E-03 0.  1.
         11   -1    0    0    0    0 -0.00000000000E+00 -0.00000000000E+00 -0.45593999997E+02  0.45594000000E+02  0.51100000000E-03 0. -1.
    9900012    2    1    2    0    0  0.29900976661E+02  0.20931293138E+02 -0.23482666746E+02  0.47787273333E+02  0.20000010435E+02 0.  0.
        -12    1    1    2    0    0 -0.29900976661E+02 -0.20931293138E+02  0.23482666746E+02  0.43400726667E+02  0.00000000000E+00 0.  1.
         11    1    3    3    0    0  0.39586364496E+01 -0.29240328312E+00 -0.12657491013E+01  0.41663441131E+01  0.51100000000E-03 0. -1.
        -11    1    3    3    0    0  0.15932549977E+02  0.73268775203E+01 -0.19592677797E+02  0.26294529973E+02  0.51100000000E-03 0.  1.
         12    1    3    3    0    0  0.10009790234E+02  0.13896818901E+02 -0.26242398480E+01  0.17326399247E+02  0.00000000000E+00 0. -1.
</event>
<event>
 7    1  0.4031943E-009  0.4778727E+02  0.7816164E-02  0.1312668E+00
        -11   -1    0    0    0    0  0.00000000000E+00  0.00000000000E+00  0.45593999997E+02  0.45594000000E+02  0.51100000000E-03 0.  1.
         11   -1    0    0    0    0 -0.00000000000E+00 -0.00000000000E+00 -0.45593999997E+02  0.45594000000E+02  0.51100000000E-03 0. -1.
    9900012    2    1    2    0    0  0.23927103158E+02  0.22368606630E+02 -0.28473893059E+02  0.47787269430E+02  0.19999992638E+02 0.  0.
        -12    1    1    2    0    0 -0.23927103158E+02 -0.22368606630E+02  0.28473893059E+02  0.43400730570E+02  0.00000000000E+00 0.  1.
         11    1    3    3    0    0  0.59545382818E+01  0.33603273855E+01 -0.50598136913E+01  0.85058827372E+01  0.51100000000E-03 0.  1.
        -11    1    3    3    0    0  0.22813476821E+01  0.14881625131E+02 -0.13793105659E+02  0.20418547397E+02  0.51100000000E-03 0. -1.
         12    1    3    3    0    0  0.15691217194E+02  0.41266541133E+01 -0.96209737082E+01  0.18862839296E+02  0.00000000000E+00 0. -1.
</event>
<event>
 7    1  0.4031943E-009  0.4778728E+02  0.7816164E-02  0.1312668E+00
        -11   -1    0    0    0    0  0.00000000000E+00  0.00000000000E+00  0.45593999997E+02  0.45594000000E+02  0.51100000000E-03 0.  1.
         11   -1    0    0    0    0 -0.00000000000E+00 -0.00000000000E+00 -0.45593999997E+02  0.45594000000E+02  0.51100000000E-03 0. -1.
    9900012    2    1    2    0    0 -0.11953195847E+02  0.24823208305E+01 -0.41648314645E+02  0.47787275116E+02  0.20000018563E+02 0.  0.
        -12    1    1    2    0    0  0.11953195847E+02 -0.24823208305E+01  0.41648314645E+02  0.43400724884E+02  0.00000000000E+00 0.  1.
         11    1    3    3    0    0 -0.69694360582E+01  0.10202117512E+02 -0.20566222541E+02  0.23992201870E+02  0.51100000000E-03 0. -1.
        -11    1    3    3    0    0 -0.35704003265E+01 -0.81828043294E+00 -0.10139917161E+02  0.10781245831E+02  0.51100000000E-03 0.  1.
        -12    1    3    3    0    0 -0.14133594626E+01 -0.69015162489E+01 -0.10942174943E+02  0.13013827415E+02  0.00000000000E+00 0.  1.
</event>
<event>
 7    1  0.4031943E-009  0.4778727E+02  0.7816164E-02  0.1312668E+00
        -11   -1    0    0    0    0  0.00000000000E+00  0.00000000000E+00  0.45593999997E+02  0.45594000000E+02  0.51100000000E-03 0.  1.
         11   -1    0    0    0    0 -0.00000000000E+00 -0.00000000000E+00 -0.45593999997E+02  0.45594000000E+02  0.51100000000E-03 0. -1.
    9900012    2    1    2    0    0  0.39319627412E+02 -0.50773209678E+01 -0.17658164307E+02  0.47787273570E+02  0.20000011513E+02 0.  0.
        -12    1    1    2    0    0 -0.39319627412E+02  0.50773209678E+01  0.17658164307E+02  0.43400726430E+02  0.00000000000E+00 0.  1.
         11    1    3    3    0    0 -0.63493482750E+00 -0.19373616316E+01 -0.30894958453E+00  0.20620287180E+01  0.51100000000E-03 0. -1.
        -11    1    3    3    0    0  0.10865419172E+01 -0.21754779013E+01 -0.38785174858E+01  0.45777915620E+01  0.51100000000E-03 0.  1.
         12    1    3    3    0    0  0.38868020322E+02 -0.96448143493E+00 -0.13470697237E+02  0.41147453290E+02  0.00000000000E+00 0. -1.
</event>
<event>
 7    1  0.4031943E-009  0.4778728E+02  0.7816164E-02  0.1312668E+00
        -11   -1    0    0    0    0  0.00000000000E+00  0.00000000000E+00  0.45593999997E+02  0.45594000000E+02  0.51100000000E-03 0.  1.
         11   -1    0    0    0    0 -0.00000000000E+00 -0.00000000000E+00 -0.45593999997E+02  0.45594000000E+02  0.51100000000E-03 0. -1.
    9900012    2    1    2    0    0  0.12480735529E+02 -0.32228657390E+02 -0.26252003068E+02  0.47787276716E+02  0.20000025858E+02 0.  0.
        -12    1    1    2    0    0 -0.12480735529E+02  0.32228657390E+02  0.26252003068E+02  0.43400723284E+02  0.00000000000E+00 0.  1.
         11    1    3    3    0    0  0.11616468443E+02 -0.14880554367E+02 -0.16912220333E+02  0.25345540716E+02  0.51100000000E-03 0. -1.
        -11    1    3    3    0    0  0.20604420315E+01 -0.11298129479E+02 -0.11157886692E+02  0.16012232411E+02  0.51100000000E-03 0.  1.
        -12    1    3    3    0    0 -0.11961749454E+01 -0.60499735447E+01  0.18181039576E+01  0.64295035883E+01  0.00000000000E+00 0.  1.
</event>
<event>
 7    1  0.4031943E-009  0.4778727E+02  0.7816164E-02  0.1312668E+00
        -11   -1    0    0    0    0  0.00000000000E+00  0.00000000000E+00  0.45593999997E+02  0.45594000000E+02  0.51100000000E-03 0.  1.
         11   -1    0    0    0    0 -0.00000000000E+00 -0.00000000000E+00 -0.45593999997E+02  0.45594000000E+02  0.51100000000E-03 0. -1.
    9900012    2    1    2    0    0 -0.16454989167E+02 -0.19734249097E+02 -0.34977361524E+02  0.47787273334E+02  0.20000010441E+02 0.  0.
        -12    1    1    2    0    0  0.16454989167E+02  0.19734249097E+02  0.34977361524E+02  0.43400726666E+02  0.00000000000E+00 0.  1.
         11    1    3    3    0    0 -0.61100744385E+01  0.17482569231E+01 -0.39898611035E+01  0.75038925765E+01  0.51100000000E-03 0. -1.
        -11    1    3    3    0    0  0.46218450326E+00 -0.51102681830E+00 -0.55381490597E+01  0.55808474439E+01  0.51100000000E-03 0.  1.
        -12    1    3    3    0    0 -0.10807099231E+02 -0.20971479202E+02 -0.25449351361E+02  0.34702533314E+02  0.00000000000E+00 0.  1.
</event>
<event>
 7    1  0.4031943E-009  0.4778727E+02  0.7816164E-02  0.1312668E+00
        -11   -1    0    0    0    0  0.00000000000E+00  0.00000000000E+00  0.45593999997E+02  0.45594000000E+02  0.51100000000E-03 0.  1.
         11   -1    0    0    0    0 -0.00000000000E+00 -0.00000000000E+00 -0.45593999997E+02  0.45594000000E+02  0.51100000000E-03 0. -1.
    9900012    2    1    2    0    0 -0.32095384519E+02 -0.23537229386E+02 -0.17306302628E+02  0.47787274370E+02  0.20000015162E+02 0.  0.
        -12    1    1    2    0    0  0.32095384519E+02  0.23537229386E+02  0.17306302628E+02  0.43400725630E+02  0.00000000000E+00 0.  1.
         11    1    3    3    0    0  0.20091429210E+01 -0.42907625579E+01 -0.26219508286E+01  0.54149723004E+01  0.51100000000E-03 0. -1.
        -11    1    3    3    0    0 -0.68830880099E+01 -0.20355131214E+01 -0.49795482094E+01  0.87359095033E+01  0.51100000000E-03 0.  1.
         12    1    3    3    0    0 -0.27221439430E+02 -0.17210953706E+02 -0.97048035898E+01  0.33636392566E+02  0.00000000000E+00 0. -1.
</event>
<event>
 7    1  0.4031943E-009  0.4778727E+02  0.7816164E-02  0.1312668E+00
        -11   -1    0    0    0    0  0.00000000000E+00  0.00000000000E+00  0.45593999997E+02  0.45594000000E+02  0.51100000000E-03 0.  1.
         11   -1    0    0    0    0 -0.00000000000E+00 -0.00000000000E+00 -0.45593999997E+02  0.45594000000E+02  0.51100000000E-03 0. -1.
    9900012    2    1    2    0    0 -0.42593347410E+02  0.83163095649E+01  0.51853185240E+00  0.47787272775E+02  0.20000007890E+02 0.  0.
        -12    1    1    2    0    0  0.42593347410E+02 -0.83163095649E+01 -0.51853185240E+00  0.43400727225E+02  0.00000000000E+00 0.  1.
         11    1    3    3    0    0 -0.39035811190E+01  0.53798091728E+01 -0.29867605626E+01  0.72870454375E+01  0.51100000000E-03 0. -1.
        -11    1    3    3    0    0 -0.92896727662E+01  0.38060931113E+01 -0.27931551016E+01  0.10420464508E+02  0.51100000000E-03 0.  1.
        -12    1    3    3    0    0 -0.29400093525E+02 -0.86959271920E+00  0.62984475166E+01  0.30079762830E+02  0.00000000000E+00 0.  1.
</event>
<event>
 7    1  0.4031943E-009  0.4778726E+02  0.7816164E-02  0.1312668E+00
        -11   -1    0    0    0    0  0.00000000000E+00  0.00000000000E+00  0.45593999997E+02  0.45594000000E+02  0.51100000000E-03 0.  1.
         11   -1    0    0    0    0 -0.00000000000E+00 -0.00000000000E+00 -0.45593999997E+02  0.45594000000E+02  0.51100000000E-03 0. -1.
    9900012    2    1    2    0    0 -0.41611002044E+02  0.12285454062E+02 -0.11027612334E+01  0.47787263198E+02  0.19999964226E+02 0.  0.
        -12    1    1    2    0    0  0.41611002044E+02 -0.12285454062E+02  0.11027612334E+01  0.43400736802E+02  0.00000000000E+00 0.  1.
         11    1    3    3    0    0 -0.49232912003E+01  0.28248649856E+01  0.18853163304E+01  0.59810598022E+01  0.51100000000E-03 0. -1.
        -11    1    3    3    0    0 -0.27514525998E+02  0.14039385518E+02  0.73654606063E+00  0.30898155074E+02  0.51100000000E-03 0.  1.
         12    1    3    3    0    0 -0.91731848452E+01 -0.45787964412E+01 -0.37246236244E+01  0.10908048322E+02  0.00000000000E+00 0. -1.
</event>
<event>
 7    1  0.4031943E-009  0.4778727E+02  0.7816164E-02  0.1312668E+00
        -11   -1    0    0    0    0  0.00000000000E+00  0.00000000000E+00  0.45593999997E+02  0.45594000000E+02  0.51100000000E-03 0.  1.
         11   -1    0    0    0    0 -0.00000000000E+00 -0.00000000000E+00 -0.45593999997E+02  0.45594000000E+02  0.51100000000E-03 0. -1.
    9900012    2    1    2    0    0 -0.35482345537E+02 -0.22691895300E+02  0.10473968900E+02  0.47787274411E+02  0.20000015348E+02 0.  0.
        -12    1    1    2    0    0  0.35482345537E+02  0.22691895300E+02 -0.10473968900E+02  0.43400725589E+02  0.00000000000E+00 0.  1.
         11    1    3    3    0    0 -0.11628053182E+02 -0.12367299062E+02  0.82075512315E+00  0.16995156549E+02  0.51100000000E-03 0. -1.
        -11    1    3    3    0    0 -0.10123494670E+02 -0.41122478197E+01 -0.27569864439E+01  0.11269281298E+02  0.51100000000E-03 0.  1.
        -12    1    3    3    0    0 -0.13730797686E+02 -0.62123484189E+01  0.12410200221E+02  0.19522836564E+02  0.00000000000E+00 0.  1.
</event>
<event>
 7    1  0.4031943E-009  0.4778727E+02  0.7816164E-02  0.1312668E+00
        -11   -1    0    0    0    0  0.00000000000E+00  0.00000000000E+00  0.45593999997E+02  0.45594000000E+02  0.51100000000E-03 0.  1.
         11   -1    0    0    0    0 -0.00000000000E+00 -0.00000000000E+00 -0.45593999997E+02  0.45594000000E+02  0.51100000000E-03 0. -1.
    9900012    2    1    2    0    0  0.10835102421E+02 -0.32946570427E+02 -0.26091132474E+02  0.47787272574E+02  0.20000006973E+02 0.  0.
        -12    1    1    2    0    0 -0.10835102421E+02  0.32946570427E+02  0.26091132474E+02  0.43400727426E+02  0.00000000000E+00 0.  1.
         11    1    3    3    0    0 -0.39433430108E+00 -0.15652353732E+02 -0.76772479389E+01  0.17438228496E+02  0.51100000000E-03 0.  1.
        -11    1    3    3    0    0  0.81299253114E+01 -0.18374941980E+02 -0.12732672053E+02  0.23787709352E+02  0.51100000000E-03 0. -1.
         12    1    3    3    0    0  0.30995114109E+01  0.10807252850E+01 -0.56812124816E+01  0.65613347262E+01  0.00000000000E+00 0. -1.
</event>
<event>
 7    1  0.4031943E-009  0.4778727E+02  0.7816164E-02  0.1312668E+00
        -11   -1    0    0    0    0  0.00000000000E+00  0.00000000000E+00  0.45593999997E+02  0.45594000000E+02  0.51100000000E-03 0.  1.
         11   -1    0    0    0    0 -0.00000000000E+00 -0.00000000000E+00 -0.45593999997E+02  0.45594000000E+02  0.51100000000E-03 0. -1.
    9900012    2    1    2    0    0  0.30261542253E+02  0.30635811617E+02 -0.54137971836E+01  0.47787273129E+02  0.20000009504E+02 0.  0.
        -12    1    1    2    0    0 -0.30261542253E+02 -0.30635811617E+02  0.54137971836E+01  0.43400726871E+02  0.00000000000E+00 0.  1.
         11    1    3    3    0    0 -0.43254279649E+00  0.13347172138E+01  0.17677093500E+01  0.22568473406E+01  0.51100000000E-03 0. -1.
        -11    1    3    3    0    0  0.17900905175E+02  0.83992649946E+01  0.70641244079E+00  0.19786082921E+02  0.51100000000E-03 0.  1.
         12    1    3    3    0    0  0.12793179875E+02  0.20901829409E+02 -0.78879189744E+01  0.25744342868E+02  0.00000000000E+00 0. -1.
</event>
<event>
 7    1  0.4031943E-009  0.4778727E+02  0.7816164E-02  0.1312668E+00
        -11   -1    0    0    0    0  0.00000000000E+00  0.00000000000E+00  0.45593999997E+02  0.45594000000E+02  0.51100000000E-03 0.  1.
         11   -1    0    0    0    0 -0.00000000000E+00 -0.00000000000E+00 -0.45593999997E+02  0.45594000000E+02  0.51100000000E-03 0. -1.
    9900012    2    1    2    0    0 -0.42284834926E+01 -0.34457696337E+02 -0.26046313108E+02  0.47787270329E+02  0.19999996737E+02 0.  0.
        -12    1    1    2    0    0  0.42284834926E+01  0.34457696337E+02  0.26046313108E+02  0.43400729671E+02  0.00000000000E+00 0.  1.
         11    1    3    3    0    0 -0.17125369435E+01 -0.76346828610E+01 -0.91514305169E+01  0.12040342434E+02  0.51100000000E-03 0. -1.
        -11    1    3    3    0    0  0.61771179094E+00 -0.25554324138E+02 -0.18923594693E+02  0.31804205482E+02  0.51100000000E-03 0.  1.
        -12    1    3    3    0    0 -0.31336583400E+01 -0.12686893382E+01  0.20287121018E+01  0.39427224123E+01  0.00000000000E+00 0.  1.
</event>
<event>
 7    1  0.4031943E-009  0.4778727E+02  0.7816164E-02  0.1312668E+00
        -11   -1    0    0    0    0  0.00000000000E+00  0.00000000000E+00  0.45593999997E+02  0.45594000000E+02  0.51100000000E-03 0.  1.
         11   -1    0    0    0    0 -0.00000000000E+00 -0.00000000000E+00 -0.45593999997E+02  0.45594000000E+02  0.51100000000E-03 0. -1.
    9900012    2    1    2    0    0  0.39470311252E+02 -0.17331858689E+02  0.50323289041E+01  0.47787272700E+02  0.20000007551E+02 0.  0.
        -12    1    1    2    0    0 -0.39470311252E+02  0.17331858689E+02 -0.50323289041E+01  0.43400727300E+02  0.00000000000E+00 0.  1.
         11    1    3    3    0    0  0.16016963602E+01 -0.71011486967E+01 -0.23662249200E+00  0.72833875709E+01  0.51100000000E-03 0. -1.
        -11    1    3    3    0    0  0.39024386547E+00 -0.15051017768E+01 -0.40593067169E+00  0.16069852533E+01  0.51100000000E-03 0.  1.
        -12    1    3    3    0    0  0.37478371026E+02 -0.87256082155E+01  0.56748820678E+01  0.38896899876E+02  0.00000000000E+00 0.  1.
</event>
<event>
 7    1  0.4031943E-009  0.4778727E+02  0.7816164E-02  0.1312668E+00
        -11   -1    0    0    0    0  0.00000000000E+00  0.00000000000E+00  0.45593999997E+02  0.45594000000E+02  0.51100000000E-03 0.  1.
         11   -1    0    0    0    0 -0.00000000000E+00 -0.00000000000E+00 -0.45593999997E+02  0.45594000000E+02  0.51100000000E-03 0. -1.
    9900012    2    1    2    0    0  0.15478806357E+02  0.40480300937E+02  0.23183505102E+01  0.47787274669E+02  0.20000016524E+02 0.  0.
        -12    1    1    2    0    0 -0.15478806357E+02 -0.40480300937E+02 -0.23183505102E+01  0.43400725331E+02  0.00000000000E+00 0.  1.
         11    1    3    3    0    0  0.33082580032E+01  0.22276298446E+01 -0.34812189689E+01  0.52939391299E+01  0.51100000000E-03 0. -1.
        -11    1    3    3    0    0  0.54608996551E+01  0.13593608178E+02 -0.38986617404E+01  0.15159392203E+02  0.51100000000E-03 0.  1.
        -12    1    3    3    0    0  0.67096486983E+01  0.24659062915E+02  0.96982312196E+01  0.27333943336E+02  0.00000000000E+00 0.  1.
</event>
<event>
 7    1  0.4031943E-009  0.4778727E+02  0.7816164E-02  0.1312668E+00
        -11   -1    0    0    0    0  0.00000000000E+00  0.00000000000E+00  0.45593999997E+02  0.45594000000E+02  0.51100000000E-03 0. -1.
         11   -1    0    0    0    0 -0.00000000000E+00 -0.00000000000E+00 -0.45593999997E+02  0.45594000000E+02  0.51100000000E-03 0.  1.
    9900012    2    1    2    0    0 -0.24376562970E+02  0.35881256388E+02 -0.13935117220E+01  0.47787271237E+02  0.20000000879E+02 0.  0.
        -12    1    1    2    0    0  0.24376562970E+02 -0.35881256388E+02  0.13935117220E+01  0.43400728763E+02  0.00000000000E+00 0.  1.
         11    1    3    3    0    0 -0.50532522302E+00  0.90401883818E+00  0.65634521045E+00  0.12261292498E+01  0.51100000000E-03 0. -1.
        -11    1    3    3    0    0 -0.34266794679E+01 -0.15414383910E+01  0.24227614306E+01  0.44707871455E+01  0.51100000000E-03 0.  1.
         12    1    3    3    0    0 -0.20444558279E+02  0.36518675941E+02 -0.44726183631E+01  0.42090354842E+02  0.00000000000E+00 0. -1.
</event>
<event>
 7    1  0.4031943E-009  0.4778728E+02  0.7816164E-02  0.1312668E+00
        -11   -1    0    0    0    0  0.00000000000E+00  0.00000000000E+00  0.45593999997E+02  0.45594000000E+02  0.51100000000E-03 0.  1.
         11   -1    0    0    0    0 -0.00000000000E+00 -0.00000000000E+00 -0.45593999997E+02  0.45594000000E+02  0.51100000000E-03 0. -1.
    9900012    2    1    2    0    0  0.11383550412E+01  0.41713173611E+02 -0.11930548458E+02  0.47787277755E+02  0.20000030594E+02 0.  0.
        -12    1    1    2    0    0 -0.11383550412E+01 -0.41713173611E+02  0.11930548458E+02  0.43400722245E+02  0.00000000000E+00 0.  1.
         11    1    3    3    0    0 -0.49836293021E+01  0.21812162853E+02 -0.72186234656E+01  0.23509902899E+02  0.51100000000E-03 0. -1.
        -11    1    3    3    0    0  0.65389409902E+01  0.13101192692E+02  0.19225302093E+01  0.14768043943E+02  0.51100000000E-03 0.  1.
         12    1    3    3    0    0 -0.41695664695E+00  0.67998180663E+01 -0.66344552015E+01  0.95093309124E+01  0.00000000000E+00 0. -1.
</event>
<event>
 7    1  0.4031943E-009  0.4778727E+02  0.7816164E-02  0.1312668E+00
        -11   -1    0    0    0    0  0.00000000000E+00  0.00000000000E+00  0.45593999997E+02  0.45594000000E+02  0.51100000000E-03 0.  1.
         11   -1    0    0    0    0 -0.00000000000E+00 -0.00000000000E+00 -0.45593999997E+02  0.45594000000E+02  0.51100000000E-03 0. -1.
    9900012    2    1    2    0    0 -0.28777876125E+02 -0.68372180449E+01 -0.31760193634E+02  0.47787267235E+02  0.19999982633E+02 0.  0.
        -12    1    1    2    0    0  0.28777876125E+02  0.68372180449E+01  0.31760193634E+02  0.43400732765E+02  0.00000000000E+00 0.  1.
         11    1    3    3    0    0 -0.86527935422E+01 -0.66129260338E+01 -0.90181300484E+01  0.14139600300E+02  0.51100000000E-03 0. -1.
        -11    1    3    3    0    0  0.84091209681E+00 -0.18525514697E+01 -0.72449225399E+01  0.75251566743E+01  0.51100000000E-03 0.  1.
        -12    1    3    3    0    0 -0.20965994679E+02  0.16282594586E+01 -0.15497141046E+02  0.26122510261E+02  0.00000000000E+00 0.  1.
</event>
<event>
 7    1  0.4031943E-009  0.4778727E+02  0.7816164E-02  0.1312668E+00
        -11   -1    0    0    0    0  0.00000000000E+00  0.00000000000E+00  0.45593999997E+02  0.45594000000E+02  0.51100000000E-03 0.  1.
         11   -1    0    0    0    0 -0.00000000000E+00 -0.00000000000E+00 -0.45593999997E+02  0.45594000000E+02  0.51100000000E-03 0. -1.
    9900012    2    1    2    0    0 -0.24655790540E+01 -0.19667627170E+02 -0.38609951226E+02  0.47787274519E+02  0.20000015843E+02 0.  0.
        -12    1    1    2    0    0  0.24655790540E+01  0.19667627170E+02  0.38609951226E+02  0.43400725481E+02  0.00000000000E+00 0.  1.
         11    1    3    3    0    0 -0.57816789976E+01 -0.12873570526E+02 -0.22258184793E+02  0.26354950591E+02  0.51100000000E-03 0. -1.
        -11    1    3    3    0    0  0.19482136794E+01 -0.94000314118E+01 -0.77396800446E+01  0.12331211398E+02  0.51100000000E-03 0.  1.
         12    1    3    3    0    0  0.13678862643E+01  0.26059747680E+01 -0.86120863884E+01  0.91011125301E+01  0.00000000000E+00 0. -1.
</event>
<event>
 7    1  0.4031943E-009  0.4778727E+02  0.7816164E-02  0.1312668E+00
        -11   -1    0    0    0    0  0.00000000000E+00  0.00000000000E+00  0.45593999997E+02  0.45594000000E+02  0.51100000000E-03 0.  1.
         11   -1    0    0    0    0 -0.00000000000E+00 -0.00000000000E+00 -0.45593999997E+02  0.45594000000E+02  0.51100000000E-03 0. -1.
    9900012    2    1    2    0    0  0.37635761951E+02 -0.30017623197E+01 -0.21404718976E+02  0.47787272482E+02  0.20000006553E+02 0.  0.
        -12    1    1    2    0    0 -0.37635761951E+02  0.30017623197E+01  0.21404718976E+02  0.43400727518E+02  0.00000000000E+00 0.  1.
         11    1    3    3    0    0  0.34134805848E+02  0.27249231062E+00 -0.21013034595E+02  0.40084995267E+02  0.51100000000E-03 0. -1.
        -11    1    3    3    0    0  0.18033254919E+01 -0.10180465695E+01 -0.31404127107E+01  0.37617275156E+01  0.51100000000E-03 0.  1.
        -12    1    3    3    0    0  0.16976306109E+01 -0.22562080609E+01  0.27487283297E+01  0.39405496996E+01  0.00000000000E+00 0.  1.
</event>
<event>
 7    1  0.4031943E-009  0.4778728E+02  0.7816164E-02  0.1312668E+00
        -11   -1    0    0    0    0  0.00000000000E+00  0.00000000000E+00  0.45593999997E+02  0.45594000000E+02  0.51100000000E-03 0. -1.
         11   -1    0    0    0    0 -0.00000000000E+00 -0.00000000000E+00 -0.45593999997E+02  0.45594000000E+02  0.51100000000E-03 0.  1.
    9900012    2    1    2    0    0  0.13743456301E+02 -0.36869829403E+02  0.18312728283E+02  0.47787275024E+02  0.20000018144E+02 0.  0.
        -12    1    1    2    0    0 -0.13743456301E+02  0.36869829403E+02 -0.18312728283E+02  0.43400724976E+02  0.00000000000E+00 0.  1.
         11    1    3    3    0    0  0.89224940977E+01 -0.12378058589E+02  0.78863133294E+01  0.17176180412E+02  0.51100000000E-03 0.  1.
        -11    1    3    3    0    0  0.69238181703E+01 -0.20752194847E+02  0.13154307893E+02  0.25527018342E+02  0.51100000000E-03 0. -1.
        -12    1    3    3    0    0 -0.21028559672E+01 -0.37395759668E+01 -0.27278929394E+01  0.50840762700E+01  0.00000000000E+00 0.  1.
</event>
<event>
 7    1  0.4031943E-009  0.4778727E+02  0.7816164E-02  0.1312668E+00
        -11   -1    0    0    0    0  0.00000000000E+00  0.00000000000E+00  0.45593999997E+02  0.45594000000E+02  0.51100000000E-03 0. -1.
         11   -1    0    0    0    0 -0.00000000000E+00 -0.00000000000E+00 -0.45593999997E+02  0.45594000000E+02  0.51100000000E-03 0.  1.
    9900012    2    1    2    0    0 -0.38641492296E+02  0.11604621250E+02  0.15993472099E+02  0.47787270616E+02  0.19999998049E+02 0.  0.
        -12    1    1    2    0    0  0.38641492296E+02 -0.11604621250E+02 -0.15993472099E+02  0.43400729384E+02  0.00000000000E+00 0.  1.
         11    1    3    3    0    0 -0.55956699006E+01  0.46154120342E+01  0.10582774109E+02  0.12829990568E+02  0.51100000000E-03 0. -1.
        -11    1    3    3    0    0 -0.10875892716E+02 -0.18191953524E+00  0.40834392168E+01  0.11618632157E+02  0.51100000000E-03 0.  1.
         12    1    3    3    0    0 -0.22169929679E+02  0.71711287512E+01  0.13272587734E+01  0.23338647891E+02  0.00000000000E+00 0. -1.
</event>
<event>
 7    1  0.4031943E-009  0.4778727E+02  0.7816164E-02  0.1312668E+00
        -11   -1    0    0    0    0  0.00000000000E+00  0.00000000000E+00  0.45593999997E+02  0.45594000000E+02  0.51100000000E-03 0.  1.
         11   -1    0    0    0    0 -0.00000000000E+00 -0.00000000000E+00 -0.45593999997E+02  0.45594000000E+02  0.51100000000E-03 0. -1.
    9900012    2    1    2    0    0  0.22726446744E+02 -0.55343515083E+01 -0.36558209607E+02  0.47787272841E+02  0.20000008191E+02 0.  0.
        -12    1    1    2    0    0 -0.22726446744E+02  0.55343515083E+01  0.36558209607E+02  0.43400727159E+02  0.00000000000E+00 0.  1.
         11    1    3    3    0    0  0.12665203165E-01 -0.17225130281E+01 -0.71567077768E+00  0.18653140386E+01  0.51100000000E-03 0. -1.
        -11    1    3    3    0    0 -0.17987577310E+01  0.18573610158E+00  0.52487337366E+00  0.18829550164E+01  0.51100000000E-03 0.  1.
         12    1    3    3    0    0  0.24512539272E+02 -0.39975745818E+01 -0.36367412203E+02  0.44039003786E+02  0.00000000000E+00 0. -1.
</event>
<event>
 7    1  0.4031943E-009  0.4778727E+02  0.7816164E-02  0.1312668E+00
        -11   -1    0    0    0    0  0.00000000000E+00  0.00000000000E+00  0.45593999997E+02  0.45594000000E+02  0.51100000000E-03 0.  1.
         11   -1    0    0    0    0 -0.00000000000E+00 -0.00000000000E+00 -0.45593999997E+02  0.45594000000E+02  0.51100000000E-03 0. -1.
    9900012    2    1    2    0    0 -0.10712445436E+02  0.90281221655E+01 -0.41077487226E+02  0.47787269201E+02  0.19999991596E+02 0.  0.
        -12    1    1    2    0    0  0.10712445436E+02 -0.90281221655E+01  0.41077487226E+02  0.43400730799E+02  0.00000000000E+00 0.  1.
         11    1    3    3    0    0  0.25416290781E+01 -0.34208219296E+01 -0.10844556638E+02  0.11651880105E+02  0.51100000000E-03 0. -1.
        -11    1    3    3    0    0 -0.29877223026E+01  0.19524566955E+01 -0.15060923735E+01  0.38738722493E+01  0.51100000000E-03 0.  1.
         12    1    3    3    0    0 -0.10266352211E+02  0.10496487400E+02 -0.28726838215E+02  0.32261516847E+02  0.00000000000E+00 0. -1.
</event>
<event>
 7    1  0.4031943E-009  0.4778727E+02  0.7816164E-02  0.1312668E+00
        -11   -1    0    0    0    0  0.00000000000E+00  0.00000000000E+00  0.45593999997E+02  0.45594000000E+02  0.51100000000E-03 0. -1.
         11   -1    0    0    0    0 -0.00000000000E+00 -0.00000000000E+00 -0.45593999997E+02  0.45594000000E+02  0.51100000000E-03 0.  1.
    9900012    2    1    2    0    0  0.27421824064E+02 -0.23796906760E+02  0.23777599597E+02  0.47787269027E+02  0.19999990804E+02 0.  0.
        -12    1    1    2    0    0 -0.27421824064E+02  0.23796906760E+02 -0.23777599597E+02  0.43400730973E+02  0.00000000000E+00 0.  1.
         11    1    3    3    0    0  0.74313169244E+01 -0.77505249660E+01  0.53438371614E+01  0.11993819423E+02  0.51100000000E-03 0. -1.
        -11    1    3    3    0    0 -0.72653289130E+00 -0.34698028224E+01  0.91982456395E+01  0.98577433916E+01  0.51100000000E-03 0.  1.
        -12    1    3    3    0    0  0.20717040031E+02 -0.12576578972E+02  0.92355167962E+01  0.25935706213E+02  0.00000000000E+00 0.  1.
</event>
<event>
 7    1  0.4031943E-009  0.4778727E+02  0.7816164E-02  0.1312668E+00
        -11   -1    0    0    0    0  0.00000000000E+00  0.00000000000E+00  0.45593999997E+02  0.45594000000E+02  0.51100000000E-03 0.  1.
         11   -1    0    0    0    0 -0.00000000000E+00 -0.00000000000E+00 -0.45593999997E+02  0.45594000000E+02  0.51100000000E-03 0. -1.
    9900012    2    1    2    0    0  0.31353653487E-02  0.25795265705E+02 -0.34903118589E+02  0.47787269247E+02  0.19999991805E+02 0.  0.
        -12    1    1    2    0    0 -0.31353653487E-02 -0.25795265705E+02  0.34903118589E+02  0.43400730753E+02  0.00000000000E+00 0.  1.
         11    1    3    3    0    0 -0.40935919641E+01  0.14788422872E+02 -0.19254968585E+02  0.24621307067E+02  0.51100000000E-03 0. -1.
        -11    1    3    3    0    0 -0.19217226946E+00  0.10484373227E+02 -0.48853348690E+01  0.11568297592E+02  0.51100000000E-03 0.  1.
        -12    1    3    3    0    0  0.42888995989E+01  0.52246960621E+00 -0.10762815135E+02  0.11597664588E+02  0.00000000000E+00 0.  1.
</event>
<event>
 7    1  0.4031943E-009  0.4778728E+02  0.7816164E-02  0.1312668E+00
        -11   -1    0    0    0    0  0.00000000000E+00  0.00000000000E+00  0.45593999997E+02  0.45594000000E+02  0.51100000000E-03 0.  1.
         11   -1    0    0    0    0 -0.00000000000E+00 -0.00000000000E+00 -0.45593999997E+02  0.45594000000E+02  0.51100000000E-03 0. -1.
    9900012    2    1    2    0    0 -0.22851110266E+02 -0.17924233286E+02 -0.32251687269E+02  0.47787277530E+02  0.20000029569E+02 0.  0.
        -12    1    1    2    0    0  0.22851110266E+02  0.17924233286E+02  0.32251687269E+02  0.43400722470E+02  0.00000000000E+00 0.  1.
         11    1    3    3    0    0 -0.90824991636E+01 -0.13506936367E+02 -0.69221426222E+01  0.17687429995E+02  0.51100000000E-03 0. -1.
        -11    1    3    3    0    0 -0.23721491812E+01 -0.42317403898E+01 -0.70490002916E+01  0.85570511180E+01  0.51100000000E-03 0.  1.
        -12    1    3    3    0    0 -0.11396461921E+02 -0.18555652865E+00 -0.18280544355E+02  0.21542796417E+02  0.00000000000E+00 0.  1.
</event>
<event>
 7    1  0.4031943E-009  0.4778727E+02  0.7816164E-02  0.1312668E+00
        -11   -1    0    0    0    0  0.00000000000E+00  0.00000000000E+00  0.45593999997E+02  0.45594000000E+02  0.51100000000E-03 0. -1.
         11   -1    0    0    0    0 -0.00000000000E+00 -0.00000000000E+00 -0.45593999997E+02  0.45594000000E+02  0.51100000000E-03 0.  1.
    9900012    2    1    2    0    0  0.18859513187E+02 -0.39086711091E+02 -0.41332529146E+00  0.47787273515E+02  0.20000011267E+02 0.  0.
        -12    1    1    2    0    0 -0.18859513187E+02  0.39086711091E+02  0.41332529146E+00  0.43400726485E+02  0.00000000000E+00 0.  1.
         11    1    3    3    0    0  0.24977026720E+01  0.63168298137E+00  0.17574897149E+01  0.31187036387E+01  0.51100000000E-03 0. -1.
        -11    1    3    3    0    0  0.49478831352E+01 -0.76561230646E+01 -0.52103507041E+01  0.10499786789E+02  0.51100000000E-03 0.  1.
         12    1    3    3    0    0  0.11413927380E+02 -0.32062271008E+02  0.30395356977E+01  0.34168783088E+02  0.00000000000E+00 0. -1.
</event>
<event>
 7    1  0.4031943E-009  0.4778727E+02  0.7816164E-02  0.1312668E+00
        -11   -1    0    0    0    0  0.00000000000E+00  0.00000000000E+00  0.45593999997E+02  0.45594000000E+02  0.51100000000E-03 0.  1.
         11   -1    0    0    0    0 -0.00000000000E+00 -0.00000000000E+00 -0.45593999997E+02  0.45594000000E+02  0.51100000000E-03 0. -1.
    9900012    2    1    2    0    0 -0.28103299110E+02  0.21382109340E+02  0.25231595424E+02  0.47787269265E+02  0.19999991887E+02 0.  0.
        -12    1    1    2    0    0  0.28103299110E+02 -0.21382109340E+02 -0.25231595424E+02  0.43400730735E+02  0.00000000000E+00 0.  1.
         11    1    3    3    0    0 -0.26558267448E+02  0.19242986143E+02  0.28245054808E+02  0.43282989810E+02  0.51100000000E-03 0.  1.
        -11    1    3    3    0    0 -0.15961165588E+01  0.17465093482E+01 -0.12091705016E+01  0.26570616357E+01  0.51100000000E-03 0. -1.
        -12    1    3    3    0    0  0.51084896237E-01  0.39261384858E+00 -0.18042888824E+01  0.18472178193E+01  0.00000000000E+00 0.  1.
</event>
<event>
 7    1  0.5469698E-009  0.4778727E+02  0.7816164E-02  0.1312668E+00
        -11   -1    0    0    0    0  0.00000000000E+00  0.00000000000E+00  0.45593999997E+02  0.45594000000E+02  0.51100000000E-03 0.  1.
         11   -1    0    0    0    0 -0.00000000000E+00 -0.00000000000E+00 -0.45593999997E+02  0.45594000000E+02  0.51100000000E-03 0. -1.
    9900012    2    1    2    0    0 -0.38999247775E+02  0.14366134965E+02  0.12501839915E+02  0.47787272332E+02  0.20000005869E+02 0.  0.
        -12    1    1    2    0    0  0.38999247775E+02 -0.14366134965E+02 -0.12501839915E+02  0.43400727668E+02  0.00000000000E+00 0.  1.
         11    1    3    3    0    0 -0.22819676777E+02  0.57190991600E+01  0.12428368536E+01  0.23558233956E+02  0.51100000000E-03 0. -1.
        -11    1    3    3    0    0 -0.35388016247E+01  0.19262620452E+01 -0.21904966129E+01  0.45860525594E+01  0.51100000000E-03 0.  1.
        -12    1    3    3    0    0 -0.12640769374E+02  0.67207737597E+01  0.13449499675E+02  0.19642985817E+02  0.00000000000E+00 0.  1.
</event>
<event>
 7    1  0.4298713E-009  0.4778727E+02  0.7816164E-02  0.1312668E+00
        -11   -1    0    0    0    0  0.00000000000E+00  0.00000000000E+00  0.45593999997E+02  0.45594000000E+02  0.51100000000E-03 0.  1.
         11   -1    0    0    0    0 -0.00000000000E+00 -0.00000000000E+00 -0.45593999997E+02  0.45594000000E+02  0.51100000000E-03 0. -1.
    9900012    2    1    2    0    0  0.20387304585E+02  0.30284177850E+02 -0.23470187408E+02  0.47787270591E+02  0.19999997932E+02 0.  0.
        -12    1    1    2    0    0 -0.20387304585E+02 -0.30284177850E+02  0.23470187408E+02  0.43400729409E+02  0.00000000000E+00 0.  1.
         11    1    3    3    0    0  0.13152156613E+02  0.16332198880E+02 -0.17423964354E+02  0.27263794268E+02  0.51100000000E-03 0. -1.
        -11    1    3    3    0    0  0.10317966485E+02  0.85814766997E+01 -0.41233507246E+01  0.14039380193E+02  0.51100000000E-03 0.  1.
        -12    1    3    3    0    0 -0.30828185135E+01  0.53705022706E+01 -0.19228723295E+01  0.64840961299E+01  0.00000000000E+00 0.  1.
</event>
<event>
 7    1  0.4031943E-009  0.4778727E+02  0.7816164E-02  0.1312668E+00
        -11   -1    0    0    0    0  0.00000000000E+00  0.00000000000E+00  0.45593999997E+02  0.45594000000E+02  0.51100000000E-03 0.  1.
         11   -1    0    0    0    0 -0.00000000000E+00 -0.00000000000E+00 -0.45593999997E+02  0.45594000000E+02  0.51100000000E-03 0. -1.
    9900012    2    1    2    0    0  0.18436009868E+01  0.30256569542E+02 -0.31060652072E+02  0.47787274520E+02  0.20000015849E+02 0.  0.
        -12    1    1    2    0    0 -0.18436009868E+01 -0.30256569542E+02  0.31060652072E+02  0.43400725480E+02  0.00000000000E+00 0.  1.
         11    1    3    3    0    0  0.15834874724E+01  0.17429142385E+02 -0.75726141800E+01  0.19069004238E+02  0.51100000000E-03 0. -1.
        -11    1    3    3    0    0  0.18227919164E+01 -0.90691274226E+00 -0.87720706592E+00  0.22168792457E+01  0.51100000000E-03 0.  1.
         12    1    3    3    0    0 -0.15626784020E+01  0.13734339899E+02 -0.22610830826E+02  0.26501391037E+02  0.00000000000E+00 0. -1.
</event>
<event>
 7    1  0.4031943E-009  0.4778727E+02  0.7816164E-02  0.1312668E+00
        -11   -1    0    0    0    0  0.00000000000E+00  0.00000000000E+00  0.45593999997E+02  0.45594000000E+02  0.51100000000E-03 0. -1.
         11   -1    0    0    0    0 -0.00000000000E+00 -0.00000000000E+00 -0.45593999997E+02  0.45594000000E+02  0.51100000000E-03 0.  1.
    9900012    2    1    2    0    0 -0.38734811284E+02  0.10085643201E+02  0.16778475862E+02  0.47787273552E+02  0.20000011433E+02 0.  0.
        -12    1    1    2    0    0  0.38734811284E+02 -0.10085643201E+02 -0.16778475862E+02  0.43400726448E+02  0.00000000000E+00 0.  1.
         11    1    3    3    0    0 -0.19592181062E+02  0.32115458902E+01  0.77591911779E+01  0.21316018244E+02  0.51100000000E-03 0. -1.
        -11    1    3    3    0    0 -0.16934762874E+02  0.71515041158E+01  0.12900614505E+01  0.18428088982E+02  0.51100000000E-03 0.  1.
        -12    1    3    3    0    0 -0.22078673474E+01 -0.27740680534E+00  0.77292232331E+01  0.80431663259E+01  0.00000000000E+00 0.  1.
</event>
<event>
 7    1  0.4031943E-009  0.4778727E+02  0.7816164E-02  0.1312668E+00
        -11   -1    0    0    0    0  0.00000000000E+00  0.00000000000E+00  0.45593999997E+02  0.45594000000E+02  0.51100000000E-03 0.  1.
         11   -1    0    0    0    0 -0.00000000000E+00 -0.00000000000E+00 -0.45593999997E+02  0.45594000000E+02  0.51100000000E-03 0. -1.
    9900012    2    1    2    0    0  0.60954532872E+01  0.20502068100E+02 -0.37764191497E+02  0.47787268363E+02  0.19999987775E+02 0.  0.
        -12    1    1    2    0    0 -0.60954532872E+01 -0.20502068100E+02  0.37764191497E+02  0.43400731637E+02  0.00000000000E+00 0.  1.
         11    1    3    3    0    0  0.26654057150E+01  0.12540060976E+02 -0.17015675015E+02  0.21304711061E+02  0.51100000000E-03 0. -1.
        -11    1    3    3    0    0  0.46010561503E+01  0.10594776035E+02 -0.20575429551E+02  0.23595916986E+02  0.51100000000E-03 0.  1.
        -12    1    3    3    0    0 -0.11710085782E+01 -0.26327689113E+01 -0.17308693128E+00  0.28866403164E+01  0.00000000000E+00 0.  1.
</event>
<event>
 7    1  0.4031943E-009  0.4778728E+02  0.7816164E-02  0.1312668E+00
        -11   -1    0    0    0    0  0.00000000000E+00  0.00000000000E+00  0.45593999997E+02  0.45594000000E+02  0.51100000000E-03 0.  1.
         11   -1    0    0    0    0 -0.00000000000E+00 -0.00000000000E+00 -0.45593999997E+02  0.45594000000E+02  0.51100000000E-03 0. -1.
    9900012    2    1    2    0    0 -0.57371957284E+01 -0.39850558466E+02 -0.16206171777E+02  0.47787280783E+02  0.20000044402E+02 0.  0.
        -12    1    1    2    0    0  0.57371957284E+01  0.39850558466E+02  0.16206171777E+02  0.43400719217E+02  0.00000000000E+00 0.  1.
         11    1    3    3    0    0  0.48853278007E+01 -0.23967687953E+02 -0.34268124771E+01  0.24699383343E+02  0.51100000000E-03 0. -1.
        -11    1    3    3    0    0 -0.19743686191E+01 -0.16999952385E+01 -0.14633173523E+01  0.29882123735E+01  0.51100000000E-03 0.  1.
         12    1    3    3    0    0 -0.86481549100E+01 -0.14182875275E+02 -0.11316041948E+02  0.20099685066E+02  0.00000000000E+00 0. -1.
</event>
<event>
 7    1  0.4031943E-009  0.4778727E+02  0.7816164E-02  0.1312668E+00
        -11   -1    0    0    0    0  0.00000000000E+00  0.00000000000E+00  0.45593999997E+02  0.45594000000E+02  0.51100000000E-03 0.  1.
         11   -1    0    0    0    0 -0.00000000000E+00 -0.00000000000E+00 -0.45593999997E+02  0.45594000000E+02  0.51100000000E-03 0. -1.
    9900012    2    1    2    0    0 -0.26708208617E+02 -0.34100640739E+02 -0.27278273954E+01  0.47787272487E+02  0.20000006578E+02 0.  0.
        -12    1    1    2    0    0  0.26708208617E+02  0.34100640739E+02  0.27278273954E+01  0.43400727513E+02  0.00000000000E+00 0.  1.
         11    1    3    3    0    0  0.15824303859E+00  0.15755922122E+00  0.38977236982E+00  0.44920878091E+00  0.51100000000E-03 0. -1.
        -11    1    3    3    0    0  0.19817654750E+01  0.51152759182E+00 -0.32863970017E+00  0.20729349215E+01  0.51100000000E-03 0.  1.
         12    1    3    3    0    0 -0.28848217131E+02 -0.34769727552E+02 -0.27889600650E+01  0.45265128785E+02  0.00000000000E+00 0. -1.
</event>
<event>
 7    1  0.4031943E-009  0.4778726E+02  0.7816164E-02  0.1312668E+00
        -11   -1    0    0    0    0  0.00000000000E+00  0.00000000000E+00  0.45593999997E+02  0.45594000000E+02  0.51100000000E-03 0. -1.
         11   -1    0    0    0    0 -0.00000000000E+00 -0.00000000000E+00 -0.45593999997E+02  0.45594000000E+02  0.51100000000E-03 0.  1.
    9900012    2    1    2    0    0  0.14695756468E+01 -0.33116007661E+02  0.28014186717E+02  0.47787259530E+02  0.19999947499E+02 0.  0.
        -12    1    1    2    0    0 -0.14695756468E+01  0.33116007661E+02 -0.28014186717E+02  0.43400740470E+02  0.00000000000E+00 0.  1.
         11    1    3    3    0    0  0.15809649590E+00 -0.33454136017E+02  0.28630071528E+02  0.44032774238E+02  0.51100000000E-03 0. -1.
        -11    1    3    3    0    0  0.14557029623E+01 -0.11951334276E+00  0.11912148315E+01  0.18847672507E+01  0.51100000000E-03 0.  1.
         12    1    3    3    0    0 -0.14422381138E+00  0.45764169826E+00 -0.18070996433E+01  0.18697180409E+01  0.00000000000E+00 0. -1.
</event>
<event>
 7    1  0.4031943E-009  0.4778727E+02  0.7816164E-02  0.1312668E+00
        -11   -1    0    0    0    0  0.00000000000E+00  0.00000000000E+00  0.45593999997E+02  0.45594000000E+02  0.51100000000E-03 0. -1.
         11   -1    0    0    0    0 -0.00000000000E+00 -0.00000000000E+00 -0.45593999997E+02  0.45594000000E+02  0.51100000000E-03 0.  1.
    9900012    2    1    2    0    0 -0.35082640616E+02 -0.24459080743E+02  0.73881474965E+01  0.47787273891E+02  0.20000012979E+02 0.  0.
        -12    1    1    2    0    0  0.35082640616E+02  0.24459080743E+02 -0.73881474965E+01  0.43400726109E+02  0.00000000000E+00 0.  1.
         11    1    3    3    0    0 -0.18430720519E+02 -0.15174235729E+02  0.24389097692E+01  0.23997857612E+02  0.51100000000E-03 0. -1.
        -11    1    3    3    0    0 -0.12803530896E+02 -0.42934969638E+01 -0.28094351069E+01  0.13793384120E+02  0.51100000000E-03 0.  1.
         12    1    3    3    0    0 -0.38483891999E+01 -0.49913480494E+01  0.77586728342E+01  0.99960321595E+01  0.00000000000E+00 0. -1.
</event>
<event>
 7    1  0.4031943E-009  0.4778729E+02  0.7816164E-02  0.1312668E+00
        -11   -1    0    0    0    0  0.00000000000E+00  0.00000000000E+00  0.45593999997E+02  0.45594000000E+02  0.51100000000E-03 0.  1.
         11   -1    0    0    0    0 -0.00000000000E+00 -0.00000000000E+00 -0.45593999997E+02  0.45594000000E+02  0.51100000000E-03 0. -1.
    9900012    2    1    2    0    0 -0.74517755113E+01  0.34189030581E+02 -0.25674950256E+02  0.47787287553E+02  0.20000075267E+02 0.  0.
        -12    1    1    2    0    0  0.74517755113E+01 -0.34189030581E+02  0.25674950256E+02  0.43400712447E+02  0.00000000000E+00 0.  1.
         11    1    3    3    0    0 -0.81504067261E+00  0.76706249930E+01 -0.16698864195E+00  0.77156117417E+01  0.51100000000E-03 0.  1.
        -11    1    3    3    0    0 -0.47069009425E+01  0.18566821044E+02 -0.25495930521E+02  0.31889249498E+02  0.51100000000E-03 0. -1.
         12    1    3    3    0    0 -0.19298338962E+01  0.79515845431E+01 -0.12031093116E-01  0.81824263125E+01  0.00000000000E+00 0. -1.
</event>
<event>
 7    1  0.4031943E-009  0.4778723E+02  0.7816164E-02  0.1312668E+00
        -11   -1    0    0    0    0  0.00000000000E+00  0.00000000000E+00  0.45593999997E+02  0.45594000000E+02  0.51100000000E-03 0.  1.
         11   -1    0    0    0    0 -0.00000000000E+00 -0.00000000000E+00 -0.45593999997E+02  0.45594000000E+02  0.51100000000E-03 0. -1.
    9900012    2    1    2    0    0 -0.12000693207E+01 -0.42433579387E+02  0.90320426371E+01  0.47787232493E+02  0.19999824229E+02 0.  0.
        -12    1    1    2    0    0  0.12000693207E+01  0.42433579387E+02 -0.90320426371E+01  0.43400767507E+02  0.00000000000E+00 0.  1.
         11    1    3    3    0    0  0.27358387848E+01 -0.26533928315E+02  0.37311674977E+01  0.26934286269E+02  0.51100000000E-03 0. -1.
        -11    1    3    3    0    0  0.25075767704E+01 -0.68698929925E+01  0.63833478639E+01  0.97072396283E+01  0.51100000000E-03 0.  1.
        -12    1    3    3    0    0 -0.64434848760E+01 -0.90297580799E+01 -0.10824727244E+01  0.11145706596E+02  0.00000000000E+00 0.  1.
</event>
<event>
 7    1  0.4031943E-009  0.4778725E+02  0.7816164E-02  0.1312668E+00
        -11   -1    0    0    0    0  0.00000000000E+00  0.00000000000E+00  0.45593999997E+02  0.45594000000E+02  0.51100000000E-03 0.  1.
         11   -1    0    0    0    0 -0.00000000000E+00 -0.00000000000E+00 -0.45593999997E+02  0.45594000000E+02  0.51100000000E-03 0. -1.
    9900012    2    1    2    0    0 -0.39824722275E+02 -0.16046303388E+01 -0.17176770988E+02  0.47787253412E+02  0.19999919608E+02 0.  0.
        -12    1    1    2    0    0  0.39824722275E+02  0.16046303388E+01  0.17176770988E+02  0.43400746588E+02  0.00000000000E+00 0.  1.
         11    1    3    3    0    0 -0.88683427225E+01  0.31078967151E+01  0.10839013698E+01  0.94594591323E+01  0.51100000000E-03 0. -1.
        -11    1    3    3    0    0  0.11362542922E+01  0.29602105701E+00 -0.10163085383E+01  0.15529280695E+01  0.51100000000E-03 0.  1.
         12    1    3    3    0    0 -0.32092633845E+02 -0.50085481110E+01 -0.17244363819E+02  0.36774866211E+02  0.00000000000E+00 0. -1.
</event>
<event>
 7    1  0.4031943E-009  0.4778726E+02  0.7816164E-02  0.1312668E+00
        -11   -1    0    0    0    0  0.00000000000E+00  0.00000000000E+00  0.45593999997E+02  0.45594000000E+02  0.51100000000E-03 0.  1.
         11   -1    0    0    0    0 -0.00000000000E+00 -0.00000000000E+00 -0.45593999997E+02  0.45594000000E+02  0.51100000000E-03 0. -1.
    9900012    2    1    2    0    0 -0.15274574181E+02  0.20526170779E+02 -0.35056918909E+02  0.47787264216E+02  0.19999968864E+02 0.  0.
        -12    1    1    2    0    0  0.15274574181E+02 -0.20526170779E+02  0.35056918909E+02  0.43400735784E+02  0.00000000000E+00 0.  1.
         11    1    3    3    0    0 -0.39078383036E+01  0.85836644668E+01 -0.79116089677E+01  0.12310323010E+02  0.51100000000E-03 0. -1.
        -11    1    3    3    0    0 -0.89954544106E+01  0.15001656360E+02 -0.16101445590E+02  0.23774449393E+02  0.51100000000E-03 0.  1.
         12    1    3    3    0    0 -0.23712814671E+01 -0.30591500484E+01 -0.11043864351E+02  0.11702491813E+02  0.00000000000E+00 0. -1.
</event>
<event>
 7    1  0.4031943E-009  0.4778727E+02  0.7816164E-02  0.1312668E+00
        -11   -1    0    0    0    0  0.00000000000E+00  0.00000000000E+00  0.45593999997E+02  0.45594000000E+02  0.51100000000E-03 0.  1.
         11   -1    0    0    0    0 -0.00000000000E+00 -0.00000000000E+00 -0.45593999997E+02  0.45594000000E+02  0.51100000000E-03 0. -1.
    9900012    2    1    2    0    0  0.26880620038E+01  0.12757914328E+02 -0.41396053254E+02  0.47787270970E+02  0.19999999661E+02 0.  0.
        -12    1    1    2    0    0 -0.26880620038E+01 -0.12757914328E+02  0.41396053254E+02  0.43400729030E+02  0.00000000000E+00 0.  1.
         11    1    3    3    0    0  0.59639068729E+01  0.45933366674E+01 -0.10470640132E+02  0.12895783496E+02  0.51100000000E-03 0. -1.
        -11    1    3    3    0    0  0.33871958428E+01  0.73650094647E+01 -0.97594530138E+01  0.12687134565E+02  0.51100000000E-03 0.  1.
         12    1    3    3    0    0 -0.66630407119E+01  0.79956819626E+00 -0.21165960107E+02  0.22204352909E+02  0.00000000000E+00 0. -1.
</event>
<event>
 7    1  0.4031943E-009  0.4778726E+02  0.7816164E-02  0.1312668E+00
        -11   -1    0    0    0    0  0.00000000000E+00  0.00000000000E+00  0.45593999997E+02  0.45594000000E+02  0.51100000000E-03 0.  1.
         11   -1    0    0    0    0 -0.00000000000E+00 -0.00000000000E+00 -0.45593999997E+02  0.45594000000E+02  0.51100000000E-03 0. -1.
    9900012    2    1    2    0    0  0.14343868781E+02  0.40869159532E+02 -0.27548758003E+01  0.47787261376E+02  0.19999955917E+02 0.  0.
        -12    1    1    2    0    0 -0.14343868781E+02 -0.40869159532E+02  0.27548758003E+01  0.43400738624E+02  0.00000000000E+00 0.  1.
         11    1    3    3    0    0  0.86618108966E+01  0.47971571986E+01  0.38009281597E+00  0.99087918541E+01  0.51100000000E-03 0. -1.
        -11    1    3    3    0    0  0.53624122708E+01  0.15831734859E+02  0.24146217747E+01  0.16888744553E+02  0.51100000000E-03 0.  1.
        -12    1    3    3    0    0  0.31964561392E+00  0.20240267474E+02 -0.55495903910E+01  0.20989724969E+02  0.00000000000E+00 0.  1.
</event>
<event>
 7    1  0.4031943E-009  0.4778727E+02  0.7816164E-02  0.1312668E+00
        -11   -1    0    0    0    0  0.00000000000E+00  0.00000000000E+00  0.45593999997E+02  0.45594000000E+02  0.51100000000E-03 0.  1.
         11   -1    0    0    0    0 -0.00000000000E+00 -0.00000000000E+00 -0.45593999997E+02  0.45594000000E+02  0.51100000000E-03 0. -1.
    9900012    2    1    2    0    0 -0.27845661626E+02  0.29914398676E+02 -0.14607240653E+02  0.47787267299E+02  0.19999982921E+02 0.  0.
        -12    1    1    2    0    0  0.27845661626E+02 -0.29914398676E+02  0.14607240653E+02  0.43400732701E+02  0.00000000000E+00 0.  1.
         11    1    3    3    0    0 -0.11361907445E+02  0.12814389815E+02 -0.77794196061E+01  0.18810127506E+02  0.51100000000E-03 0. -1.
        -11    1    3    3    0    0 -0.38920332265E+01  0.14484741559E+02 -0.57813338812E+01  0.16074186834E+02  0.51100000000E-03 0.  1.
        -12    1    3    3    0    0 -0.12591720955E+02  0.26152673013E+01 -0.10464871660E+01  0.12902952958E+02  0.00000000000E+00 0.  1.
</event>
<event>
 7    1  0.4031943E-009  0.4778727E+02  0.7816164E-02  0.1312668E+00
        -11   -1    0    0    0    0  0.00000000000E+00  0.00000000000E+00  0.45593999997E+02  0.45594000000E+02  0.51100000000E-03 0.  1.
         11   -1    0    0    0    0 -0.00000000000E+00 -0.00000000000E+00 -0.45593999997E+02  0.45594000000E+02  0.51100000000E-03 0. -1.
    9900012    2    1    2    0    0 -0.24803378436E+02 -0.43242097460E-01 -0.35614797207E+02  0.47787271529E+02  0.20000002209E+02 0.  0.
        -12    1    1    2    0    0  0.24803378436E+02  0.43242097460E-01  0.35614797207E+02  0.43400728471E+02  0.00000000000E+00 0.  1.
         11    1    3    3    0    0 -0.88631591556E+01 -0.72920404329E+01 -0.19333420175E+02  0.22483562436E+02  0.51100000000E-03 0. -1.
        -11    1    3    3    0    0  0.25088007517E+00 -0.55082650304E+00 -0.27275149964E+01  0.27938663113E+01  0.51100000000E-03 0.  1.
        -12    1    3    3    0    0 -0.16191099356E+02  0.77996248385E+01 -0.13553862036E+02  0.22509842781E+02  0.00000000000E+00 0.  1.
</event>
<event>
 7    1  0.4031943E-009  0.4778727E+02  0.7816164E-02  0.1312668E+00
        -11   -1    0    0    0    0  0.00000000000E+00  0.00000000000E+00  0.45593999997E+02  0.45594000000E+02  0.51100000000E-03 0.  1.
         11   -1    0    0    0    0 -0.00000000000E+00 -0.00000000000E+00 -0.45593999997E+02  0.45594000000E+02  0.51100000000E-03 0. -1.
    9900012    2    1    2    0    0  0.13490540678E+01 -0.35561233442E+02  0.24843546581E+02  0.47787273306E+02  0.20000010314E+02 0.  0.
        -12    1    1    2    0    0 -0.13490540678E+01  0.35561233442E+02 -0.24843546581E+02  0.43400726694E+02  0.00000000000E+00 0.  1.
         11    1    3    3    0    0  0.29526156109E+01 -0.16126680267E+01  0.61567571123E+01  0.70160028158E+01  0.51100000000E-03 0. -1.
        -11    1    3    3    0    0  0.57678705239E+00 -0.12828851694E+02  0.14058253462E+02  0.19040656757E+02  0.51100000000E-03 0.  1.
         12    1    3    3    0    0 -0.21803485955E+01 -0.21119713721E+02  0.46285360071E+01  0.21730613733E+02  0.00000000000E+00 0. -1.
</event>
<event>
 7    1  0.4031943E-009  0.4778727E+02  0.7816164E-02  0.1312668E+00
        -11   -1    0    0    0    0  0.00000000000E+00  0.00000000000E+00  0.45593999997E+02  0.45594000000E+02  0.51100000000E-03 0.  1.
         11   -1    0    0    0    0 -0.00000000000E+00 -0.00000000000E+00 -0.45593999997E+02  0.45594000000E+02  0.51100000000E-03 0. -1.
    9900012    2    1    2    0    0  0.27134364694E+02 -0.33247557392E+02  0.64768411363E+01  0.47787270847E+02  0.19999999101E+02 0.  0.
        -12    1    1    2    0    0 -0.27134364694E+02  0.33247557392E+02 -0.64768411363E+01  0.43400729153E+02  0.00000000000E+00 0.  1.
         11    1    3    3    0    0 -0.26494531730E+00 -0.62345042015E+01 -0.80667761621E+00  0.62920559197E+01  0.51100000000E-03 0. -1.
        -11    1    3    3    0    0  0.51822654333E+01 -0.14024393422E+02  0.44784279573E+01  0.15607555962E+02  0.51100000000E-03 0.  1.
         12    1    3    3    0    0  0.22217044578E+02 -0.12988659769E+02  0.28050907953E+01  0.25887658966E+02  0.00000000000E+00 0. -1.
</event>
<event>
 7    1  0.4031943E-009  0.4778727E+02  0.7816164E-02  0.1312668E+00
        -11   -1    0    0    0    0  0.00000000000E+00  0.00000000000E+00  0.45593999997E+02  0.45594000000E+02  0.51100000000E-03 0.  1.
         11   -1    0    0    0    0 -0.00000000000E+00 -0.00000000000E+00 -0.45593999997E+02  0.45594000000E+02  0.51100000000E-03 0. -1.
    9900012    2    1    2    0    0 -0.16415407431E+01  0.30173471173E+02 -0.31152696916E+02  0.47787267935E+02  0.19999985823E+02 0.  0.
        -12    1    1    2    0    0  0.16415407431E+01 -0.30173471173E+02  0.31152696916E+02  0.43400732065E+02  0.00000000000E+00 0.  1.
         11    1    3    3    0    0 -0.46915039295E+01  0.75588048201E+00 -0.24692695391E+01  0.53552643951E+01  0.51100000000E-03 0. -1.
        -11    1    3    3    0    0  0.36822143953E+01  0.28981696266E+01 -0.52491888523E+01  0.70364816425E+01  0.51100000000E-03 0.  1.
         12    1    3    3    0    0 -0.63225120897E+00  0.26519421064E+02 -0.23434238525E+02  0.35395521898E+02  0.00000000000E+00 0. -1.
</event>
<event>
 7    1  0.4031943E-009  0.4778727E+02  0.7816164E-02  0.1312668E+00
        -11   -1    0    0    0    0  0.00000000000E+00  0.00000000000E+00  0.45593999997E+02  0.45594000000E+02  0.51100000000E-03 0.  1.
         11   -1    0    0    0    0 -0.00000000000E+00 -0.00000000000E+00 -0.45593999997E+02  0.45594000000E+02  0.51100000000E-03 0. -1.
    9900012    2    1    2    0    0 -0.63975820708E+01 -0.25818608331E+02 -0.34294229653E+02  0.47787265214E+02  0.19999973417E+02 0.  0.
        -12    1    1    2    0    0  0.63975820708E+01  0.25818608331E+02  0.34294229653E+02  0.43400734786E+02  0.00000000000E+00 0.  1.
         11    1    3    3    0    0  0.31789409581E+01 -0.68255923528E+01 -0.31809596584E+01  0.81739146797E+01  0.51100000000E-03 0. -1.
        -11    1    3    3    0    0 -0.61990339726E+01 -0.66466648642E+01 -0.46325551372E+01  0.10201310865E+02  0.51100000000E-03 0.  1.
         12    1    3    3    0    0 -0.33774890563E+01 -0.12346351114E+02 -0.26480714857E+02  0.29412039669E+02  0.00000000000E+00 0. -1.
</event>
<event>
 7    1  0.4031943E-009  0.4778727E+02  0.7816164E-02  0.1312668E+00
        -11   -1    0    0    0    0  0.00000000000E+00  0.00000000000E+00  0.45593999997E+02  0.45594000000E+02  0.51100000000E-03 0. -1.
         11   -1    0    0    0    0 -0.00000000000E+00 -0.00000000000E+00 -0.45593999997E+02  0.45594000000E+02  0.51100000000E-03 0.  1.
    9900012    2    1    2    0    0  0.68131829979E+01 -0.30505333461E+02  0.30110270993E+02  0.47787271303E+02  0.20000001179E+02 0.  0.
        -12    1    1    2    0    0 -0.68131829979E+01  0.30505333461E+02 -0.30110270993E+02  0.43400728697E+02  0.00000000000E+00 0.  1.
         11    1    3    3    0    0  0.11138799845E+02 -0.21019699963E+02  0.15119246421E+02  0.28186739100E+02  0.51100000000E-03 0. -1.
        -11    1    3    3    0    0  0.55715560081E+00 -0.60592433337E+01  0.46335728625E+01  0.76481925887E+01  0.51100000000E-03 0.  1.
        -12    1    3    3    0    0 -0.48827724475E+01 -0.34263901644E+01  0.10357451710E+02  0.11952339614E+02  0.00000000000E+00 0.  1.
</event>
<event>
 7    1  0.4031943E-009  0.4778727E+02  0.7816164E-02  0.1312668E+00
        -11   -1    0    0    0    0  0.00000000000E+00  0.00000000000E+00  0.45593999997E+02  0.45594000000E+02  0.51100000000E-03 0.  1.
         11   -1    0    0    0    0 -0.00000000000E+00 -0.00000000000E+00 -0.45593999997E+02  0.45594000000E+02  0.51100000000E-03 0. -1.
    9900012    2    1    2    0    0 -0.22482299620E+02 -0.16994942020E+01 -0.37084782224E+02  0.47787272479E+02  0.20000006542E+02 0.  0.
        -12    1    1    2    0    0  0.22482299620E+02  0.16994942020E+01  0.37084782224E+02  0.43400727521E+02  0.00000000000E+00 0.  1.
         11    1    3    3    0    0 -0.78942333232E+01 -0.50958047187E+01 -0.11334528897E+02  0.14722693065E+02  0.51100000000E-03 0.  1.
        -11    1    3    3    0    0 -0.11175525019E+02 -0.45124412331E+01 -0.13613871564E+02  0.18182188662E+02  0.51100000000E-03 0. -1.
         12    1    3    3    0    0 -0.34125412774E+01  0.79087517498E+01 -0.12136381763E+02  0.14882390752E+02  0.00000000000E+00 0. -1.
</event>
<event>
 7    1  0.4031943E-009  0.4778727E+02  0.7816164E-02  0.1312668E+00
        -11   -1    0    0    0    0  0.00000000000E+00  0.00000000000E+00  0.45593999997E+02  0.45594000000E+02  0.51100000000E-03 0.  1.
         11   -1    0    0    0    0 -0.00000000000E+00 -0.00000000000E+00 -0.45593999997E+02  0.45594000000E+02  0.51100000000E-03 0. -1.
    9900012    2    1    2    0    0 -0.19434329830E+02  0.30022997024E+02 -0.24587593932E+02  0.47787270725E+02  0.19999998546E+02 0.  0.
        -12    1    1    2    0    0  0.19434329830E+02 -0.30022997024E+02  0.24587593932E+02  0.43400729275E+02  0.00000000000E+00 0.  1.
         11    1    3    3    0    0 -0.72730436299E+01  0.41935343509E+01 -0.42076074605E+01  0.93907856326E+01  0.51100000000E-03 0.  1.
        -11    1    3    3    0    0 -0.15846966723E+02  0.22821479886E+02 -0.17448140905E+02  0.32808290413E+02  0.51100000000E-03 0. -1.
        -12    1    3    3    0    0  0.36856805227E+01  0.30079827863E+01 -0.29318455658E+01  0.55881946799E+01  0.00000000000E+00 0.  1.
</event>
<event>
 7    1  0.4031943E-009  0.4778727E+02  0.7816164E-02  0.1312668E+00
        -11   -1    0    0    0    0  0.00000000000E+00  0.00000000000E+00  0.45593999997E+02  0.45594000000E+02  0.51100000000E-03 0.  1.
         11   -1    0    0    0    0 -0.00000000000E+00 -0.00000000000E+00 -0.45593999997E+02  0.45594000000E+02  0.51100000000E-03 0. -1.
    9900012    2    1    2    0    0  0.25181203929E+02 -0.16076367059E+02 -0.31481432724E+02  0.47787271717E+02  0.20000003067E+02 0.  0.
        -12    1    1    2    0    0 -0.25181203929E+02  0.16076367059E+02  0.31481432724E+02  0.43400728283E+02  0.00000000000E+00 0.  1.
         11    1    3    3    0    0  0.12151069010E+02 -0.12967923982E+02 -0.14895282539E+02  0.23188035118E+02  0.51100000000E-03 0. -1.
        -11    1    3    3    0    0  0.16767928777E+01 -0.28541845785E+01 -0.11834982837E+02  0.12289215719E+02  0.51100000000E-03 0.  1.
        -12    1    3    3    0    0  0.11353342041E+02 -0.25425849826E+00 -0.47511673480E+01  0.12310020880E+02  0.00000000000E+00 0.  1.
</event>
<event>
 7    1  0.4031943E-009  0.4778727E+02  0.7816164E-02  0.1312668E+00
        -11   -1    0    0    0    0  0.00000000000E+00  0.00000000000E+00  0.45593999997E+02  0.45594000000E+02  0.51100000000E-03 0.  1.
         11   -1    0    0    0    0 -0.00000000000E+00 -0.00000000000E+00 -0.45593999997E+02  0.45594000000E+02  0.51100000000E-03 0. -1.
    9900012    2    1    2    0    0  0.78460053964E+01  0.18079697025E+02 -0.38667663280E+02  0.47787269260E+02  0.19999991866E+02 0.  0.
        -12    1    1    2    0    0 -0.78460053964E+01 -0.18079697025E+02  0.38667663280E+02  0.43400730740E+02  0.00000000000E+00 0.  1.
         11    1    3    3    0    0  0.70276608172E+01  0.27693392847E+01 -0.72553558059E+01  0.10473654795E+02  0.51100000000E-03 0. -1.
        -11    1    3    3    0    0  0.28231351004E+01 -0.17288289472E+00 -0.78304042424E+00  0.29348139392E+01  0.51100000000E-03 0.  1.
        -12    1    3    3    0    0 -0.20047905212E+01  0.15483240635E+02 -0.30629267050E+02  0.34378800526E+02  0.00000000000E+00 0.  1.
</event>
<event>
 7    1  0.4031943E-009  0.4778727E+02  0.7816164E-02  0.1312668E+00
        -11   -1    0    0    0    0  0.00000000000E+00  0.00000000000E+00  0.45593999997E+02  0.45594000000E+02  0.51100000000E-03 0.  1.
         11   -1    0    0    0    0 -0.00000000000E+00 -0.00000000000E+00 -0.45593999997E+02  0.45594000000E+02  0.51100000000E-03 0. -1.
    9900012    2    1    2    0    0 -0.39939724385E+02 -0.59179934965E+01 -0.15919134183E+02  0.47787273461E+02  0.20000011020E+02 0.  0.
        -12    1    1    2    0    0  0.39939724385E+02  0.59179934965E+01  0.15919134183E+02  0.43400726539E+02  0.00000000000E+00 0.  1.
         11    1    3    3    0    0 -0.31762589433E+02 -0.67543877311E+01 -0.91746864432E+01  0.33744017436E+02  0.51100000000E-03 0. -1.
        -11    1    3    3    0    0 -0.10016232449E+02  0.18155207623E+01 -0.50804162872E+01  0.11376803506E+02  0.51100000000E-03 0.  1.
        -12    1    3    3    0    0  0.18390974975E+01 -0.97912652779E+00 -0.16640314523E+01  0.26664525192E+01  0.00000000000E+00 0.  1.
</event>
<event>
 7    1  0.4031943E-009  0.4778727E+02  0.7816164E-02  0.1312668E+00
        -11   -1    0    0    0    0  0.00000000000E+00  0.00000000000E+00  0.45593999997E+02  0.45594000000E+02  0.51100000000E-03 0.  1.
         11   -1    0    0    0    0 -0.00000000000E+00 -0.00000000000E+00 -0.45593999997E+02  0.45594000000E+02  0.51100000000E-03 0. -1.
    9900012    2    1    2    0    0  0.32362092711E+02 -0.10501185524E+02 -0.26945190269E+02  0.47787271658E+02  0.20000002795E+02 0.  0.
        -12    1    1    2    0    0 -0.32362092711E+02  0.10501185524E+02  0.26945190269E+02  0.43400728342E+02  0.00000000000E+00 0.  1.
         11    1    3    3    0    0  0.19691319297E+01 -0.50158208361E+01  0.53444491637E+00  0.54149395976E+01  0.51100000000E-03 0. -1.
        -11    1    3    3    0    0  0.19184097368E+01  0.19690774732E+01 -0.16122033531E+01  0.31869675126E+01  0.51100000000E-03 0.  1.
        -12    1    3    3    0    0  0.28474551044E+02 -0.74544421606E+01 -0.25867431832E+02  0.39185364547E+02  0.00000000000E+00 0.  1.
</event>
<event>
 7    1  0.4031943E-009  0.4778727E+02  0.7816164E-02  0.1312668E+00
        -11   -1    0    0    0    0  0.00000000000E+00  0.00000000000E+00  0.45593999997E+02  0.45594000000E+02  0.51100000000E-03 0. -1.
         11   -1    0    0    0    0 -0.00000000000E+00 -0.00000000000E+00 -0.45593999997E+02  0.45594000000E+02  0.51100000000E-03 0.  1.
    9900012    2    1    2    0    0 -0.30328897203E+02 -0.28951989335E+02 -0.11205514689E+02  0.47787271303E+02  0.20000001177E+02 0.  0.
        -12    1    1    2    0    0  0.30328897203E+02  0.28951989335E+02  0.11205514689E+02  0.43400728697E+02  0.00000000000E+00 0.  1.
         11    1    3    3    0    0 -0.10012618449E+02 -0.29864699791E+01 -0.73856965011E+01  0.12795313369E+02  0.51100000000E-03 0. -1.
        -11    1    3    3    0    0  0.41124105260E+00 -0.64020464559E+00 -0.20853850939E+01  0.22198676633E+01  0.51100000000E-03 0.  1.
         12    1    3    3    0    0 -0.20727519806E+02 -0.25325314711E+02 -0.17344330943E+01  0.32772090270E+02  0.00000000000E+00 0. -1.
</event>
<event>
 7    1  0.4031943E-009  0.4778728E+02  0.7816164E-02  0.1312668E+00
        -11   -1    0    0    0    0  0.00000000000E+00  0.00000000000E+00  0.45593999997E+02  0.45594000000E+02  0.51100000000E-03 0.  1.
         11   -1    0    0    0    0 -0.00000000000E+00 -0.00000000000E+00 -0.45593999997E+02  0.45594000000E+02  0.51100000000E-03 0. -1.
    9900012    2    1    2    0    0  0.20412733564E+01 -0.64717910231E+01 -0.42866905289E+02  0.47787280594E+02  0.20000043539E+02 0.  0.
        -12    1    1    2    0    0 -0.20412733564E+01  0.64717910231E+01  0.42866905289E+02  0.43400719406E+02  0.00000000000E+00 0.  1.
         11    1    3    3    0    0  0.14884612721E+01 -0.10326358819E+02 -0.36704582571E+02  0.38158558482E+02  0.51100000000E-03 0. -1.
        -11    1    3    3    0    0  0.30761372322E+01  0.70720385311E+00 -0.38518880538E+01  0.49799396986E+01  0.51100000000E-03 0.  1.
        -12    1    3    3    0    0 -0.25233251479E+01  0.31473639430E+01 -0.23104346639E+01  0.46487824135E+01  0.00000000000E+00 0.  1.
</event>
<event>
 7    1  0.4031943E-009  0.4778727E+02  0.7816164E-02  0.1312668E+00
        -11   -1    0    0    0    0  0.00000000000E+00  0.00000000000E+00  0.45593999997E+02  0.45594000000E+02  0.51100000000E-03 0.  1.
         11   -1    0    0    0    0 -0.00000000000E+00 -0.00000000000E+00 -0.45593999997E+02  0.45594000000E+02  0.51100000000E-03 0. -1.
    9900012    2    1    2    0    0  0.16717238805E+02 -0.31534562607E+02 -0.24692679429E+02  0.47787272708E+02  0.20000007585E+02 0.  0.
        -12    1    1    2    0    0 -0.16717238805E+02  0.31534562607E+02  0.24692679429E+02  0.43400727292E+02  0.00000000000E+00 0.  1.
         11    1    3    3    0    0  0.65598469483E+01 -0.15334207701E+02 -0.19551462631E+02  0.25698817270E+02  0.51100000000E-03 0. -1.
        -11    1    3    3    0    0  0.65609461350E+01 -0.36846823722E+01 -0.50566744824E+01  0.90660275453E+01  0.51100000000E-03 0.  1.
         12    1    3    3    0    0  0.35964457220E+01 -0.12515672534E+02 -0.84542315005E-01  0.13022427892E+02  0.00000000000E+00 0. -1.
</event>
<event>
 7    1  0.4031943E-009  0.4778728E+02  0.7816164E-02  0.1312668E+00
        -11   -1    0    0    0    0  0.00000000000E+00  0.00000000000E+00  0.45593999997E+02  0.45594000000E+02  0.51100000000E-03 0. -1.
         11   -1    0    0    0    0 -0.00000000000E+00 -0.00000000000E+00 -0.45593999997E+02  0.45594000000E+02  0.51100000000E-03 0.  1.
    9900012    2    1    2    0    0  0.14625661134E+01 -0.39386308839E+02  0.18171468157E+02  0.47787277903E+02  0.20000031270E+02 0.  0.
        -12    1    1    2    0    0 -0.14625661134E+01  0.39386308839E+02 -0.18171468157E+02  0.43400722097E+02  0.00000000000E+00 0.  1.
         11    1    3    3    0    0 -0.33467693057E+01 -0.11605443769E+02  0.34993171062E+01  0.12575070987E+02  0.51100000000E-03 0. -1.
        -11    1    3    3    0    0 -0.57095603928E+00 -0.23199065384E+02  0.15774502633E+02  0.28059892357E+02  0.51100000000E-03 0.  1.
        -12    1    3    3    0    0  0.53802914583E+01 -0.45817996855E+01 -0.11023515823E+01  0.71523145586E+01  0.00000000000E+00 0.  1.
</event>
<event>
 7    1  0.4031943E-009  0.4778727E+02  0.7816164E-02  0.1312668E+00
        -11   -1    0    0    0    0  0.00000000000E+00  0.00000000000E+00  0.45593999997E+02  0.45594000000E+02  0.51100000000E-03 0. -1.
         11   -1    0    0    0    0 -0.00000000000E+00 -0.00000000000E+00 -0.45593999997E+02  0.45594000000E+02  0.51100000000E-03 0.  1.
    9900012    2    1    2    0    0 -0.39472850527E+02  0.74936933975E+01  0.16412245709E+02  0.47787272141E+02  0.20000004998E+02 0.  0.
        -12    1    1    2    0    0  0.39472850527E+02 -0.74936933975E+01 -0.16412245709E+02  0.43400727859E+02  0.00000000000E+00 0.  1.
         11    1    3    3    0    0 -0.89607395865E+01 -0.16136719151E+01  0.58782636877E+01  0.10837563159E+02  0.51100000000E-03 0. -1.
        -11    1    3    3    0    0 -0.18563626247E+02 -0.21171495567E+01  0.81474965235E+01  0.20383136205E+02  0.51100000000E-03 0.  1.
         12    1    3    3    0    0 -0.11948484694E+02  0.11224514869E+02  0.23864854979E+01  0.16566572777E+02  0.00000000000E+00 0. -1.
</event>
<event>
 7    1  0.4031943E-009  0.4778727E+02  0.7816164E-02  0.1312668E+00
        -11   -1    0    0    0    0  0.00000000000E+00  0.00000000000E+00  0.45593999997E+02  0.45594000000E+02  0.51100000000E-03 0. -1.
         11   -1    0    0    0    0 -0.00000000000E+00 -0.00000000000E+00 -0.45593999997E+02  0.45594000000E+02  0.51100000000E-03 0.  1.
    9900012    2    1    2    0    0 -0.12990342703E+02 -0.38399060753E+01  0.41232625560E+02  0.47787270827E+02  0.19999999008E+02 0.  0.
        -12    1    1    2    0    0  0.12990342703E+02  0.38399060753E+01 -0.41232625560E+02  0.43400729173E+02  0.00000000000E+00 0.  1.
         11    1    3    3    0    0  0.63836883531E+00 -0.38456172510E+01  0.23037415367E+02  0.23364905176E+02  0.51100000000E-03 0. -1.
        -11    1    3    3    0    0  0.58704240124E+00  0.75906771249E+00 -0.36913251248E+00  0.10281350329E+01  0.51100000000E-03 0.  1.
        -12    1    3    3    0    0 -0.14215753940E+02 -0.75335653678E+00  0.18564342705E+02  0.23394230618E+02  0.00000000000E+00 0.  1.
</event>
<event>
 7    1  0.4031943E-009  0.4778727E+02  0.7816164E-02  0.1312668E+00
        -11   -1    0    0    0    0  0.00000000000E+00  0.00000000000E+00  0.45593999997E+02  0.45594000000E+02  0.51100000000E-03 0.  1.
         11   -1    0    0    0    0 -0.00000000000E+00 -0.00000000000E+00 -0.45593999997E+02  0.45594000000E+02  0.51100000000E-03 0. -1.
    9900012    2    1    2    0    0  0.10230597196E+02 -0.61295422212E+01 -0.41729932038E+02  0.47787266887E+02  0.19999981046E+02 0.  0.
        -12    1    1    2    0    0 -0.10230597196E+02  0.61295422212E+01  0.41729932038E+02  0.43400733113E+02  0.00000000000E+00 0.  1.
         11    1    3    3    0    0  0.69162629083E+00 -0.50852500918E+00  0.11182542866E+01  0.14097650590E+01  0.51100000000E-03 0. -1.
        -11    1    3    3    0    0  0.98975878285E+01 -0.34458547081E+01 -0.14221157916E+02  0.17665715163E+02  0.51100000000E-03 0.  1.
         12    1    3    3    0    0 -0.35861692336E+00 -0.21751625039E+01 -0.28627028408E+02  0.28711786665E+02  0.00000000000E+00 0. -1.
</event>
<event>
 7    1  0.4031943E-009  0.4778729E+02  0.7816164E-02  0.1312668E+00
        -11   -1    0    0    0    0  0.00000000000E+00  0.00000000000E+00  0.45593999997E+02  0.45594000000E+02  0.51100000000E-03 0.  1.
         11   -1    0    0    0    0 -0.00000000000E+00 -0.00000000000E+00 -0.45593999997E+02  0.45594000000E+02  0.51100000000E-03 0. -1.
    9900012    2    1    2    0    0  0.35551226078E+02  0.24574251223E+02 -0.39796703342E+01  0.47787294075E+02  0.20000105006E+02 0.  0.
        -12    1    1    2    0    0 -0.35551226078E+02 -0.24574251223E+02  0.39796703342E+01  0.43400705925E+02  0.00000000000E+00 0.  1.
         11    1    3    3    0    0  0.93513191441E+01  0.55340334396E+01  0.41403512140E+01  0.11628207269E+02  0.51100000000E-03 0. -1.
        -11    1    3    3    0    0  0.44815631482E+01 -0.20569878677E+01 -0.16250599278E+01  0.51919579514E+01  0.51100000000E-03 0.  1.
        -12    1    3    3    0    0  0.21718343785E+02  0.21097205652E+02 -0.64949616204E+01  0.30967128855E+02  0.00000000000E+00 0.  1.
</event>
<event>
 7    1  0.4031943E-009  0.4778727E+02  0.7816164E-02  0.1312668E+00
        -11   -1    0    0    0    0  0.00000000000E+00  0.00000000000E+00  0.45593999997E+02  0.45594000000E+02  0.51100000000E-03 0.  1.
         11   -1    0    0    0    0 -0.00000000000E+00 -0.00000000000E+00 -0.45593999997E+02  0.45594000000E+02  0.51100000000E-03 0. -1.
    9900012    2    1    2    0    0 -0.19998944968E+02 -0.35703793735E+02  0.14453537981E+02  0.47787269050E+02  0.19999990905E+02 0.  0.
        -12    1    1    2    0    0  0.19998944968E+02  0.35703793735E+02 -0.14453537981E+02  0.43400730950E+02  0.00000000000E+00 0.  1.
         11    1    3    3    0    0 -0.20503570498E+01 -0.92669907761E+01  0.49078011112E+01  0.10684923682E+02  0.51100000000E-03 0. -1.
        -11    1    3    3    0    0 -0.20905113899E+02 -0.24032439300E+02  0.96747751784E+01  0.33289385708E+02  0.51100000000E-03 0.  1.
        -12    1    3    3    0    0  0.29565259810E+01 -0.24043636588E+01 -0.12903830913E+00  0.38129596595E+01  0.00000000000E+00 0.  1.
</event>
<event>
 7    1  0.4031943E-009  0.4778727E+02  0.7816164E-02  0.1312668E+00
        -11   -1    0    0    0    0  0.00000000000E+00  0.00000000000E+00  0.45593999997E+02  0.45594000000E+02  0.51100000000E-03 0.  1.
         11   -1    0    0    0    0 -0.00000000000E+00 -0.00000000000E+00 -0.45593999997E+02  0.45594000000E+02  0.51100000000E-03 0. -1.
    9900012    2    1    2    0    0  0.16949258931E+02  0.22637850629E+02 -0.32922238497E+02  0.47787269049E+02  0.19999990902E+02 0.  0.
        -12    1    1    2    0    0 -0.16949258931E+02 -0.22637850629E+02  0.32922238497E+02  0.43400730951E+02  0.00000000000E+00 0.  1.
         11    1    3    3    0    0  0.58719403397E+01  0.90350429850E+01 -0.14931401690E+02  0.18413539632E+02  0.51100000000E-03 0. -1.
        -11    1    3    3    0    0  0.13831196866E+02  0.11605819257E+02 -0.18595237584E+02  0.25918717338E+02  0.51100000000E-03 0.  1.
        -12    1    3    3    0    0 -0.27538782742E+01  0.19969883865E+01  0.60440077707E+00  0.34550120787E+01  0.00000000000E+00 0.  1.
</event>
<event>
 7    1  0.4031943E-009  0.4778727E+02  0.7816164E-02  0.1312668E+00
        -11   -1    0    0    0    0  0.00000000000E+00  0.00000000000E+00  0.45593999997E+02  0.45594000000E+02  0.51100000000E-03 0.  1.
         11   -1    0    0    0    0 -0.00000000000E+00 -0.00000000000E+00 -0.45593999997E+02  0.45594000000E+02  0.51100000000E-03 0. -1.
    9900012    2    1    2    0    0 -0.22746992805E+02  0.32311552048E+00 -0.36960694204E+02  0.47787274184E+02  0.20000014315E+02 0.  0.
        -12    1    1    2    0    0  0.22746992805E+02 -0.32311552048E+00  0.36960694204E+02  0.43400725816E+02  0.00000000000E+00 0.  1.
         11    1    3    3    0    0 -0.17725710083E+00  0.41074213211E+00 -0.65984011950E+01  0.66135488031E+01  0.51100000000E-03 0. -1.
        -11    1    3    3    0    0  0.20954736727E+01  0.17595591247E+01 -0.13569201298E+01  0.30542250614E+01  0.51100000000E-03 0.  1.
        -12    1    3    3    0    0 -0.24665209377E+02 -0.18471857363E+01 -0.29005372879E+02  0.38119500320E+02  0.00000000000E+00 0.  1.
</event>
<event>
 7    1  0.4031943E-009  0.4778727E+02  0.7816164E-02  0.1312668E+00
        -11   -1    0    0    0    0  0.00000000000E+00  0.00000000000E+00  0.45593999997E+02  0.45594000000E+02  0.51100000000E-03 0. -1.
         11   -1    0    0    0    0 -0.00000000000E+00 -0.00000000000E+00 -0.45593999997E+02  0.45594000000E+02  0.51100000000E-03 0.  1.
    9900012    2    1    2    0    0  0.14285094693E+02 -0.37545471156E+02  0.16428541422E+02  0.47787270652E+02  0.19999998211E+02 0.  0.
        -12    1    1    2    0    0 -0.14285094693E+02  0.37545471156E+02 -0.16428541422E+02  0.43400729348E+02  0.00000000000E+00 0.  1.
         11    1    3    3    0    0  0.72625683471E+01 -0.74015902385E+01  0.61890449986E+01  0.12076121700E+02  0.51100000000E-03 0. -1.
        -11    1    3    3    0    0  0.55421747848E+01 -0.18097866841E+01  0.14432883866E+01  0.60061727261E+01  0.51100000000E-03 0.  1.
        -12    1    3    3    0    0  0.14803515607E+01 -0.28334094233E+02  0.87962080367E+01  0.29704976226E+02  0.00000000000E+00 0.  1.
</event>
<event>
 7    1  0.4031943E-009  0.4778727E+02  0.7816164E-02  0.1312668E+00
        -11   -1    0    0    0    0  0.00000000000E+00  0.00000000000E+00  0.45593999997E+02  0.45594000000E+02  0.51100000000E-03 0. -1.
         11   -1    0    0    0    0 -0.00000000000E+00 -0.00000000000E+00 -0.45593999997E+02  0.45594000000E+02  0.51100000000E-03 0.  1.
    9900012    2    1    2    0    0  0.19991997978E+02  0.38428677382E+02 -0.26795079152E+01  0.47787274302E+02  0.20000014851E+02 0.  0.
        -12    1    1    2    0    0 -0.19991997978E+02 -0.38428677382E+02  0.26795079152E+01  0.43400725698E+02  0.00000000000E+00 0.  1.
         11    1    3    3    0    0  0.65445179870E+01  0.36158916341E+00 -0.21049368001E+01  0.68842008686E+01  0.51100000000E-03 0.  1.
        -11    1    3    3    0    0  0.61561149771E+01  0.15564443632E+02  0.29244403839E+01  0.16991233298E+02  0.51100000000E-03 0. -1.
        -12    1    3    3    0    0  0.72913650137E+01  0.22502644587E+02 -0.34990114990E+01  0.23911840135E+02  0.00000000000E+00 0.  1.
</event>
<event>
 7    1  0.4031943E-009  0.4778727E+02  0.7816164E-02  0.1312668E+00
        -11   -1    0    0    0    0  0.00000000000E+00  0.00000000000E+00  0.45593999997E+02  0.45594000000E+02  0.51100000000E-03 0.  1.
         11   -1    0    0    0    0 -0.00000000000E+00 -0.00000000000E+00 -0.45593999997E+02  0.45594000000E+02  0.51100000000E-03 0. -1.
    9900012    2    1    2    0    0 -0.24310529616E+02 -0.31964455334E+02 -0.16458882949E+02  0.47787273244E+02  0.20000010029E+02 0.  0.
        -12    1    1    2    0    0  0.24310529616E+02  0.31964455334E+02  0.16458882949E+02  0.43400726756E+02  0.00000000000E+00 0.  1.
         11    1    3    3    0    0 -0.10997433391E+02 -0.18213051551E+02 -0.63500084665E+01  0.22203184361E+02  0.51100000000E-03 0. -1.
        -11    1    3    3    0    0 -0.36714742344E+01 -0.12876640282E+02 -0.82459894688E+01  0.15725264087E+02  0.51100000000E-03 0.  1.
        -12    1    3    3    0    0 -0.96416219906E+01 -0.87476350087E+00 -0.18628850138E+01  0.98588247964E+01  0.00000000000E+00 0.  1.
</event>
<event>
 7    1  0.4031943E-009  0.4778727E+02  0.7816164E-02  0.1312668E+00
        -11   -1    0    0    0    0  0.00000000000E+00  0.00000000000E+00  0.45593999997E+02  0.45594000000E+02  0.51100000000E-03 0.  1.
         11   -1    0    0    0    0 -0.00000000000E+00 -0.00000000000E+00 -0.45593999997E+02  0.45594000000E+02  0.51100000000E-03 0. -1.
    9900012    2    1    2    0    0 -0.10587645183E+02 -0.38676819942E+02 -0.16602062779E+02  0.47787272818E+02  0.20000008088E+02 0.  0.
        -12    1    1    2    0    0  0.10587645183E+02  0.38676819942E+02  0.16602062779E+02  0.43400727182E+02  0.00000000000E+00 0.  1.
         11    1    3    3    0    0 -0.12662409795E+01 -0.94666339604E+01 -0.75243843864E+01  0.12158819244E+02  0.51100000000E-03 0. -1.
        -11    1    3    3    0    0 -0.57464671981E+01 -0.28831626427E+02 -0.11192950924E+02  0.31457379394E+02  0.51100000000E-03 0.  1.
        -12    1    3    3    0    0 -0.35749370056E+01 -0.37855955489E+00  0.21152725319E+01  0.41710741800E+01  0.00000000000E+00 0.  1.
</event>
<event>
 7    1  0.4031943E-009  0.4778727E+02  0.7816164E-02  0.1312668E+00
        -11   -1    0    0    0    0  0.00000000000E+00  0.00000000000E+00  0.45593999997E+02  0.45594000000E+02  0.51100000000E-03 0.  1.
         11   -1    0    0    0    0 -0.00000000000E+00 -0.00000000000E+00 -0.45593999997E+02  0.45594000000E+02  0.51100000000E-03 0. -1.
    9900012    2    1    2    0    0 -0.39584705618E+02  0.17700300160E+02 -0.18367065200E+01  0.47787273791E+02  0.20000012524E+02 0.  0.
        -12    1    1    2    0    0  0.39584705618E+02 -0.17700300160E+02  0.18367065200E+01  0.43400726209E+02  0.00000000000E+00 0.  1.
         11    1    3    3    0    0 -0.21364856092E+02  0.13282421781E+02  0.62567299371E+01  0.25923473417E+02  0.51100000000E-03 0.  1.
        -11    1    3    3    0    0 -0.12610496058E+02 -0.10473288868E+00 -0.27870096065E+01  0.12915223676E+02  0.51100000000E-03 0. -1.
        -12    1    3    3    0    0 -0.56093534679E+01  0.45226112671E+01 -0.53064268507E+01  0.89485766982E+01  0.00000000000E+00 0.  1.
</event>
<event>
 7    1  0.4031943E-009  0.4778727E+02  0.7816164E-02  0.1312668E+00
        -11   -1    0    0    0    0  0.00000000000E+00  0.00000000000E+00  0.45593999997E+02  0.45594000000E+02  0.51100000000E-03 0. -1.
         11   -1    0    0    0    0 -0.00000000000E+00 -0.00000000000E+00 -0.45593999997E+02  0.45594000000E+02  0.51100000000E-03 0.  1.
    9900012    2    1    2    0    0  0.13315205961E+02  0.39614928375E+02 -0.11704103859E+02  0.47787270662E+02  0.19999998257E+02 0.  0.
        -12    1    1    2    0    0 -0.13315205961E+02 -0.39614928375E+02  0.11704103859E+02  0.43400729338E+02  0.00000000000E+00 0.  1.
         11    1    3    3    0    0  0.17028597999E+01  0.24259009025E+01  0.10066667276E+01  0.31301924618E+01  0.51100000000E-03 0. -1.
        -11    1    3    3    0    0  0.98869226323E+01  0.11042881432E+02  0.14141243729E+01  0.14889466661E+02  0.51100000000E-03 0.  1.
         12    1    3    3    0    0  0.17254235284E+01  0.26146146040E+02 -0.14124894960E+02  0.29767611539E+02  0.00000000000E+00 0. -1.
</event>
<event>
 7    1  0.4031943E-009  0.4778727E+02  0.7816164E-02  0.1312668E+00
        -11   -1    0    0    0    0  0.00000000000E+00  0.00000000000E+00  0.45593999997E+02  0.45594000000E+02  0.51100000000E-03 0.  1.
         11   -1    0    0    0    0 -0.00000000000E+00 -0.00000000000E+00 -0.45593999997E+02  0.45594000000E+02  0.51100000000E-03 0. -1.
    9900012    2    1    2    0    0  0.46661647984E+01 -0.19793227428E+02 -0.38341596903E+02  0.47787274211E+02  0.20000014438E+02 0.  0.
        -12    1    1    2    0    0 -0.46661647984E+01  0.19793227428E+02  0.38341596903E+02  0.43400725789E+02  0.00000000000E+00 0.  1.
         11    1    3    3    0    0 -0.42576053062E+01 -0.71006408242E+01 -0.11094072365E+02  0.13842858988E+02  0.51100000000E-03 0. -1.
        -11    1    3    3    0    0 -0.10390908769E+01 -0.68610228464E+01 -0.40537375010E+01  0.80365497782E+01  0.51100000000E-03 0.  1.
         12    1    3    3    0    0  0.99628609815E+01 -0.58315637570E+01 -0.23193787037E+02  0.25907865445E+02  0.00000000000E+00 0. -1.
</event>
<event>
 7    1  0.4031943E-009  0.4778727E+02  0.7816164E-02  0.1312668E+00
        -11   -1    0    0    0    0  0.00000000000E+00  0.00000000000E+00  0.45593999997E+02  0.45594000000E+02  0.51100000000E-03 0.  1.
         11   -1    0    0    0    0 -0.00000000000E+00 -0.00000000000E+00 -0.45593999997E+02  0.45594000000E+02  0.51100000000E-03 0. -1.
    9900012    2    1    2    0    0 -0.81133853859E+01  0.46397935809E+01 -0.42382406132E+02  0.47787273550E+02  0.20000011423E+02 0.  0.
        -12    1    1    2    0    0  0.81133853859E+01 -0.46397935809E+01  0.42382406132E+02  0.43400726450E+02  0.00000000000E+00 0.  1.
         11    1    3    3    0    0 -0.29494031424E+01  0.78292741287E+01 -0.86813168586E+01  0.12056607107E+02  0.51100000000E-03 0. -1.
        -11    1    3    3    0    0  0.11443754310E+01 -0.14639353301E+01 -0.54601807592E+00  0.19367079744E+01  0.51100000000E-03 0.  1.
        -12    1    3    3    0    0 -0.63083576744E+01 -0.17255452177E+01 -0.33155071197E+02  0.33793958468E+02  0.00000000000E+00 0.  1.
</event>
<event>
 7    1  0.4031943E-009  0.4778727E+02  0.7816164E-02  0.1312668E+00
        -11   -1    0    0    0    0  0.00000000000E+00  0.00000000000E+00  0.45593999997E+02  0.45594000000E+02  0.51100000000E-03 0.  1.
         11   -1    0    0    0    0 -0.00000000000E+00 -0.00000000000E+00 -0.45593999997E+02  0.45594000000E+02  0.51100000000E-03 0. -1.
    9900012    2    1    2    0    0 -0.15342341160E+02 -0.87986681114E+01 -0.39633568499E+02  0.47787265620E+02  0.19999975266E+02 0.  0.
        -12    1    1    2    0    0  0.15342341160E+02  0.87986681114E+01  0.39633568499E+02  0.43400734380E+02  0.00000000000E+00 0.  1.
         11    1    3    3    0    0 -0.10094095519E+02 -0.48742857441E+01 -0.31708049803E+02  0.33631084557E+02  0.51100000000E-03 0. -1.
        -11    1    3    3    0    0 -0.19695031280E+01 -0.62347836694E+01 -0.77522498781E+01  0.10141442127E+02  0.51100000000E-03 0.  1.
         12    1    3    3    0    0 -0.32787425132E+01  0.23104013021E+01 -0.17326881721E+00  0.40147389364E+01  0.00000000000E+00 0. -1.
</event>
<event>
 7    1  0.4031943E-009  0.4778727E+02  0.7816164E-02  0.1312668E+00
        -11   -1    0    0    0    0  0.00000000000E+00  0.00000000000E+00  0.45593999997E+02  0.45594000000E+02  0.51100000000E-03 0.  1.
         11   -1    0    0    0    0 -0.00000000000E+00 -0.00000000000E+00 -0.45593999997E+02  0.45594000000E+02  0.51100000000E-03 0. -1.
    9900012    2    1    2    0    0  0.39100841694E+02  0.69840791793E+01 -0.17492012740E+02  0.47787266217E+02  0.19999977991E+02 0.  0.
        -12    1    1    2    0    0 -0.39100841694E+02 -0.69840791793E+01  0.17492012740E+02  0.43400733783E+02  0.00000000000E+00 0.  1.
         11    1    3    3    0    0  0.59080097370E+01 -0.41810158026E+00 -0.48382429146E+01  0.76477436376E+01  0.51100000000E-03 0. -1.
        -11    1    3    3    0    0 -0.80951006411E+00  0.24787605514E+01  0.14692893911E+01  0.29930539572E+01  0.51100000000E-03 0.  1.
         12    1    3    3    0    0  0.34002342021E+02  0.49234202082E+01 -0.14123059217E+02  0.37146468622E+02  0.00000000000E+00 0. -1.
</event>
<event>
 7    1  0.4031943E-009  0.4778728E+02  0.7816164E-02  0.1312668E+00
        -11   -1    0    0    0    0  0.00000000000E+00  0.00000000000E+00  0.45593999997E+02  0.45594000000E+02  0.51100000000E-03 0. -1.
         11   -1    0    0    0    0 -0.00000000000E+00 -0.00000000000E+00 -0.45593999997E+02  0.45594000000E+02  0.51100000000E-03 0.  1.
    9900012    2    1    2    0    0 -0.10224755976E+02  0.37901283677E+02 -0.18508633753E+02  0.47787280392E+02  0.20000042619E+02 0.  0.
        -12    1    1    2    0    0  0.10224755976E+02 -0.37901283677E+02  0.18508633753E+02  0.43400719608E+02  0.00000000000E+00 0.  1.
         11    1    3    3    0    0 -0.41986436352E+01  0.57290321621E+01  0.51527342202E+00  0.71215114162E+01  0.51100000000E-03 0. -1.
        -11    1    3    3    0    0 -0.20278358731E+01  0.14026045154E+02 -0.13954975325E+00  0.14172562767E+02  0.51100000000E-03 0.  1.
        -12    1    3    3    0    0 -0.39982764680E+01  0.18146206360E+02 -0.18884357422E+02  0.26493206209E+02  0.00000000000E+00 0.  1.
</event>
<event>
 7    1  0.4031943E-009  0.4778727E+02  0.7816164E-02  0.1312668E+00
        -11   -1    0    0    0    0  0.00000000000E+00  0.00000000000E+00  0.45593999997E+02  0.45594000000E+02  0.51100000000E-03 0. -1.
         11   -1    0    0    0    0 -0.00000000000E+00 -0.00000000000E+00 -0.45593999997E+02  0.45594000000E+02  0.51100000000E-03 0.  1.
    9900012    2    1    2    0    0 -0.30229729248E+02 -0.18668165278E+02 -0.24925614061E+02  0.47787272338E+02  0.20000005899E+02 0.  0.
        -12    1    1    2    0    0  0.30229729248E+02  0.18668165278E+02  0.24925614061E+02  0.43400727662E+02  0.00000000000E+00 0.  1.
         11    1    3    3    0    0 -0.90395110366E+01 -0.51476199109E+01 -0.66399605632E+00  0.10423609814E+02  0.51100000000E-03 0. -1.
        -11    1    3    3    0    0 -0.11089911607E+02  0.38302957156E+00 -0.77768097388E+01  0.13550336567E+02  0.51100000000E-03 0.  1.
         12    1    3    3    0    0 -0.10100306604E+02 -0.13903574939E+02 -0.16484808266E+02  0.23813325957E+02  0.00000000000E+00 0. -1.
</event>
<event>
 7    1  0.4031943E-009  0.4778727E+02  0.7816164E-02  0.1312668E+00
        -11   -1    0    0    0    0  0.00000000000E+00  0.00000000000E+00  0.45593999997E+02  0.45594000000E+02  0.51100000000E-03 0. -1.
         11   -1    0    0    0    0 -0.00000000000E+00 -0.00000000000E+00 -0.45593999997E+02  0.45594000000E+02  0.51100000000E-03 0.  1.
    9900012    2    1    2    0    0  0.38793261888E+02 -0.12994028081E+02  0.14486586367E+02  0.47787272837E+02  0.20000008175E+02 0.  0.
        -12    1    1    2    0    0 -0.38793261888E+02  0.12994028081E+02 -0.14486586367E+02  0.43400727163E+02  0.00000000000E+00 0.  1.
         11    1    3    3    0    0  0.75727505975E+01  0.19731853763E+01  0.34827199586E+01  0.85655910895E+01  0.51100000000E-03 0. -1.
        -11    1    3    3    0    0 -0.10689800397E+00  0.11918861136E+01 -0.14107764824E+01  0.18499487116E+01  0.51100000000E-03 0.  1.
        -12    1    3    3    0    0  0.31327409294E+02 -0.16159099571E+02  0.12414642891E+02  0.37371733036E+02  0.00000000000E+00 0.  1.
</event>
<event>
 7    1  0.4031943E-009  0.4778727E+02  0.7816164E-02  0.1312668E+00
        -11   -1    0    0    0    0  0.00000000000E+00  0.00000000000E+00  0.45593999997E+02  0.45594000000E+02  0.51100000000E-03 0.  1.
         11   -1    0    0    0    0 -0.00000000000E+00 -0.00000000000E+00 -0.45593999997E+02  0.45594000000E+02  0.51100000000E-03 0. -1.
    9900012    2    1    2    0    0 -0.42807028589E+02 -0.47771629516E+01  0.53254556862E+01  0.47787268892E+02  0.19999990185E+02 0.  0.
        -12    1    1    2    0    0  0.42807028589E+02  0.47771629516E+01 -0.53254556862E+01  0.43400731108E+02  0.00000000000E+00 0.  1.
         11    1    3    3    0    0 -0.59444324864E+01  0.65036794339E-01  0.35919042249E+01  0.69456665334E+01  0.51100000000E-03 0. -1.
        -11    1    3    3    0    0 -0.32744295898E+02 -0.18413732956E+01 -0.41507163179E+01  0.33057646856E+02  0.51100000000E-03 0.  1.
        -12    1    3    3    0    0 -0.41183002044E+01 -0.30008264504E+01  0.58842677791E+01  0.77839555019E+01  0.00000000000E+00 0.  1.
</event>
<event>
 7    1  0.4031943E-009  0.4778727E+02  0.7816164E-02  0.1312668E+00
        -11   -1    0    0    0    0  0.00000000000E+00  0.00000000000E+00  0.45593999997E+02  0.45594000000E+02  0.51100000000E-03 0.  1.
         11   -1    0    0    0    0 -0.00000000000E+00 -0.00000000000E+00 -0.45593999997E+02  0.45594000000E+02  0.51100000000E-03 0. -1.
    9900012    2    1    2    0    0  0.92178592648E+01  0.22163334038E+02 -0.36158551694E+02  0.47787272291E+02  0.20000005682E+02 0.  0.
        -12    1    1    2    0    0 -0.92178592648E+01 -0.22163334038E+02  0.36158551694E+02  0.43400727709E+02  0.00000000000E+00 0.  1.
         11    1    3    3    0    0  0.61473730345E+01  0.24128235174E+00 -0.82974298860E+01  0.10329363745E+02  0.51100000000E-03 0. -1.
        -11    1    3    3    0    0  0.66579740514E+01  0.76601664436E+01 -0.91992072059E+01  0.13697889687E+02  0.51100000000E-03 0.  1.
         12    1    3    3    0    0 -0.35874878210E+01  0.14261885242E+02 -0.18661914602E+02  0.23760018858E+02  0.00000000000E+00 0. -1.
</event>
<event>
 7    1  0.4031943E-009  0.4778726E+02  0.7816164E-02  0.1312668E+00
        -11   -1    0    0    0    0  0.00000000000E+00  0.00000000000E+00  0.45593999997E+02  0.45594000000E+02  0.51100000000E-03 0.  1.
         11   -1    0    0    0    0 -0.00000000000E+00 -0.00000000000E+00 -0.45593999997E+02  0.45594000000E+02  0.51100000000E-03 0. -1.
    9900012    2    1    2    0    0  0.17235370464E-01 -0.15281307434E+02 -0.40621496700E+02  0.47787255213E+02  0.19999927817E+02 0.  0.
        -12    1    1    2    0    0 -0.17235370464E-01  0.15281307434E+02  0.40621496700E+02  0.43400744787E+02  0.00000000000E+00 0.  1.
         11    1    3    3    0    0  0.60945476049E+01 -0.26566409534E+01 -0.94035064770E+01  0.11516387714E+02  0.51100000000E-03 0. -1.
        -11    1    3    3    0    0 -0.14542459107E+01 -0.44849042802E+01 -0.12540228740E+01  0.48787058941E+01  0.51100000000E-03 0.  1.
         12    1    3    3    0    0 -0.46230663237E+01 -0.81397622006E+01 -0.29963967349E+02  0.31392161604E+02  0.00000000000E+00 0. -1.
</event>
<event>
 7    1  0.4031943E-009  0.4778727E+02  0.7816164E-02  0.1312668E+00
        -11   -1    0    0    0    0  0.00000000000E+00  0.00000000000E+00  0.45593999997E+02  0.45594000000E+02  0.51100000000E-03 0. -1.
         11   -1    0    0    0    0 -0.00000000000E+00 -0.00000000000E+00 -0.45593999997E+02  0.45594000000E+02  0.51100000000E-03 0.  1.
    9900012    2    1    2    0    0 -0.34890580884E+02 -0.17388442301E+02 -0.19076497943E+02  0.47787270353E+02  0.19999996849E+02 0.  0.
        -12    1    1    2    0    0  0.34890580884E+02  0.17388442301E+02  0.19076497943E+02  0.43400729647E+02  0.00000000000E+00 0.  1.
         11    1    3    3    0    0 -0.63970657242E+01  0.13829713572E+01 -0.13962799005E+01  0.66921340001E+01  0.51100000000E-03 0. -1.
        -11    1    3    3    0    0 -0.88287718754E+00  0.21862018681E+01 -0.51118496571E+00  0.24125217235E+01  0.51100000000E-03 0.  1.
        -12    1    3    3    0    0 -0.27610637972E+02 -0.20957615526E+02 -0.17169033077E+02  0.38682614630E+02  0.00000000000E+00 0.  1.
</event>
<event>
 7    1  0.4031943E-009  0.4778727E+02  0.7816164E-02  0.1312668E+00
        -11   -1    0    0    0    0  0.00000000000E+00  0.00000000000E+00  0.45593999997E+02  0.45594000000E+02  0.51100000000E-03 0.  1.
         11   -1    0    0    0    0 -0.00000000000E+00 -0.00000000000E+00 -0.45593999997E+02  0.45594000000E+02  0.51100000000E-03 0. -1.
    9900012    2    1    2    0    0 -0.88624620192E+01  0.15710868693E+02 -0.39474661681E+02  0.47787267944E+02  0.19999985866E+02 0.  0.
        -12    1    1    2    0    0  0.88624620192E+01 -0.15710868693E+02  0.39474661681E+02  0.43400732056E+02  0.00000000000E+00 0.  1.
         11    1    3    3    0    0 -0.12207858760E+02  0.90738179855E+01 -0.13817460413E+02  0.20549652086E+02  0.51100000000E-03 0. -1.
        -11    1    3    3    0    0  0.80578103538E+00  0.32231597451E+01 -0.41625060840E+01  0.53258331724E+01  0.51100000000E-03 0.  1.
         12    1    3    3    0    0  0.25396157050E+01  0.34138909624E+01 -0.21494695184E+02  0.21911782686E+02  0.00000000000E+00 0. -1.
</event>
<event>
 7    1  0.4031943E-009  0.4778726E+02  0.7816164E-02  0.1312668E+00
        -11   -1    0    0    0    0  0.00000000000E+00  0.00000000000E+00  0.45593999997E+02  0.45594000000E+02  0.51100000000E-03 0.  1.
         11   -1    0    0    0    0 -0.00000000000E+00 -0.00000000000E+00 -0.45593999997E+02  0.45594000000E+02  0.51100000000E-03 0. -1.
    9900012    2    1    2    0    0 -0.40451530966E+02 -0.45829602273E+01 -0.15043097115E+02  0.47787255159E+02  0.19999927571E+02 0.  0.
        -12    1    1    2    0    0  0.40451530966E+02  0.45829602273E+01  0.15043097115E+02  0.43400744841E+02  0.00000000000E+00 0.  1.
         11    1    3    3    0    0 -0.20639401582E+02  0.28180084364E+01 -0.82219598039E+01  0.22394791637E+02  0.51100000000E-03 0. -1.
        -11    1    3    3    0    0 -0.65126821717E+01  0.32549137025E+01 -0.32855713841E+01  0.79877701432E+01  0.51100000000E-03 0.  1.
        -12    1    3    3    0    0 -0.13299447213E+02 -0.10655882366E+02 -0.35355659267E+01  0.17404693378E+02  0.00000000000E+00 0.  1.
</event>
<event>
 7    1  0.4031943E-009  0.4778728E+02  0.7816164E-02  0.1312668E+00
        -11   -1    0    0    0    0  0.00000000000E+00  0.00000000000E+00  0.45593999997E+02  0.45594000000E+02  0.51100000000E-03 0.  1.
         11   -1    0    0    0    0 -0.00000000000E+00 -0.00000000000E+00 -0.45593999997E+02  0.45594000000E+02  0.51100000000E-03 0. -1.
    9900012    2    1    2    0    0 -0.34326065237E+02 -0.93984533654E+01 -0.24839745557E+02  0.47787278351E+02  0.20000033315E+02 0.  0.
        -12    1    1    2    0    0  0.34326065237E+02  0.93984533654E+01  0.24839745557E+02  0.43400721649E+02  0.00000000000E+00 0.  1.
         11    1    3    3    0    0 -0.12264069521E+02 -0.91584915993E+01 -0.17170453048E+02  0.23002387435E+02  0.51100000000E-03 0. -1.
        -11    1    3    3    0    0  0.21143362922E+00  0.86617144132E+00  0.51498918250E+00  0.10296461841E+01  0.51100000000E-03 0.  1.
         12    1    3    3    0    0 -0.22273429345E+02 -0.11061332073E+01 -0.81842816911E+01  0.23755244732E+02  0.00000000000E+00 0. -1.
</event>
<event>
 7    1  0.4031943E-009  0.4778727E+02  0.7816164E-02  0.1312668E+00
        -11   -1    0    0    0    0  0.00000000000E+00  0.00000000000E+00  0.45593999997E+02  0.45594000000E+02  0.51100000000E-03 0. -1.
         11   -1    0    0    0    0 -0.00000000000E+00 -0.00000000000E+00 -0.45593999997E+02  0.45594000000E+02  0.51100000000E-03 0.  1.
    9900012    2    1    2    0    0 -0.27251519914E+02  0.31359820353E+02  0.12551490029E+02  0.47787267608E+02  0.19999984333E+02 0.  0.
        -12    1    1    2    0    0  0.27251519914E+02 -0.31359820353E+02 -0.12551490029E+02  0.43400732392E+02  0.00000000000E+00 0.  1.
         11    1    3    3    0    0 -0.11270177994E+02  0.13865151309E+02  0.12155905336E+02  0.21610769714E+02  0.51100000000E-03 0. -1.
        -11    1    3    3    0    0 -0.93757138597E+01  0.87117421820E+01  0.56562358408E+01  0.13992550388E+02  0.51100000000E-03 0.  1.
        -12    1    3    3    0    0 -0.66056280604E+01  0.87829268621E+01 -0.52606511474E+01  0.12183947506E+02  0.00000000000E+00 0.  1.
</event>
<event>
 7    1  0.4031943E-009  0.4778727E+02  0.7816164E-02  0.1312668E+00
        -11   -1    0    0    0    0  0.00000000000E+00  0.00000000000E+00  0.45593999997E+02  0.45594000000E+02  0.51100000000E-03 0.  1.
         11   -1    0    0    0    0 -0.00000000000E+00 -0.00000000000E+00 -0.45593999997E+02  0.45594000000E+02  0.51100000000E-03 0. -1.
    9900012    2    1    2    0    0 -0.24796315375E+01  0.41590313159E+02 -0.12154047219E+02  0.47787267460E+02  0.19999983656E+02 0.  0.
        -12    1    1    2    0    0  0.24796315375E+01 -0.41590313159E+02  0.12154047219E+02  0.43400732540E+02  0.00000000000E+00 0.  1.
         11    1    3    3    0    0 -0.31353123650E+00  0.29783292237E+02 -0.15054190735E+02  0.33373214668E+02  0.51100000000E-03 0. -1.
        -11    1    3    3    0    0 -0.12211418178E+00 -0.11157895801E+00 -0.15274486389E+01  0.15363792966E+01  0.51100000000E-03 0.  1.
         12    1    3    3    0    0 -0.20439861192E+01  0.11918599880E+02  0.44275921553E+01  0.12877673496E+02  0.00000000000E+00 0. -1.
</event>
<event>
 7    1  0.4031943E-009  0.4778727E+02  0.7816164E-02  0.1312668E+00
        -11   -1    0    0    0    0  0.00000000000E+00  0.00000000000E+00  0.45593999997E+02  0.45594000000E+02  0.51100000000E-03 0.  1.
         11   -1    0    0    0    0 -0.00000000000E+00 -0.00000000000E+00 -0.45593999997E+02  0.45594000000E+02  0.51100000000E-03 0. -1.
    9900012    2    1    2    0    0 -0.32827695460E+02 -0.26141065269E+02 -0.11072947885E+02  0.47787273538E+02  0.20000011367E+02 0.  0.
        -12    1    1    2    0    0  0.32827695460E+02  0.26141065269E+02  0.11072947885E+02  0.43400726462E+02  0.00000000000E+00 0.  1.
         11    1    3    3    0    0 -0.16056031603E+02 -0.12317912404E+02 -0.67176083638E+01  0.21322602543E+02  0.51100000000E-03 0. -1.
        -11    1    3    3    0    0 -0.12707433998E+01 -0.97322568194E+01 -0.34641545466E+01  0.10408264916E+02  0.51100000000E-03 0.  1.
         12    1    3    3    0    0 -0.15500920458E+02 -0.40908960453E+01 -0.89118497428E+00  0.16056406078E+02  0.00000000000E+00 0. -1.
</event>
<event>
 7    1  0.4031943E-009  0.4778727E+02  0.7816164E-02  0.1312668E+00
        -11   -1    0    0    0    0  0.00000000000E+00  0.00000000000E+00  0.45593999997E+02  0.45594000000E+02  0.51100000000E-03 0.  1.
         11   -1    0    0    0    0 -0.00000000000E+00 -0.00000000000E+00 -0.45593999997E+02  0.45594000000E+02  0.51100000000E-03 0. -1.
    9900012    2    1    2    0    0  0.27828771978E+02  0.33300707329E+02  0.49550460296E+00  0.47787272088E+02  0.20000004760E+02 0.  0.
        -12    1    1    2    0    0 -0.27828771978E+02 -0.33300707329E+02 -0.49550460296E+00  0.43400727912E+02  0.00000000000E+00 0.  1.
         11    1    3    3    0    0  0.11393671823E+02  0.17438989198E+02 -0.13154962118E+01  0.20872580876E+02  0.51100000000E-03 0. -1.
        -11    1    3    3    0    0 -0.40777595592E+00  0.70887424219E+01 -0.23390343442E+01  0.74758031193E+01  0.51100000000E-03 0.  1.
        -12    1    3    3    0    0  0.16842876111E+02  0.87729757089E+01  0.41500351589E+01  0.19438888093E+02  0.00000000000E+00 0.  1.
</event>
<event>
 7    1  0.4031943E-009  0.4778727E+02  0.7816164E-02  0.1312668E+00
        -11   -1    0    0    0    0  0.00000000000E+00  0.00000000000E+00  0.45593999997E+02  0.45594000000E+02  0.51100000000E-03 0.  1.
         11   -1    0    0    0    0 -0.00000000000E+00 -0.00000000000E+00 -0.45593999997E+02  0.45594000000E+02  0.51100000000E-03 0. -1.
    9900012    2    1    2    0    0 -0.14619916173E+02 -0.38257170355E+02 -0.14362120205E+02  0.47787268102E+02  0.19999986586E+02 0.  0.
        -12    1    1    2    0    0  0.14619916173E+02  0.38257170355E+02  0.14362120205E+02  0.43400731898E+02  0.00000000000E+00 0.  1.
         11    1    3    3    0    0 -0.10590299652E+01 -0.54066545398E+01 -0.79306197171E+01  0.96565100910E+01  0.51100000000E-03 0. -1.
        -11    1    3    3    0    0 -0.38120047266E+01 -0.40427513210E+01 -0.53278205210E+01  0.76981095111E+01  0.51100000000E-03 0.  1.
        -12    1    3    3    0    0 -0.97488814809E+01 -0.28807764494E+02 -0.11036799671E+01  0.30432648500E+02  0.00000000000E+00 0.  1.
</event>
<event>
 7    1  0.4031943E-009  0.4778727E+02  0.7816164E-02  0.1312668E+00
        -11   -1    0    0    0    0  0.00000000000E+00  0.00000000000E+00  0.45593999997E+02  0.45594000000E+02  0.51100000000E-03 0.  1.
         11   -1    0    0    0    0 -0.00000000000E+00 -0.00000000000E+00 -0.45593999997E+02  0.45594000000E+02  0.51100000000E-03 0. -1.
    9900012    2    1    2    0    0  0.20312362333E+02 -0.35524482357E+01 -0.38189150938E+02  0.47787271880E+02  0.20000003811E+02 0.  0.
        -12    1    1    2    0    0 -0.20312362333E+02  0.35524482357E+01  0.38189150938E+02  0.43400728120E+02  0.00000000000E+00 0.  1.
         11    1    3    3    0    0  0.53108848824E+01 -0.48287400578E+01 -0.73313325428E+01  0.10260149409E+02  0.51100000000E-03 0. -1.
        -11    1    3    3    0    0  0.22745631147E+01 -0.60911489820E+01 -0.75039943133E+01  0.99290313827E+01  0.51100000000E-03 0.  1.
         12    1    3    3    0    0  0.12726914335E+02  0.73674408041E+01 -0.23353824081E+02  0.27598091089E+02  0.00000000000E+00 0. -1.
</event>
<event>
 7    1  0.4031943E-009  0.4778727E+02  0.7816164E-02  0.1312668E+00
        -11   -1    0    0    0    0  0.00000000000E+00  0.00000000000E+00  0.45593999997E+02  0.45594000000E+02  0.51100000000E-03 0.  1.
         11   -1    0    0    0    0 -0.00000000000E+00 -0.00000000000E+00 -0.45593999997E+02  0.45594000000E+02  0.51100000000E-03 0. -1.
    9900012    2    1    2    0    0  0.28351132468E+01  0.22979993197E+02 -0.36708381288E+02  0.47787271766E+02  0.20000003289E+02 0.  0.
        -12    1    1    2    0    0 -0.28351132468E+01 -0.22979993197E+02  0.36708381288E+02  0.43400728234E+02  0.00000000000E+00 0.  1.
         11    1    3    3    0    0  0.49360809301E+01  0.57776296787E+01 -0.88224310600E+01  0.11643933602E+02  0.51100000000E-03 0. -1.
        -11    1    3    3    0    0  0.41439147148E+01  0.39728388216E+01 -0.16899580435E+02  0.17848005396E+02  0.51100000000E-03 0.  1.
         12    1    3    3    0    0 -0.62448823980E+01  0.13229524697E+02 -0.10986369793E+02  0.18295332768E+02  0.00000000000E+00 0. -1.
</event>
<event>
 7    1  0.4031943E-009  0.4778727E+02  0.7816164E-02  0.1312668E+00
        -11   -1    0    0    0    0  0.00000000000E+00  0.00000000000E+00  0.45593999997E+02  0.45594000000E+02  0.51100000000E-03 0.  1.
         11   -1    0    0    0    0 -0.00000000000E+00 -0.00000000000E+00 -0.45593999997E+02  0.45594000000E+02  0.51100000000E-03 0. -1.
    9900012    2    1    2    0    0 -0.18303688588E+01  0.15494331540E+02 -0.40499367669E+02  0.47787270264E+02  0.19999996443E+02 0.  0.
        -12    1    1    2    0    0  0.18303688588E+01 -0.15494331540E+02  0.40499367669E+02  0.43400729736E+02  0.00000000000E+00 0.  1.
         11    1    3    3    0    0  0.25642196433E+00  0.12967145146E+01 -0.78716603088E+01  0.79818705222E+01  0.51100000000E-03 0. -1.
        -11    1    3    3    0    0 -0.50778675650E+01  0.11893415275E+02 -0.87105292132E+01  0.15592029545E+02  0.51100000000E-03 0.  1.
        -12    1    3    3    0    0  0.29910767419E+01  0.23042017509E+01 -0.23917178147E+02  0.24213370197E+02  0.00000000000E+00 0.  1.
</event>
<event>
 7    1  0.4031943E-009  0.4778727E+02  0.7816164E-02  0.1312668E+00
        -11   -1    0    0    0    0  0.00000000000E+00  0.00000000000E+00  0.45593999997E+02  0.45594000000E+02  0.51100000000E-03 0. -1.
         11   -1    0    0    0    0 -0.00000000000E+00 -0.00000000000E+00 -0.45593999997E+02  0.45594000000E+02  0.51100000000E-03 0.  1.
    9900012    2    1    2    0    0 -0.28023996967E+02 -0.62210995237E+01  0.32551138138E+02  0.47787273285E+02  0.20000010218E+02 0.  0.
        -12    1    1    2    0    0  0.28023996967E+02  0.62210995237E+01 -0.32551138138E+02  0.43400726715E+02  0.00000000000E+00 0.  1.
         11    1    3    3    0    0 -0.21857558050E+01 -0.15018336199E+01  0.32331597912E+01  0.41816689441E+01  0.51100000000E-03 0. -1.
        -11    1    3    3    0    0 -0.31863127724E+01 -0.57784057385E+01  0.73307692785E-01  0.65990860156E+01  0.51100000000E-03 0.  1.
         12    1    3    3    0    0 -0.22651928389E+02  0.10591398347E+01  0.29244670654E+02  0.37006518326E+02  0.00000000000E+00 0. -1.
</event>
<event>
 7    1  0.4031943E-009  0.4778729E+02  0.7816164E-02  0.1312668E+00
        -11   -1    0    0    0    0  0.00000000000E+00  0.00000000000E+00  0.45593999997E+02  0.45594000000E+02  0.51100000000E-03 0. -1.
         11   -1    0    0    0    0 -0.00000000000E+00 -0.00000000000E+00 -0.45593999997E+02  0.45594000000E+02  0.51100000000E-03 0.  1.
    9900012    2    1    2    0    0 -0.35453501895E+02  0.25013474929E+02  0.99849335333E+00  0.47787289019E+02  0.20000081954E+02 0.  0.
        -12    1    1    2    0    0  0.35453501895E+02 -0.25013474929E+02 -0.99849335333E+00  0.43400710981E+02  0.00000000000E+00 0.  1.
         11    1    3    3    0    0 -0.29134403427E+02  0.25853969925E+02  0.25472685910E+00  0.38952613648E+02  0.51100000000E-03 0. -1.
        -11    1    3    3    0    0 -0.28006238238E+00  0.12533559860E+01 -0.15777924708E+01  0.20343956124E+01  0.51100000000E-03 0.  1.
        -12    1    3    3    0    0 -0.60390360854E+01 -0.20938509820E+01  0.23215589650E+01  0.68002797592E+01  0.00000000000E+00 0.  1.
</event>
<event>
 7    1  0.4031943E-009  0.4778727E+02  0.7816164E-02  0.1312668E+00
        -11   -1    0    0    0    0  0.00000000000E+00  0.00000000000E+00  0.45593999997E+02  0.45594000000E+02  0.51100000000E-03 0.  1.
         11   -1    0    0    0    0 -0.00000000000E+00 -0.00000000000E+00 -0.45593999997E+02  0.45594000000E+02  0.51100000000E-03 0. -1.
    9900012    2    1    2    0    0  0.15333932018E+02 -0.24057475748E+01 -0.40530310742E+02  0.47787272110E+02  0.20000004858E+02 0.  0.
        -12    1    1    2    0    0 -0.15333932018E+02  0.24057475748E+01  0.40530310742E+02  0.43400727890E+02  0.00000000000E+00 0.  1.
         11    1    3    3    0    0 -0.16761083577E+01  0.14548986495E+01 -0.29454472892E+01  0.36880522368E+01  0.51100000000E-03 0. -1.
        -11    1    3    3    0    0  0.47201342623E+01 -0.80301839669E+01 -0.10312605415E+02  0.13896523043E+02  0.51100000000E-03 0.  1.
        -12    1    3    3    0    0  0.12289906113E+02  0.41695377425E+01 -0.27272258039E+02  0.30202696830E+02  0.00000000000E+00 0.  1.
</event>
<event>
 7    1  0.4031943E-009  0.4778726E+02  0.7816164E-02  0.1312668E+00
        -11   -1    0    0    0    0  0.00000000000E+00  0.00000000000E+00  0.45593999997E+02  0.45594000000E+02  0.51100000000E-03 0.  1.
         11   -1    0    0    0    0 -0.00000000000E+00 -0.00000000000E+00 -0.45593999997E+02  0.45594000000E+02  0.51100000000E-03 0. -1.
    9900012    2    1    2    0    0 -0.15546403940E+02  0.77037462968E+01 -0.39781722655E+02  0.47787264523E+02  0.19999970268E+02 0.  0.
        -12    1    1    2    0    0  0.15546403940E+02 -0.77037462968E+01  0.39781722655E+02  0.43400735477E+02  0.00000000000E+00 0.  1.
         11    1    3    3    0    0 -0.16824098322E+01 -0.71568477042E-01 -0.42468630501E+00  0.17366587486E+01  0.51100000000E-03 0. -1.
        -11    1    3    3    0    0 -0.16221139090E+02  0.12860450268E+01 -0.21944235956E+02  0.27319018232E+02  0.51100000000E-03 0.  1.
         12    1    3    3    0    0  0.23571449817E+01  0.64892697471E+01 -0.17412800394E+02  0.18731587543E+02  0.00000000000E+00 0. -1.
</event>
<event>
 7    1  0.4031943E-009  0.4778726E+02  0.7816164E-02  0.1312668E+00
        -11   -1    0    0    0    0  0.00000000000E+00  0.00000000000E+00  0.45593999997E+02  0.45594000000E+02  0.51100000000E-03 0. -1.
         11   -1    0    0    0    0 -0.00000000000E+00 -0.00000000000E+00 -0.45593999997E+02  0.45594000000E+02  0.51100000000E-03 0.  1.
    9900012    2    1    2    0    0  0.18651082827E+02 -0.32495806520E+02 -0.21903967945E+02  0.47787261023E+02  0.19999954310E+02 0.  0.
        -12    1    1    2    0    0 -0.18651082827E+02  0.32495806520E+02  0.21903967945E+02  0.43400738977E+02  0.00000000000E+00 0.  1.
         11    1    3    3    0    0  0.21141797322E+02 -0.29244220699E+02 -0.23713403979E+02  0.43180152464E+02  0.51100000000E-03 0. -1.
        -11    1    3    3    0    0 -0.80955669776E+00 -0.14676176508E+01  0.12550598778E+01  0.20939100205E+01  0.51100000000E-03 0.  1.
         12    1    3    3    0    0 -0.16811577976E+01 -0.17839681697E+01  0.55437615625E+00  0.25131985384E+01  0.00000000000E+00 0. -1.
</event>
<event>
 7    1  0.4031943E-009  0.4778727E+02  0.7816164E-02  0.1312668E+00
        -11   -1    0    0    0    0  0.00000000000E+00  0.00000000000E+00  0.45593999997E+02  0.45594000000E+02  0.51100000000E-03 0. -1.
         11   -1    0    0    0    0 -0.00000000000E+00 -0.00000000000E+00 -0.45593999997E+02  0.45594000000E+02  0.51100000000E-03 0.  1.
    9900012    2    1    2    0    0 -0.30037361761E+02 -0.13765966492E+02  0.28140337252E+02  0.47787268259E+02  0.19999987298E+02 0.  0.
        -12    1    1    2    0    0  0.30037361761E+02  0.13765966492E+02 -0.28140337252E+02  0.43400731741E+02  0.00000000000E+00 0.  1.
         11    1    3    3    0    0 -0.29596210564E+01 -0.24096101189E+01  0.28857490586E+01  0.47846761242E+01  0.51100000000E-03 0. -1.
        -11    1    3    3    0    0 -0.54454827152E+01  0.52108867188E+01  0.48647476383E+01  0.89706405704E+01  0.51100000000E-03 0.  1.
        -12    1    3    3    0    0 -0.21632257989E+02 -0.16567243092E+02  0.20389840555E+02  0.34031951564E+02  0.00000000000E+00 0.  1.
</event>
<event>
 7    1  0.4031943E-009  0.4778727E+02  0.7816164E-02  0.1312668E+00
        -11   -1    0    0    0    0  0.00000000000E+00  0.00000000000E+00  0.45593999997E+02  0.45594000000E+02  0.51100000000E-03 0.  1.
         11   -1    0    0    0    0 -0.00000000000E+00 -0.00000000000E+00 -0.45593999997E+02  0.45594000000E+02  0.51100000000E-03 0. -1.
    9900012    2    1    2    0    0 -0.36046584973E+02 -0.12510123836E+02 -0.20682460360E+02  0.47787266675E+02  0.19999980077E+02 0.  0.
        -12    1    1    2    0    0  0.36046584973E+02  0.12510123836E+02  0.20682460360E+02  0.43400733325E+02  0.00000000000E+00 0.  1.
         11    1    3    3    0    0  0.80153903937E+00 -0.49572445867E+01 -0.36562391865E+01  0.62116683728E+01  0.51100000000E-03 0. -1.
        -11    1    3    3    0    0 -0.19242420697E+02 -0.64273329586E+01 -0.91852918171E+01  0.22269956203E+02  0.51100000000E-03 0.  1.
        -12    1    3    3    0    0 -0.17605703315E+02 -0.11255462904E+01 -0.78409293564E+01  0.19305642099E+02  0.00000000000E+00 0.  1.
</event>
<event>
 7    1  0.4031943E-009  0.4778721E+02  0.7816164E-02  0.1312668E+00
        -11   -1    0    0    0    0  0.00000000000E+00  0.00000000000E+00  0.45593999997E+02  0.45594000000E+02  0.51100000000E-03 0.  1.
         11   -1    0    0    0    0 -0.00000000000E+00 -0.00000000000E+00 -0.45593999997E+02  0.45594000000E+02  0.51100000000E-03 0. -1.
    9900012    2    1    2    0    0 -0.12550888361E+02 -0.12222864095E+02 -0.39707747115E+02  0.47787212147E+02  0.19999731461E+02 0.  0.
        -12    1    1    2    0    0  0.12550888361E+02  0.12222864095E+02  0.39707747115E+02  0.43400787853E+02  0.00000000000E+00 0.  1.
         11    1    3    3    0    0 -0.34610922034E+01 -0.10310757964E+02 -0.15114806231E+02  0.18621177639E+02  0.51100000000E-03 0. -1.
        -11    1    3    3    0    0 -0.13647623964E+01 -0.33970248579E+01 -0.19394728903E+02  0.19737220265E+02  0.51100000000E-03 0.  1.
        -12    1    3    3    0    0 -0.77250337609E+01  0.14849187265E+01 -0.51982119811E+01  0.94288142431E+01  0.00000000000E+00 0.  1.
</event>
<event>
 7    1  0.4031943E-009  0.4778727E+02  0.7816164E-02  0.1312668E+00
        -11   -1    0    0    0    0  0.00000000000E+00  0.00000000000E+00  0.45593999997E+02  0.45594000000E+02  0.51100000000E-03 0.  1.
         11   -1    0    0    0    0 -0.00000000000E+00 -0.00000000000E+00 -0.45593999997E+02  0.45594000000E+02  0.51100000000E-03 0. -1.
    9900012    2    1    2    0    0  0.83435706666E+01 -0.36079308141E+02 -0.22633861537E+02  0.47787270335E+02  0.19999996765E+02 0.  0.
        -12    1    1    2    0    0 -0.83435706666E+01  0.36079308141E+02  0.22633861537E+02  0.43400729665E+02  0.00000000000E+00 0.  1.
         11    1    3    3    0    0 -0.23410158334E+01 -0.13469190504E+02 -0.85449013928E+01  0.16121872969E+02  0.51100000000E-03 0. -1.
        -11    1    3    3    0    0 -0.30506588764E+01 -0.22236384125E+01 -0.17647271160E+01  0.41671752333E+01  0.51100000000E-03 0.  1.
         12    1    3    3    0    0  0.13735245376E+02 -0.20386479224E+02 -0.12324233028E+02  0.27498222132E+02  0.00000000000E+00 0. -1.
</event>
<event>
 7    1  0.4031943E-009  0.4778727E+02  0.7816164E-02  0.1312668E+00
        -11   -1    0    0    0    0  0.00000000000E+00  0.00000000000E+00  0.45593999997E+02  0.45594000000E+02  0.51100000000E-03 0.  1.
         11   -1    0    0    0    0 -0.00000000000E+00 -0.00000000000E+00 -0.45593999997E+02  0.45594000000E+02  0.51100000000E-03 0. -1.
    9900012    2    1    2    0    0  0.15813620049E+02  0.19841669616E+02 -0.35211661943E+02  0.47787267644E+02  0.19999984497E+02 0.  0.
        -12    1    1    2    0    0 -0.15813620049E+02 -0.19841669616E+02  0.35211661943E+02  0.43400732356E+02  0.00000000000E+00 0.  1.
         11    1    3    3    0    0 -0.14003987312E+01 -0.11740077445E+01 -0.12905885253E+01  0.22371923907E+01  0.51100000000E-03 0. -1.
        -11    1    3    3    0    0  0.11605575015E+02  0.66249681339E+01 -0.86039095229E+01  0.15893609834E+02  0.51100000000E-03 0.  1.
        -12    1    3    3    0    0  0.56084437652E+01  0.14390709227E+02 -0.25317163895E+02  0.29656465420E+02  0.00000000000E+00 0.  1.
</event>
<event>
 7    1  0.4031943E-009  0.4778727E+02  0.7816164E-02  0.1312668E+00
        -11   -1    0    0    0    0  0.00000000000E+00  0.00000000000E+00  0.45593999997E+02  0.45594000000E+02  0.51100000000E-03 0.  1.
         11   -1    0    0    0    0 -0.00000000000E+00 -0.00000000000E+00 -0.45593999997E+02  0.45594000000E+02  0.51100000000E-03 0. -1.
    9900012    2    1    2    0    0 -0.31809757352E+02 -0.28324436003E+02 -0.83360065688E+01  0.47787270246E+02  0.19999996360E+02 0.  0.
        -12    1    1    2    0    0  0.31809757352E+02  0.28324436003E+02  0.83360065688E+01  0.43400729754E+02  0.00000000000E+00 0.  1.
         11    1    3    3    0    0 -0.40712502949E+01  0.15606161518E+01 -0.37112941831E+00  0.43758815161E+01  0.51100000000E-03 0. -1.
        -11    1    3    3    0    0 -0.60277553344E+01 -0.18058598303E+01  0.18987747272E+01  0.65726942591E+01  0.51100000000E-03 0.  1.
        -12    1    3    3    0    0 -0.21710751723E+02 -0.28079192324E+02 -0.98636518777E+01  0.36838694471E+02  0.00000000000E+00 0.  1.
</event>
<event>
 7    1  0.4031943E-009  0.4778727E+02  0.7816164E-02  0.1312668E+00
        -11   -1    0    0    0    0  0.00000000000E+00  0.00000000000E+00  0.45593999997E+02  0.45594000000E+02  0.51100000000E-03 0.  1.
         11   -1    0    0    0    0 -0.00000000000E+00 -0.00000000000E+00 -0.45593999997E+02  0.45594000000E+02  0.51100000000E-03 0. -1.
    9900012    2    1    2    0    0 -0.46021394582E+01  0.53187259006E+01 -0.42827030754E+02  0.47787273093E+02  0.20000009342E+02 0.  0.
        -12    1    1    2    0    0  0.46021394582E+01 -0.53187259006E+01  0.42827030754E+02  0.43400726907E+02  0.00000000000E+00 0.  1.
         11    1    3    3    0    0 -0.93220907158E+01  0.63039846811E+01 -0.29289616533E+02  0.31377113237E+02  0.51100000000E-03 0. -1.
        -11    1    3    3    0    0  0.11821192915E+01  0.22008877836E+01 -0.10429364525E+02  0.10724409434E+02  0.51100000000E-03 0.  1.
        -12    1    3    3    0    0  0.35378319661E+01 -0.31861465641E+01 -0.31080496962E+01  0.56857504221E+01  0.00000000000E+00 0.  1.
</event>
<event>
 7    1  0.4031943E-009  0.4778727E+02  0.7816164E-02  0.1312668E+00
        -11   -1    0    0    0    0  0.00000000000E+00  0.00000000000E+00  0.45593999997E+02  0.45594000000E+02  0.51100000000E-03 0.  1.
         11   -1    0    0    0    0 -0.00000000000E+00 -0.00000000000E+00 -0.45593999997E+02  0.45594000000E+02  0.51100000000E-03 0. -1.
    9900012    2    1    2    0    0 -0.36443362962E+02  0.19308061960E+02 -0.13516777219E+02  0.47787271584E+02  0.20000002462E+02 0.  0.
        -12    1    1    2    0    0  0.36443362962E+02 -0.19308061960E+02  0.13516777219E+02  0.43400728416E+02  0.00000000000E+00 0.  1.
         11    1    3    3    0    0 -0.83120363562E+00 -0.13218110882E+01 -0.60315483953E+00  0.16738817336E+01  0.51100000000E-03 0. -1.
        -11    1    3    3    0    0 -0.66564139878E+01 -0.19556596435E+01 -0.49896570138E+01  0.85457082325E+01  0.51100000000E-03 0.  1.
         12    1    3    3    0    0 -0.28955745338E+02  0.22585532691E+02 -0.79239653659E+01  0.37567681618E+02  0.00000000000E+00 0. -1.
</event>
<event>
 7    1  0.4031943E-009  0.4778728E+02  0.7816164E-02  0.1312668E+00
        -11   -1    0    0    0    0  0.00000000000E+00  0.00000000000E+00  0.45593999997E+02  0.45594000000E+02  0.51100000000E-03 0.  1.
         11   -1    0    0    0    0 -0.00000000000E+00 -0.00000000000E+00 -0.45593999997E+02  0.45594000000E+02  0.51100000000E-03 0. -1.
    9900012    2    1    2    0    0 -0.22640492560E+02  0.34386582055E+02 -0.13732932769E+02  0.47787281443E+02  0.20000047411E+02 0.  0.
        -12    1    1    2    0    0  0.22640492560E+02 -0.34386582055E+02  0.13732932769E+02  0.43400718557E+02  0.00000000000E+00 0.  1.
         11    1    3    3    0    0 -0.15640545982E+01 -0.68571572418E+00 -0.18035368474E+01  0.24837911067E+01  0.51100000000E-03 0. -1.
        -11    1    3    3    0    0 -0.95576100800E+01  0.54694671844E+01 -0.72782468477E+01  0.13199843149E+02  0.51100000000E-03 0.  1.
         12    1    3    3    0    0 -0.11518827882E+02  0.29602830595E+02 -0.46511490742E+01  0.32103647187E+02  0.00000000000E+00 0. -1.
</event>
<event>
 7    1  0.4031943E-009  0.4778727E+02  0.7816164E-02  0.1312668E+00
        -11   -1    0    0    0    0  0.00000000000E+00  0.00000000000E+00  0.45593999997E+02  0.45594000000E+02  0.51100000000E-03 0.  1.
         11   -1    0    0    0    0 -0.00000000000E+00 -0.00000000000E+00 -0.45593999997E+02  0.45594000000E+02  0.51100000000E-03 0. -1.
    9900012    2    1    2    0    0 -0.11286313240E+02  0.30351109343E+02 -0.28897272050E+02  0.47787273775E+02  0.20000012451E+02 0.  0.
        -12    1    1    2    0    0  0.11286313240E+02 -0.30351109343E+02  0.28897272050E+02  0.43400726225E+02  0.00000000000E+00 0.  1.
         11    1    3    3    0    0 -0.49416893687E+01  0.35660333952E+01 -0.10405652137E+02  0.12058792835E+02  0.51100000000E-03 0. -1.
        -11    1    3    3    0    0 -0.86601128011E+01  0.19548419867E+02 -0.18275926779E+02  0.28127349198E+02  0.51100000000E-03 0.  1.
        -12    1    3    3    0    0  0.23154889300E+01  0.72366560811E+01 -0.21569313360E+00  0.76011317413E+01  0.00000000000E+00 0.  1.
</event>
<event>
 7    1  0.4031943E-009  0.4778727E+02  0.7816164E-02  0.1312668E+00
        -11   -1    0    0    0    0  0.00000000000E+00  0.00000000000E+00  0.45593999997E+02  0.45594000000E+02  0.51100000000E-03 0.  1.
         11   -1    0    0    0    0 -0.00000000000E+00 -0.00000000000E+00 -0.45593999997E+02  0.45594000000E+02  0.51100000000E-03 0. -1.
    9900012    2    1    2    0    0 -0.20030688368E+00  0.10301001872E+02 -0.42160083580E+02  0.47787269478E+02  0.19999992856E+02 0.  0.
        -12    1    1    2    0    0  0.20030688368E+00 -0.10301001872E+02  0.42160083580E+02  0.43400730522E+02  0.00000000000E+00 0.  1.
         11    1    3    3    0    0 -0.26517976598E+01 -0.46835660043E+01 -0.62497892519E+01  0.82478898696E+01  0.51100000000E-03 0. -1.
        -11    1    3    3    0    0  0.18328895497E+01  0.31247418182E+00 -0.38090273871E+01  0.42386099269E+01  0.51100000000E-03 0.  1.
         12    1    3    3    0    0  0.61860122634E+00  0.14672093695E+02 -0.32101266941E+02  0.35300769681E+02  0.00000000000E+00 0. -1.
</event>
<event>
 7    1  0.4031943E-009  0.4778727E+02  0.7816164E-02  0.1312668E+00
        -11   -1    0    0    0    0  0.00000000000E+00  0.00000000000E+00  0.45593999997E+02  0.45594000000E+02  0.51100000000E-03 0.  1.
         11   -1    0    0    0    0 -0.00000000000E+00 -0.00000000000E+00 -0.45593999997E+02  0.45594000000E+02  0.51100000000E-03 0. -1.
    9900012    2    1    2    0    0  0.27997722255E+02  0.24197375287E+02 -0.22676807735E+02  0.47787273839E+02  0.20000012741E+02 0.  0.
        -12    1    1    2    0    0 -0.27997722255E+02 -0.24197375287E+02  0.22676807735E+02  0.43400726161E+02  0.00000000000E+00 0.  1.
         11    1    3    3    0    0  0.18708387882E+02  0.87068960896E+01 -0.12903864917E+02  0.24337698057E+02  0.51100000000E-03 0. -1.
        -11    1    3    3    0    0  0.46525766571E+01  0.21862861840E+01  0.15556835515E+01  0.53708908388E+01  0.51100000000E-03 0.  1.
         12    1    3    3    0    0  0.46367577168E+01  0.13304193014E+02 -0.11328626369E+02  0.18078684944E+02  0.00000000000E+00 0. -1.
</event>
<event>
 7    1  0.4031943E-009  0.4778727E+02  0.7816164E-02  0.1312668E+00
        -11   -1    0    0    0    0  0.00000000000E+00  0.00000000000E+00  0.45593999997E+02  0.45594000000E+02  0.51100000000E-03 0.  1.
         11   -1    0    0    0    0 -0.00000000000E+00 -0.00000000000E+00 -0.45593999997E+02  0.45594000000E+02  0.51100000000E-03 0. -1.
    9900012    2    1    2    0    0 -0.39464940102E+02  0.17151848903E+02 -0.56529716086E+01  0.47787268369E+02  0.19999987804E+02 0.  0.
        -12    1    1    2    0    0  0.39464940102E+02 -0.17151848903E+02  0.56529716086E+01  0.43400731631E+02  0.00000000000E+00 0.  1.
         11    1    3    3    0    0 -0.36395824830E+02  0.92885353783E+01 -0.56448819625E+00  0.37566628831E+02  0.51100000000E-03 0. -1.
        -11    1    3    3    0    0 -0.56922375054E+00  0.72667508144E+00 -0.16997630498E+01  0.19342355179E+01  0.51100000000E-03 0.  1.
        -12    1    3    3    0    0 -0.24998915212E+01  0.71366384436E+01 -0.33887203626E+01  0.82864040204E+01  0.00000000000E+00 0.  1.
</event>
<event>
 7    1  0.4031943E-009  0.4778727E+02  0.7816164E-02  0.1312668E+00
        -11   -1    0    0    0    0  0.00000000000E+00  0.00000000000E+00  0.45593999997E+02  0.45594000000E+02  0.51100000000E-03 0.  1.
         11   -1    0    0    0    0 -0.00000000000E+00 -0.00000000000E+00 -0.45593999997E+02  0.45594000000E+02  0.51100000000E-03 0. -1.
    9900012    2    1    2    0    0  0.35299333368E+01 -0.35278679564E+02 -0.25031533916E+02  0.47787270152E+02  0.19999995929E+02 0.  0.
        -12    1    1    2    0    0 -0.35299333368E+01  0.35278679564E+02  0.25031533916E+02  0.43400729848E+02  0.00000000000E+00 0.  1.
         11    1    3    3    0    0 -0.16193560013E+01 -0.33359813340E+01 -0.19578932805E+01  0.41933795057E+01  0.51100000000E-03 0. -1.
        -11    1    3    3    0    0  0.97386529583E+01 -0.17714554213E+02 -0.19786118999E+02  0.28286698247E+02  0.51100000000E-03 0.  1.
        -12    1    3    3    0    0 -0.45893636202E+01 -0.14228144018E+02 -0.32875216366E+01  0.15307192399E+02  0.00000000000E+00 0.  1.
</event>
<event>
 7    1  0.4031943E-009  0.4778727E+02  0.7816164E-02  0.1312668E+00
        -11   -1    0    0    0    0  0.00000000000E+00  0.00000000000E+00  0.45593999997E+02  0.45594000000E+02  0.51100000000E-03 0. -1.
         11   -1    0    0    0    0 -0.00000000000E+00 -0.00000000000E+00 -0.45593999997E+02  0.45594000000E+02  0.51100000000E-03 0.  1.
    9900012    2    1    2    0    0 -0.13875762614E+00  0.36932701893E+02  0.22794280799E+02  0.47787274661E+02  0.20000016491E+02 0.  0.
        -12    1    1    2    0    0  0.13875762614E+00 -0.36932701893E+02 -0.22794280799E+02  0.43400725339E+02  0.00000000000E+00 0.  1.
         11    1    3    3    0    0  0.25033835221E+01  0.22067230525E+01  0.61981462096E+00  0.33942195148E+01  0.51100000000E-03 0. -1.
        -11    1    3    3    0    0 -0.37048886575E+01  0.73605856985E+01 -0.12760637400E+01  0.83386306262E+01  0.51100000000E-03 0.  1.
         12    1    3    3    0    0  0.10627475092E+01  0.27365393142E+02  0.23450529918E+02  0.36054424520E+02  0.00000000000E+00 0. -1.
</event>
<event>
 7    1  0.4031943E-009  0.4778728E+02  0.7816164E-02  0.1312668E+00
        -11   -1    0    0    0    0  0.00000000000E+00  0.00000000000E+00  0.45593999997E+02  0.45594000000E+02  0.51100000000E-03 0.  1.
         11   -1    0    0    0    0 -0.00000000000E+00 -0.00000000000E+00 -0.45593999997E+02  0.45594000000E+02  0.51100000000E-03 0. -1.
    9900012    2    1    2    0    0  0.82305110000E+01 -0.15567727367E+02 -0.39667705813E+02  0.47787281905E+02  0.20000049516E+02 0.  0.
        -12    1    1    2    0    0 -0.82305110000E+01  0.15567727367E+02  0.39667705813E+02  0.43400718095E+02  0.00000000000E+00 0.  1.
         11    1    3    3    0    0  0.71089212545E+01 -0.71193106773E+01 -0.19657064809E+02  0.22082154403E+02  0.51100000000E-03 0. -1.
        -11    1    3    3    0    0  0.58052879957E-01 -0.12004575484E+02 -0.12520814759E+02  0.17346008336E+02  0.51100000000E-03 0.  1.
         12    1    3    3    0    0  0.10635368656E+01  0.35561587946E+01 -0.74898262454E+01  0.83591191656E+01  0.00000000000E+00 0. -1.
</event>
<event>
 7    1  0.4031943E-009  0.4778728E+02  0.7816164E-02  0.1312668E+00
        -11   -1    0    0    0    0  0.00000000000E+00  0.00000000000E+00  0.45593999997E+02  0.45594000000E+02  0.51100000000E-03 0.  1.
         11   -1    0    0    0    0 -0.00000000000E+00 -0.00000000000E+00 -0.45593999997E+02  0.45594000000E+02  0.51100000000E-03 0. -1.
    9900012    2    1    2    0    0 -0.67527522568E+01  0.25753611659E+02 -0.34274986995E+02  0.47787275236E+02  0.20000019110E+02 0.  0.
        -12    1    1    2    0    0  0.67527522568E+01 -0.25753611659E+02  0.34274986995E+02  0.43400724764E+02  0.00000000000E+00 0.  1.
         11    1    3    3    0    0  0.14128807350E+01 -0.16804752499E+00 -0.15105358978E+01  0.20751363574E+01  0.51100000000E-03 0. -1.
        -11    1    3    3    0    0 -0.13428063908E+00  0.11858578194E+01  0.19803125464E+01  0.23121263158E+01  0.51100000000E-03 0.  1.
         12    1    3    3    0    0 -0.80313523528E+01  0.24735801365E+02 -0.34744763644E+02  0.43400012563E+02  0.00000000000E+00 0. -1.
</event>
<event>
 7    1  0.4031943E-009  0.4778727E+02  0.7816164E-02  0.1312668E+00
        -11   -1    0    0    0    0  0.00000000000E+00  0.00000000000E+00  0.45593999997E+02  0.45594000000E+02  0.51100000000E-03 0.  1.
         11   -1    0    0    0    0 -0.00000000000E+00 -0.00000000000E+00 -0.45593999997E+02  0.45594000000E+02  0.51100000000E-03 0. -1.
    9900012    2    1    2    0    0 -0.10295789314E+02  0.38166292137E+02 -0.17915192578E+02  0.47787271225E+02  0.20000000825E+02 0.  0.
        -12    1    1    2    0    0  0.10295789314E+02 -0.38166292137E+02  0.17915192578E+02  0.43400728775E+02  0.00000000000E+00 0.  1.
         11    1    3    3    0    0 -0.25201920152E+01  0.13830770281E+02 -0.30384339514E+01  0.14383103125E+02  0.51100000000E-03 0. -1.
        -11    1    3    3    0    0 -0.11071947445E+02  0.16913470919E+02 -0.54005570587E+01  0.20924137630E+02  0.51100000000E-03 0.  1.
         12    1    3    3    0    0  0.32963501462E+01  0.74220509361E+01 -0.94762015680E+01  0.12480030470E+02  0.00000000000E+00 0. -1.
</event>
<event>
 7    1  0.4031943E-009  0.4778727E+02  0.7816164E-02  0.1312668E+00
        -11   -1    0    0    0    0  0.00000000000E+00  0.00000000000E+00  0.45593999997E+02  0.45594000000E+02  0.51100000000E-03 0.  1.
         11   -1    0    0    0    0 -0.00000000000E+00 -0.00000000000E+00 -0.45593999997E+02  0.45594000000E+02  0.51100000000E-03 0. -1.
    9900012    2    1    2    0    0  0.24726283399E+01 -0.38656348870E+02 -0.19575394662E+02  0.47787271031E+02  0.19999999941E+02 0.  0.
        -12    1    1    2    0    0 -0.24726283399E+01  0.38656348870E+02  0.19575394662E+02  0.43400728969E+02  0.00000000000E+00 0.  1.
         11    1    3    3    0    0  0.57514914595E+01 -0.85765777986E+01 -0.75273550111E+00  0.10353934119E+02  0.51100000000E-03 0. -1.
        -11    1    3    3    0    0  0.72757396565E+00  0.52999246079E+00  0.48438576109E+00  0.10221965127E+01  0.51100000000E-03 0.  1.
         12    1    3    3    0    0 -0.40064370853E+01 -0.30609763532E+02 -0.19307044922E+02  0.36411140400E+02  0.00000000000E+00 0. -1.
</event>
<event>
 7    1  0.4031943E-009  0.4778727E+02  0.7816164E-02  0.1312668E+00
        -11   -1    0    0    0    0  0.00000000000E+00  0.00000000000E+00  0.45593999997E+02  0.45594000000E+02  0.51100000000E-03 0.  1.
         11   -1    0    0    0    0 -0.00000000000E+00 -0.00000000000E+00 -0.45593999997E+02  0.45594000000E+02  0.51100000000E-03 0. -1.
    9900012    2    1    2    0    0  0.20260322516E+02  0.32658970526E+02 -0.20162692986E+02  0.47787271748E+02  0.20000003210E+02 0.  0.
        -12    1    1    2    0    0 -0.20260322516E+02 -0.32658970526E+02  0.20162692986E+02  0.43400728252E+02  0.00000000000E+00 0.  1.
         11    1    3    3    0    0  0.72639257044E+01  0.14214942617E+02 -0.11955301791E+02  0.19943882556E+02  0.51100000000E-03 0. -1.
        -11    1    3    3    0    0 -0.71320124696E+00  0.94733808008E+01 -0.61831365982E+01  0.11335112627E+02  0.51100000000E-03 0.  1.
        -12    1    3    3    0    0  0.13709598059E+02  0.89706471084E+01 -0.20242545973E+01  0.16508276565E+02  0.00000000000E+00 0.  1.
</event>
<event>
 7    1  0.4031943E-009  0.4778727E+02  0.7816164E-02  0.1312668E+00
        -11   -1    0    0    0    0  0.00000000000E+00  0.00000000000E+00  0.45593999997E+02  0.45594000000E+02  0.51100000000E-03 0.  1.
         11   -1    0    0    0    0 -0.00000000000E+00 -0.00000000000E+00 -0.45593999997E+02  0.45594000000E+02  0.51100000000E-03 0. -1.
    9900012    2    1    2    0    0  0.16764978359E+02 -0.14361007946E+02 -0.37367364427E+02  0.47787274513E+02  0.20000015813E+02 0.  0.
        -12    1    1    2    0    0 -0.16764978359E+02  0.14361007946E+02  0.37367364427E+02  0.43400725487E+02  0.00000000000E+00 0.  1.
         11    1    3    3    0    0  0.81948478617E+01 -0.87097198333E+01 -0.13241648634E+02  0.17842533729E+02  0.51100000000E-03 0. -1.
        -11    1    3    3    0    0  0.29538613674E+01 -0.82138179337E+01 -0.54866189264E+01  0.10309950996E+02  0.51100000000E-03 0.  1.
        -12    1    3    3    0    0  0.56162691295E+01  0.25625298212E+01 -0.18639096867E+02  0.19634789789E+02  0.00000000000E+00 0.  1.
</event>
<event>
 7    1  0.4031943E-009  0.4778727E+02  0.7816164E-02  0.1312668E+00
        -11   -1    0    0    0    0  0.00000000000E+00  0.00000000000E+00  0.45593999997E+02  0.45594000000E+02  0.51100000000E-03 0. -1.
         11   -1    0    0    0    0 -0.00000000000E+00 -0.00000000000E+00 -0.45593999997E+02  0.45594000000E+02  0.51100000000E-03 0.  1.
    9900012    2    1    2    0    0  0.30289420052E+02 -0.13820470544E+02  0.27841854240E+02  0.47787271657E+02  0.20000002794E+02 0.  0.
        -12    1    1    2    0    0 -0.30289420052E+02  0.13820470544E+02 -0.27841854240E+02  0.43400728343E+02  0.00000000000E+00 0.  1.
         11    1    3    3    0    0  0.14777112792E+02 -0.31490862208E+01  0.61071541404E+01  0.16296537622E+02  0.51100000000E-03 0. -1.
        -11    1    3    3    0    0  0.29142700060E+01  0.74083211565E+00 -0.94128219142E+00  0.31508434293E+01  0.51100000000E-03 0.  1.
        -12    1    3    3    0    0  0.12598037254E+02 -0.11412216439E+02  0.22675982291E+02  0.28339890606E+02  0.00000000000E+00 0.  1.
</event>
<event>
 7    1  0.4031943E-009  0.4778727E+02  0.7816164E-02  0.1312668E+00
        -11   -1    0    0    0    0  0.00000000000E+00  0.00000000000E+00  0.45593999997E+02  0.45594000000E+02  0.51100000000E-03 0.  1.
         11   -1    0    0    0    0 -0.00000000000E+00 -0.00000000000E+00 -0.45593999997E+02  0.45594000000E+02  0.51100000000E-03 0. -1.
    9900012    2    1    2    0    0 -0.10155010680E+02 -0.13053849383E+02 -0.40126005856E+02  0.47787267614E+02  0.19999984360E+02 0.  0.
        -12    1    1    2    0    0  0.10155010680E+02  0.13053849383E+02  0.40126005856E+02  0.43400732386E+02  0.00000000000E+00 0.  1.
         11    1    3    3    0    0  0.13972200677E+01 -0.29163507097E+01 -0.10032090632E+02  0.10540406448E+02  0.51100000000E-03 0. -1.
        -11    1    3    3    0    0 -0.91483569890E+01 -0.14337338590E+02 -0.21867536182E+02  0.27702722833E+02  0.51100000000E-03 0.  1.
        -12    1    3    3    0    0 -0.24038737588E+01  0.41998399165E+01 -0.82263790431E+01  0.95441383337E+01  0.00000000000E+00 0.  1.
</event>
<event>
 7    1  0.4031943E-009  0.4778727E+02  0.7816164E-02  0.1312668E+00
        -11   -1    0    0    0    0  0.00000000000E+00  0.00000000000E+00  0.45593999997E+02  0.45594000000E+02  0.51100000000E-03 0. -1.
         11   -1    0    0    0    0 -0.00000000000E+00 -0.00000000000E+00 -0.45593999997E+02  0.45594000000E+02  0.51100000000E-03 0.  1.
    9900012    2    1    2    0    0  0.41957885705E+02 -0.10509133869E+02  0.35660823928E+01  0.47787274071E+02  0.20000013801E+02 0.  0.
        -12    1    1    2    0    0 -0.41957885705E+02  0.10509133869E+02 -0.35660823928E+01  0.43400725929E+02  0.00000000000E+00 0.  1.
         11    1    3    3    0    0  0.44942288391E+01 -0.39221753345E+01 -0.24650726849E+01  0.64543114130E+01  0.51100000000E-03 0. -1.
        -11    1    3    3    0    0  0.56090119705E+00  0.24004019818E+01  0.19301401337E+01  0.31308115600E+01  0.51100000000E-03 0.  1.
         12    1    3    3    0    0  0.36902755669E+02 -0.89873605164E+01  0.41010149439E+01  0.38202151099E+02  0.00000000000E+00 0. -1.
</event>
<event>
 7    1  0.4031943E-009  0.4778722E+02  0.7816164E-02  0.1312668E+00
        -11   -1    0    0    0    0  0.00000000000E+00  0.00000000000E+00  0.45593999997E+02  0.45594000000E+02  0.51100000000E-03 0. -1.
         11   -1    0    0    0    0 -0.00000000000E+00 -0.00000000000E+00 -0.45593999997E+02  0.45594000000E+02  0.51100000000E-03 0.  1.
    9900012    2    1    2    0    0 -0.16588533920E+02  0.19549190332E+02  0.35018242442E+02  0.47787221160E+02  0.19999772554E+02 0.  0.
        -12    1    1    2    0    0  0.16588533920E+02 -0.19549190332E+02 -0.35018242442E+02  0.43400778840E+02  0.00000000000E+00 0.  1.
         11    1    3    3    0    0 -0.54028985637E-01  0.12342529542E+02  0.89988813377E+01  0.15274842723E+02  0.51100000000E-03 0. -1.
        -11    1    3    3    0    0 -0.55048640897E+01  0.32116522445E+01  0.38917308333E+01  0.74675168513E+01  0.51100000000E-03 0.  1.
         12    1    3    3    0    0 -0.11029640845E+02  0.39950085459E+01  0.22127630271E+02  0.25044861585E+02  0.00000000000E+00 0. -1.
</event>
<event>
 7    1  0.4031943E-009  0.4778726E+02  0.7816164E-02  0.1312668E+00
        -11   -1    0    0    0    0  0.00000000000E+00  0.00000000000E+00  0.45593999997E+02  0.45594000000E+02  0.51100000000E-03 0.  1.
         11   -1    0    0    0    0 -0.00000000000E+00 -0.00000000000E+00 -0.45593999997E+02  0.45594000000E+02  0.51100000000E-03 0. -1.
    9900012    2    1    2    0    0  0.21196897448E+02 -0.37669863625E+02 -0.39111350671E+01  0.47787261936E+02  0.19999958472E+02 0.  0.
        -12    1    1    2    0    0 -0.21196897448E+02  0.37669863625E+02  0.39111350671E+01  0.43400738064E+02  0.00000000000E+00 0.  1.
         11    1    3    3    0    0 -0.10529109345E+01  0.62697571823E+00 -0.11156033392E+01  0.16571937300E+01  0.51100000000E-03 0. -1.
        -11    1    3    3    0    0  0.48045617809E-02 -0.44397976697E+00 -0.21754998536E+01  0.22203470430E+01  0.51100000000E-03 0.  1.
         12    1    3    3    0    0  0.22245003820E+02 -0.37852859577E+02 -0.62003187428E+00  0.43909721163E+02  0.00000000000E+00 0. -1.
</event>
<event>
 7    1  0.4031943E-009  0.4778727E+02  0.7816164E-02  0.1312668E+00
        -11   -1    0    0    0    0  0.00000000000E+00  0.00000000000E+00  0.45593999997E+02  0.45594000000E+02  0.51100000000E-03 0.  1.
         11   -1    0    0    0    0 -0.00000000000E+00 -0.00000000000E+00 -0.45593999997E+02  0.45594000000E+02  0.51100000000E-03 0. -1.
    9900012    2    1    2    0    0 -0.14516077004E+02 -0.16318781592E+02 -0.37504720488E+02  0.47787272090E+02  0.20000004766E+02 0.  0.
        -12    1    1    2    0    0  0.14516077004E+02  0.16318781592E+02  0.37504720488E+02  0.43400727910E+02  0.00000000000E+00 0.  1.
         11    1    3    3    0    0  0.66592359045E+00 -0.25998528543E+01 -0.14502925340E+01  0.30505799100E+01  0.51100000000E-03 0. -1.
        -11    1    3    3    0    0 -0.10195264810E+02  0.53617348443E+00 -0.83735301520E+01  0.13204049153E+02  0.51100000000E-03 0.  1.
         12    1    3    3    0    0 -0.49867357846E+01 -0.14255102222E+02 -0.27680897802E+02  0.31532643027E+02  0.00000000000E+00 0. -1.
</event>
<event>
 7    1  0.4031943E-009  0.4778727E+02  0.7816164E-02  0.1312668E+00
        -11   -1    0    0    0    0  0.00000000000E+00  0.00000000000E+00  0.45593999997E+02  0.45594000000E+02  0.51100000000E-03 0.  1.
         11   -1    0    0    0    0 -0.00000000000E+00 -0.00000000000E+00 -0.45593999997E+02  0.45594000000E+02  0.51100000000E-03 0. -1.
    9900012    2    1    2    0    0 -0.13842233305E+01 -0.26737392876E+02 -0.34158730929E+02  0.47787272464E+02  0.20000006471E+02 0.  0.
        -12    1    1    2    0    0  0.13842233305E+01  0.26737392876E+02  0.34158730929E+02  0.43400727536E+02  0.00000000000E+00 0.  1.
         11    1    3    3    0    0 -0.60928175146E+00  0.79721663473E+00  0.30895782838E+00  0.10498732382E+01  0.51100000000E-03 0. -1.
        -11    1    3    3    0    0  0.99133102157E+00 -0.85795194020E+01 -0.16426796348E+01  0.87914325913E+01  0.51100000000E-03 0.  1.
         12    1    3    3    0    0 -0.17662726006E+01 -0.18955090108E+02 -0.32825009122E+02  0.37945966634E+02  0.00000000000E+00 0. -1.
</event>
<event>
 7    1  0.4031943E-009  0.4778729E+02  0.7816164E-02  0.1312668E+00
        -11   -1    0    0    0    0  0.00000000000E+00  0.00000000000E+00  0.45593999997E+02  0.45594000000E+02  0.51100000000E-03 0. -1.
         11   -1    0    0    0    0 -0.00000000000E+00 -0.00000000000E+00 -0.45593999997E+02  0.45594000000E+02  0.51100000000E-03 0.  1.
    9900012    2    1    2    0    0 -0.42439889097E+02  0.29122622345E+01  0.86021191240E+01  0.47787286742E+02  0.20000071571E+02 0.  0.
        -12    1    1    2    0    0  0.42439889097E+02 -0.29122622345E+01 -0.86021191240E+01  0.43400713258E+02  0.00000000000E+00 0.  1.
         11    1    3    3    0    0 -0.16143310215E+02  0.24735596124E+01 -0.10162910991E+01  0.16363306809E+02  0.51100000000E-03 0. -1.
        -11    1    3    3    0    0 -0.62488687653E+01  0.35469989617E+01 -0.27158333421E+01  0.76814916184E+01  0.51100000000E-03 0.  1.
         12    1    3    3    0    0 -0.20047710116E+02 -0.31082963395E+01  0.12334243565E+02  0.23742488315E+02  0.00000000000E+00 0. -1.
</event>
<event>
 7    1  0.4031943E-009  0.4778727E+02  0.7816164E-02  0.1312668E+00
        -11   -1    0    0    0    0  0.00000000000E+00  0.00000000000E+00  0.45593999997E+02  0.45594000000E+02  0.51100000000E-03 0.  1.
         11   -1    0    0    0    0 -0.00000000000E+00 -0.00000000000E+00 -0.45593999997E+02  0.45594000000E+02  0.51100000000E-03 0. -1.
    9900012    2    1    2    0    0 -0.14296051280E+02 -0.21046753473E+02 -0.35160780899E+02  0.47787269276E+02  0.19999991939E+02 0.  0.
        -12    1    1    2    0    0  0.14296051280E+02  0.21046753473E+02  0.35160780899E+02  0.43400730724E+02  0.00000000000E+00 0.  1.
         11    1    3    3    0    0 -0.11333043136E+02 -0.21907683241E+02 -0.22549683352E+02  0.33419644989E+02  0.51100000000E-03 0. -1.
        -11    1    3    3    0    0 -0.98600205378E+00  0.39279211453E+00  0.44756046788E+00  0.11518664544E+01  0.51100000000E-03 0.  1.
        -12    1    3    3    0    0 -0.19770060902E+01  0.46813765338E+00 -0.13058658015E+02  0.13215757832E+02  0.00000000000E+00 0.  1.
</event>
<event>
 7    1  0.4031943E-009  0.4778727E+02  0.7816164E-02  0.1312668E+00
        -11   -1    0    0    0    0  0.00000000000E+00  0.00000000000E+00  0.45593999997E+02  0.45594000000E+02  0.51100000000E-03 0. -1.
         11   -1    0    0    0    0 -0.00000000000E+00 -0.00000000000E+00 -0.45593999997E+02  0.45594000000E+02  0.51100000000E-03 0.  1.
    9900012    2    1    2    0    0  0.32488235739E+02  0.20381341517E+01  0.28705125235E+02  0.47787266516E+02  0.19999979352E+02 0.  0.
        -12    1    1    2    0    0 -0.32488235739E+02 -0.20381341517E+01 -0.28705125235E+02  0.43400733484E+02  0.00000000000E+00 0.  1.
         11    1    3    3    0    0  0.18103653195E+02  0.19181201316E+01  0.18024643957E+02  0.25618533016E+02  0.51100000000E-03 0. -1.
        -11    1    3    3    0    0  0.76288041596E+01  0.52763611751E+01  0.10004900443E+02  0.13643191463E+02  0.51100000000E-03 0.  1.
         12    1    3    3    0    0  0.67557783842E+01 -0.51563471549E+01  0.67558083440E+00  0.85255420368E+01  0.00000000000E+00 0. -1.
</event>
<event>
 7    1  0.4031943E-009  0.4778727E+02  0.7816164E-02  0.1312668E+00
        -11   -1    0    0    0    0  0.00000000000E+00  0.00000000000E+00  0.45593999997E+02  0.45594000000E+02  0.51100000000E-03 0.  1.
         11   -1    0    0    0    0 -0.00000000000E+00 -0.00000000000E+00 -0.45593999997E+02  0.45594000000E+02  0.51100000000E-03 0. -1.
    9900012    2    1    2    0    0 -0.21653692337E+02  0.36789576570E+02 -0.78273914108E+01  0.47787269680E+02  0.19999993777E+02 0.  0.
        -12    1    1    2    0    0  0.21653692337E+02 -0.36789576570E+02  0.78273914108E+01  0.43400730320E+02  0.00000000000E+00 0.  1.
         11    1    3    3    0    0 -0.44002701919E+01  0.46756927134E+01 -0.68342262031E+01  0.93771599202E+01  0.51100000000E-03 0. -1.
        -11    1    3    3    0    0  0.16665728188E+01  0.10571265931E+01  0.41537381129E+00  0.20168086817E+01  0.51100000000E-03 0.  1.
         12    1    3    3    0    0 -0.18919994964E+02  0.31056757264E+02 -0.14085390190E+01  0.36393301078E+02  0.00000000000E+00 0. -1.
</event>
<event>
 7    1  0.4031943E-009  0.4778725E+02  0.7816164E-02  0.1312668E+00
        -11   -1    0    0    0    0  0.00000000000E+00  0.00000000000E+00  0.45593999997E+02  0.45594000000E+02  0.51100000000E-03 0.  1.
         11   -1    0    0    0    0 -0.00000000000E+00 -0.00000000000E+00 -0.45593999997E+02  0.45594000000E+02  0.51100000000E-03 0. -1.
    9900012    2    1    2    0    0  0.30176963723E+02 -0.29072937055E+01 -0.31056778858E+02  0.47787251052E+02  0.19999908845E+02 0.  0.
        -12    1    1    2    0    0 -0.30176963723E+02  0.29072937055E+01  0.31056778858E+02  0.43400748948E+02  0.00000000000E+00 0.  1.
         11    1    3    3    0    0  0.56488805187E+01 -0.39001960882E+01 -0.65121423935E+01  0.94619965893E+01  0.51100000000E-03 0. -1.
        -11    1    3    3    0    0 -0.60025894671E+00 -0.36487976309E+01 -0.46462065289E+01  0.59381201002E+01  0.51100000000E-03 0.  1.
         12    1    3    3    0    0  0.25128342151E+02  0.46417000137E+01 -0.19898429936E+02  0.32387134362E+02  0.00000000000E+00 0. -1.
</event>
<event>
 7    1  0.4031943E-009  0.4778727E+02  0.7816164E-02  0.1312668E+00
        -11   -1    0    0    0    0  0.00000000000E+00  0.00000000000E+00  0.45593999997E+02  0.45594000000E+02  0.51100000000E-03 0. -1.
         11   -1    0    0    0    0 -0.00000000000E+00 -0.00000000000E+00 -0.45593999997E+02  0.45594000000E+02  0.51100000000E-03 0.  1.
    9900012    2    1    2    0    0 -0.32346413778E+01  0.10900874413E+02  0.41884735577E+02  0.47787273714E+02  0.20000012171E+02 0.  0.
        -12    1    1    2    0    0  0.32346413778E+01 -0.10900874413E+02 -0.41884735577E+02  0.43400726286E+02  0.00000000000E+00 0.  1.
         11    1    3    3    0    0 -0.25654241269E+01  0.16636783129E+00  0.75363831159E+00  0.26790017118E+01  0.51100000000E-03 0.  1.
        -11    1    3    3    0    0 -0.77792376534E+01  0.43505505718E+01  0.21531620431E+02  0.23303529934E+02  0.51100000000E-03 0. -1.
         12    1    3    3    0    0  0.71100204024E+01  0.63839560103E+01  0.19599476835E+02  0.21804742068E+02  0.00000000000E+00 0. -1.
</event>
<event>
 7    1  0.4031943E-009  0.4778727E+02  0.7816164E-02  0.1312668E+00
        -11   -1    0    0    0    0  0.00000000000E+00  0.00000000000E+00  0.45593999997E+02  0.45594000000E+02  0.51100000000E-03 0.  1.
         11   -1    0    0    0    0 -0.00000000000E+00 -0.00000000000E+00 -0.45593999997E+02  0.45594000000E+02  0.51100000000E-03 0. -1.
    9900012    2    1    2    0    0  0.30121951794E+02 -0.11182292728E+02 -0.29176148813E+02  0.47787270628E+02  0.19999998100E+02 0.  0.
        -12    1    1    2    0    0 -0.30121951794E+02  0.11182292728E+02  0.29176148813E+02  0.43400729372E+02  0.00000000000E+00 0.  1.
         11    1    3    3    0    0  0.98078080014E+01 -0.55108716681E+01 -0.97917487992E+01  0.14914461074E+02  0.51100000000E-03 0. -1.
        -11    1    3    3    0    0  0.54337535385E+01 -0.15408536236E+01  0.24273708645E+01  0.61475228329E+01  0.51100000000E-03 0.  1.
        -12    1    3    3    0    0  0.14880390254E+02 -0.41305674365E+01 -0.21811770878E+02  0.26725286720E+02  0.00000000000E+00 0.  1.
</event>
<event>
 7    1  0.4031943E-009  0.4778727E+02  0.7816164E-02  0.1312668E+00
        -11   -1    0    0    0    0  0.00000000000E+00  0.00000000000E+00  0.45593999997E+02  0.45594000000E+02  0.51100000000E-03 0.  1.
         11   -1    0    0    0    0 -0.00000000000E+00 -0.00000000000E+00 -0.45593999997E+02  0.45594000000E+02  0.51100000000E-03 0. -1.
    9900012    2    1    2    0    0 -0.40752874131E+02  0.10870660245E+02 -0.10230123056E+02  0.47787269340E+02  0.19999992228E+02 0.  0.
        -12    1    1    2    0    0  0.40752874131E+02 -0.10870660245E+02  0.10230123056E+02  0.43400730660E+02  0.00000000000E+00 0.  1.
         11    1    3    3    0    0 -0.13883834455E+02  0.97591051202E+01 -0.19231901311E+01  0.17079216975E+02  0.51100000000E-03 0. -1.
        -11    1    3    3    0    0 -0.21226214090E+02  0.16784050932E+01 -0.81023583480E+00  0.21307878604E+02  0.51100000000E-03 0.  1.
        -12    1    3    3    0    0 -0.56428255860E+01 -0.56684996817E+00 -0.74966970898E+01  0.94001737610E+01  0.00000000000E+00 0.  1.
</event>
<event>
 7    1  0.4031943E-009  0.4778727E+02  0.7816164E-02  0.1312668E+00
        -11   -1    0    0    0    0  0.00000000000E+00  0.00000000000E+00  0.45593999997E+02  0.45594000000E+02  0.51100000000E-03 0.  1.
         11   -1    0    0    0    0 -0.00000000000E+00 -0.00000000000E+00 -0.45593999997E+02  0.45594000000E+02  0.51100000000E-03 0. -1.
    9900012    2    1    2    0    0 -0.18063920112E+02  0.38195277050E+02 -0.99216321694E+01  0.47787272084E+02  0.20000004738E+02 0.  0.
        -12    1    1    2    0    0  0.18063920112E+02 -0.38195277050E+02  0.99216321694E+01  0.43400727916E+02  0.00000000000E+00 0.  1.
         11    1    3    3    0    0 -0.78097124973E+01  0.17027960915E+02 -0.10559401407E+01  0.18763210601E+02  0.51100000000E-03 0. -1.
        -11    1    3    3    0    0 -0.66291451223E+01  0.21945659935E+02 -0.46174990917E+01  0.23385441051E+02  0.51100000000E-03 0.  1.
        -12    1    3    3    0    0 -0.36250624923E+01 -0.77834379940E+00 -0.42481929370E+01  0.56386204317E+01  0.00000000000E+00 0.  1.
</event>
<event>
 7    1  0.4031943E-009  0.4778727E+02  0.7816164E-02  0.1312668E+00
        -11   -1    0    0    0    0  0.00000000000E+00  0.00000000000E+00  0.45593999997E+02  0.45594000000E+02  0.51100000000E-03 0. -1.
         11   -1    0    0    0    0 -0.00000000000E+00 -0.00000000000E+00 -0.45593999997E+02  0.45594000000E+02  0.51100000000E-03 0.  1.
    9900012    2    1    2    0    0 -0.12148069498E+02 -0.34146134630E+02  0.23876539571E+02  0.47787271382E+02  0.20000001538E+02 0.  0.
        -12    1    1    2    0    0  0.12148069498E+02  0.34146134630E+02 -0.23876539571E+02  0.43400728618E+02  0.00000000000E+00 0.  1.
         11    1    3    3    0    0  0.54309388955E-01 -0.80363987412E+00  0.10129997222E+01  0.12942006241E+01  0.51100000000E-03 0.  1.
        -11    1    3    3    0    0 -0.43171568650E+01 -0.32117682915E+02  0.17033357828E+02  0.36610362992E+02  0.51100000000E-03 0. -1.
         12    1    3    3    0    0 -0.78852220224E+01 -0.12248118407E+01  0.58301820209E+01  0.98827077658E+01  0.00000000000E+00 0. -1.
</event>
<event>
 7    1  0.4031943E-009  0.4778727E+02  0.7816164E-02  0.1312668E+00
        -11   -1    0    0    0    0  0.00000000000E+00  0.00000000000E+00  0.45593999997E+02  0.45594000000E+02  0.51100000000E-03 0. -1.
         11   -1    0    0    0    0 -0.00000000000E+00 -0.00000000000E+00 -0.45593999997E+02  0.45594000000E+02  0.51100000000E-03 0.  1.
    9900012    2    1    2    0    0 -0.32252532386E+02 -0.62743916418E+01  0.28355408419E+02  0.47787273941E+02  0.20000013209E+02 0.  0.
        -12    1    1    2    0    0  0.32252532386E+02  0.62743916418E+01 -0.28355408419E+02  0.43400726059E+02  0.00000000000E+00 0.  1.
         11    1    3    3    0    0 -0.21116943499E+02  0.10856743722E+00  0.12189868005E+02  0.24382985295E+02  0.51100000000E-03 0. -1.
        -11    1    3    3    0    0 -0.59128000610E+01 -0.28363723199E+01  0.57384672064E+00  0.65829714277E+01  0.51100000000E-03 0.  1.
         12    1    3    3    0    0 -0.52227888261E+01 -0.35465867591E+01  0.15591693693E+02  0.16821317219E+02  0.00000000000E+00 0. -1.
</event>
<event>
 7    1  0.4031943E-009  0.4778728E+02  0.7816164E-02  0.1312668E+00
        -11   -1    0    0    0    0  0.00000000000E+00  0.00000000000E+00  0.45593999997E+02  0.45594000000E+02  0.51100000000E-03 0.  1.
         11   -1    0    0    0    0 -0.00000000000E+00 -0.00000000000E+00 -0.45593999997E+02  0.45594000000E+02  0.51100000000E-03 0. -1.
    9900012    2    1    2    0    0  0.41879268587E+02 -0.10862840359E+02 -0.34276017249E+01  0.47787275448E+02  0.20000020077E+02 0.  0.
        -12    1    1    2    0    0 -0.41879268587E+02  0.10862840359E+02  0.34276017249E+01  0.43400724552E+02  0.00000000000E+00 0.  1.
         11    1    3    3    0    0  0.78306763676E+01 -0.75830155527E+00 -0.14110601528E+01  0.79928470921E+01  0.51100000000E-03 0. -1.
        -11    1    3    3    0    0  0.12148810164E+02  0.49688624458E+01  0.81407329302E-01  0.13125921294E+02  0.51100000000E-03 0.  1.
         12    1    3    3    0    0  0.21899782056E+02 -0.15073401249E+02 -0.20979489014E+01  0.26668507062E+02  0.00000000000E+00 0. -1.
</event>
<event>
 7    1  0.4031943E-009  0.4778727E+02  0.7816164E-02  0.1312668E+00
        -11   -1    0    0    0    0  0.00000000000E+00  0.00000000000E+00  0.45593999997E+02  0.45594000000E+02  0.51100000000E-03 0. -1.
         11   -1    0    0    0    0 -0.00000000000E+00 -0.00000000000E+00 -0.45593999997E+02  0.45594000000E+02  0.51100000000E-03 0.  1.
    9900012    2    1    2    0    0  0.29619328788E+02  0.31555979853E+02 -0.32463423410E+01  0.47787271424E+02  0.20000001729E+02 0.  0.
        -12    1    1    2    0    0 -0.29619328788E+02 -0.31555979853E+02  0.32463423410E+01  0.43400728576E+02  0.00000000000E+00 0.  1.
         11    1    3    3    0    0  0.95906487150E+01  0.89057246413E+01  0.37832661154E+01  0.13623713771E+02  0.51100000000E-03 0. -1.
        -11    1    3    3    0    0  0.17302925426E+02  0.17106385904E+02  0.60950124809E+00  0.24339087062E+02  0.51100000000E-03 0.  1.
        -12    1    3    3    0    0  0.27257546477E+01  0.55438693073E+01 -0.76391097045E+01  0.98244705900E+01  0.00000000000E+00 0.  1.
</event>
<event>
 7    1  0.4031943E-009  0.4778727E+02  0.7816164E-02  0.1312668E+00
        -11   -1    0    0    0    0  0.00000000000E+00  0.00000000000E+00  0.45593999997E+02  0.45594000000E+02  0.51100000000E-03 0.  1.
         11   -1    0    0    0    0 -0.00000000000E+00 -0.00000000000E+00 -0.45593999997E+02  0.45594000000E+02  0.51100000000E-03 0. -1.
    9900012    2    1    2    0    0 -0.29601539344E+02  0.28321827470E+02 -0.14326414723E+02  0.47787271877E+02  0.20000003798E+02 0.  0.
        -12    1    1    2    0    0  0.29601539344E+02 -0.28321827470E+02  0.14326414723E+02  0.43400728123E+02  0.00000000000E+00 0.  1.
         11    1    3    3    0    0 -0.69976101424E+00  0.10111242579E+00 -0.38120008523E+01  0.38770143098E+01  0.51100000000E-03 0. -1.
        -11    1    3    3    0    0 -0.40699565757E+01  0.23682155713E+01 -0.62289492237E+01  0.78085081938E+01  0.51100000000E-03 0.  1.
        -12    1    3    3    0    0 -0.24831821754E+02  0.25852499473E+02 -0.42854646467E+01  0.36101749374E+02  0.00000000000E+00 0.  1.
</event>
<event>
 7    1  0.4031943E-009  0.4778728E+02  0.7816164E-02  0.1312668E+00
        -11   -1    0    0    0    0  0.00000000000E+00  0.00000000000E+00  0.45593999997E+02  0.45594000000E+02  0.51100000000E-03 0.  1.
         11   -1    0    0    0    0 -0.00000000000E+00 -0.00000000000E+00 -0.45593999997E+02  0.45594000000E+02  0.51100000000E-03 0. -1.
    9900012    2    1    2    0    0  0.32197617773E+02 -0.22327285574E+02 -0.18666233521E+02  0.47787279439E+02  0.20000038275E+02 0.  0.
        -12    1    1    2    0    0 -0.32197617773E+02  0.22327285574E+02  0.18666233521E+02  0.43400720561E+02  0.00000000000E+00 0.  1.
         11    1    3    3    0    0  0.14137210158E+02 -0.73182865310E+01 -0.13944218225E+02  0.21162685344E+02  0.51100000000E-03 0. -1.
        -11    1    3    3    0    0 -0.28546326698E+00  0.81617684475E+00 -0.20802151807E+01  0.22527603907E+01  0.51100000000E-03 0.  1.
        -12    1    3    3    0    0  0.18345870882E+02 -0.15825175887E+02 -0.26418001153E+01  0.24371833705E+02  0.00000000000E+00 0.  1.
</event>
<event>
 7    1  0.4031943E-009  0.4778727E+02  0.7816164E-02  0.1312668E+00
        -11   -1    0    0    0    0  0.00000000000E+00  0.00000000000E+00  0.45593999997E+02  0.45594000000E+02  0.51100000000E-03 0.  1.
         11   -1    0    0    0    0 -0.00000000000E+00 -0.00000000000E+00 -0.45593999997E+02  0.45594000000E+02  0.51100000000E-03 0. -1.
    9900012    2    1    2    0    0  0.22275126901E+02  0.21190530691E+01 -0.37188057723E+02  0.47787270725E+02  0.19999998544E+02 0.  0.
        -12    1    1    2    0    0 -0.22275126901E+02 -0.21190530691E+01  0.37188057723E+02  0.43400729275E+02  0.00000000000E+00 0.  1.
         11    1    3    3    0    0  0.17762821506E+01  0.21812742488E+01 -0.16027412108E+02  0.16272402243E+02  0.51100000000E-03 0. -1.
        -11    1    3    3    0    0  0.10404181138E+01 -0.34488392353E+01 -0.31699722287E+01  0.47985087386E+01  0.51100000000E-03 0.  1.
        -12    1    3    3    0    0  0.19458426637E+02  0.33866180556E+01 -0.17990673387E+02  0.26716359743E+02  0.00000000000E+00 0.  1.
</event>
<event>
 7    1  0.4031943E-009  0.4778727E+02  0.7816164E-02  0.1312668E+00
        -11   -1    0    0    0    0  0.00000000000E+00  0.00000000000E+00  0.45593999997E+02  0.45594000000E+02  0.51100000000E-03 0.  1.
         11   -1    0    0    0    0 -0.00000000000E+00 -0.00000000000E+00 -0.45593999997E+02  0.45594000000E+02  0.51100000000E-03 0. -1.
    9900012    2    1    2    0    0  0.25497961992E+02 -0.34905259595E+02  0.38858411565E+01  0.47787274492E+02  0.20000015719E+02 0.  0.
        -12    1    1    2    0    0 -0.25497961992E+02  0.34905259595E+02 -0.38858411565E+01  0.43400725508E+02  0.00000000000E+00 0.  1.
         11    1    3    3    0    0  0.14265861724E+02 -0.21244036959E+02 -0.65188475931E+01  0.26406803882E+02  0.51100000000E-03 0. -1.
        -11    1    3    3    0    0  0.14669481628E+01  0.39791461152E+00  0.12532368467E+01  0.19699938592E+01  0.51100000000E-03 0.  1.
         12    1    3    3    0    0  0.97651521049E+01 -0.14059137247E+02  0.91514519029E+01  0.19410476751E+02  0.00000000000E+00 0. -1.
</event>
<event>
 7    1  0.4031943E-009  0.4778727E+02  0.7816164E-02  0.1312668E+00
        -11   -1    0    0    0    0  0.00000000000E+00  0.00000000000E+00  0.45593999997E+02  0.45594000000E+02  0.51100000000E-03 0. -1.
         11   -1    0    0    0    0 -0.00000000000E+00 -0.00000000000E+00 -0.45593999997E+02  0.45594000000E+02  0.51100000000E-03 0.  1.
    9900012    2    1    2    0    0 -0.36997666493E+02  0.20482345293E+02  0.97606110386E+01  0.47787270485E+02  0.19999997448E+02 0.  0.
        -12    1    1    2    0    0  0.36997666493E+02 -0.20482345293E+02 -0.97606110386E+01  0.43400729515E+02  0.00000000000E+00 0.  1.
         11    1    3    3    0    0 -0.93566358609E+01  0.15457292473E+01  0.18889735197E+01  0.96697536039E+01  0.51100000000E-03 0. -1.
        -11    1    3    3    0    0 -0.25259392045E+02  0.20096059616E+02  0.28046407135E+01  0.32399915253E+02  0.51100000000E-03 0.  1.
        -12    1    3    3    0    0 -0.23816385867E+01 -0.11594435704E+01  0.50669968054E+01  0.57176016280E+01  0.00000000000E+00 0.  1.
</event>
<event>
 7    1  0.4031943E-009  0.4778729E+02  0.7816164E-02  0.1312668E+00
        -11   -1    0    0    0    0  0.00000000000E+00  0.00000000000E+00  0.45593999997E+02  0.45594000000E+02  0.51100000000E-03 0. -1.
         11   -1    0    0    0    0 -0.00000000000E+00 -0.00000000000E+00 -0.45593999997E+02  0.45594000000E+02  0.51100000000E-03 0.  1.
    9900012    2    1    2    0    0  0.14656009446E+01  0.42313574480E+02 -0.95412208927E+01  0.47787291854E+02  0.20000094880E+02 0.  0.
        -12    1    1    2    0    0 -0.14656009446E+01 -0.42313574480E+02  0.95412208927E+01  0.43400708146E+02  0.00000000000E+00 0.  1.
         11    1    3    3    0    0  0.25039680223E+01  0.18166322552E+02  0.30526761715E+01  0.18590426649E+02  0.51100000000E-03 0. -1.
        -11    1    3    3    0    0 -0.29301365172E+01  0.35531394123E+01  0.63183020489E+00  0.46486244590E+01  0.51100000000E-03 0.  1.
         12    1    3    3    0    0  0.18917694394E+01  0.20594112516E+02 -0.13225727269E+02  0.24548240746E+02  0.00000000000E+00 0. -1.
</event>
<event>
 7    1  0.4031943E-009  0.4778727E+02  0.7816164E-02  0.1312668E+00
        -11   -1    0    0    0    0  0.00000000000E+00  0.00000000000E+00  0.45593999997E+02  0.45594000000E+02  0.51100000000E-03 0.  1.
         11   -1    0    0    0    0 -0.00000000000E+00 -0.00000000000E+00 -0.45593999997E+02  0.45594000000E+02  0.51100000000E-03 0. -1.
    9900012    2    1    2    0    0 -0.48408601238E+01  0.13239353503E+02 -0.41047647577E+02  0.47787265219E+02  0.19999973440E+02 0.  0.
        -12    1    1    2    0    0  0.48408601238E+01 -0.13239353503E+02  0.41047647577E+02  0.43400734781E+02  0.00000000000E+00 0.  1.
         11    1    3    3    0    0 -0.41536751068E+01  0.71055270864E+01 -0.16562100261E+02  0.18494450448E+02  0.51100000000E-03 0. -1.
        -11    1    3    3    0    0 -0.62725696291E+01 -0.11921857105E+01 -0.13656701598E+02  0.15075540963E+02  0.51100000000E-03 0.  1.
         12    1    3    3    0    0  0.55853846121E+01  0.73260121271E+01 -0.10828845718E+02  0.14217273808E+02  0.00000000000E+00 0. -1.
</event>
<event>
 7    1  0.4031943E-009  0.4778727E+02  0.7816164E-02  0.1312668E+00
        -11   -1    0    0    0    0  0.00000000000E+00  0.00000000000E+00  0.45593999997E+02  0.45594000000E+02  0.51100000000E-03 0.  1.
         11   -1    0    0    0    0 -0.00000000000E+00 -0.00000000000E+00 -0.45593999997E+02  0.45594000000E+02  0.51100000000E-03 0. -1.
    9900012    2    1    2    0    0  0.19262799241E+02  0.67109074151E+01 -0.38308373809E+02  0.47787271701E+02  0.20000002996E+02 0.  0.
        -12    1    1    2    0    0 -0.19262799241E+02 -0.67109074151E+01  0.38308373809E+02  0.43400728299E+02  0.00000000000E+00 0.  1.
         11    1    3    3    0    0  0.10567959717E+02  0.36259314102E+01 -0.20140253889E+02  0.23031695078E+02  0.51100000000E-03 0. -1.
        -11    1    3    3    0    0  0.94211007931E+01  0.52809041074E+01 -0.59706132783E+01  0.12340717626E+02  0.51100000000E-03 0.  1.
        -12    1    3    3    0    0 -0.72626126876E+00 -0.21959281025E+01 -0.12197506641E+02  0.12414858998E+02  0.00000000000E+00 0.  1.
</event>
<event>
 7    1  0.4031943E-009  0.4778727E+02  0.7816164E-02  0.1312668E+00
        -11   -1    0    0    0    0  0.00000000000E+00  0.00000000000E+00  0.45593999997E+02  0.45594000000E+02  0.51100000000E-03 0.  1.
         11   -1    0    0    0    0 -0.00000000000E+00 -0.00000000000E+00 -0.45593999997E+02  0.45594000000E+02  0.51100000000E-03 0. -1.
    9900012    2    1    2    0    0 -0.63952096637E+01 -0.34875877045E+02 -0.25027945836E+02  0.47787267528E+02  0.19999983968E+02 0.  0.
        -12    1    1    2    0    0  0.63952096637E+01  0.34875877045E+02  0.25027945836E+02  0.43400732472E+02  0.00000000000E+00 0.  1.
         11    1    3    3    0    0 -0.22183141074E+01 -0.15752966308E+02 -0.19568045204E+02  0.25218748152E+02  0.51100000000E-03 0. -1.
        -11    1    3    3    0    0  0.28843914559E+01 -0.34491667345E+01 -0.24356744740E+01  0.51136069108E+01  0.51100000000E-03 0.  1.
        -12    1    3    3    0    0 -0.70612870122E+01 -0.15673744003E+02 -0.30242261583E+01  0.17454912466E+02  0.00000000000E+00 0.  1.
</event>
<event>
 7    1  0.4031943E-009  0.4778727E+02  0.7816164E-02  0.1312668E+00
        -11   -1    0    0    0    0  0.00000000000E+00  0.00000000000E+00  0.45593999997E+02  0.45594000000E+02  0.51100000000E-03 0.  1.
         11   -1    0    0    0    0 -0.00000000000E+00 -0.00000000000E+00 -0.45593999997E+02  0.45594000000E+02  0.51100000000E-03 0. -1.
    9900012    2    1    2    0    0 -0.12119001669E+02  0.33646061732E+02 -0.24590558074E+02  0.47787271689E+02  0.20000002939E+02 0.  0.
        -12    1    1    2    0    0  0.12119001669E+02 -0.33646061732E+02  0.24590558074E+02  0.43400728311E+02  0.00000000000E+00 0.  1.
         11    1    3    3    0    0 -0.15982036604E+01  0.31117752929E+00 -0.71030254196E+01  0.72872530331E+01  0.51100000000E-03 0. -1.
        -11    1    3    3    0    0  0.20294364287E+01  0.62751548015E+01 -0.20074463116E+01  0.68939118761E+01  0.51100000000E-03 0.  1.
        -12    1    3    3    0    0 -0.12550234437E+02  0.27059729402E+02 -0.15480086343E+02  0.33606106780E+02  0.00000000000E+00 0.  1.
</event>
<event>
 7    1  0.4031943E-009  0.4778730E+02  0.7816164E-02  0.1312668E+00
        -11   -1    0    0    0    0  0.00000000000E+00  0.00000000000E+00  0.45593999997E+02  0.45594000000E+02  0.51100000000E-03 0.  1.
         11   -1    0    0    0    0 -0.00000000000E+00 -0.00000000000E+00 -0.45593999997E+02  0.45594000000E+02  0.51100000000E-03 0. -1.
    9900012    2    1    2    0    0 -0.43387129417E+02 -0.10545105189E+01  0.25725419606E+00  0.47787295268E+02  0.20000110446E+02 0.  0.
        -12    1    1    2    0    0  0.43387129417E+02  0.10545105189E+01 -0.25725419606E+00  0.43400704732E+02  0.00000000000E+00 0.  1.
         11    1    3    3    0    0 -0.15691468801E+02  0.53898287038E+01 -0.41628559886E+01  0.17105607759E+02  0.51100000000E-03 0. -1.
        -11    1    3    3    0    0 -0.17052994889E+02 -0.45937838456E+01 -0.25233386831E+01  0.17840255689E+02  0.51100000000E-03 0.  1.
        -12    1    3    3    0    0 -0.10642665728E+02 -0.18505553771E+01  0.69434488678E+01  0.12841431820E+02  0.00000000000E+00 0.  1.
</event>
<event>
 7    1  0.4031943E-009  0.4778727E+02  0.7816164E-02  0.1312668E+00
        -11   -1    0    0    0    0  0.00000000000E+00  0.00000000000E+00  0.45593999997E+02  0.45594000000E+02  0.51100000000E-03 0. -1.
         11   -1    0    0    0    0 -0.00000000000E+00 -0.00000000000E+00 -0.45593999997E+02  0.45594000000E+02  0.51100000000E-03 0.  1.
    9900012    2    1    2    0    0 -0.16774452422E+02  0.18623830422E+02  0.35431539344E+02  0.47787270814E+02  0.19999998949E+02 0.  0.
        -12    1    1    2    0    0  0.16774452422E+02 -0.18623830422E+02 -0.35431539344E+02  0.43400729186E+02  0.00000000000E+00 0.  1.
         11    1    3    3    0    0 -0.30722968378E+01  0.16606969553E+01  0.16013213339E+02  0.16389628548E+02  0.51100000000E-03 0. -1.
        -11    1    3    3    0    0 -0.46208668998E+01  0.92242022269E+01  0.15907841207E+02  0.18960425358E+02  0.51100000000E-03 0.  1.
        -12    1    3    3    0    0 -0.90812886844E+01  0.77389312393E+01  0.35104847972E+01  0.12437216908E+02  0.00000000000E+00 0.  1.
</event>
<event>
 7    1  0.4031943E-009  0.4778727E+02  0.7816164E-02  0.1312668E+00
        -11   -1    0    0    0    0  0.00000000000E+00  0.00000000000E+00  0.45593999997E+02  0.45594000000E+02  0.51100000000E-03 0. -1.
         11   -1    0    0    0    0 -0.00000000000E+00 -0.00000000000E+00 -0.45593999997E+02  0.45594000000E+02  0.51100000000E-03 0.  1.
    9900012    2    1    2    0    0 -0.22239248238E+01 -0.36981331858E+02  0.22606603817E+02  0.47787270930E+02  0.19999999481E+02 0.  0.
        -12    1    1    2    0    0  0.22239248238E+01  0.36981331858E+02 -0.22606603817E+02  0.43400729070E+02  0.00000000000E+00 0.  1.
         11    1    3    3    0    0 -0.33721257192E+01 -0.93990814449E+01  0.11338820108E+02  0.15109030597E+02  0.51100000000E-03 0. -1.
        -11    1    3    3    0    0 -0.56244652812E+00 -0.18741492581E+02  0.65683431177E+00  0.18761431764E+02  0.51100000000E-03 0.  1.
         12    1    3    3    0    0  0.17106474235E+01 -0.88407578325E+01  0.10610949398E+02  0.13916808570E+02  0.00000000000E+00 0. -1.
</event>
<event>
 7    1  0.4031943E-009  0.4778728E+02  0.7816164E-02  0.1312668E+00
        -11   -1    0    0    0    0  0.00000000000E+00  0.00000000000E+00  0.45593999997E+02  0.45594000000E+02  0.51100000000E-03 0. -1.
         11   -1    0    0    0    0 -0.00000000000E+00 -0.00000000000E+00 -0.45593999997E+02  0.45594000000E+02  0.51100000000E-03 0.  1.
    9900012    2    1    2    0    0 -0.27609354708E+02  0.32249359426E+02 -0.90180491166E+01  0.47787275805E+02  0.20000021703E+02 0.  0.
        -12    1    1    2    0    0  0.27609354708E+02 -0.32249359426E+02  0.90180491166E+01  0.43400724195E+02  0.00000000000E+00 0.  1.
         11    1    3    3    0    0 -0.63278507882E+01  0.90660263159E+01 -0.78546975241E+01  0.13562109062E+02  0.51100000000E-03 0. -1.
        -11    1    3    3    0    0 -0.16318808356E+02  0.18892332598E+02 -0.64675339181E+01  0.25788616334E+02  0.51100000000E-03 0.  1.
         12    1    3    3    0    0 -0.49626955640E+01  0.42910005126E+01  0.53041823256E+01  0.84365504089E+01  0.00000000000E+00 0. -1.
</event>
<event>
 7    1  0.4031943E-009  0.4778727E+02  0.7816164E-02  0.1312668E+00
        -11   -1    0    0    0    0  0.00000000000E+00  0.00000000000E+00  0.45593999997E+02  0.45594000000E+02  0.51100000000E-03 0.  1.
         11   -1    0    0    0    0 -0.00000000000E+00 -0.00000000000E+00 -0.45593999997E+02  0.45594000000E+02  0.51100000000E-03 0. -1.
    9900012    2    1    2    0    0  0.21052673225E+02 -0.11468168374E+02 -0.36178575400E+02  0.47787271277E+02  0.20000001059E+02 0.  0.
        -12    1    1    2    0    0 -0.21052673225E+02  0.11468168374E+02  0.36178575400E+02  0.43400728723E+02  0.00000000000E+00 0.  1.
         11    1    3    3    0    0  0.79609823901E+01 -0.81317655531E+01 -0.12740845553E+02  0.17083090976E+02  0.51100000000E-03 0. -1.
        -11    1    3    3    0    0  0.71144154193E+01 -0.68229077764E+01 -0.50878855725E+01  0.11092950786E+02  0.51100000000E-03 0.  1.
         12    1    3    3    0    0  0.59772754155E+01  0.34865049552E+01 -0.18349844274E+02  0.19611229514E+02  0.00000000000E+00 0. -1.
</event>
<event>
 7    1  0.4031943E-009  0.4778727E+02  0.7816164E-02  0.1312668E+00
        -11   -1    0    0    0    0  0.00000000000E+00  0.00000000000E+00  0.45593999997E+02  0.45594000000E+02  0.51100000000E-03 0.  1.
         11   -1    0    0    0    0 -0.00000000000E+00 -0.00000000000E+00 -0.45593999997E+02  0.45594000000E+02  0.51100000000E-03 0. -1.
    9900012    2    1    2    0    0 -0.12559451128E+02  0.13417145675E+02 -0.39317473582E+02  0.47787270287E+02  0.19999996548E+02 0.  0.
        -12    1    1    2    0    0  0.12559451128E+02 -0.13417145675E+02  0.39317473582E+02  0.43400729713E+02  0.00000000000E+00 0.  1.
         11    1    3    3    0    0 -0.85144276825E+01  0.61213523729E+01 -0.17727725366E+02  0.20597055143E+02  0.51100000000E-03 0. -1.
        -11    1    3    3    0    0 -0.53932859170E+01  0.50593596443E+01 -0.23286367557E+01  0.77528834890E+01  0.51100000000E-03 0.  1.
        -12    1    3    3    0    0  0.13482624714E+01  0.22364336575E+01 -0.19261111461E+02  0.19437331656E+02  0.00000000000E+00 0.  1.
</event>
<event>
 7    1  0.4031943E-009  0.4778726E+02  0.7816164E-02  0.1312668E+00
        -11   -1    0    0    0    0  0.00000000000E+00  0.00000000000E+00  0.45593999997E+02  0.45594000000E+02  0.51100000000E-03 0. -1.
         11   -1    0    0    0    0 -0.00000000000E+00 -0.00000000000E+00 -0.45593999997E+02  0.45594000000E+02  0.51100000000E-03 0.  1.
    9900012    2    1    2    0    0 -0.22155080265E+01 -0.15803424121E+02  0.40360467799E+02  0.47787262095E+02  0.19999959194E+02 0.  0.
        -12    1    1    2    0    0  0.22155080265E+01  0.15803424121E+02 -0.40360467799E+02  0.43400737905E+02  0.00000000000E+00 0.  1.
         11    1    3    3    0    0  0.38278768386E+01 -0.21356453811E+01  0.53095112087E+01  0.68850949029E+01  0.51100000000E-03 0. -1.
        -11    1    3    3    0    0 -0.17451012453E+01 -0.39103218968E+01  0.17446922140E-01  0.42820906516E+01  0.51100000000E-03 0.  1.
         12    1    3    3    0    0 -0.42982836198E+01 -0.97574568427E+01  0.35033509668E+02  0.36620076540E+02  0.00000000000E+00 0. -1.
</event>
<event>
 7    1  0.4031943E-009  0.4778727E+02  0.7816164E-02  0.1312668E+00
        -11   -1    0    0    0    0  0.00000000000E+00  0.00000000000E+00  0.45593999997E+02  0.45594000000E+02  0.51100000000E-03 0. -1.
         11   -1    0    0    0    0 -0.00000000000E+00 -0.00000000000E+00 -0.45593999997E+02  0.45594000000E+02  0.51100000000E-03 0.  1.
    9900012    2    1    2    0    0  0.24082931144E+02 -0.23343888166E+02 -0.27544483051E+02  0.47787271506E+02  0.20000002106E+02 0.  0.
        -12    1    1    2    0    0 -0.24082931144E+02  0.23343888166E+02  0.27544483051E+02  0.43400728494E+02  0.00000000000E+00 0.  1.
         11    1    3    3    0    0  0.12543151207E+02 -0.20350383337E+01 -0.84677165963E+01  0.15270044133E+02  0.51100000000E-03 0.  1.
        -11    1    3    3    0    0  0.71189624437E+01 -0.14561451903E+02 -0.62643719982E+01  0.17376934845E+02  0.51100000000E-03 0. -1.
         12    1    3    3    0    0  0.44208174939E+01 -0.67473979289E+01 -0.12812394457E+02  0.15140292528E+02  0.00000000000E+00 0. -1.
</event>
<event>
 7    1  0.4031943E-009  0.4778727E+02  0.7816164E-02  0.1312668E+00
        -11   -1    0    0    0    0  0.00000000000E+00  0.00000000000E+00  0.45593999997E+02  0.45594000000E+02  0.51100000000E-03 0.  1.
         11   -1    0    0    0    0 -0.00000000000E+00 -0.00000000000E+00 -0.45593999997E+02  0.45594000000E+02  0.51100000000E-03 0. -1.
    9900012    2    1    2    0    0 -0.17543066321E+01  0.13611892119E+02 -0.41173559191E+02  0.47787272180E+02  0.20000005180E+02 0.  0.
        -12    1    1    2    0    0  0.17543066321E+01 -0.13611892119E+02  0.41173559191E+02  0.43400727820E+02  0.00000000000E+00 0.  1.
         11    1    3    3    0    0 -0.13947846620E+01  0.30921624691E+01 -0.18172446644E+02  0.18486338477E+02  0.51100000000E-03 0. -1.
        -11    1    3    3    0    0  0.60227711445E+01  0.16458949649E+01 -0.13273417317E+02  0.14668549691E+02  0.51100000000E-03 0.  1.
        -12    1    3    3    0    0 -0.63822931146E+01  0.88738346847E+01 -0.97276952295E+01  0.14632384013E+02  0.00000000000E+00 0.  1.
</event>
<event>
 7    1  0.4031943E-009  0.4778728E+02  0.7816164E-02  0.1312668E+00
        -11   -1    0    0    0    0  0.00000000000E+00  0.00000000000E+00  0.45593999997E+02  0.45594000000E+02  0.51100000000E-03 0.  1.
         11   -1    0    0    0    0 -0.00000000000E+00 -0.00000000000E+00 -0.45593999997E+02  0.45594000000E+02  0.51100000000E-03 0. -1.
    9900012    2    1    2    0    0 -0.34800361610E+02 -0.17602554221E+02 -0.19044888099E+02  0.47787275974E+02  0.20000022475E+02 0.  0.
        -12    1    1    2    0    0  0.34800361610E+02  0.17602554221E+02  0.19044888099E+02  0.43400724026E+02  0.00000000000E+00 0.  1.
         11    1    3    3    0    0 -0.97604050099E+01 -0.88025736472E+00 -0.38501545692E+01  0.10529199849E+02  0.51100000000E-03 0.  1.
        -11    1    3    3    0    0 -0.17477126263E+02 -0.10159186536E+02 -0.17773761829E+02  0.26917756654E+02  0.51100000000E-03 0. -1.
         12    1    3    3    0    0 -0.75628303373E+01 -0.65631103208E+01  0.25790282996E+01  0.10340319471E+02  0.00000000000E+00 0. -1.
</event>
<event>
 7    1  0.4031943E-009  0.4778727E+02  0.7816164E-02  0.1312668E+00
        -11   -1    0    0    0    0  0.00000000000E+00  0.00000000000E+00  0.45593999997E+02  0.45594000000E+02  0.51100000000E-03 0.  1.
         11   -1    0    0    0    0 -0.00000000000E+00 -0.00000000000E+00 -0.45593999997E+02  0.45594000000E+02  0.51100000000E-03 0. -1.
    9900012    2    1    2    0    0  0.18430885993E+02  0.25415737903E+02 -0.29966081558E+02  0.47787270333E+02  0.19999996758E+02 0.  0.
        -12    1    1    2    0    0 -0.18430885993E+02 -0.25415737903E+02  0.29966081558E+02  0.43400729667E+02  0.00000000000E+00 0.  1.
         11    1    3    3    0    0  0.70032463686E+01  0.27267416505E+01 -0.11154146808E+02  0.13449742414E+02  0.51100000000E-03 0. -1.
        -11    1    3    3    0    0  0.99835813449E+01  0.19904197959E+02 -0.20923948517E+02  0.30555860562E+02  0.51100000000E-03 0.  1.
        -12    1    3    3    0    0  0.14440582797E+01  0.27847982929E+01  0.21120137672E+01  0.37816673571E+01  0.00000000000E+00 0.  1.
</event>
<event>
 7    1  0.4031943E-009  0.4778726E+02  0.7816164E-02  0.1312668E+00
        -11   -1    0    0    0    0  0.00000000000E+00  0.00000000000E+00  0.45593999997E+02  0.45594000000E+02  0.51100000000E-03 0.  1.
         11   -1    0    0    0    0 -0.00000000000E+00 -0.00000000000E+00 -0.45593999997E+02  0.45594000000E+02  0.51100000000E-03 0. -1.
    9900012    2    1    2    0    0 -0.30491107553E+02  0.25036242921E+02  0.18085981372E+02  0.47787264734E+02  0.19999971229E+02 0.  0.
        -12    1    1    2    0    0  0.30491107553E+02 -0.25036242921E+02 -0.18085981372E+02  0.43400735266E+02  0.00000000000E+00 0.  1.
         11    1    3    3    0    0 -0.78940622817E+00  0.92056672843E+00  0.32361740444E+01  0.34559265040E+01  0.51100000000E-03 0. -1.
        -11    1    3    3    0    0 -0.15268194466E+02  0.21922910838E+01  0.69663908298E+01  0.16924966880E+02  0.51100000000E-03 0.  1.
         12    1    3    3    0    0 -0.14433506860E+02  0.21923385109E+02  0.78834164973E+01  0.27406371350E+02  0.00000000000E+00 0. -1.
</event>
<event>
 7    1  0.4031943E-009  0.4778727E+02  0.7816164E-02  0.1312668E+00
        -11   -1    0    0    0    0  0.00000000000E+00  0.00000000000E+00  0.45593999997E+02  0.45594000000E+02  0.51100000000E-03 0. -1.
         11   -1    0    0    0    0 -0.00000000000E+00 -0.00000000000E+00 -0.45593999997E+02  0.45594000000E+02  0.51100000000E-03 0.  1.
    9900012    2    1    2    0    0  0.40020928341E+02 -0.15809091206E+02 -0.56587309435E+01  0.47787270675E+02  0.19999998318E+02 0.  0.
        -12    1    1    2    0    0 -0.40020928341E+02  0.15809091206E+02  0.56587309435E+01  0.43400729325E+02  0.00000000000E+00 0.  1.
         11    1    3    3    0    0  0.62168343414E+01 -0.53937053806E+01  0.16721290766E+01  0.83986369651E+01  0.51100000000E-03 0. -1.
        -11    1    3    3    0    0  0.49435593613E+01 -0.28097191556E+01 -0.76613256805E+01  0.95409230337E+01  0.51100000000E-03 0.  1.
         12    1    3    3    0    0  0.28860534638E+02 -0.76056666693E+01  0.33046566035E+00  0.29847710677E+02  0.00000000000E+00 0. -1.
</event>
<event>
 7    1  0.4031943E-009  0.4778727E+02  0.7816164E-02  0.1312668E+00
        -11   -1    0    0    0    0  0.00000000000E+00  0.00000000000E+00  0.45593999997E+02  0.45594000000E+02  0.51100000000E-03 0.  1.
         11   -1    0    0    0    0 -0.00000000000E+00 -0.00000000000E+00 -0.45593999997E+02  0.45594000000E+02  0.51100000000E-03 0. -1.
    9900012    2    1    2    0    0  0.40296462671E+02  0.16081733224E+02 -0.10936813905E+01  0.47787272054E+02  0.20000004603E+02 0.  0.
        -12    1    1    2    0    0 -0.40296462671E+02 -0.16081733224E+02  0.10936813905E+01  0.43400727946E+02  0.00000000000E+00 0.  1.
         11    1    3    3    0    0  0.83246417134E+01  0.69502064869E+01  0.26480698390E+00  0.10847817885E+02  0.51100000000E-03 0. -1.
        -11    1    3    3    0    0 -0.94044453849E+00 -0.18011677993E+01  0.81865992671E+00  0.21906267843E+01  0.51100000000E-03 0.  1.
        -12    1    3    3    0    0  0.32912265496E+02  0.10932694536E+02 -0.21771483011E+01  0.34748827385E+02  0.00000000000E+00 0.  1.
</event>
<event>
 7    1  0.4031943E-009  0.4778727E+02  0.7816164E-02  0.1312668E+00
        -11   -1    0    0    0    0  0.00000000000E+00  0.00000000000E+00  0.45593999997E+02  0.45594000000E+02  0.51100000000E-03 0. -1.
         11   -1    0    0    0    0 -0.00000000000E+00 -0.00000000000E+00 -0.45593999997E+02  0.45594000000E+02  0.51100000000E-03 0.  1.
    9900012    2    1    2    0    0  0.31929197326E+01 -0.23548738126E+02  0.36316463553E+02  0.47787270413E+02  0.19999997120E+02 0.  0.
        -12    1    1    2    0    0 -0.31929197326E+01  0.23548738126E+02 -0.36316463553E+02  0.43400729587E+02  0.00000000000E+00 0.  1.
         11    1    3    3    0    0 -0.72626721448E+00 -0.74780948999E+00 -0.58639941816E+00  0.11960550317E+01  0.51100000000E-03 0. -1.
        -11    1    3    3    0    0 -0.51569109597E+01 -0.46209583288E+01  0.42268486234E+01  0.81125357361E+01  0.51100000000E-03 0.  1.
         12    1    3    3    0    0  0.90760979068E+01 -0.18179970307E+02  0.32676014347E+02  0.38478679645E+02  0.00000000000E+00 0. -1.
</event>
<event>
 7    1  0.4031943E-009  0.4778727E+02  0.7816164E-02  0.1312668E+00
        -11   -1    0    0    0    0  0.00000000000E+00  0.00000000000E+00  0.45593999997E+02  0.45594000000E+02  0.51100000000E-03 0.  1.
         11   -1    0    0    0    0 -0.00000000000E+00 -0.00000000000E+00 -0.45593999997E+02  0.45594000000E+02  0.51100000000E-03 0. -1.
    9900012    2    1    2    0    0 -0.23318924280E+02 -0.36553701573E+02  0.19177805093E+01  0.47787271776E+02  0.20000003336E+02 0.  0.
        -12    1    1    2    0    0  0.23318924280E+02  0.36553701573E+02 -0.19177805093E+01  0.43400728224E+02  0.00000000000E+00 0.  1.
         11    1    3    3    0    0 -0.20047651296E+01 -0.72827924033E+01 -0.17768881410E+01  0.77598634100E+01  0.51100000000E-03 0. -1.
        -11    1    3    3    0    0  0.13226818003E+01 -0.20029317315E+01  0.39090036494E+01  0.45871050193E+01  0.51100000000E-03 0.  1.
         12    1    3    3    0    0 -0.22636840951E+02 -0.27267977438E+02 -0.21433499910E+00  0.35440303347E+02  0.00000000000E+00 0. -1.
</event>
<event>
 7    1  0.4031943E-009  0.4778726E+02  0.7816164E-02  0.1312668E+00
        -11   -1    0    0    0    0  0.00000000000E+00  0.00000000000E+00  0.45593999997E+02  0.45594000000E+02  0.51100000000E-03 0.  1.
         11   -1    0    0    0    0 -0.00000000000E+00 -0.00000000000E+00 -0.45593999997E+02  0.45594000000E+02  0.51100000000E-03 0. -1.
    9900012    2    1    2    0    0  0.12889826220E+01 -0.20291314468E+02 -0.38343515122E+02  0.47787261861E+02  0.19999958131E+02 0.  0.
        -12    1    1    2    0    0 -0.12889826220E+01  0.20291314468E+02  0.38343515122E+02  0.43400738139E+02  0.00000000000E+00 0.  1.
         11    1    3    3    0    0  0.13718517594E+01 -0.21591785753E+01 -0.98064801492E+00  0.27396532919E+01  0.51100000000E-03 0.  1.
        -11    1    3    3    0    0 -0.86615986245E+01 -0.10959232354E+02 -0.19993367650E+02  0.24389809650E+02  0.51100000000E-03 0. -1.
         12    1    3    3    0    0  0.85787294872E+01 -0.71729035388E+01 -0.17369499458E+02  0.20657798920E+02  0.00000000000E+00 0. -1.
</event>
<event>
 7    1  0.4031943E-009  0.4778727E+02  0.7816164E-02  0.1312668E+00
        -11   -1    0    0    0    0  0.00000000000E+00  0.00000000000E+00  0.45593999997E+02  0.45594000000E+02  0.51100000000E-03 0.  1.
         11   -1    0    0    0    0 -0.00000000000E+00 -0.00000000000E+00 -0.45593999997E+02  0.45594000000E+02  0.51100000000E-03 0. -1.
    9900012    2    1    2    0    0  0.39951994500E+02  0.41022974095E+01 -0.16450911295E+02  0.47787272000E+02  0.20000004355E+02 0.  0.
        -12    1    1    2    0    0 -0.39951994500E+02 -0.41022974095E+01  0.16450911295E+02  0.43400728000E+02  0.00000000000E+00 0.  1.
         11    1    3    3    0    0  0.68009331256E+01 -0.45608165125E+01 -0.80587101529E+01  0.11488975073E+02  0.51100000000E-03 0. -1.
        -11    1    3    3    0    0  0.13653809478E+02  0.25600363114E+01 -0.76406774451E+01  0.15854344870E+02  0.51100000000E-03 0.  1.
        -12    1    3    3    0    0  0.19497251896E+02  0.61030776106E+01 -0.75152369678E+00  0.20443952056E+02  0.00000000000E+00 0.  1.
</event>
<event>
 7    1  0.4031943E-009  0.4778727E+02  0.7816164E-02  0.1312668E+00
        -11   -1    0    0    0    0  0.00000000000E+00  0.00000000000E+00  0.45593999997E+02  0.45594000000E+02  0.51100000000E-03 0. -1.
         11   -1    0    0    0    0 -0.00000000000E+00 -0.00000000000E+00 -0.45593999997E+02  0.45594000000E+02  0.51100000000E-03 0.  1.
    9900012    2    1    2    0    0  0.10020148099E+02  0.42077767458E+02  0.35610875368E+01  0.47787271589E+02  0.20000002482E+02 0.  0.
        -12    1    1    2    0    0 -0.10020148099E+02 -0.42077767458E+02 -0.35610875368E+01  0.43400728411E+02  0.00000000000E+00 0.  1.
         11    1    3    3    0    0  0.53307642091E+01  0.55800056198E+01  0.41172378212E+01  0.87467226610E+01  0.51100000000E-03 0. -1.
        -11    1    3    3    0    0  0.87522316819E+00 -0.35487359813E+00 -0.17316133086E+01  0.19724187629E+01  0.51100000000E-03 0.  1.
         12    1    3    3    0    0  0.38141607219E+01  0.36852635436E+02  0.11754630242E+01  0.37068130165E+02  0.00000000000E+00 0. -1.
</event>
<event>
 7    1  0.4031943E-009  0.4778727E+02  0.7816164E-02  0.1312668E+00
        -11   -1    0    0    0    0  0.00000000000E+00  0.00000000000E+00  0.45593999997E+02  0.45594000000E+02  0.51100000000E-03 0.  1.
         11   -1    0    0    0    0 -0.00000000000E+00 -0.00000000000E+00 -0.45593999997E+02  0.45594000000E+02  0.51100000000E-03 0. -1.
    9900012    2    1    2    0    0  0.96081340663E+01 -0.14937611048E+02 -0.39600187787E+02  0.47787270319E+02  0.19999996694E+02 0.  0.
        -12    1    1    2    0    0 -0.96081340663E+01  0.14937611048E+02  0.39600187787E+02  0.43400729681E+02  0.00000000000E+00 0.  1.
         11    1    3    3    0    0  0.18486829414E+01 -0.12569319254E+02 -0.89350729179E+01  0.15531933023E+02  0.51100000000E-03 0. -1.
        -11    1    3    3    0    0  0.24771617121E+01 -0.25897211148E+01 -0.56730102533E+01  0.67101439027E+01  0.51100000000E-03 0.  1.
        -12    1    3    3    0    0  0.52822894128E+01  0.22142932070E+00 -0.24992104616E+02  0.25545193393E+02  0.00000000000E+00 0.  1.
</event>
<event>
 7    1  0.4031943E-009  0.4778727E+02  0.7816164E-02  0.1312668E+00
        -11   -1    0    0    0    0  0.00000000000E+00  0.00000000000E+00  0.45593999997E+02  0.45594000000E+02  0.51100000000E-03 0.  1.
         11   -1    0    0    0    0 -0.00000000000E+00 -0.00000000000E+00 -0.45593999997E+02  0.45594000000E+02  0.51100000000E-03 0. -1.
    9900012    2    1    2    0    0 -0.20220278820E+02  0.59286572118E+01 -0.37942254313E+02  0.47787270580E+02  0.19999997881E+02 0.  0.
        -12    1    1    2    0    0  0.20220278820E+02 -0.59286572118E+01  0.37942254313E+02  0.43400729420E+02  0.00000000000E+00 0.  1.
         11    1    3    3    0    0 -0.12444521278E+02  0.46840117247E+01 -0.21337210462E+02  0.25141253474E+02  0.51100000000E-03 0. -1.
        -11    1    3    3    0    0 -0.10241175238E+02  0.38173385579E+01 -0.15400525256E+02  0.18884647795E+02  0.51100000000E-03 0.  1.
        -12    1    3    3    0    0  0.24654176954E+01 -0.25726930708E+01 -0.12045185946E+01  0.37613693111E+01  0.00000000000E+00 0.  1.
</event>
<event>
 7    1  0.4031943E-009  0.4778728E+02  0.7816164E-02  0.1312668E+00
        -11   -1    0    0    0    0  0.00000000000E+00  0.00000000000E+00  0.45593999997E+02  0.45594000000E+02  0.51100000000E-03 0.  1.
         11   -1    0    0    0    0 -0.00000000000E+00 -0.00000000000E+00 -0.45593999997E+02  0.45594000000E+02  0.51100000000E-03 0. -1.
    9900012    2    1    2    0    0 -0.33129120144E+02 -0.78180441568E+01 -0.26925127120E+02  0.47787275508E+02  0.20000020353E+02 0.  0.
        -12    1    1    2    0    0  0.33129120144E+02  0.78180441568E+01  0.26925127120E+02  0.43400724492E+02  0.00000000000E+00 0.  1.
         11    1    3    3    0    0 -0.76725625128E+01 -0.38532136428E+01 -0.11359015998E+02  0.14238775074E+02  0.51100000000E-03 0. -1.
        -11    1    3    3    0    0 -0.15589044386E+02 -0.93544830863E+01 -0.72899446027E+01  0.19587443714E+02  0.51100000000E-03 0.  1.
        -12    1    3    3    0    0 -0.98675132450E+01  0.53896525724E+01 -0.82761665193E+01  0.13961056720E+02  0.00000000000E+00 0.  1.
</event>
<event>
 7    1  0.4031943E-009  0.4778727E+02  0.7816164E-02  0.1312668E+00
        -11   -1    0    0    0    0  0.00000000000E+00  0.00000000000E+00  0.45593999997E+02  0.45594000000E+02  0.51100000000E-03 0. -1.
         11   -1    0    0    0    0 -0.00000000000E+00 -0.00000000000E+00 -0.45593999997E+02  0.45594000000E+02  0.51100000000E-03 0.  1.
    9900012    2    1    2    0    0  0.43392258613E+02 -0.38095120902E-01  0.85656993610E+00  0.47787271079E+02  0.20000000158E+02 0.  0.
        -12    1    1    2    0    0 -0.43392258613E+02  0.38095120902E-01 -0.85656993610E+00  0.43400728921E+02  0.00000000000E+00 0.  1.
         11    1    3    3    0    0  0.14754505442E+02 -0.57084351817E+01  0.42782024321E+01  0.16388553303E+02  0.51100000000E-03 0. -1.
        -11    1    3    3    0    0  0.87520914480E+00 -0.15054942371E+00 -0.28944411206E+01  0.30276138852E+01  0.51100000000E-03 0.  1.
         12    1    3    3    0    0  0.27762544027E+02  0.58208894845E+01 -0.52719137535E+00  0.28371103891E+02  0.00000000000E+00 0. -1.
</event>
<event>
 7    1  0.4031943E-009  0.4778727E+02  0.7816164E-02  0.1312668E+00
        -11   -1    0    0    0    0  0.00000000000E+00  0.00000000000E+00  0.45593999997E+02  0.45594000000E+02  0.51100000000E-03 0. -1.
         11   -1    0    0    0    0 -0.00000000000E+00 -0.00000000000E+00 -0.45593999997E+02  0.45594000000E+02  0.51100000000E-03 0.  1.
    9900012    2    1    2    0    0 -0.34928309348E+02 -0.22579819173E+02  0.12401136061E+02  0.47787271856E+02  0.20000003700E+02 0.  0.
        -12    1    1    2    0    0  0.34928309348E+02  0.22579819173E+02 -0.12401136061E+02  0.43400728144E+02  0.00000000000E+00 0.  1.
         11    1    3    3    0    0 -0.17140752874E+02 -0.37346297394E+01  0.96949165631E+01  0.20043559460E+02  0.51100000000E-03 0. -1.
        -11    1    3    3    0    0 -0.33833679012E+01  0.23678033651E+00  0.17497239788E+01  0.38163827829E+01  0.51100000000E-03 0.  1.
        -12    1    3    3    0    0 -0.14404188573E+02 -0.19081969770E+02  0.95649551939E+00  0.23927329613E+02  0.00000000000E+00 0.  1.
</event>
<event>
 7    1  0.4031943E-009  0.4778727E+02  0.7816164E-02  0.1312668E+00
        -11   -1    0    0    0    0  0.00000000000E+00  0.00000000000E+00  0.45593999997E+02  0.45594000000E+02  0.51100000000E-03 0. -1.
         11   -1    0    0    0    0 -0.00000000000E+00 -0.00000000000E+00 -0.45593999997E+02  0.45594000000E+02  0.51100000000E-03 0.  1.
    9900012    2    1    2    0    0 -0.42152523117E+02 -0.99210267119E+01  0.28916293156E+01  0.47787268483E+02  0.19999988321E+02 0.  0.
        -12    1    1    2    0    0  0.42152523117E+02  0.99210267119E+01 -0.28916293156E+01  0.43400731517E+02  0.00000000000E+00 0.  1.
         11    1    3    3    0    0 -0.21311066554E+02 -0.63182247543E+01  0.38612988276E+01  0.22560832224E+02  0.51100000000E-03 0. -1.
        -11    1    3    3    0    0 -0.69217000448E+01 -0.51866365256E+01  0.50083461372E+01  0.99947316747E+01  0.51100000000E-03 0.  1.
         12    1    3    3    0    0 -0.13919756518E+02  0.15838345679E+01 -0.59780156491E+01  0.15231704584E+02  0.00000000000E+00 0. -1.
</event>
<event>
 7    1  0.4031943E-009  0.4778727E+02  0.7816164E-02  0.1312668E+00
        -11   -1    0    0    0    0  0.00000000000E+00  0.00000000000E+00  0.45593999997E+02  0.45594000000E+02  0.51100000000E-03 0.  1.
         11   -1    0    0    0    0 -0.00000000000E+00 -0.00000000000E+00 -0.45593999997E+02  0.45594000000E+02  0.51100000000E-03 0. -1.
    9900012    2    1    2    0    0 -0.35226274087E+02  0.22108115274E+02 -0.12408224954E+02  0.47787271970E+02  0.20000004218E+02 0.  0.
        -12    1    1    2    0    0  0.35226274087E+02 -0.22108115274E+02  0.12408224954E+02  0.43400728030E+02  0.00000000000E+00 0.  1.
         11    1    3    3    0    0 -0.87069173290E+01  0.70264347530E+01 -0.37169426149E+01  0.11789692845E+02  0.51100000000E-03 0. -1.
        -11    1    3    3    0    0  0.60998640758E+00  0.63094361708E+01 -0.25426774212E+01  0.68298079724E+01  0.51100000000E-03 0.  1.
        -12    1    3    3    0    0 -0.27129343166E+02  0.87722443503E+01 -0.61486049183E+01  0.29167771152E+02  0.00000000000E+00 0.  1.
</event>
<event>
 7    1  0.4031943E-009  0.4778729E+02  0.7816164E-02  0.1312668E+00
        -11   -1    0    0    0    0  0.00000000000E+00  0.00000000000E+00  0.45593999997E+02  0.45594000000E+02  0.51100000000E-03 0. -1.
         11   -1    0    0    0    0 -0.00000000000E+00 -0.00000000000E+00 -0.45593999997E+02  0.45594000000E+02  0.51100000000E-03 0.  1.
    9900012    2    1    2    0    0 -0.20141969649E+02 -0.32976360877E+02  0.19760630540E+02  0.47787287594E+02  0.20000075455E+02 0.  0.
        -12    1    1    2    0    0  0.20141969649E+02  0.32976360877E+02 -0.19760630540E+02  0.43400712406E+02  0.00000000000E+00 0.  1.
         11    1    3    3    0    0 -0.38375559624E+01 -0.20291576600E+02  0.15959138663E+02  0.26099215003E+02  0.51100000000E-03 0. -1.
        -11    1    3    3    0    0 -0.29193134678E+01 -0.45920469818E+01 -0.50453370321E+00  0.54647818918E+01  0.51100000000E-03 0.  1.
         12    1    3    3    0    0 -0.13385100218E+02 -0.80927372957E+01  0.43060255807E+01  0.16223290699E+02  0.00000000000E+00 0. -1.
</event>
<event>
 7    1  0.4031943E-009  0.4778727E+02  0.7816164E-02  0.1312668E+00
        -11   -1    0    0    0    0  0.00000000000E+00  0.00000000000E+00  0.45593999997E+02  0.45594000000E+02  0.51100000000E-03 0.  1.
         11   -1    0    0    0    0 -0.00000000000E+00 -0.00000000000E+00 -0.45593999997E+02  0.45594000000E+02  0.51100000000E-03 0. -1.
    9900012    2    1    2    0    0  0.28482317229E+02  0.14538906241E+02 -0.29342820098E+02  0.47787270966E+02  0.19999999643E+02 0.  0.
        -12    1    1    2    0    0 -0.28482317229E+02 -0.14538906241E+02  0.29342820098E+02  0.43400729034E+02  0.00000000000E+00 0.  1.
         11    1    3    3    0    0  0.47863120354E+01  0.16549786958E+01  0.47747289537E+00  0.50868180634E+01  0.51100000000E-03 0. -1.
        -11    1    3    3    0    0 -0.17882813141E+01  0.23186477091E+01 -0.35975143943E+01  0.46385544446E+01  0.51100000000E-03 0.  1.
         12    1    3    3    0    0  0.25484286507E+02  0.10565279836E+02 -0.26222778599E+02  0.38061898458E+02  0.00000000000E+00 0. -1.
</event>
<event>
 7    1  0.4031943E-009  0.4778727E+02  0.7816164E-02  0.1312668E+00
        -11   -1    0    0    0    0  0.00000000000E+00  0.00000000000E+00  0.45593999997E+02  0.45594000000E+02  0.51100000000E-03 0.  1.
         11   -1    0    0    0    0 -0.00000000000E+00 -0.00000000000E+00 -0.45593999997E+02  0.45594000000E+02  0.51100000000E-03 0. -1.
    9900012    2    1    2    0    0  0.17943606666E+02  0.84408965916E+01 -0.38605720797E+02  0.47787269203E+02  0.19999991605E+02 0.  0.
        -12    1    1    2    0    0 -0.17943606666E+02 -0.84408965916E+01  0.38605720797E+02  0.43400730797E+02  0.00000000000E+00 0.  1.
         11    1    3    3    0    0  0.84650629754E+01  0.14859516494E+01 -0.21638690965E+01  0.88627125199E+01  0.51100000000E-03 0.  1.
        -11    1    3    3    0    0  0.55794281925E+01  0.10611260072E+01 -0.94719870706E+01  0.11044208740E+02  0.51100000000E-03 0. -1.
        -12    1    3    3    0    0  0.38991154979E+01  0.58938189350E+01 -0.26969864630E+02  0.27880347944E+02  0.00000000000E+00 0.  1.
</event>
<event>
 7    1  0.4031943E-009  0.4778727E+02  0.7816164E-02  0.1312668E+00
        -11   -1    0    0    0    0  0.00000000000E+00  0.00000000000E+00  0.45593999997E+02  0.45594000000E+02  0.51100000000E-03 0. -1.
         11   -1    0    0    0    0 -0.00000000000E+00 -0.00000000000E+00 -0.45593999997E+02  0.45594000000E+02  0.51100000000E-03 0.  1.
    9900012    2    1    2    0    0  0.21483093293E+02 -0.12206036674E+02  0.35680703963E+02  0.47787271158E+02  0.20000000517E+02 0.  0.
        -12    1    1    2    0    0 -0.21483093293E+02  0.12206036674E+02 -0.35680703963E+02  0.43400728842E+02  0.00000000000E+00 0.  1.
         11    1    3    3    0    0  0.61615348594E+01 -0.12420635142E+02  0.15297692115E+02  0.20645969908E+02  0.51100000000E-03 0. -1.
        -11    1    3    3    0    0 -0.31995532565E+00 -0.82761550880E-01  0.56242252238E+01  0.56339267402E+01  0.51100000000E-03 0.  1.
        -12    1    3    3    0    0  0.15641513760E+02  0.29736001880E+00  0.14758786624E+02  0.21507374510E+02  0.00000000000E+00 0.  1.
</event>
<event>
 7    1  0.4031943E-009  0.4778727E+02  0.7816164E-02  0.1312668E+00
        -11   -1    0    0    0    0  0.00000000000E+00  0.00000000000E+00  0.45593999997E+02  0.45594000000E+02  0.51100000000E-03 0. -1.
         11   -1    0    0    0    0 -0.00000000000E+00 -0.00000000000E+00 -0.45593999997E+02  0.45594000000E+02  0.51100000000E-03 0.  1.
    9900012    2    1    2    0    0 -0.38210318667E+02  0.12287480293E+02 -0.16510993781E+02  0.47787267976E+02  0.19999986009E+02 0.  0.
        -12    1    1    2    0    0  0.38210318667E+02 -0.12287480293E+02  0.16510993781E+02  0.43400732024E+02  0.00000000000E+00 0.  1.
         11    1    3    3    0    0 -0.40277398049E+01 -0.84727711159E+00  0.16935742074E+01  0.44507033486E+01  0.51100000000E-03 0. -1.
        -11    1    3    3    0    0 -0.10832034271E+01 -0.20296512690E+01 -0.32390559140E+01  0.39729456847E+01  0.51100000000E-03 0.  1.
        -12    1    3    3    0    0 -0.33099375435E+02  0.15164408674E+02 -0.14965512075E+02  0.39363618943E+02  0.00000000000E+00 0.  1.
</event>
<event>
 7    1  0.4031943E-009  0.4778726E+02  0.7816164E-02  0.1312668E+00
        -11   -1    0    0    0    0  0.00000000000E+00  0.00000000000E+00  0.45593999997E+02  0.45594000000E+02  0.51100000000E-03 0.  1.
         11   -1    0    0    0    0 -0.00000000000E+00 -0.00000000000E+00 -0.45593999997E+02  0.45594000000E+02  0.51100000000E-03 0. -1.
    9900012    2    1    2    0    0 -0.23992596111E+01  0.23115450268E+02 -0.36654377977E+02  0.47787263686E+02  0.19999966448E+02 0.  0.
        -12    1    1    2    0    0  0.23992596111E+01 -0.23115450268E+02  0.36654377977E+02  0.43400736314E+02  0.00000000000E+00 0.  1.
         11    1    3    3    0    0 -0.57354295830E+01  0.18317706299E+02 -0.24566015115E+02  0.31175673456E+02  0.51100000000E-03 0. -1.
        -11    1    3    3    0    0  0.21495952687E+00  0.30550901610E+01 -0.12630017164E+02  0.12996042371E+02  0.51100000000E-03 0.  1.
        -12    1    3    3    0    0  0.31212104450E+01  0.17426538080E+01  0.54165430166E+00  0.36155478588E+01  0.00000000000E+00 0.  1.
</event>
<event>
 7    1  0.4031943E-009  0.4778727E+02  0.7816164E-02  0.1312668E+00
        -11   -1    0    0    0    0  0.00000000000E+00  0.00000000000E+00  0.45593999997E+02  0.45594000000E+02  0.51100000000E-03 0. -1.
         11   -1    0    0    0    0 -0.00000000000E+00 -0.00000000000E+00 -0.45593999997E+02  0.45594000000E+02  0.51100000000E-03 0.  1.
    9900012    2    1    2    0    0  0.23718403107E+01  0.21714333106E+02  0.37503140344E+02  0.47787269311E+02  0.19999992096E+02 0.  0.
        -12    1    1    2    0    0 -0.23718403107E+01 -0.21714333106E+02 -0.37503140344E+02  0.43400730689E+02  0.00000000000E+00 0.  1.
         11    1    3    3    0    0  0.20842079849E+01  0.22816106366E+01  0.92291096434E+00  0.32251255681E+01  0.51100000000E-03 0. -1.
        -11    1    3    3    0    0  0.74991124247E+00  0.84824272869E+01  0.26693388139E+01  0.89240859204E+01  0.51100000000E-03 0.  1.
         12    1    3    3    0    0 -0.46227891659E+00  0.10950295183E+02  0.33910890566E+02  0.35638057822E+02  0.00000000000E+00 0. -1.
</event>
<event>
 7    1  0.4031943E-009  0.4778727E+02  0.7816164E-02  0.1312668E+00
        -11   -1    0    0    0    0  0.00000000000E+00  0.00000000000E+00  0.45593999997E+02  0.45594000000E+02  0.51100000000E-03 0.  1.
         11   -1    0    0    0    0 -0.00000000000E+00 -0.00000000000E+00 -0.45593999997E+02  0.45594000000E+02  0.51100000000E-03 0. -1.
    9900012    2    1    2    0    0 -0.10675865173E+02  0.18986551195E+02 -0.37538782314E+02  0.47787269579E+02  0.19999993318E+02 0.  0.
        -12    1    1    2    0    0  0.10675865173E+02 -0.18986551195E+02  0.37538782314E+02  0.43400730421E+02  0.00000000000E+00 0.  1.
         11    1    3    3    0    0  0.19775162686E+01  0.10712425970E+00 -0.60205576931E+01  0.63379145936E+01  0.51100000000E-03 0. -1.
        -11    1    3    3    0    0 -0.32625976338E+00  0.58707313825E+01 -0.86712835491E+00  0.59433865972E+01  0.51100000000E-03 0.  1.
         12    1    3    3    0    0 -0.12327121678E+02  0.13008695552E+02 -0.30651096266E+02  0.35505968388E+02  0.00000000000E+00 0. -1.
</event>
<event>
 7    1  0.4031943E-009  0.4778729E+02  0.7816164E-02  0.1312668E+00
        -11   -1    0    0    0    0  0.00000000000E+00  0.00000000000E+00  0.45593999997E+02  0.45594000000E+02  0.51100000000E-03 0.  1.
         11   -1    0    0    0    0 -0.00000000000E+00 -0.00000000000E+00 -0.45593999997E+02  0.45594000000E+02  0.51100000000E-03 0. -1.
    9900012    2    1    2    0    0 -0.13053365419E+02 -0.12101354924E+01 -0.41373502307E+02  0.47787291828E+02  0.20000094762E+02 0.  0.
        -12    1    1    2    0    0  0.13053365419E+02  0.12101354924E+01  0.41373502307E+02  0.43400708172E+02  0.00000000000E+00 0.  1.
         11    1    3    3    0    0 -0.11897339892E+01  0.83368206479E-01  0.16206705686E+01  0.20122103707E+01  0.51100000000E-03 0. -1.
        -11    1    3    3    0    0  0.16115748596E+01  0.99189997103E+00 -0.76425150204E+01  0.78733141166E+01  0.51100000000E-03 0.  1.
         12    1    3    3    0    0 -0.13475206290E+02 -0.22854036699E+01 -0.35351657855E+02  0.37901767341E+02  0.00000000000E+00 0. -1.
</event>
<event>
 7    1  0.4031943E-009  0.4778727E+02  0.7816164E-02  0.1312668E+00
        -11   -1    0    0    0    0  0.00000000000E+00  0.00000000000E+00  0.45593999997E+02  0.45594000000E+02  0.51100000000E-03 0.  1.
         11   -1    0    0    0    0 -0.00000000000E+00 -0.00000000000E+00 -0.45593999997E+02  0.45594000000E+02  0.51100000000E-03 0. -1.
    9900012    2    1    2    0    0  0.17345728168E+02  0.24611642844E+02 -0.31257255468E+02  0.47787271105E+02  0.20000000278E+02 0.  0.
        -12    1    1    2    0    0 -0.17345728168E+02 -0.24611642844E+02  0.31257255468E+02  0.43400728895E+02  0.00000000000E+00 0.  1.
         11    1    3    3    0    0  0.64266269750E+01  0.82543970449E+01 -0.16920403735E+02  0.19893131168E+02  0.51100000000E-03 0. -1.
        -11    1    3    3    0    0  0.34506217675E+01 -0.20003336865E+01 -0.34986067914E+01  0.53055042345E+01  0.51100000000E-03 0.  1.
        -12    1    3    3    0    0  0.74684794253E+01  0.18357579486E+02 -0.10838244942E+02  0.22588635703E+02  0.00000000000E+00 0.  1.
</event>
<event>
 7    1  0.4031943E-009  0.4778727E+02  0.7816164E-02  0.1312668E+00
        -11   -1    0    0    0    0  0.00000000000E+00  0.00000000000E+00  0.45593999997E+02  0.45594000000E+02  0.51100000000E-03 0. -1.
         11   -1    0    0    0    0 -0.00000000000E+00 -0.00000000000E+00 -0.45593999997E+02  0.45594000000E+02  0.51100000000E-03 0.  1.
    9900012    2    1    2    0    0  0.78418786129E+01  0.41525979470E+02  0.98854090868E+01  0.47787270237E+02  0.19999996320E+02 0.  0.
        -12    1    1    2    0    0 -0.78418786129E+01 -0.41525979470E+02 -0.98854090868E+01  0.43400729763E+02  0.00000000000E+00 0.  1.
         11    1    3    3    0    0  0.15515302186E+00  0.15284599191E+02  0.10855656057E+02  0.18748021591E+02  0.51100000000E-03 0. -1.
        -11    1    3    3    0    0  0.56244284771E+01  0.16866254435E+02  0.40085568736E+01  0.18225621055E+02  0.51100000000E-03 0.  1.
        -12    1    3    3    0    0  0.20622971139E+01  0.93751258434E+01 -0.49788038436E+01  0.10813627591E+02  0.00000000000E+00 0.  1.
</event>
<event>
 7    1  0.4031943E-009  0.4778730E+02  0.7816164E-02  0.1312668E+00
        -11   -1    0    0    0    0  0.00000000000E+00  0.00000000000E+00  0.45593999997E+02  0.45594000000E+02  0.51100000000E-03 0. -1.
         11   -1    0    0    0    0 -0.00000000000E+00 -0.00000000000E+00 -0.45593999997E+02  0.45594000000E+02  0.51100000000E-03 0.  1.
    9900012    2    1    2    0    0 -0.31130704215E+02 -0.29978959551E+02  0.39701294171E+01  0.47787300832E+02  0.20000135811E+02 0.  0.
        -12    1    1    2    0    0  0.31130704215E+02  0.29978959551E+02 -0.39701294171E+01  0.43400699168E+02  0.00000000000E+00 0.  1.
         11    1    3    3    0    0 -0.14821040993E+02 -0.46003737959E+01  0.43897759688E+01  0.16127517741E+02  0.51100000000E-03 0. -1.
        -11    1    3    3    0    0 -0.28892328114E+01 -0.15929972197E+01  0.25755633048E+01  0.41855504988E+01  0.51100000000E-03 0.  1.
        -12    1    3    3    0    0 -0.13420430411E+02 -0.23785588536E+02 -0.29952098565E+01  0.27474232591E+02  0.00000000000E+00 0.  1.
</event>
<event>
 7    1  0.4031943E-009  0.4778727E+02  0.7816164E-02  0.1312668E+00
        -11   -1    0    0    0    0  0.00000000000E+00  0.00000000000E+00  0.45593999997E+02  0.45594000000E+02  0.51100000000E-03 0. -1.
         11   -1    0    0    0    0 -0.00000000000E+00 -0.00000000000E+00 -0.45593999997E+02  0.45594000000E+02  0.51100000000E-03 0.  1.
    9900012    2    1    2    0    0  0.27172811213E+02 -0.30973589349E+02  0.13634447563E+02  0.47787273431E+02  0.20000010882E+02 0.  0.
        -12    1    1    2    0    0 -0.27172811213E+02  0.30973589349E+02 -0.13634447563E+02  0.43400726569E+02  0.00000000000E+00 0.  1.
         11    1    3    3    0    0  0.92692488206E+01 -0.10712158389E+02 -0.39653577785E+01  0.14710315212E+02  0.51100000000E-03 0. -1.
        -11    1    3    3    0    0  0.12540213881E+01  0.26277491348E+00  0.20383976225E+01  0.24076306664E+01  0.51100000000E-03 0.  1.
         12    1    3    3    0    0  0.16649541004E+02 -0.20524205873E+02  0.15561407719E+02  0.30669327553E+02  0.00000000000E+00 0. -1.
</event>
<event>
 7    1  0.4031943E-009  0.4778727E+02  0.7816164E-02  0.1312668E+00
        -11   -1    0    0    0    0  0.00000000000E+00  0.00000000000E+00  0.45593999997E+02  0.45594000000E+02  0.51100000000E-03 0.  1.
         11   -1    0    0    0    0 -0.00000000000E+00 -0.00000000000E+00 -0.45593999997E+02  0.45594000000E+02  0.51100000000E-03 0. -1.
    9900012    2    1    2    0    0 -0.24175566185E+02  0.21980362481E+02 -0.28566215661E+02  0.47787274057E+02  0.20000013736E+02 0.  0.
        -12    1    1    2    0    0  0.24175566185E+02 -0.21980362481E+02  0.28566215661E+02  0.43400725943E+02  0.00000000000E+00 0.  1.
         11    1    3    3    0    0 -0.53695087700E+01  0.84631487998E+01 -0.21458210937E+01  0.10249929779E+02  0.51100000000E-03 0. -1.
        -11    1    3    3    0    0 -0.94771548451E+01  0.29405651642E+01 -0.33038875030E+01  0.10458444451E+02  0.51100000000E-03 0.  1.
         12    1    3    3    0    0 -0.93289025701E+01  0.10576648517E+02 -0.23116507064E+02  0.27078899828E+02  0.00000000000E+00 0. -1.
</event>
<event>
 7    1  0.4031943E-009  0.4778727E+02  0.7816164E-02  0.1312668E+00
        -11   -1    0    0    0    0  0.00000000000E+00  0.00000000000E+00  0.45593999997E+02  0.45594000000E+02  0.51100000000E-03 0.  1.
         11   -1    0    0    0    0 -0.00000000000E+00 -0.00000000000E+00 -0.45593999997E+02  0.45594000000E+02  0.51100000000E-03 0. -1.
    9900012    2    1    2    0    0  0.10465136536E+02 -0.40664946711E+02 -0.10975718699E+02  0.47787269883E+02  0.19999994704E+02 0.  0.
        -12    1    1    2    0    0 -0.10465136536E+02  0.40664946711E+02  0.10975718699E+02  0.43400730117E+02  0.00000000000E+00 0.  1.
         11    1    3    3    0    0  0.13992264106E+01 -0.17126869716E+02 -0.73410338797E+01  0.18686312625E+02  0.51100000000E-03 0. -1.
        -11    1    3    3    0    0 -0.32101712266E+00 -0.17259691286E+02 -0.83976722098E-01  0.17262880630E+02  0.51100000000E-03 0.  1.
         12    1    3    3    0    0  0.93869272482E+01 -0.62783857086E+01 -0.35507080968E+01  0.11838076628E+02  0.00000000000E+00 0. -1.
</event>
<event>
 7    1  0.4031943E-009  0.4778727E+02  0.7816164E-02  0.1312668E+00
        -11   -1    0    0    0    0  0.00000000000E+00  0.00000000000E+00  0.45593999997E+02  0.45594000000E+02  0.51100000000E-03 0.  1.
         11   -1    0    0    0    0 -0.00000000000E+00 -0.00000000000E+00 -0.45593999997E+02  0.45594000000E+02  0.51100000000E-03 0. -1.
    9900012    2    1    2    0    0 -0.33373773037E+02  0.15519244412E+02 -0.22999302587E+02  0.47787267364E+02  0.19999983220E+02 0.  0.
        -12    1    1    2    0    0  0.33373773037E+02 -0.15519244412E+02  0.22999302587E+02  0.43400732636E+02  0.00000000000E+00 0.  1.
         11    1    3    3    0    0 -0.17193428290E+02  0.39181389444E+01 -0.73185077089E+01  0.19092573020E+02  0.51100000000E-03 0. -1.
        -11    1    3    3    0    0 -0.17327732159E+02  0.70114358789E+01 -0.96706729330E+01  0.21045960422E+02  0.51100000000E-03 0.  1.
        -12    1    3    3    0    0  0.11473874131E+01  0.45896695888E+01 -0.60101219456E+01  0.76487339221E+01  0.00000000000E+00 0.  1.
</event>
<event>
 7    1  0.4031943E-009  0.4778727E+02  0.7816164E-02  0.1312668E+00
        -11   -1    0    0    0    0  0.00000000000E+00  0.00000000000E+00  0.45593999997E+02  0.45594000000E+02  0.51100000000E-03 0. -1.
         11   -1    0    0    0    0 -0.00000000000E+00 -0.00000000000E+00 -0.45593999997E+02  0.45594000000E+02  0.51100000000E-03 0.  1.
    9900012    2    1    2    0    0  0.15192570086E+02 -0.40213479629E+02 -0.59736860191E+01  0.47787273573E+02  0.20000011529E+02 0.  0.
        -12    1    1    2    0    0 -0.15192570086E+02  0.40213479629E+02  0.59736860191E+01  0.43400726427E+02  0.00000000000E+00 0.  1.
         11    1    3    3    0    0  0.17789274088E+02 -0.35980906480E+02 -0.98618284827E+00  0.40150422919E+02  0.51100000000E-03 0. -1.
        -11    1    3    3    0    0 -0.11273800261E+01 -0.19870319402E+01 -0.39598912740E+00  0.23186395375E+01  0.51100000000E-03 0.  1.
         12    1    3    3    0    0 -0.14693239759E+01 -0.22455412089E+01 -0.45915140434E+01  0.53182111163E+01  0.00000000000E+00 0. -1.
</event>
<event>
 7    1  0.4031943E-009  0.4778727E+02  0.7816164E-02  0.1312668E+00
        -11   -1    0    0    0    0  0.00000000000E+00  0.00000000000E+00  0.45593999997E+02  0.45594000000E+02  0.51100000000E-03 0. -1.
         11   -1    0    0    0    0 -0.00000000000E+00 -0.00000000000E+00 -0.45593999997E+02  0.45594000000E+02  0.51100000000E-03 0.  1.
    9900012    2    1    2    0    0 -0.24903036797E+02 -0.25736742034E+02  0.24516976728E+02  0.47787270973E+02  0.19999999673E+02 0.  0.
        -12    1    1    2    0    0  0.24903036797E+02  0.25736742034E+02 -0.24516976728E+02  0.43400729027E+02  0.00000000000E+00 0.  1.
         11    1    3    3    0    0  0.90781517223E+00 -0.12494727705E-01  0.24271554182E+01  0.25914027457E+01  0.51100000000E-03 0. -1.
        -11    1    3    3    0    0  0.17078086496E+01 -0.33148692010E+01  0.80942676199E+00  0.38157751699E+01  0.51100000000E-03 0.  1.
        -12    1    3    3    0    0 -0.27518660619E+02 -0.22409378105E+02  0.21280394548E+02  0.41380093057E+02  0.00000000000E+00 0.  1.
</event>
<event>
 7    1  0.4031943E-009  0.4778727E+02  0.7816164E-02  0.1312668E+00
        -11   -1    0    0    0    0  0.00000000000E+00  0.00000000000E+00  0.45593999997E+02  0.45594000000E+02  0.51100000000E-03 0.  1.
         11   -1    0    0    0    0 -0.00000000000E+00 -0.00000000000E+00 -0.45593999997E+02  0.45594000000E+02  0.51100000000E-03 0. -1.
    9900012    2    1    2    0    0 -0.59398919648E+01 -0.60222636324E+01 -0.42568452564E+02  0.47787272708E+02  0.20000007584E+02 0.  0.
        -12    1    1    2    0    0  0.59398919648E+01  0.60222636324E+01  0.42568452564E+02  0.43400727292E+02  0.00000000000E+00 0.  1.
         11    1    3    3    0    0 -0.49726391277E+01  0.56644447632E+00 -0.99914827854E+01  0.11174870368E+02  0.51100000000E-03 0. -1.
        -11    1    3    3    0    0  0.15418022280E+01 -0.44687497278E-01  0.13005200609E+01  0.20175489517E+01  0.51100000000E-03 0.  1.
         12    1    3    3    0    0 -0.25090550651E+01 -0.65440206114E+01 -0.33877489839E+02  0.34594853388E+02  0.00000000000E+00 0. -1.
</event>
<event>
 7    1  0.4031943E-009  0.4778727E+02  0.7816164E-02  0.1312668E+00
        -11   -1    0    0    0    0  0.00000000000E+00  0.00000000000E+00  0.45593999997E+02  0.45594000000E+02  0.51100000000E-03 0.  1.
         11   -1    0    0    0    0 -0.00000000000E+00 -0.00000000000E+00 -0.45593999997E+02  0.45594000000E+02  0.51100000000E-03 0. -1.
    9900012    2    1    2    0    0  0.26976126230E+02 -0.22658585294E+02 -0.25347590524E+02  0.47787271673E+02  0.20000002868E+02 0.  0.
        -12    1    1    2    0    0 -0.26976126230E+02  0.22658585294E+02  0.25347590524E+02  0.43400728327E+02  0.00000000000E+00 0.  1.
         11    1    3    3    0    0  0.13609345425E+02 -0.13884815993E+02 -0.68786290903E+01  0.20623237779E+02  0.51100000000E-03 0. -1.
        -11    1    3    3    0    0  0.75718279873E+01 -0.57799769381E+01 -0.24025741968E+01  0.98241068554E+01  0.51100000000E-03 0.  1.
        -12    1    3    3    0    0  0.57949528176E+01 -0.29937923627E+01 -0.16066387237E+02  0.17339927039E+02  0.00000000000E+00 0.  1.
</event>
<event>
 7    1  0.4031943E-009  0.4778728E+02  0.7816164E-02  0.1312668E+00
        -11   -1    0    0    0    0  0.00000000000E+00  0.00000000000E+00  0.45593999997E+02  0.45594000000E+02  0.51100000000E-03 0.  1.
         11   -1    0    0    0    0 -0.00000000000E+00 -0.00000000000E+00 -0.45593999997E+02  0.45594000000E+02  0.51100000000E-03 0. -1.
    9900012    2    1    2    0    0  0.15683477869E+02  0.40467564695E+02  0.16610865920E+00  0.47787275783E+02  0.20000021606E+02 0.  0.
        -12    1    1    2    0    0 -0.15683477869E+02 -0.40467564695E+02 -0.16610865920E+00  0.43400724217E+02  0.00000000000E+00 0.  1.
         11    1    3    3    0    0  0.47304076589E+01  0.56481470081E+01 -0.41796463508E+01  0.84704052515E+01  0.51100000000E-03 0. -1.
        -11    1    3    3    0    0  0.74258010180E+00  0.60701483349E+00  0.34726439311E+01  0.36026585113E+01  0.51100000000E-03 0.  1.
        -12    1    3    3    0    0  0.10210490108E+02  0.34212402854E+02  0.87311107895E+00  0.35714212020E+02  0.00000000000E+00 0.  1.
</event>
<event>
 7    1  0.4031943E-009  0.4778728E+02  0.7816164E-02  0.1312668E+00
        -11   -1    0    0    0    0  0.00000000000E+00  0.00000000000E+00  0.45593999997E+02  0.45594000000E+02  0.51100000000E-03 0.  1.
         11   -1    0    0    0    0 -0.00000000000E+00 -0.00000000000E+00 -0.45593999997E+02  0.45594000000E+02  0.51100000000E-03 0. -1.
    9900012    2    1    2    0    0 -0.23634577971E+02 -0.32985813750E+02 -0.15393691538E+02  0.47787275078E+02  0.20000018390E+02 0.  0.
        -12    1    1    2    0    0  0.23634577971E+02  0.32985813750E+02  0.15393691538E+02  0.43400724922E+02  0.00000000000E+00 0.  1.
         11    1    3    3    0    0 -0.70981674449E+00 -0.14616369608E+01  0.23348803775E+01  0.28446245893E+01  0.51100000000E-03 0. -1.
        -11    1    3    3    0    0 -0.47811138666E+01 -0.68313718605E+01  0.19013007611E+01  0.85522883573E+01  0.51100000000E-03 0.  1.
         12    1    3    3    0    0 -0.18143647360E+02 -0.24692804928E+02 -0.19629872676E+02  0.36390362131E+02  0.00000000000E+00 0. -1.
</event>
<event>
 7    1  0.4803778E-009  0.4778728E+02  0.7816164E-02  0.1312668E+00
        -11   -1    0    0    0    0  0.00000000000E+00  0.00000000000E+00  0.45593999997E+02  0.45594000000E+02  0.51100000000E-03 0.  1.
         11   -1    0    0    0    0 -0.00000000000E+00 -0.00000000000E+00 -0.45593999997E+02  0.45594000000E+02  0.51100000000E-03 0. -1.
    9900012    2    1    2    0    0  0.24326289807E+02  0.35929391522E+02  0.96587895387E+00  0.47787280270E+02  0.20000042062E+02 0.  0.
        -12    1    1    2    0    0 -0.24326289807E+02 -0.35929391522E+02 -0.96587895387E+00  0.43400719730E+02  0.00000000000E+00 0.  1.
         11    1    3    3    0    0  0.10903425424E+02  0.22471015934E+02  0.83611502898E+00  0.24990604868E+02  0.51100000000E-03 0. -1.
        -11    1    3    3    0    0  0.71893744297E+01  0.83497183126E+01  0.62583900553E+01  0.12671714443E+02  0.51100000000E-03 0.  1.
        -12    1    3    3    0    0  0.62334899533E+01  0.51086572758E+01 -0.61286261304E+01  0.10124960958E+02  0.00000000000E+00 0.  1.
</event>
<event>
 7    1  0.4031943E-009  0.4778727E+02  0.7816164E-02  0.1312668E+00
        -11   -1    0    0    0    0  0.00000000000E+00  0.00000000000E+00  0.45593999997E+02  0.45594000000E+02  0.51100000000E-03 0.  1.
         11   -1    0    0    0    0 -0.00000000000E+00 -0.00000000000E+00 -0.45593999997E+02  0.45594000000E+02  0.51100000000E-03 0. -1.
    9900012    2    1    2    0    0  0.21516109695E+02  0.29673153138E+01 -0.37574934243E+02  0.47787267058E+02  0.19999981824E+02 0.  0.
        -12    1    1    2    0    0 -0.21516109695E+02 -0.29673153138E+01  0.37574934243E+02  0.43400732942E+02  0.00000000000E+00 0.  1.
         11    1    3    3    0    0  0.82224670984E+01  0.90933116127E+01 -0.12363481267E+02  0.17411288022E+02  0.51100000000E-03 0. -1.
        -11    1    3    3    0    0  0.61292271152E+01  0.15767148731E+01 -0.11063204683E+02  0.12745507167E+02  0.51100000000E-03 0.  1.
        -12    1    3    3    0    0  0.71644154810E+01 -0.77027111720E+01 -0.14148248293E+02  0.17630471869E+02  0.00000000000E+00 0.  1.
</event>
<event>
 7    1  0.4031943E-009  0.4778727E+02  0.7816164E-02  0.1312668E+00
        -11   -1    0    0    0    0  0.00000000000E+00  0.00000000000E+00  0.45593999997E+02  0.45594000000E+02  0.51100000000E-03 0.  1.
         11   -1    0    0    0    0 -0.00000000000E+00 -0.00000000000E+00 -0.45593999997E+02  0.45594000000E+02  0.51100000000E-03 0. -1.
    9900012    2    1    2    0    0 -0.21022138188E+02  0.66192761431E+01 -0.37388208293E+02  0.47787271550E+02  0.20000002304E+02 0.  0.
        -12    1    1    2    0    0  0.21022138188E+02 -0.66192761431E+01  0.37388208293E+02  0.43400728450E+02  0.00000000000E+00 0.  1.
         11    1    3    3    0    0 -0.42495923572E+01 -0.32380986333E+01 -0.14292159756E+02  0.15258117469E+02  0.51100000000E-03 0. -1.
        -11    1    3    3    0    0 -0.15864619539E+02  0.43340893792E+01 -0.20706693820E+02  0.26443102184E+02  0.51100000000E-03 0.  1.
        -12    1    3    3    0    0 -0.90792629209E+00  0.55232853972E+01 -0.23893547170E+01  0.60860518972E+01  0.00000000000E+00 0.  1.
</event>
<event>
 7    1  0.4031943E-009  0.4778728E+02  0.7816164E-02  0.1312668E+00
        -11   -1    0    0    0    0  0.00000000000E+00  0.00000000000E+00  0.45593999997E+02  0.45594000000E+02  0.51100000000E-03 0.  1.
         11   -1    0    0    0    0 -0.00000000000E+00 -0.00000000000E+00 -0.45593999997E+02  0.45594000000E+02  0.51100000000E-03 0. -1.
    9900012    2    1    2    0    0  0.88418578553E+01  0.39288876482E+02 -0.16181099401E+02  0.47787282916E+02  0.20000054127E+02 0.  0.
        -12    1    1    2    0    0 -0.88418578553E+01 -0.39288876482E+02  0.16181099401E+02  0.43400717084E+02  0.00000000000E+00 0.  1.
         11    1    3    3    0    0  0.41917541471E-01  0.41654197067E+01 -0.64649887495E+01  0.76908099837E+01  0.51100000000E-03 0. -1.
        -11    1    3    3    0    0  0.99669068874E+01  0.25299334933E+02 -0.12340563168E+02  0.29861096438E+02  0.51100000000E-03 0.  1.
        -12    1    3    3    0    0 -0.11669665736E+01  0.98241218426E+01  0.26244525160E+01  0.10235376494E+02  0.00000000000E+00 0.  1.
</event>
<event>
 7    1  0.4031943E-009  0.4778727E+02  0.7816164E-02  0.1312668E+00
        -11   -1    0    0    0    0  0.00000000000E+00  0.00000000000E+00  0.45593999997E+02  0.45594000000E+02  0.51100000000E-03 0.  1.
         11   -1    0    0    0    0 -0.00000000000E+00 -0.00000000000E+00 -0.45593999997E+02  0.45594000000E+02  0.51100000000E-03 0. -1.
    9900012    2    1    2    0    0  0.22945923925E+02  0.36275906896E+02 -0.64160993805E+01  0.47787272159E+02  0.20000005081E+02 0.  0.
        -12    1    1    2    0    0 -0.22945923925E+02 -0.36275906896E+02  0.64160993805E+01  0.43400727841E+02  0.00000000000E+00 0.  1.
         11    1    3    3    0    0  0.20995761064E+02  0.20315949938E+02 -0.52440189696E+01  0.29682647115E+02  0.51100000000E-03 0. -1.
        -11    1    3    3    0    0 -0.23179416278E+01  0.27350289644E+01 -0.21384434555E+01  0.41744673312E+01  0.51100000000E-03 0.  1.
        -12    1    3    3    0    0  0.42681044886E+01  0.13224927994E+02  0.96636304455E+00  0.13930157713E+02  0.00000000000E+00 0.  1.
</event>
<event>
 7    1  0.4031943E-009  0.4778727E+02  0.7816164E-02  0.1312668E+00
        -11   -1    0    0    0    0  0.00000000000E+00  0.00000000000E+00  0.45593999997E+02  0.45594000000E+02  0.51100000000E-03 0.  1.
         11   -1    0    0    0    0 -0.00000000000E+00 -0.00000000000E+00 -0.45593999997E+02  0.45594000000E+02  0.51100000000E-03 0. -1.
    9900012    2    1    2    0    0 -0.33669046733E+02 -0.76894133126E+01 -0.26284817063E+02  0.47787269672E+02  0.19999993741E+02 0.  0.
        -12    1    1    2    0    0  0.33669046733E+02  0.76894133126E+01  0.26284817063E+02  0.43400730328E+02  0.00000000000E+00 0.  1.
         11    1    3    3    0    0 -0.23020610524E+02 -0.98322664174E+01 -0.24429156645E+02  0.34977216391E+02  0.51100000000E-03 0. -1.
        -11    1    3    3    0    0 -0.36349287792E+01 -0.22646720099E+01  0.15710275631E+00  0.42855720831E+01  0.51100000000E-03 0.  1.
         12    1    3    3    0    0 -0.70135074290E+01  0.44075251147E+01 -0.20127631750E+01  0.85244811978E+01  0.00000000000E+00 0. -1.
</event>
<event>
 7    1  0.4031943E-009  0.4778727E+02  0.7816164E-02  0.1312668E+00
        -11   -1    0    0    0    0  0.00000000000E+00  0.00000000000E+00  0.45593999997E+02  0.45594000000E+02  0.51100000000E-03 0.  1.
         11   -1    0    0    0    0 -0.00000000000E+00 -0.00000000000E+00 -0.45593999997E+02  0.45594000000E+02  0.51100000000E-03 0. -1.
    9900012    2    1    2    0    0 -0.11379991864E+02  0.30684543533E+02 -0.28505753203E+02  0.47787269679E+02  0.19999993777E+02 0.  0.
        -12    1    1    2    0    0  0.11379991864E+02 -0.30684543533E+02  0.28505753203E+02  0.43400730321E+02  0.00000000000E+00 0.  1.
         11    1    3    3    0    0 -0.30491765440E+01  0.20252687329E+02 -0.17852761414E+02  0.27169650568E+02  0.51100000000E-03 0.  1.
        -11    1    3    3    0    0  0.18530576913E+01  0.36735153579E+01 -0.65308446516E+01  0.77188386443E+01  0.51100000000E-03 0. -1.
         12    1    3    3    0    0 -0.10183873011E+02  0.67583408464E+01 -0.41221471376E+01  0.12898780467E+02  0.00000000000E+00 0. -1.
</event>
<event>
 7    1  0.4031943E-009  0.4778727E+02  0.7816164E-02  0.1312668E+00
        -11   -1    0    0    0    0  0.00000000000E+00  0.00000000000E+00  0.45593999997E+02  0.45594000000E+02  0.51100000000E-03 0.  1.
         11   -1    0    0    0    0 -0.00000000000E+00 -0.00000000000E+00 -0.45593999997E+02  0.45594000000E+02  0.51100000000E-03 0. -1.
    9900012    2    1    2    0    0 -0.14820125715E+02 -0.39193449652E+02 -0.11307567529E+02  0.47787266075E+02  0.19999977341E+02 0.  0.
        -12    1    1    2    0    0  0.14820125715E+02  0.39193449652E+02  0.11307567529E+02  0.43400733925E+02  0.00000000000E+00 0.  1.
         11    1    3    3    0    0 -0.15439765801E+02 -0.23694443191E+02 -0.96952503834E+01  0.29896670155E+02  0.51100000000E-03 0. -1.
        -11    1    3    3    0    0 -0.27892767496E+01 -0.13647796499E+02 -0.14921287028E+01  0.14009598937E+02  0.51100000000E-03 0.  1.
         12    1    3    3    0    0  0.34089168354E+01 -0.18512099625E+01 -0.12018844316E+00  0.38809969824E+01  0.00000000000E+00 0. -1.
</event>
<event>
 7    1  0.4080133E-009  0.4778726E+02  0.7816164E-02  0.1312668E+00
        -11   -1    0    0    0    0  0.00000000000E+00  0.00000000000E+00  0.45593999997E+02  0.45594000000E+02  0.51100000000E-03 0.  1.
         11   -1    0    0    0    0 -0.00000000000E+00 -0.00000000000E+00 -0.45593999997E+02  0.45594000000E+02  0.51100000000E-03 0. -1.
    9900012    2    1    2    0    0 -0.16606036089E+02  0.24604386428E+02 -0.31662085838E+02  0.47787263305E+02  0.19999964712E+02 0.  0.
        -12    1    1    2    0    0  0.16606036089E+02 -0.24604386428E+02  0.31662085838E+02  0.43400736695E+02  0.00000000000E+00 0.  1.
         11    1    3    3    0    0 -0.91563364923E+01  0.90114281804E+01 -0.12768839136E+02  0.18113188260E+02  0.51100000000E-03 0. -1.
        -11    1    3    3    0    0 -0.18965855558E+01  0.15129032222E+01 -0.13329223675E+02  0.13548214531E+02  0.51100000000E-03 0.  1.
        -12    1    3    3    0    0 -0.55531140411E+01  0.14080055025E+02 -0.55640230270E+01  0.16125860514E+02  0.00000000000E+00 0.  1.
</event>
<event>
 7    1  0.4031943E-009  0.4778727E+02  0.7816164E-02  0.1312668E+00
        -11   -1    0    0    0    0  0.00000000000E+00  0.00000000000E+00  0.45593999997E+02  0.45594000000E+02  0.51100000000E-03 0. -1.
         11   -1    0    0    0    0 -0.00000000000E+00 -0.00000000000E+00 -0.45593999997E+02  0.45594000000E+02  0.51100000000E-03 0.  1.
    9900012    2    1    2    0    0 -0.11983638875E+02  0.32705888461E+02 -0.25890939217E+02  0.47787268736E+02  0.19999989474E+02 0.  0.
        -12    1    1    2    0    0  0.11983638875E+02 -0.32705888461E+02  0.25890939217E+02  0.43400731264E+02  0.00000000000E+00 0.  1.
         11    1    3    3    0    0 -0.61554036104E+01  0.20656466559E+02 -0.14215284102E+02  0.25819622513E+02  0.51100000000E-03 0. -1.
        -11    1    3    3    0    0 -0.94755767003E+01  0.99616895703E+01 -0.11209909520E+02  0.17739331571E+02  0.51100000000E-03 0.  1.
         12    1    3    3    0    0  0.36473414354E+01  0.20877323311E+01 -0.46574559505E+00  0.42283146515E+01  0.00000000000E+00 0. -1.
</event>
<event>
 7    1  0.4031943E-009  0.4778727E+02  0.7816164E-02  0.1312668E+00
        -11   -1    0    0    0    0  0.00000000000E+00  0.00000000000E+00  0.45593999997E+02  0.45594000000E+02  0.51100000000E-03 0. -1.
         11   -1    0    0    0    0 -0.00000000000E+00 -0.00000000000E+00 -0.45593999997E+02  0.45594000000E+02  0.51100000000E-03 0.  1.
    9900012    2    1    2    0    0 -0.25543068751E+02  0.34189635161E+02 -0.78894683845E+01  0.47787271607E+02  0.20000002563E+02 0.  0.
        -12    1    1    2    0    0  0.25543068751E+02 -0.34189635161E+02  0.78894683845E+01  0.43400728393E+02  0.00000000000E+00 0.  1.
         11    1    3    3    0    0 -0.16284996664E+02  0.18556582581E+02  0.25441829514E+01  0.24819765120E+02  0.51100000000E-03 0. -1.
        -11    1    3    3    0    0 -0.65952033890E+01  0.55321930108E+01 -0.61303168194E+00  0.86300449219E+01  0.51100000000E-03 0.  1.
        -12    1    3    3    0    0 -0.26628686980E+01  0.10100859570E+02 -0.98206196540E+01  0.14337461565E+02  0.00000000000E+00 0.  1.
</event>
<event>
 7    1  0.4031943E-009  0.4778727E+02  0.7816164E-02  0.1312668E+00
        -11   -1    0    0    0    0  0.00000000000E+00  0.00000000000E+00  0.45593999997E+02  0.45594000000E+02  0.51100000000E-03 0. -1.
         11   -1    0    0    0    0 -0.00000000000E+00 -0.00000000000E+00 -0.45593999997E+02  0.45594000000E+02  0.51100000000E-03 0.  1.
    9900012    2    1    2    0    0  0.33712703096E+01 -0.36253020403E+02  0.23621521167E+02  0.47787271733E+02  0.20000003141E+02 0.  0.
        -12    1    1    2    0    0 -0.33712703096E+01  0.36253020403E+02 -0.23621521167E+02  0.43400728267E+02  0.00000000000E+00 0.  1.
         11    1    3    3    0    0 -0.35207178406E+01 -0.12880439596E+02  0.86346117234E+01  0.15901499872E+02  0.51100000000E-03 0. -1.
        -11    1    3    3    0    0 -0.39793484702E+01 -0.10860963237E+02  0.63605505393E+01  0.13200467420E+02  0.51100000000E-03 0.  1.
         12    1    3    3    0    0  0.10871336620E+02 -0.12511617570E+02  0.86263589048E+01  0.18685304442E+02  0.00000000000E+00 0. -1.
</event>
<event>
 7    1  0.4031943E-009  0.4778727E+02  0.7816164E-02  0.1312668E+00
        -11   -1    0    0    0    0  0.00000000000E+00  0.00000000000E+00  0.45593999997E+02  0.45594000000E+02  0.51100000000E-03 0.  1.
         11   -1    0    0    0    0 -0.00000000000E+00 -0.00000000000E+00 -0.45593999997E+02  0.45594000000E+02  0.51100000000E-03 0. -1.
    9900012    2    1    2    0    0  0.23187746823E+02  0.32365360101E+02  0.17275272031E+02  0.47787272345E+02  0.20000005932E+02 0.  0.
        -12    1    1    2    0    0 -0.23187746823E+02 -0.32365360101E+02 -0.17275272031E+02  0.43400727655E+02  0.00000000000E+00 0.  1.
         11    1    3    3    0    0  0.60681454746E+01  0.22010686683E+02  0.10971178780E+02  0.25330998438E+02  0.51100000000E-03 0. -1.
        -11    1    3    3    0    0  0.82804815844E+00  0.23568279398E+01 -0.12556815816E+01  0.27958966694E+01  0.51100000000E-03 0.  1.
        -12    1    3    3    0    0  0.16291553190E+02  0.79978454781E+01  0.75597748319E+01  0.19660377238E+02  0.00000000000E+00 0.  1.
</event>
<event>
 7    1  0.4031943E-009  0.4778728E+02  0.7816164E-02  0.1312668E+00
        -11   -1    0    0    0    0  0.00000000000E+00  0.00000000000E+00  0.45593999997E+02  0.45594000000E+02  0.51100000000E-03 0.  1.
         11   -1    0    0    0    0 -0.00000000000E+00 -0.00000000000E+00 -0.45593999997E+02  0.45594000000E+02  0.51100000000E-03 0. -1.
    9900012    2    1    2    0    0  0.40683983378E+02 -0.14929762377E+02 -0.23534232753E+01  0.47787275245E+02  0.20000019152E+02 0.  0.
        -12    1    1    2    0    0 -0.40683983378E+02  0.14929762377E+02  0.23534232753E+01  0.43400724755E+02  0.00000000000E+00 0.  1.
         11    1    3    3    0    0  0.15155758653E+02 -0.52379900626E+01 -0.65539182648E+01  0.17323031061E+02  0.51100000000E-03 0. -1.
        -11    1    3    3    0    0  0.14738953771E+02 -0.12053912154E+02  0.15333897535E+01  0.19101959085E+02  0.51100000000E-03 0.  1.
         12    1    3    3    0    0  0.10789270953E+02  0.23621398396E+01  0.26671052360E+01  0.11362285099E+02  0.00000000000E+00 0. -1.
</event>
<event>
 7    1  0.4031943E-009  0.4778727E+02  0.7816164E-02  0.1312668E+00
        -11   -1    0    0    0    0  0.00000000000E+00  0.00000000000E+00  0.45593999997E+02  0.45594000000E+02  0.51100000000E-03 0.  1.
         11   -1    0    0    0    0 -0.00000000000E+00 -0.00000000000E+00 -0.45593999997E+02  0.45594000000E+02  0.51100000000E-03 0. -1.
    9900012    2    1    2    0    0  0.16959061021E+02 -0.21857119979E+02 -0.33440690343E+02  0.47787271721E+02  0.20000003085E+02 0.  0.
        -12    1    1    2    0    0 -0.16959061021E+02  0.21857119979E+02  0.33440690343E+02  0.43400728279E+02  0.00000000000E+00 0.  1.
         11    1    3    3    0    0 -0.17098566719E+01  0.28324210907E+00 -0.27730659173E+01  0.32701270271E+01  0.51100000000E-03 0. -1.
        -11    1    3    3    0    0  0.11638024916E+01 -0.59608829571E+00 -0.95477346363E+01  0.96368560455E+01  0.51100000000E-03 0.  1.
         12    1    3    3    0    0  0.17505115202E+02 -0.21544273793E+02 -0.21119889790E+02  0.34880288648E+02  0.00000000000E+00 0. -1.
</event>
<event>
 7    1  0.4031943E-009  0.4778727E+02  0.7816164E-02  0.1312668E+00
        -11   -1    0    0    0    0  0.00000000000E+00  0.00000000000E+00  0.45593999997E+02  0.45594000000E+02  0.51100000000E-03 0. -1.
         11   -1    0    0    0    0 -0.00000000000E+00 -0.00000000000E+00 -0.45593999997E+02  0.45594000000E+02  0.51100000000E-03 0.  1.
    9900012    2    1    2    0    0  0.78125024637E+00 -0.14241330773E+02  0.40990213393E+02  0.47787269037E+02  0.19999990847E+02 0.  0.
        -12    1    1    2    0    0 -0.78125024637E+00  0.14241330773E+02 -0.40990213393E+02  0.43400730963E+02  0.00000000000E+00 0.  1.
         11    1    3    3    0    0 -0.34571293342E+00 -0.65789774810E+01  0.12736265472E+02  0.14339278941E+02  0.51100000000E-03 0. -1.
        -11    1    3    3    0    0 -0.18385939845E+01 -0.41726011588E+01  0.28499343919E+02  0.28861802306E+02  0.51100000000E-03 0.  1.
         12    1    3    3    0    0  0.29655571643E+01 -0.34897521336E+01 -0.24539599766E+00  0.45861877899E+01  0.00000000000E+00 0. -1.
</event>
<event>
 7    1  0.4031943E-009  0.4778727E+02  0.7816164E-02  0.1312668E+00
        -11   -1    0    0    0    0  0.00000000000E+00  0.00000000000E+00  0.45593999997E+02  0.45594000000E+02  0.51100000000E-03 0.  1.
         11   -1    0    0    0    0 -0.00000000000E+00 -0.00000000000E+00 -0.45593999997E+02  0.45594000000E+02  0.51100000000E-03 0. -1.
    9900012    2    1    2    0    0  0.23510331241E+02 -0.32462584909E+02 -0.16645363802E+02  0.47787271549E+02  0.20000002299E+02 0.  0.
        -12    1    1    2    0    0 -0.23510331241E+02  0.32462584909E+02  0.16645363802E+02  0.43400728451E+02  0.00000000000E+00 0.  1.
         11    1    3    3    0    0  0.29990834670E+01 -0.63406988906E+00  0.14095483782E+01  0.33739254819E+01  0.51100000000E-03 0. -1.
        -11    1    3    3    0    0  0.17585459573E+02 -0.16548399373E+02 -0.64201920226E+01  0.24986331785E+02  0.51100000000E-03 0.  1.
        -12    1    3    3    0    0  0.29257882013E+01 -0.15280115646E+02 -0.11634720157E+02  0.19427014282E+02  0.00000000000E+00 0.  1.
</event>
<event>
 7    1  0.4031943E-009  0.4778727E+02  0.7816164E-02  0.1312668E+00
        -11   -1    0    0    0    0  0.00000000000E+00  0.00000000000E+00  0.45593999997E+02  0.45594000000E+02  0.51100000000E-03 0.  1.
         11   -1    0    0    0    0 -0.00000000000E+00 -0.00000000000E+00 -0.45593999997E+02  0.45594000000E+02  0.51100000000E-03 0. -1.
    9900012    2    1    2    0    0  0.39470948013E+02 -0.16538724561E+02 -0.72206993913E+01  0.47787266748E+02  0.19999980410E+02 0.  0.
        -12    1    1    2    0    0 -0.39470948013E+02  0.16538724561E+02  0.72206993913E+01  0.43400733252E+02  0.00000000000E+00 0.  1.
         11    1    3    3    0    0  0.24516560541E+02 -0.34056344450E+01 -0.44099000308E+01  0.25141744276E+02  0.51100000000E-03 0. -1.
        -11    1    3    3    0    0  0.14964663078E+02 -0.83165050919E+01 -0.42089450643E+01  0.17630105411E+02  0.51100000000E-03 0.  1.
        -12    1    3    3    0    0 -0.10275605915E-01 -0.48165850240E+01  0.13981457038E+01  0.50154170605E+01  0.00000000000E+00 0.  1.
</event>
<event>
 7    1  0.4031943E-009  0.4778727E+02  0.7816164E-02  0.1312668E+00
        -11   -1    0    0    0    0  0.00000000000E+00  0.00000000000E+00  0.45593999997E+02  0.45594000000E+02  0.51100000000E-03 0.  1.
         11   -1    0    0    0    0 -0.00000000000E+00 -0.00000000000E+00 -0.45593999997E+02  0.45594000000E+02  0.51100000000E-03 0. -1.
    9900012    2    1    2    0    0  0.20777677063E+02 -0.14075129956E+02 -0.35409064084E+02  0.47787274583E+02  0.20000016133E+02 0.  0.
        -12    1    1    2    0    0 -0.20777677063E+02  0.14075129956E+02  0.35409064084E+02  0.43400725417E+02  0.00000000000E+00 0.  1.
         11    1    3    3    0    0  0.12310349586E+02 -0.11056719971E+02 -0.14846952832E+02  0.22231234156E+02  0.51100000000E-03 0. -1.
        -11    1    3    3    0    0  0.37500243858E+01 -0.75347363908E+01 -0.13733210472E+02  0.16107017275E+02  0.51100000000E-03 0.  1.
        -12    1    3    3    0    0  0.47173030915E+01  0.45163264056E+01 -0.68289007804E+01  0.94490231521E+01  0.00000000000E+00 0.  1.
</event>
<event>
 7    1  0.4031943E-009  0.4778726E+02  0.7816164E-02  0.1312668E+00
        -11   -1    0    0    0    0  0.00000000000E+00  0.00000000000E+00  0.45593999997E+02  0.45594000000E+02  0.51100000000E-03 0.  1.
         11   -1    0    0    0    0 -0.00000000000E+00 -0.00000000000E+00 -0.45593999997E+02  0.45594000000E+02  0.51100000000E-03 0. -1.
    9900012    2    1    2    0    0 -0.16775523395E+02  0.15982562962E+02 -0.36698275525E+02  0.47787263479E+02  0.19999965508E+02 0.  0.
        -12    1    1    2    0    0  0.16775523395E+02 -0.15982562962E+02  0.36698275525E+02  0.43400736521E+02  0.00000000000E+00 0.  1.
         11    1    3    3    0    0  0.27361248753E+01  0.65942374637E+00 -0.98725738780E+01  0.10265911272E+02  0.51100000000E-03 0.  1.
        -11    1    3    3    0    0 -0.39983520274E+01  0.78627559514E+01 -0.11341074092E+02  0.14367662020E+02  0.51100000000E-03 0. -1.
        -12    1    3    3    0    0 -0.15513296243E+02  0.74603832640E+01 -0.15484627555E+02  0.23153690187E+02  0.00000000000E+00 0.  1.
</event>
<event>
 7    1  0.4031943E-009  0.4778727E+02  0.7816164E-02  0.1312668E+00
        -11   -1    0    0    0    0  0.00000000000E+00  0.00000000000E+00  0.45593999997E+02  0.45594000000E+02  0.51100000000E-03 0.  1.
         11   -1    0    0    0    0 -0.00000000000E+00 -0.00000000000E+00 -0.45593999997E+02  0.45594000000E+02  0.51100000000E-03 0. -1.
    9900012    2    1    2    0    0 -0.31155722830E+02 -0.27770363171E+02 -0.11905940652E+02  0.47787267766E+02  0.19999985051E+02 0.  0.
        -12    1    1    2    0    0  0.31155722830E+02  0.27770363171E+02  0.11905940652E+02  0.43400732234E+02  0.00000000000E+00 0.  1.
         11    1    3    3    0    0 -0.84364496368E+00 -0.28889235402E+01 -0.27505477067E+01  0.40771471636E+01  0.51100000000E-03 0. -1.
        -11    1    3    3    0    0 -0.88320436801E+01 -0.18221698077E+02 -0.45717759781E+01  0.20759007978E+02  0.51100000000E-03 0.  1.
         12    1    3    3    0    0 -0.21480034186E+02 -0.66597415539E+01 -0.45836169668E+01  0.22951112624E+02  0.00000000000E+00 0. -1.
</event>
<event>
 7    1  0.4031943E-009  0.4778727E+02  0.7816164E-02  0.1312668E+00
        -11   -1    0    0    0    0  0.00000000000E+00  0.00000000000E+00  0.45593999997E+02  0.45594000000E+02  0.51100000000E-03 0.  1.
         11   -1    0    0    0    0 -0.00000000000E+00 -0.00000000000E+00 -0.45593999997E+02  0.45594000000E+02  0.51100000000E-03 0. -1.
    9900012    2    1    2    0    0  0.15084087229E+02  0.15584062020E+02 -0.37592955486E+02  0.47787274445E+02  0.20000015503E+02 0.  0.
        -12    1    1    2    0    0 -0.15084087229E+02 -0.15584062020E+02  0.37592955486E+02  0.43400725555E+02  0.00000000000E+00 0.  1.
         11    1    3    3    0    0 -0.34405521779E-01  0.12225482269E+02 -0.19008656326E+02  0.22600721582E+02  0.51100000000E-03 0. -1.
        -11    1    3    3    0    0  0.10390552915E+00 -0.11548732974E+01 -0.53004738381E+00  0.12749428153E+01  0.51100000000E-03 0.  1.
         12    1    3    3    0    0  0.15014587222E+02  0.45134530481E+01 -0.18054251776E+02  0.23911610047E+02  0.00000000000E+00 0. -1.
</event>
<event>
 7    1  0.4031943E-009  0.4778727E+02  0.7816164E-02  0.1312668E+00
        -11   -1    0    0    0    0  0.00000000000E+00  0.00000000000E+00  0.45593999997E+02  0.45594000000E+02  0.51100000000E-03 0.  1.
         11   -1    0    0    0    0 -0.00000000000E+00 -0.00000000000E+00 -0.45593999997E+02  0.45594000000E+02  0.51100000000E-03 0. -1.
    9900012    2    1    2    0    0 -0.27328606816E+02 -0.74016363946E+01 -0.32893560544E+02  0.47787270777E+02  0.19999998780E+02 0.  0.
        -12    1    1    2    0    0  0.27328606816E+02  0.74016363946E+01  0.32893560544E+02  0.43400729223E+02  0.00000000000E+00 0.  1.
         11    1    3    3    0    0 -0.54576542673E+01  0.29875667980E+01 -0.12905949297E+02  0.14327423808E+02  0.51100000000E-03 0. -1.
        -11    1    3    3    0    0 -0.14546062952E+02 -0.55297276450E+00 -0.11372234341E+02  0.18472180176E+02  0.51100000000E-03 0.  1.
        -12    1    3    3    0    0 -0.73248895965E+01 -0.98362304282E+01 -0.86153769060E+01  0.14987666792E+02  0.00000000000E+00 0.  1.
</event>
<event>
 7    1  0.4031943E-009  0.4778727E+02  0.7816164E-02  0.1312668E+00
        -11   -1    0    0    0    0  0.00000000000E+00  0.00000000000E+00  0.45593999997E+02  0.45594000000E+02  0.51100000000E-03 0.  1.
         11   -1    0    0    0    0 -0.00000000000E+00 -0.00000000000E+00 -0.45593999997E+02  0.45594000000E+02  0.51100000000E-03 0. -1.
    9900012    2    1    2    0    0  0.13092587462E+02 -0.22936922447E+02 -0.34439879476E+02  0.47787267792E+02  0.19999985173E+02 0.  0.
        -12    1    1    2    0    0 -0.13092587462E+02  0.22936922447E+02  0.34439879476E+02  0.43400732208E+02  0.00000000000E+00 0.  1.
         11    1    3    3    0    0  0.72035345793E+01 -0.29349891085E+01 -0.14255565198E+02  0.16239649346E+02  0.51100000000E-03 0. -1.
        -11    1    3    3    0    0  0.31124980772E+01 -0.32957603104E+01 -0.11819734337E+02  0.12659218000E+02  0.51100000000E-03 0.  1.
        -12    1    3    3    0    0  0.27765548058E+01 -0.16706173028E+02 -0.83645799411E+01  0.18888400447E+02  0.00000000000E+00 0.  1.
</event>
<event>
 7    1  0.4031943E-009  0.4778727E+02  0.7816164E-02  0.1312668E+00
        -11   -1    0    0    0    0  0.00000000000E+00  0.00000000000E+00  0.45593999997E+02  0.45594000000E+02  0.51100000000E-03 0.  1.
         11   -1    0    0    0    0 -0.00000000000E+00 -0.00000000000E+00 -0.45593999997E+02  0.45594000000E+02  0.51100000000E-03 0. -1.
    9900012    2    1    2    0    0  0.82974084340E+01 -0.37246662907E+02 -0.20675164172E+02  0.47787270767E+02  0.19999998735E+02 0.  0.
        -12    1    1    2    0    0 -0.82974084340E+01  0.37246662907E+02  0.20675164172E+02  0.43400729233E+02  0.00000000000E+00 0.  1.
         11    1    3    3    0    0  0.13131984483E-01 -0.40060354618E+01 -0.35726283986E+01  0.53676965735E+01  0.51100000000E-03 0. -1.
        -11    1    3    3    0    0  0.22690151154E+01 -0.43809376839E+01 -0.11360642009E+02  0.12385686566E+02  0.51100000000E-03 0.  1.
        -12    1    3    3    0    0  0.60152613341E+01 -0.28859689761E+02 -0.57418937641E+01  0.30033887628E+02  0.00000000000E+00 0.  1.
</event>
<event>
 7    1  0.4031943E-009  0.4778728E+02  0.7816164E-02  0.1312668E+00
        -11   -1    0    0    0    0  0.00000000000E+00  0.00000000000E+00  0.45593999997E+02  0.45594000000E+02  0.51100000000E-03 0. -1.
         11   -1    0    0    0    0 -0.00000000000E+00 -0.00000000000E+00 -0.45593999997E+02  0.45594000000E+02  0.51100000000E-03 0.  1.
    9900012    2    1    2    0    0 -0.33207040475E+02  0.10727834083E+02  0.25803661725E+02  0.47787275125E+02  0.20000018605E+02 0.  0.
        -12    1    1    2    0    0  0.33207040475E+02 -0.10727834083E+02 -0.25803661725E+02  0.43400724875E+02  0.00000000000E+00 0.  1.
         11    1    3    3    0    0 -0.14791822369E+02  0.28542306552E+01  0.12036345297E+02  0.19282589297E+02  0.51100000000E-03 0. -1.
        -11    1    3    3    0    0 -0.59267221065E+01  0.27270657489E+01  0.13501017027E+02  0.14994678508E+02  0.51100000000E-03 0.  1.
         12    1    3    3    0    0 -0.12488496000E+02  0.51465376792E+01  0.26629940098E+00  0.13510007320E+02  0.00000000000E+00 0. -1.
</event>
<event>
 7    1  0.4031943E-009  0.4778727E+02  0.7816164E-02  0.1312668E+00
        -11   -1    0    0    0    0  0.00000000000E+00  0.00000000000E+00  0.45593999997E+02  0.45594000000E+02  0.51100000000E-03 0. -1.
         11   -1    0    0    0    0 -0.00000000000E+00 -0.00000000000E+00 -0.45593999997E+02  0.45594000000E+02  0.51100000000E-03 0.  1.
    9900012    2    1    2    0    0  0.23033820304E+02 -0.88598452654E+01  0.35701114301E+02  0.47787270763E+02  0.19999998717E+02 0.  0.
        -12    1    1    2    0    0 -0.23033820304E+02  0.88598452654E+01 -0.35701114301E+02  0.43400729237E+02  0.00000000000E+00 0.  1.
         11    1    3    3    0    0  0.39326779354E+01  0.20628792794E+01  0.11067890563E+02  0.11925587132E+02  0.51100000000E-03 0. -1.
        -11    1    3    3    0    0 -0.17061380562E+01 -0.15150994581E+01  0.12857449626E-01  0.22817973201E+01  0.51100000000E-03 0.  1.
        -12    1    3    3    0    0  0.20807280425E+02 -0.94076250867E+01  0.24620366289E+02  0.33579886311E+02  0.00000000000E+00 0.  1.
</event>
<event>
 7    1  0.4031943E-009  0.4778727E+02  0.7816164E-02  0.1312668E+00
        -11   -1    0    0    0    0  0.00000000000E+00  0.00000000000E+00  0.45593999997E+02  0.45594000000E+02  0.51100000000E-03 0.  1.
         11   -1    0    0    0    0 -0.00000000000E+00 -0.00000000000E+00 -0.45593999997E+02  0.45594000000E+02  0.51100000000E-03 0. -1.
    9900012    2    1    2    0    0 -0.14360980788E+02  0.76050727497E+01 -0.40243612100E+02  0.47787271716E+02  0.20000003062E+02 0.  0.
        -12    1    1    2    0    0  0.14360980788E+02 -0.76050727497E+01  0.40243612100E+02  0.43400728284E+02  0.00000000000E+00 0.  1.
         11    1    3    3    0    0 -0.28632133991E-01  0.76899867380E+00 -0.11785397465E+02  0.11810494165E+02  0.51100000000E-03 0. -1.
        -11    1    3    3    0    0 -0.53344662731E+01  0.14630587958E+01 -0.23928818444E+02  0.24559833546E+02  0.51100000000E-03 0.  1.
        -12    1    3    3    0    0 -0.89978823806E+01  0.53730152801E+01 -0.45293961917E+01  0.11416944004E+02  0.00000000000E+00 0.  1.
</event>
<event>
 7    1  0.4031943E-009  0.4778727E+02  0.7816164E-02  0.1312668E+00
        -11   -1    0    0    0    0  0.00000000000E+00  0.00000000000E+00  0.45593999997E+02  0.45594000000E+02  0.51100000000E-03 0.  1.
         11   -1    0    0    0    0 -0.00000000000E+00 -0.00000000000E+00 -0.45593999997E+02  0.45594000000E+02  0.51100000000E-03 0. -1.
    9900012    2    1    2    0    0 -0.90447403046E+01 -0.10787045942E+02 -0.41054301627E+02  0.47787269944E+02  0.19999994983E+02 0.  0.
        -12    1    1    2    0    0  0.90447403046E+01  0.10787045942E+02  0.41054301627E+02  0.43400730056E+02  0.00000000000E+00 0.  1.
         11    1    3    3    0    0 -0.10352198292E+02 -0.55066430938E+01 -0.31860575376E+02  0.33949777484E+02  0.51100000000E-03 0. -1.
        -11    1    3    3    0    0 -0.35895242054E+01 -0.99118063153E+00 -0.43321060278E+01  0.57126408921E+01  0.51100000000E-03 0.  1.
        -12    1    3    3    0    0  0.48969821924E+01 -0.42892222165E+01 -0.48616202228E+01  0.81248515683E+01  0.00000000000E+00 0.  1.
</event>
<event>
 7    1  0.4031943E-009  0.4778727E+02  0.7816164E-02  0.1312668E+00
        -11   -1    0    0    0    0  0.00000000000E+00  0.00000000000E+00  0.45593999997E+02  0.45594000000E+02  0.51100000000E-03 0. -1.
         11   -1    0    0    0    0 -0.00000000000E+00 -0.00000000000E+00 -0.45593999997E+02  0.45594000000E+02  0.51100000000E-03 0.  1.
    9900012    2    1    2    0    0  0.17689571739E+02  0.21010969712E+02  0.33604188059E+02  0.47787271301E+02  0.20000001169E+02 0.  0.
        -12    1    1    2    0    0 -0.17689571739E+02 -0.21010969712E+02 -0.33604188059E+02  0.43400728699E+02  0.00000000000E+00 0.  1.
         11    1    3    3    0    0  0.44003291041E+01  0.12672813224E+01  0.12125143413E+01  0.47369916048E+01  0.51100000000E-03 0. -1.
        -11    1    3    3    0    0  0.66644804571E+01  0.37417029498E+01  0.17315102437E+01  0.78366937361E+01  0.51100000000E-03 0.  1.
         12    1    3    3    0    0  0.66247621777E+01  0.16001985440E+02  0.30660163474E+02  0.35213585960E+02  0.00000000000E+00 0. -1.
</event>
<event>
 7    1  0.4031943E-009  0.4778727E+02  0.7816164E-02  0.1312668E+00
        -11   -1    0    0    0    0  0.00000000000E+00  0.00000000000E+00  0.45593999997E+02  0.45594000000E+02  0.51100000000E-03 0. -1.
         11   -1    0    0    0    0 -0.00000000000E+00 -0.00000000000E+00 -0.45593999997E+02  0.45594000000E+02  0.51100000000E-03 0.  1.
    9900012    2    1    2    0    0  0.36348934090E+02  0.22045364698E+02  0.87395699443E+01  0.47787271931E+02  0.20000004041E+02 0.  0.
        -12    1    1    2    0    0 -0.36348934090E+02 -0.22045364698E+02 -0.87395699443E+01  0.43400728069E+02  0.00000000000E+00 0.  1.
         11    1    3    3    0    0  0.26804856820E+02  0.14948936905E+02  0.31895981627E+01  0.30856840416E+02  0.51100000000E-03 0. -1.
        -11    1    3    3    0    0  0.52894611538E+01  0.58560689104E+01 -0.20316231738E+01  0.81485848687E+01  0.51100000000E-03 0.  1.
         12    1    3    3    0    0  0.42546161155E+01  0.12403588826E+01  0.75815949554E+01  0.87818466461E+01  0.00000000000E+00 0. -1.
</event>
<event>
 7    1  0.4031943E-009  0.4778727E+02  0.7816164E-02  0.1312668E+00
        -11   -1    0    0    0    0  0.00000000000E+00  0.00000000000E+00  0.45593999997E+02  0.45594000000E+02  0.51100000000E-03 0.  1.
         11   -1    0    0    0    0 -0.00000000000E+00 -0.00000000000E+00 -0.45593999997E+02  0.45594000000E+02  0.51100000000E-03 0. -1.
    9900012    2    1    2    0    0 -0.38805040850E+02 -0.19414455653E+02  0.93339949465E+00  0.47787268228E+02  0.19999987159E+02 0.  0.
        -12    1    1    2    0    0  0.38805040850E+02  0.19414455653E+02 -0.93339949465E+00  0.43400731772E+02  0.00000000000E+00 0.  1.
         11    1    3    3    0    0 -0.24902393391E+02 -0.32812024954E+01  0.17076249970E+01  0.25175612600E+02  0.51100000000E-03 0. -1.
        -11    1    3    3    0    0 -0.96024544790E+01 -0.53790454214E+01 -0.71167961328E+00  0.11029403873E+02  0.51100000000E-03 0.  1.
        -12    1    3    3    0    0 -0.43001929803E+01 -0.10754207737E+02 -0.62545889047E-01  0.11582251754E+02  0.00000000000E+00 0.  1.
</event>
<event>
 7    1  0.4031943E-009  0.4778726E+02  0.7816164E-02  0.1312668E+00
        -11   -1    0    0    0    0  0.00000000000E+00  0.00000000000E+00  0.45593999997E+02  0.45594000000E+02  0.51100000000E-03 0.  1.
         11   -1    0    0    0    0 -0.00000000000E+00 -0.00000000000E+00 -0.45593999997E+02  0.45594000000E+02  0.51100000000E-03 0. -1.
    9900012    2    1    2    0    0 -0.14288229996E+02 -0.40968557414E+02 -0.10239387029E+01  0.47787255036E+02  0.19999927010E+02 0.  0.
        -12    1    1    2    0    0  0.14288229996E+02  0.40968557414E+02  0.10239387029E+01  0.43400744964E+02  0.00000000000E+00 0.  1.
         11    1    3    3    0    0  0.27474761511E+01 -0.17559758125E+02 -0.34791302108E+01  0.18110717211E+02  0.51100000000E-03 0. -1.
        -11    1    3    3    0    0 -0.32968420820E+01 -0.13332128079E+01  0.62307619035E+00  0.36103806316E+01  0.51100000000E-03 0.  1.
         12    1    3    3    0    0 -0.13738864066E+02 -0.22075586481E+02  0.18321153176E+01  0.26066157193E+02  0.00000000000E+00 0. -1.
</event>
<event>
 7    1  0.4031943E-009  0.4778727E+02  0.7816164E-02  0.1312668E+00
        -11   -1    0    0    0    0  0.00000000000E+00  0.00000000000E+00  0.45593999997E+02  0.45594000000E+02  0.51100000000E-03 0. -1.
         11   -1    0    0    0    0 -0.00000000000E+00 -0.00000000000E+00 -0.45593999997E+02  0.45594000000E+02  0.51100000000E-03 0.  1.
    9900012    2    1    2    0    0  0.23577632868E+02  0.27710806771E+02  0.23660715420E+02  0.47787273765E+02  0.20000012404E+02 0.  0.
        -12    1    1    2    0    0 -0.23577632868E+02 -0.27710806771E+02 -0.23660715420E+02  0.43400726235E+02  0.00000000000E+00 0.  1.
         11    1    3    3    0    0  0.13801292200E+01 -0.39338597128E+00  0.22075149072E+01  0.26329890833E+01  0.51100000000E-03 0. -1.
        -11    1    3    3    0    0  0.61502577713E+01  0.15091270338E+02  0.13904396671E+01  0.16355593349E+02  0.51100000000E-03 0.  1.
         12    1    3    3    0    0  0.16047245877E+02  0.13012922404E+02  0.20062760846E+02  0.28798691332E+02  0.00000000000E+00 0. -1.
</event>
<event>
 7    1  0.4031943E-009  0.4778729E+02  0.7816164E-02  0.1312668E+00
        -11   -1    0    0    0    0  0.00000000000E+00  0.00000000000E+00  0.45593999997E+02  0.45594000000E+02  0.51100000000E-03 0.  1.
         11   -1    0    0    0    0 -0.00000000000E+00 -0.00000000000E+00 -0.45593999997E+02  0.45594000000E+02  0.51100000000E-03 0. -1.
    9900012    2    1    2    0    0  0.24184296775E+01  0.30104289858E+02 -0.31168961740E+02  0.47787294408E+02  0.20000106525E+02 0.  0.
        -12    1    1    2    0    0 -0.24184296775E+01 -0.30104289858E+02  0.31168961740E+02  0.43400705592E+02  0.00000000000E+00 0.  1.
         11    1    3    3    0    0 -0.42631052363E+01  0.82715667775E+01 -0.25085379293E+01  0.96377199594E+01  0.51100000000E-03 0. -1.
        -11    1    3    3    0    0  0.28770369821E+01  0.44486310634E+01 -0.12079752759E+01  0.54338627755E+01  0.51100000000E-03 0.  1.
         12    1    3    3    0    0  0.38044979317E+01  0.17384092017E+02 -0.27452448534E+02  0.32715711673E+02  0.00000000000E+00 0. -1.
</event>
<event>
 7    1  0.4031943E-009  0.4778727E+02  0.7816164E-02  0.1312668E+00
        -11   -1    0    0    0    0  0.00000000000E+00  0.00000000000E+00  0.45593999997E+02  0.45594000000E+02  0.51100000000E-03 0. -1.
         11   -1    0    0    0    0 -0.00000000000E+00 -0.00000000000E+00 -0.45593999997E+02  0.45594000000E+02  0.51100000000E-03 0.  1.
    9900012    2    1    2    0    0 -0.43125280595E+02  0.28067220243E+01  0.39944314269E+01  0.47787274230E+02  0.20000014525E+02 0.  0.
        -12    1    1    2    0    0  0.43125280595E+02 -0.28067220243E+01 -0.39944314269E+01  0.43400725770E+02  0.00000000000E+00 0.  1.
         11    1    3    3    0    0 -0.95839102359E+01  0.42139466838E+00 -0.23657694977E+01  0.98805756134E+01  0.51100000000E-03 0. -1.
        -11    1    3    3    0    0 -0.59060085715E+01  0.67259483749E+01  0.40883664318E+01  0.98404298244E+01  0.51100000000E-03 0.  1.
         12    1    3    3    0    0 -0.27635361788E+02 -0.43406210189E+01  0.22718344928E+01  0.28066268792E+02  0.00000000000E+00 0. -1.
</event>
<event>
 7    1  0.4031943E-009  0.4778727E+02  0.7816164E-02  0.1312668E+00
        -11   -1    0    0    0    0  0.00000000000E+00  0.00000000000E+00  0.45593999997E+02  0.45594000000E+02  0.51100000000E-03 0. -1.
         11   -1    0    0    0    0 -0.00000000000E+00 -0.00000000000E+00 -0.45593999997E+02  0.45594000000E+02  0.51100000000E-03 0.  1.
    9900012    2    1    2    0    0 -0.29903033364E+02  0.27658990992E+02  0.14980384682E+02  0.47787272906E+02  0.20000008489E+02 0.  0.
        -12    1    1    2    0    0  0.29903033364E+02 -0.27658990992E+02 -0.14980384682E+02  0.43400727094E+02  0.00000000000E+00 0.  1.
         11    1    3    3    0    0 -0.55890967341E+01  0.88942082613E+01  0.11634140217E+02  0.15674761936E+02  0.51100000000E-03 0.  1.
        -11    1    3    3    0    0 -0.89924673798E+01  0.98833012162E+01  0.51308489631E+01  0.14313270900E+02  0.51100000000E-03 0. -1.
        -12    1    3    3    0    0 -0.15321469250E+02  0.88814815144E+01 -0.17846044985E+01  0.17799240071E+02  0.00000000000E+00 0.  1.
</event>
<event>
 7    1  0.4031943E-009  0.4778727E+02  0.7816164E-02  0.1312668E+00
        -11   -1    0    0    0    0  0.00000000000E+00  0.00000000000E+00  0.45593999997E+02  0.45594000000E+02  0.51100000000E-03 0. -1.
         11   -1    0    0    0    0 -0.00000000000E+00 -0.00000000000E+00 -0.45593999997E+02  0.45594000000E+02  0.51100000000E-03 0.  1.
    9900012    2    1    2    0    0 -0.28936979878E+02  0.16285937468E+02  0.27947138197E+02  0.47787273081E+02  0.20000009287E+02 0.  0.
        -12    1    1    2    0    0  0.28936979878E+02 -0.16285937468E+02 -0.27947138197E+02  0.43400726919E+02  0.00000000000E+00 0.  1.
         11    1    3    3    0    0 -0.15035395267E+02  0.14221496356E+02  0.20332401284E+02  0.29012421679E+02  0.51100000000E-03 0. -1.
        -11    1    3    3    0    0 -0.99306793632E+00  0.56544780828E+00  0.54892221870E+01  0.56069131997E+01  0.51100000000E-03 0.  1.
        -12    1    3    3    0    0 -0.12908516675E+02  0.14989933038E+01  0.21255147262E+01  0.13167938203E+02  0.00000000000E+00 0.  1.
</event>
<event>
 7    1  0.4031943E-009  0.4778727E+02  0.7816164E-02  0.1312668E+00
        -11   -1    0    0    0    0  0.00000000000E+00  0.00000000000E+00  0.45593999997E+02  0.45594000000E+02  0.51100000000E-03 0.  1.
         11   -1    0    0    0    0 -0.00000000000E+00 -0.00000000000E+00 -0.45593999997E+02  0.45594000000E+02  0.51100000000E-03 0. -1.
    9900012    2    1    2    0    0 -0.35994606641E+02  0.99314881108E+01 -0.22121874515E+02  0.47787268492E+02  0.19999988362E+02 0.  0.
        -12    1    1    2    0    0  0.35994606641E+02 -0.99314881108E+01  0.22121874515E+02  0.43400731508E+02  0.00000000000E+00 0.  1.
         11    1    3    3    0    0 -0.18415143219E+02  0.11119060307E+02 -0.84632773385E+01  0.23116618816E+02  0.51100000000E-03 0. -1.
        -11    1    3    3    0    0 -0.14192051438E+02  0.29384583681E+00 -0.46572022902E+01  0.14939551627E+02  0.51100000000E-03 0.  1.
         12    1    3    3    0    0 -0.33874119844E+01 -0.14814180330E+01 -0.90013948866E+01  0.97310980493E+01  0.00000000000E+00 0. -1.
</event>
<event>
 7    1  0.4031943E-009  0.4778727E+02  0.7816164E-02  0.1312668E+00
        -11   -1    0    0    0    0  0.00000000000E+00  0.00000000000E+00  0.45593999997E+02  0.45594000000E+02  0.51100000000E-03 0.  1.
         11   -1    0    0    0    0 -0.00000000000E+00 -0.00000000000E+00 -0.45593999997E+02  0.45594000000E+02  0.51100000000E-03 0. -1.
    9900012    2    1    2    0    0  0.39677069535E+02 -0.11259111827E+01  0.17552380089E+02  0.47787267637E+02  0.19999984464E+02 0.  0.
        -12    1    1    2    0    0 -0.39677069535E+02  0.11259111827E+01 -0.17552380089E+02  0.43400732363E+02  0.00000000000E+00 0.  1.
         11    1    3    3    0    0  0.39223204125E+01 -0.12730980806E+01  0.12882500808E+01  0.43202968269E+01  0.51100000000E-03 0. -1.
        -11    1    3    3    0    0  0.22236832953E+02  0.45385413066E+01  0.18240585988E+02  0.29116903586E+02  0.51100000000E-03 0.  1.
        -12    1    3    3    0    0  0.13517916169E+02 -0.43913544088E+01 -0.19764559797E+01  0.14350067224E+02  0.00000000000E+00 0.  1.
</event>
<event>
 7    1  0.4031943E-009  0.4778727E+02  0.7816164E-02  0.1312668E+00
        -11   -1    0    0    0    0  0.00000000000E+00  0.00000000000E+00  0.45593999997E+02  0.45594000000E+02  0.51100000000E-03 0.  1.
         11   -1    0    0    0    0 -0.00000000000E+00 -0.00000000000E+00 -0.45593999997E+02  0.45594000000E+02  0.51100000000E-03 0. -1.
    9900012    2    1    2    0    0  0.10025716453E+02  0.26280765509E+02 -0.33051922419E+02  0.47787271875E+02  0.20000003788E+02 0.  0.
        -12    1    1    2    0    0 -0.10025716453E+02 -0.26280765509E+02  0.33051922419E+02  0.43400728125E+02  0.00000000000E+00 0.  1.
         11    1    3    3    0    0  0.13239599225E+02  0.21707434315E+02 -0.26746663337E+02  0.36903708379E+02  0.51100000000E-03 0. -1.
        -11    1    3    3    0    0 -0.15637131584E+01  0.62355309355E+01 -0.53124809406E+01  0.83396342183E+01  0.51100000000E-03 0.  1.
        -12    1    3    3    0    0 -0.16501696127E+01 -0.16621997421E+01 -0.99277814168E+00  0.25439292781E+01  0.00000000000E+00 0.  1.
</event>
<event>
 7    1  0.4031943E-009  0.4778727E+02  0.7816164E-02  0.1312668E+00
        -11   -1    0    0    0    0  0.00000000000E+00  0.00000000000E+00  0.45593999997E+02  0.45594000000E+02  0.51100000000E-03 0. -1.
         11   -1    0    0    0    0 -0.00000000000E+00 -0.00000000000E+00 -0.45593999997E+02  0.45594000000E+02  0.51100000000E-03 0.  1.
    9900012    2    1    2    0    0  0.52723871048E+01  0.17072848266E+02  0.39551776315E+02  0.47787271626E+02  0.20000002653E+02 0.  0.
        -12    1    1    2    0    0 -0.52723871048E+01 -0.17072848266E+02 -0.39551776315E+02  0.43400728374E+02  0.00000000000E+00 0.  1.
         11    1    3    3    0    0  0.98096451796E+01  0.18176176353E+02  0.33958830069E+02  0.39746756663E+02  0.51100000000E-03 0. -1.
        -11    1    3    3    0    0 -0.42925041696E+00 -0.13112830815E+01  0.26341147796E+01  0.29735971774E+01  0.51100000000E-03 0.  1.
         12    1    3    3    0    0 -0.41080076578E+01  0.20795499476E+00  0.29588314668E+01  0.50669177855E+01  0.00000000000E+00 0. -1.
</event>
<event>
 7    1  0.4031943E-009  0.4778727E+02  0.7816164E-02  0.1312668E+00
        -11   -1    0    0    0    0  0.00000000000E+00  0.00000000000E+00  0.45593999997E+02  0.45594000000E+02  0.51100000000E-03 0.  1.
         11   -1    0    0    0    0 -0.00000000000E+00 -0.00000000000E+00 -0.45593999997E+02  0.45594000000E+02  0.51100000000E-03 0. -1.
    9900012    2    1    2    0    0  0.12885383710E+02 -0.85812366727E+01 -0.40545690234E+02  0.47787265758E+02  0.19999975896E+02 0.  0.
        -12    1    1    2    0    0 -0.12885383710E+02  0.85812366727E+01  0.40545690234E+02  0.43400734242E+02  0.00000000000E+00 0.  1.
         11    1    3    3    0    0  0.13339389096E+01  0.11970073330E+01 -0.27073858353E+01  0.32468689367E+01  0.51100000000E-03 0.  1.
        -11    1    3    3    0    0  0.15815429294E+02 -0.43801790837E+01 -0.23828721686E+02  0.28933056354E+02  0.51100000000E-03 0. -1.
         12    1    3    3    0    0 -0.42639844931E+01 -0.53980649220E+01 -0.14009582713E+02  0.15607340467E+02  0.00000000000E+00 0. -1.
</event>
<event>
 7    1  0.4031943E-009  0.4778727E+02  0.7816164E-02  0.1312668E+00
        -11   -1    0    0    0    0  0.00000000000E+00  0.00000000000E+00  0.45593999997E+02  0.45594000000E+02  0.51100000000E-03 0.  1.
         11   -1    0    0    0    0 -0.00000000000E+00 -0.00000000000E+00 -0.45593999997E+02  0.45594000000E+02  0.51100000000E-03 0. -1.
    9900012    2    1    2    0    0  0.37125990589E+02  0.21772086338E+02 -0.55911064387E+01  0.47787269685E+02  0.19999993801E+02 0.  0.
        -12    1    1    2    0    0 -0.37125990589E+02 -0.21772086338E+02  0.55911064387E+01  0.43400730315E+02  0.00000000000E+00 0.  1.
         11    1    3    3    0    0  0.94777926536E+01  0.48137736569E+01 -0.63533443361E+01  0.12384100893E+02  0.51100000000E-03 0. -1.
        -11    1    3    3    0    0  0.15538360315E+02  0.93138765267E+01 -0.66249168320E+01  0.19289335409E+02  0.51100000000E-03 0.  1.
        -12    1    3    3    0    0  0.12109837621E+02  0.76444361539E+01  0.73871547294E+01  0.16113833383E+02  0.00000000000E+00 0.  1.
</event>
<event>
 7    1  0.4031943E-009  0.4778727E+02  0.7816164E-02  0.1312668E+00
        -11   -1    0    0    0    0  0.00000000000E+00  0.00000000000E+00  0.45593999997E+02  0.45594000000E+02  0.51100000000E-03 0.  1.
         11   -1    0    0    0    0 -0.00000000000E+00 -0.00000000000E+00 -0.45593999997E+02  0.45594000000E+02  0.51100000000E-03 0. -1.
    9900012    2    1    2    0    0 -0.17873887856E+02  0.32646833367E+02 -0.22323348695E+02  0.47787268521E+02  0.19999988494E+02 0.  0.
        -12    1    1    2    0    0  0.17873887856E+02 -0.32646833367E+02  0.22323348695E+02  0.43400731479E+02  0.00000000000E+00 0.  1.
         11    1    3    3    0    0 -0.10539750569E+02  0.16017006835E+02 -0.10951048584E+02  0.22080677420E+02  0.51100000000E-03 0. -1.
        -11    1    3    3    0    0  0.34671003655E+01  0.94889492935E+01 -0.47640688626E+01  0.11169480562E+02  0.51100000000E-03 0.  1.
         12    1    3    3    0    0 -0.10801237653E+02  0.71408772383E+01 -0.66082312484E+01  0.14537110539E+02  0.00000000000E+00 0. -1.
</event>
<event>
 7    1  0.4031943E-009  0.4778727E+02  0.7816164E-02  0.1312668E+00
        -11   -1    0    0    0    0  0.00000000000E+00  0.00000000000E+00  0.45593999997E+02  0.45594000000E+02  0.51100000000E-03 0. -1.
         11   -1    0    0    0    0 -0.00000000000E+00 -0.00000000000E+00 -0.45593999997E+02  0.45594000000E+02  0.51100000000E-03 0.  1.
    9900012    2    1    2    0    0  0.18438219063E+02 -0.15120132947E+02  0.36263436197E+02  0.47787272502E+02  0.20000006646E+02 0.  0.
        -12    1    1    2    0    0 -0.18438219063E+02  0.15120132947E+02 -0.36263436197E+02  0.43400727498E+02  0.00000000000E+00 0.  1.
         11    1    3    3    0    0  0.42413524042E+01  0.25560464243E+01  0.64749822375E+01  0.81515543780E+01  0.51100000000E-03 0. -1.
        -11    1    3    3    0    0  0.46924990581E+01  0.24860010548E-01  0.11682558221E+02  0.12589770939E+02  0.51100000000E-03 0.  1.
         12    1    3    3    0    0  0.95043676005E+01 -0.17701039382E+02  0.18105895738E+02  0.27045947185E+02  0.00000000000E+00 0. -1.
</event>
<event>
 7    1  0.4031943E-009  0.4778727E+02  0.7816164E-02  0.1312668E+00
        -11   -1    0    0    0    0  0.00000000000E+00  0.00000000000E+00  0.45593999997E+02  0.45594000000E+02  0.51100000000E-03 0. -1.
         11   -1    0    0    0    0 -0.00000000000E+00 -0.00000000000E+00 -0.45593999997E+02  0.45594000000E+02  0.51100000000E-03 0.  1.
    9900012    2    1    2    0    0 -0.32409043255E+02 -0.97517589347E+01  0.27169477324E+02  0.47787269763E+02  0.19999994158E+02 0.  0.
        -12    1    1    2    0    0  0.32409043255E+02  0.97517589347E+01 -0.27169477324E+02  0.43400730237E+02  0.00000000000E+00 0.  1.
         11    1    3    3    0    0 -0.10094535722E+02 -0.25143148238E+01  0.90756381104E+01  0.13805384379E+02  0.51100000000E-03 0. -1.
        -11    1    3    3    0    0 -0.18940880846E+02 -0.28700147948E+01  0.50393210241E+01  0.19808803821E+02  0.51100000000E-03 0.  1.
        -12    1    3    3    0    0 -0.33736266870E+01 -0.43674293161E+01  0.13054518189E+02  0.14173081564E+02  0.00000000000E+00 0.  1.
</event>
<event>
 7    1  0.4031943E-009  0.4778727E+02  0.7816164E-02  0.1312668E+00
        -11   -1    0    0    0    0  0.00000000000E+00  0.00000000000E+00  0.45593999997E+02  0.45594000000E+02  0.51100000000E-03 0. -1.
         11   -1    0    0    0    0 -0.00000000000E+00 -0.00000000000E+00 -0.45593999997E+02  0.45594000000E+02  0.51100000000E-03 0.  1.
    9900012    2    1    2    0    0  0.28947371514E+02  0.29079762623E+02 -0.14143566685E+02  0.47787269703E+02  0.19999993884E+02 0.  0.
        -12    1    1    2    0    0 -0.28947371514E+02 -0.29079762623E+02  0.14143566685E+02  0.43400730297E+02  0.00000000000E+00 0.  1.
         11    1    3    3    0    0  0.41329867319E+01  0.14811957573E+01 -0.18162404351E+01  0.47512366577E+01  0.51100000000E-03 0. -1.
        -11    1    3    3    0    0  0.61094097633E+01  0.67010410731E+01 -0.11932583272E+02  0.14987173947E+02  0.51100000000E-03 0.  1.
         12    1    3    3    0    0  0.18704975018E+02  0.20897525792E+02 -0.39474297804E+00  0.28048859098E+02  0.00000000000E+00 0. -1.
</event>
<event>
 7    1  0.4031943E-009  0.4778732E+02  0.7816164E-02  0.1312668E+00
        -11   -1    0    0    0    0  0.00000000000E+00  0.00000000000E+00  0.45593999997E+02  0.45594000000E+02  0.51100000000E-03 0. -1.
         11   -1    0    0    0    0 -0.00000000000E+00 -0.00000000000E+00 -0.45593999997E+02  0.45594000000E+02  0.51100000000E-03 0.  1.
    9900012    2    1    2    0    0 -0.35372416199E+02 -0.18886089668E+02 -0.16605027626E+02  0.47787318517E+02  0.20000216446E+02 0.  0.
        -12    1    1    2    0    0  0.35372416199E+02  0.18886089668E+02  0.16605027626E+02  0.43400681483E+02  0.00000000000E+00 0.  1.
         11    1    3    3    0    0 -0.68275202864E+01  0.35759369080E+01 -0.40308218478E+01  0.86976941232E+01  0.51100000000E-03 0. -1.
        -11    1    3    3    0    0 -0.69800214121E+01 -0.49920677456E+01  0.93616540954E-01  0.85819696811E+01  0.51100000000E-03 0.  1.
         12    1    3    3    0    0 -0.21564874501E+02 -0.17469958830E+02 -0.12667822319E+02  0.30507654713E+02  0.00000000000E+00 0. -1.
</event>
<event>
 7    1  0.4031943E-009  0.4778727E+02  0.7816164E-02  0.1312668E+00
        -11   -1    0    0    0    0  0.00000000000E+00  0.00000000000E+00  0.45593999997E+02  0.45594000000E+02  0.51100000000E-03 0.  1.
         11   -1    0    0    0    0 -0.00000000000E+00 -0.00000000000E+00 -0.45593999997E+02  0.45594000000E+02  0.51100000000E-03 0. -1.
    9900012    2    1    2    0    0 -0.55211907066E+01 -0.26188116987E+02 -0.34166097286E+02  0.47787271644E+02  0.20000002732E+02 0.  0.
        -12    1    1    2    0    0  0.55211907066E+01  0.26188116987E+02  0.34166097286E+02  0.43400728356E+02  0.00000000000E+00 0.  1.
         11    1    3    3    0    0  0.92685820936E+00 -0.29419804196E+01 -0.15545879308E+02  0.15848933045E+02  0.51100000000E-03 0. -1.
        -11    1    3    3    0    0 -0.16733797906E+01  0.11165520205E+00 -0.29974983188E+01  0.34347726620E+01  0.51100000000E-03 0.  1.
        -12    1    3    3    0    0 -0.47746691254E+01 -0.23357791769E+02 -0.15622719659E+02  0.28503565937E+02  0.00000000000E+00 0.  1.
</event>
<event>
 7    1  0.4031943E-009  0.4778728E+02  0.7816164E-02  0.1312668E+00
        -11   -1    0    0    0    0  0.00000000000E+00  0.00000000000E+00  0.45593999997E+02  0.45594000000E+02  0.51100000000E-03 0. -1.
         11   -1    0    0    0    0 -0.00000000000E+00 -0.00000000000E+00 -0.45593999997E+02  0.45594000000E+02  0.51100000000E-03 0.  1.
    9900012    2    1    2    0    0 -0.37694960863E+02  0.95899112723E+00  0.21489359398E+02  0.47787282197E+02  0.20000050851E+02 0.  0.
        -12    1    1    2    0    0  0.37694960863E+02 -0.95899112723E+00 -0.21489359398E+02  0.43400717803E+02  0.00000000000E+00 0.  1.
         11    1    3    3    0    0 -0.35211342292E+01  0.26479931816E+01 -0.16967182406E+01  0.47211341010E+01  0.51100000000E-03 0. -1.
        -11    1    3    3    0    0 -0.40547821158E+01 -0.44500615960E+01  0.44693213627E+01  0.74979423790E+01  0.51100000000E-03 0.  1.
         12    1    3    3    0    0 -0.30119044518E+02  0.27610595416E+01  0.18716756276E+02  0.35568205717E+02  0.00000000000E+00 0. -1.
</event>
<event>
 7    1  0.4031943E-009  0.4778727E+02  0.7816164E-02  0.1312668E+00
        -11   -1    0    0    0    0  0.00000000000E+00  0.00000000000E+00  0.45593999997E+02  0.45594000000E+02  0.51100000000E-03 0.  1.
         11   -1    0    0    0    0 -0.00000000000E+00 -0.00000000000E+00 -0.45593999997E+02  0.45594000000E+02  0.51100000000E-03 0. -1.
    9900012    2    1    2    0    0 -0.80986353759E+01  0.31943768978E+02 -0.28242367408E+02  0.47787267422E+02  0.19999983485E+02 0.  0.
        -12    1    1    2    0    0  0.80986353759E+01 -0.31943768978E+02  0.28242367408E+02  0.43400732578E+02  0.00000000000E+00 0.  1.
         11    1    3    3    0    0 -0.23457536611E+01 -0.11911147966E+01 -0.11584330846E+01  0.28745925224E+01  0.51100000000E-03 0. -1.
        -11    1    3    3    0    0  0.88298082359E-01  0.24114194088E+01  0.12454264182E+01  0.27154792101E+01  0.51100000000E-03 0.  1.
         12    1    3    3    0    0 -0.58411797972E+01  0.30723464366E+02 -0.28329360741E+02  0.42197195690E+02  0.00000000000E+00 0. -1.
</event>
<event>
 7    1  0.4031943E-009  0.4778727E+02  0.7816164E-02  0.1312668E+00
        -11   -1    0    0    0    0  0.00000000000E+00  0.00000000000E+00  0.45593999997E+02  0.45594000000E+02  0.51100000000E-03 0. -1.
         11   -1    0    0    0    0 -0.00000000000E+00 -0.00000000000E+00 -0.45593999997E+02  0.45594000000E+02  0.51100000000E-03 0.  1.
    9900012    2    1    2    0    0  0.14887591055E+02  0.36477177334E+02  0.18204357637E+02  0.47787268778E+02  0.19999989664E+02 0.  0.
        -12    1    1    2    0    0 -0.14887591055E+02 -0.36477177334E+02 -0.18204357637E+02  0.43400731222E+02  0.00000000000E+00 0.  1.
         11    1    3    3    0    0  0.67158950887E+00  0.11608350274E+02  0.79544145763E+01  0.14088205708E+02  0.51100000000E-03 0. -1.
        -11    1    3    3    0    0  0.78836529471E+01  0.24521905044E+02  0.83936480735E+01  0.27091126573E+02  0.51100000000E-03 0.  1.
        -12    1    3    3    0    0  0.63323485990E+01  0.34692201646E+00  0.18562949869E+01  0.66079364966E+01  0.00000000000E+00 0.  1.
</event>
<event>
 7    1  0.4031943E-009  0.4778727E+02  0.7816164E-02  0.1312668E+00
        -11   -1    0    0    0    0  0.00000000000E+00  0.00000000000E+00  0.45593999997E+02  0.45594000000E+02  0.51100000000E-03 0.  1.
         11   -1    0    0    0    0 -0.00000000000E+00 -0.00000000000E+00 -0.45593999997E+02  0.45594000000E+02  0.51100000000E-03 0. -1.
    9900012    2    1    2    0    0  0.32983791563E+02  0.27457316138E+02 -0.64644152112E+01  0.47787269829E+02  0.19999994457E+02 0.  0.
        -12    1    1    2    0    0 -0.32983791563E+02 -0.27457316138E+02  0.64644152112E+01  0.43400730171E+02  0.00000000000E+00 0.  1.
         11    1    3    3    0    0  0.84350842239E-01  0.23319607429E+01 -0.18599893060E+01  0.29840771523E+01  0.51100000000E-03 0. -1.
        -11    1    3    3    0    0  0.59560369564E+01  0.65265841430E+01 -0.79598132970E+01  0.11892405341E+02  0.51100000000E-03 0.  1.
         12    1    3    3    0    0  0.26943403765E+02  0.18598771252E+02  0.33553873919E+01  0.32910787336E+02  0.00000000000E+00 0. -1.
</event>
<event>
 7    1  0.4031943E-009  0.4778727E+02  0.7816164E-02  0.1312668E+00
        -11   -1    0    0    0    0  0.00000000000E+00  0.00000000000E+00  0.45593999997E+02  0.45594000000E+02  0.51100000000E-03 0.  1.
         11   -1    0    0    0    0 -0.00000000000E+00 -0.00000000000E+00 -0.45593999997E+02  0.45594000000E+02  0.51100000000E-03 0. -1.
    9900012    2    1    2    0    0 -0.38010044583E+01  0.35407789402E+02 -0.24808548346E+02  0.47787271247E+02  0.20000000926E+02 0.  0.
        -12    1    1    2    0    0  0.38010044583E+01 -0.35407789402E+02  0.24808548346E+02  0.43400728753E+02  0.00000000000E+00 0.  1.
         11    1    3    3    0    0 -0.10374429637E+01  0.41636050389E+01  0.46853842540E+00  0.43164132494E+01  0.51100000000E-03 0. -1.
        -11    1    3    3    0    0  0.13241089525E+01  0.96613255419E+01  0.29921776269E+00  0.97562291524E+01  0.51100000000E-03 0.  1.
         12    1    3    3    0    0 -0.40876704471E+01  0.21582858821E+02 -0.25576304534E+02  0.33714628846E+02  0.00000000000E+00 0. -1.
</event>
<event>
 7    1  0.4031943E-009  0.4778727E+02  0.7816164E-02  0.1312668E+00
        -11   -1    0    0    0    0  0.00000000000E+00  0.00000000000E+00  0.45593999997E+02  0.45594000000E+02  0.51100000000E-03 0.  1.
         11   -1    0    0    0    0 -0.00000000000E+00 -0.00000000000E+00 -0.45593999997E+02  0.45594000000E+02  0.51100000000E-03 0. -1.
    9900012    2    1    2    0    0  0.97783852970E+01  0.98821770305E+01 -0.41113858088E+02  0.47787267647E+02  0.19999984511E+02 0.  0.
        -12    1    1    2    0    0 -0.97783852970E+01 -0.98821770305E+01  0.41113858088E+02  0.43400732353E+02  0.00000000000E+00 0.  1.
         11    1    3    3    0    0  0.59739559699E+00  0.30544700177E+01 -0.60521852074E+00  0.31706400470E+01  0.51100000000E-03 0. -1.
        -11    1    3    3    0    0  0.11995618159E+02  0.47353713158E+01 -0.19912072832E+02  0.23723600934E+02  0.51100000000E-03 0.  1.
         12    1    3    3    0    0 -0.28146284590E+01  0.20923356969E+01 -0.20596566735E+02  0.20893026667E+02  0.00000000000E+00 0. -1.
</event>
<event>
 7    1  0.4031943E-009  0.4778725E+02  0.7816164E-02  0.1312668E+00
        -11   -1    0    0    0    0  0.00000000000E+00  0.00000000000E+00  0.45593999997E+02  0.45594000000E+02  0.51100000000E-03 0. -1.
         11   -1    0    0    0    0 -0.00000000000E+00 -0.00000000000E+00 -0.45593999997E+02  0.45594000000E+02  0.51100000000E-03 0.  1.
    9900012    2    1    2    0    0  0.19103153403E+02  0.17583051918E+02  0.34778307447E+02  0.47787252846E+02  0.19999917024E+02 0.  0.
        -12    1    1    2    0    0 -0.19103153403E+02 -0.17583051918E+02 -0.34778307447E+02  0.43400747154E+02  0.00000000000E+00 0.  1.
         11    1    3    3    0    0  0.70614840993E+01  0.52167366448E+01  0.57494768087E+01  0.10494540616E+02  0.51100000000E-03 0. -1.
        -11    1    3    3    0    0  0.58785445810E+01  0.55257485177E+01  0.14237459217E+01  0.81925719882E+01  0.51100000000E-03 0.  1.
         12    1    3    3    0    0  0.61631247232E+01  0.68405667554E+01  0.27605084716E+02  0.29100140241E+02  0.00000000000E+00 0. -1.
</event>
<event>
 7    1  0.4557293E-009  0.4778727E+02  0.7816164E-02  0.1312668E+00
        -11   -1    0    0    0    0  0.00000000000E+00  0.00000000000E+00  0.45593999997E+02  0.45594000000E+02  0.51100000000E-03 0.  1.
         11   -1    0    0    0    0 -0.00000000000E+00 -0.00000000000E+00 -0.45593999997E+02  0.45594000000E+02  0.51100000000E-03 0. -1.
    9900012    2    1    2    0    0  0.50827299892E+01 -0.29127773009E+02 -0.31770458496E+02  0.47787270309E+02  0.19999996648E+02 0.  0.
        -12    1    1    2    0    0 -0.50827299892E+01  0.29127773009E+02  0.31770458496E+02  0.43400729691E+02  0.00000000000E+00 0.  1.
         11    1    3    3    0    0  0.87754575449E+00 -0.12457336565E+02 -0.11628229176E+02  0.17063734494E+02  0.51100000000E-03 0. -1.
        -11    1    3    3    0    0 -0.38968931374E+01 -0.44763758740E+01 -0.14093148039E+00  0.59366302759E+01  0.51100000000E-03 0.  1.
        -12    1    3    3    0    0  0.81020773721E+01 -0.12194060570E+02 -0.20001297840E+02  0.24786905539E+02  0.00000000000E+00 0.  1.
</event>
<event>
 7    1  0.4031943E-009  0.4778727E+02  0.7816164E-02  0.1312668E+00
        -11   -1    0    0    0    0  0.00000000000E+00  0.00000000000E+00  0.45593999997E+02  0.45594000000E+02  0.51100000000E-03 0.  1.
         11   -1    0    0    0    0 -0.00000000000E+00 -0.00000000000E+00 -0.45593999997E+02  0.45594000000E+02  0.51100000000E-03 0. -1.
    9900012    2    1    2    0    0 -0.43355298868E+02  0.46526043976E+00 -0.19300023565E+01  0.47787270556E+02  0.19999997773E+02 0.  0.
        -12    1    1    2    0    0  0.43355298868E+02 -0.46526043976E+00  0.19300023565E+01  0.43400729444E+02  0.00000000000E+00 0.  1.
         11    1    3    3    0    0 -0.19358705418E+01 -0.16706297068E+01 -0.13681615406E+01  0.29000801083E+01  0.51100000000E-03 0. -1.
        -11    1    3    3    0    0 -0.12002843470E+02  0.85100871227E+01  0.99910358921E+00  0.14747475799E+02  0.51100000000E-03 0.  1.
         12    1    3    3    0    0 -0.29416584856E+02 -0.63741969761E+01 -0.15609444051E+01  0.30139714649E+02  0.00000000000E+00 0. -1.
</event>
<event>
 7    1  0.4031943E-009  0.4778727E+02  0.7816164E-02  0.1312668E+00
        -11   -1    0    0    0    0  0.00000000000E+00  0.00000000000E+00  0.45593999997E+02  0.45594000000E+02  0.51100000000E-03 0.  1.
         11   -1    0    0    0    0 -0.00000000000E+00 -0.00000000000E+00 -0.45593999997E+02  0.45594000000E+02  0.51100000000E-03 0. -1.
    9900012    2    1    2    0    0 -0.77605428299E+00 -0.36016857138E+02 -0.24203449177E+02  0.47787271775E+02  0.20000003333E+02 0.  0.
        -12    1    1    2    0    0  0.77605428299E+00  0.36016857138E+02  0.24203449177E+02  0.43400728225E+02  0.00000000000E+00 0.  1.
         11    1    3    3    0    0 -0.10834987078E+01 -0.24017234357E+02 -0.94625900199E+01  0.25836836605E+02  0.51100000000E-03 0. -1.
        -11    1    3    3    0    0 -0.77319220508E-01 -0.25484479883E+01  0.16422487736E+01  0.30327457372E+01  0.51100000000E-03 0.  1.
         12    1    3    3    0    0  0.38476364536E+00 -0.94511747935E+01 -0.16383107931E+02  0.18917689434E+02  0.00000000000E+00 0. -1.
</event>
<event>
 7    1  0.4031943E-009  0.4778727E+02  0.7816164E-02  0.1312668E+00
        -11   -1    0    0    0    0  0.00000000000E+00  0.00000000000E+00  0.45593999997E+02  0.45594000000E+02  0.51100000000E-03 0.  1.
         11   -1    0    0    0    0 -0.00000000000E+00 -0.00000000000E+00 -0.45593999997E+02  0.45594000000E+02  0.51100000000E-03 0. -1.
    9900012    2    1    2    0    0  0.36087960920E+02 -0.20358527417E+02 -0.12915601523E+02  0.47787270459E+02  0.19999997333E+02 0.  0.
        -12    1    1    2    0    0 -0.36087960920E+02  0.20358527417E+02  0.12915601523E+02  0.43400729541E+02  0.00000000000E+00 0.  1.
         11    1    3    3    0    0  0.24693603278E+02 -0.14436920862E+02 -0.27130270601E+01  0.28732546753E+02  0.51100000000E-03 0. -1.
        -11    1    3    3    0    0  0.87945194748E+01 -0.35347488620E+01 -0.14130007994E+01  0.95830367749E+01  0.51100000000E-03 0.  1.
        -12    1    3    3    0    0  0.25998381670E+01 -0.23868576932E+01 -0.87895736634E+01  0.94716869314E+01  0.00000000000E+00 0.  1.
</event>
<event>
 7    1  0.4031943E-009  0.4778727E+02  0.7816164E-02  0.1312668E+00
        -11   -1    0    0    0    0  0.00000000000E+00  0.00000000000E+00  0.45593999997E+02  0.45594000000E+02  0.51100000000E-03 0.  1.
         11   -1    0    0    0    0 -0.00000000000E+00 -0.00000000000E+00 -0.45593999997E+02  0.45594000000E+02  0.51100000000E-03 0. -1.
    9900012    2    1    2    0    0  0.20244500700E+02 -0.24361041140E+02 -0.29670240183E+02  0.47787270899E+02  0.19999999336E+02 0.  0.
        -12    1    1    2    0    0 -0.20244500700E+02  0.24361041140E+02  0.29670240183E+02  0.43400729101E+02  0.00000000000E+00 0.  1.
         11    1    3    3    0    0 -0.26551247038E+00 -0.37175968961E+00 -0.37105177191E+01  0.37385350264E+01  0.51100000000E-03 0. -1.
        -11    1    3    3    0    0  0.12302081106E+02 -0.24424759623E+02 -0.20557835230E+02  0.34213077497E+02  0.51100000000E-03 0.  1.
         12    1    3    3    0    0  0.82079320641E+01  0.43547817223E+00 -0.54018872333E+01  0.98356583760E+01  0.00000000000E+00 0. -1.
</event>
<event>
 7    1  0.4031943E-009  0.4778727E+02  0.7816164E-02  0.1312668E+00
        -11   -1    0    0    0    0  0.00000000000E+00  0.00000000000E+00  0.45593999997E+02  0.45594000000E+02  0.51100000000E-03 0. -1.
         11   -1    0    0    0    0 -0.00000000000E+00 -0.00000000000E+00 -0.45593999997E+02  0.45594000000E+02  0.51100000000E-03 0.  1.
    9900012    2    1    2    0    0 -0.40428869315E+02  0.15531820958E+02  0.28093219435E+01  0.47787271594E+02  0.20000002508E+02 0.  0.
        -12    1    1    2    0    0  0.40428869315E+02 -0.15531820958E+02 -0.28093219435E+01  0.43400728406E+02  0.00000000000E+00 0.  1.
         11    1    3    3    0    0 -0.11961774409E+02  0.13338801283E+01 -0.16582710144E+01  0.12149615065E+02  0.51100000000E-03 0. -1.
        -11    1    3    3    0    0 -0.17322470232E+02  0.12200989417E+01  0.62110043343E+01  0.18442700222E+02  0.51100000000E-03 0.  1.
        -12    1    3    3    0    0 -0.11144624674E+02  0.12977841888E+02 -0.17434113764E+01  0.17194956308E+02  0.00000000000E+00 0.  1.
</event>
<event>
 7    1  0.4031943E-009  0.4778727E+02  0.7816164E-02  0.1312668E+00
        -11   -1    0    0    0    0  0.00000000000E+00  0.00000000000E+00  0.45593999997E+02  0.45594000000E+02  0.51100000000E-03 0.  1.
         11   -1    0    0    0    0 -0.00000000000E+00 -0.00000000000E+00 -0.45593999997E+02  0.45594000000E+02  0.51100000000E-03 0. -1.
    9900012    2    1    2    0    0 -0.35149634660E+02  0.21972540039E+02 -0.12858221309E+02  0.47787272037E+02  0.20000004526E+02 0.  0.
        -12    1    1    2    0    0  0.35149634660E+02 -0.21972540039E+02  0.12858221309E+02  0.43400727963E+02  0.00000000000E+00 0.  1.
         11    1    3    3    0    0 -0.28160774805E+02  0.19792864451E+02 -0.55214741859E+01  0.34860771624E+02  0.51100000000E-03 0. -1.
        -11    1    3    3    0    0 -0.75087405150E+01  0.29010257264E+01 -0.31462164282E+01  0.86426739185E+01  0.51100000000E-03 0.  1.
        -12    1    3    3    0    0  0.51988066073E+00 -0.72135013830E+00 -0.41905306953E+01  0.42838264941E+01  0.00000000000E+00 0.  1.
</event>
<event>
 7    1  0.4031943E-009  0.4778727E+02  0.7816164E-02  0.1312668E+00
        -11   -1    0    0    0    0  0.00000000000E+00  0.00000000000E+00  0.45593999997E+02  0.45594000000E+02  0.51100000000E-03 0.  1.
         11   -1    0    0    0    0 -0.00000000000E+00 -0.00000000000E+00 -0.45593999997E+02  0.45594000000E+02  0.51100000000E-03 0. -1.
    9900012    2    1    2    0    0  0.20258040407E+02 -0.32864075582E+02 -0.19828960669E+02  0.47787270211E+02  0.19999996199E+02 0.  0.
        -12    1    1    2    0    0 -0.20258040407E+02  0.32864075582E+02  0.19828960669E+02  0.43400729789E+02  0.00000000000E+00 0.  1.
         11    1    3    3    0    0  0.86769786387E+01 -0.17357564751E+02 -0.92953685722E+01  0.21516944243E+02  0.51100000000E-03 0. -1.
        -11    1    3    3    0    0 -0.17430610040E+01  0.94758742641E+00 -0.33852264695E+01  0.39237663164E+01  0.51100000000E-03 0.  1.
         12    1    3    3    0    0  0.13324122773E+02 -0.16454098258E+02 -0.71483656272E+01  0.22346559652E+02  0.00000000000E+00 0. -1.
</event>
<event>
 7    1  0.4031943E-009  0.4778726E+02  0.7816164E-02  0.1312668E+00
        -11   -1    0    0    0    0  0.00000000000E+00  0.00000000000E+00  0.45593999997E+02  0.45594000000E+02  0.51100000000E-03 0.  1.
         11   -1    0    0    0    0 -0.00000000000E+00 -0.00000000000E+00 -0.45593999997E+02  0.45594000000E+02  0.51100000000E-03 0. -1.
    9900012    2    1    2    0    0  0.35222615259E+02 -0.21677758901E+02  0.13155460205E+02  0.47787262796E+02  0.19999962391E+02 0.  0.
        -12    1    1    2    0    0 -0.35222615259E+02  0.21677758901E+02 -0.13155460205E+02  0.43400737204E+02  0.00000000000E+00 0.  1.
         11    1    3    3    0    0  0.17995213945E+02 -0.11522522072E+02  0.10781404057E+02  0.23933969866E+02  0.51100000000E-03 0. -1.
        -11    1    3    3    0    0  0.12509750498E+02 -0.10752743502E+02  0.63288658672E+01  0.17668330249E+02  0.51100000000E-03 0.  1.
        -12    1    3    3    0    0  0.47176508160E+01  0.59750667294E+00 -0.39548097201E+01  0.61849626812E+01  0.00000000000E+00 0.  1.
</event>
<event>
 7    1  0.4031943E-009  0.4778727E+02  0.7816164E-02  0.1312668E+00
        -11   -1    0    0    0    0  0.00000000000E+00  0.00000000000E+00  0.45593999997E+02  0.45594000000E+02  0.51100000000E-03 0.  1.
         11   -1    0    0    0    0 -0.00000000000E+00 -0.00000000000E+00 -0.45593999997E+02  0.45594000000E+02  0.51100000000E-03 0. -1.
    9900012    2    1    2    0    0 -0.14091496106E+02 -0.25658129686E+02 -0.32042370972E+02  0.47787269373E+02  0.19999992379E+02 0.  0.
        -12    1    1    2    0    0  0.14091496106E+02  0.25658129686E+02  0.32042370972E+02  0.43400730627E+02  0.00000000000E+00 0.  1.
         11    1    3    3    0    0 -0.34673003645E+01 -0.13202773415E+02 -0.14157501808E+02  0.19666475418E+02  0.51100000000E-03 0. -1.
        -11    1    3    3    0    0 -0.41097580179E+01 -0.13801055192E+02 -0.88530184108E+01  0.16903702868E+02  0.51100000000E-03 0.  1.
         12    1    3    3    0    0 -0.65144377231E+01  0.13456989214E+01 -0.90318507526E+01  0.11217091087E+02  0.00000000000E+00 0. -1.
</event>
<event>
 7    1  0.4031943E-009  0.4778727E+02  0.7816164E-02  0.1312668E+00
        -11   -1    0    0    0    0  0.00000000000E+00  0.00000000000E+00  0.45593999997E+02  0.45594000000E+02  0.51100000000E-03 0.  1.
         11   -1    0    0    0    0 -0.00000000000E+00 -0.00000000000E+00 -0.45593999997E+02  0.45594000000E+02  0.51100000000E-03 0. -1.
    9900012    2    1    2    0    0 -0.19324197341E+00 -0.67225035359E+01 -0.42876495612E+02  0.47787271063E+02  0.20000000086E+02 0.  0.
        -12    1    1    2    0    0  0.19324197341E+00  0.67225035359E+01  0.42876495612E+02  0.43400728937E+02  0.00000000000E+00 0.  1.
         11    1    3    3    0    0  0.56900926422E+01 -0.11696726658E+01 -0.23034926687E+02  0.23756117868E+02  0.51100000000E-03 0. -1.
        -11    1    3    3    0    0  0.25523027849E+01 -0.36595107329E+01 -0.40393378255E+01  0.60185146539E+01  0.51100000000E-03 0.  1.
        -12    1    3    3    0    0 -0.84356374005E+01 -0.18933201371E+01 -0.15802231100E+02  0.18012638541E+02  0.00000000000E+00 0.  1.
</event>
<event>
 7    1  0.4031943E-009  0.4778728E+02  0.7816164E-02  0.1312668E+00
        -11   -1    0    0    0    0  0.00000000000E+00  0.00000000000E+00  0.45593999997E+02  0.45594000000E+02  0.51100000000E-03 0.  1.
         11   -1    0    0    0    0 -0.00000000000E+00 -0.00000000000E+00 -0.45593999997E+02  0.45594000000E+02  0.51100000000E-03 0. -1.
    9900012    2    1    2    0    0  0.36455062937E+02  0.78787309087E+01 -0.22194068259E+02  0.47787277882E+02  0.20000031177E+02 0.  0.
        -12    1    1    2    0    0 -0.36455062937E+02 -0.78787309087E+01  0.22194068259E+02  0.43400722118E+02  0.00000000000E+00 0.  1.
         11    1    3    3    0    0  0.15534083446E+02  0.29422663533E+01 -0.82455634360E+01  0.17831264578E+02  0.51100000000E-03 0. -1.
        -11    1    3    3    0    0  0.20460254471E+02  0.31555702199E+01 -0.56545496056E+01  0.21460511829E+02  0.51100000000E-03 0.  1.
        -12    1    3    3    0    0  0.46072501901E+00  0.17808943355E+01 -0.82939552171E+01  0.84955014755E+01  0.00000000000E+00 0.  1.
</event>
<event>
 7    1  0.4031943E-009  0.4778727E+02  0.7816164E-02  0.1312668E+00
        -11   -1    0    0    0    0  0.00000000000E+00  0.00000000000E+00  0.45593999997E+02  0.45594000000E+02  0.51100000000E-03 0. -1.
         11   -1    0    0    0    0 -0.00000000000E+00 -0.00000000000E+00 -0.45593999997E+02  0.45594000000E+02  0.51100000000E-03 0.  1.
    9900012    2    1    2    0    0  0.18061541409E+02  0.11521731320E+02  0.37744590467E+02  0.47787266363E+02  0.19999978657E+02 0.  0.
        -12    1    1    2    0    0 -0.18061541409E+02 -0.11521731320E+02 -0.37744590467E+02  0.43400733637E+02  0.00000000000E+00 0.  1.
         11    1    3    3    0    0  0.96089299188E+01  0.10672821375E+01  0.76470731147E+01  0.12326733259E+02  0.51100000000E-03 0.  1.
        -11    1    3    3    0    0  0.11415756442E+02  0.70826955015E+01  0.26489499254E+02  0.29701475413E+02  0.51100000000E-03 0. -1.
        -12    1    3    3    0    0 -0.29631449527E+01  0.33717536813E+01  0.36080180982E+01  0.57590576916E+01  0.00000000000E+00 0.  1.
</event>
<event>
 7    1  0.4031943E-009  0.4778727E+02  0.7816164E-02  0.1312668E+00
        -11   -1    0    0    0    0  0.00000000000E+00  0.00000000000E+00  0.45593999997E+02  0.45594000000E+02  0.51100000000E-03 0. -1.
         11   -1    0    0    0    0 -0.00000000000E+00 -0.00000000000E+00 -0.45593999997E+02  0.45594000000E+02  0.51100000000E-03 0.  1.
    9900012    2    1    2    0    0 -0.26583694505E+02  0.30861058523E+02  0.14984171011E+02  0.47787272730E+02  0.20000007685E+02 0.  0.
        -12    1    1    2    0    0  0.26583694505E+02 -0.30861058523E+02 -0.14984171011E+02  0.43400727270E+02  0.00000000000E+00 0.  1.
         11    1    3    3    0    0 -0.28351587652E+01  0.10914697551E+02  0.10975522923E+02  0.15736290908E+02  0.51100000000E-03 0. -1.
        -11    1    3    3    0    0 -0.41235102914E+01  0.62270335659E+01  0.31069776330E+01  0.80890416261E+01  0.51100000000E-03 0.  1.
        -12    1    3    3    0    0 -0.19625025448E+02  0.13719327406E+02  0.90167045443E+00  0.23961940196E+02  0.00000000000E+00 0.  1.
</event>
<event>
 7    1  0.4031943E-009  0.4778727E+02  0.7816164E-02  0.1312668E+00
        -11   -1    0    0    0    0  0.00000000000E+00  0.00000000000E+00  0.45593999997E+02  0.45594000000E+02  0.51100000000E-03 0. -1.
         11   -1    0    0    0    0 -0.00000000000E+00 -0.00000000000E+00 -0.45593999997E+02  0.45594000000E+02  0.51100000000E-03 0.  1.
    9900012    2    1    2    0    0  0.69819181003E+01 -0.36530547846E+02 -0.22369525774E+02  0.47787265102E+02  0.19999972908E+02 0.  0.
        -12    1    1    2    0    0 -0.69819181003E+01  0.36530547846E+02  0.22369525774E+02  0.43400734898E+02  0.00000000000E+00 0.  1.
         11    1    3    3    0    0  0.29074044632E+01 -0.30650563665E+01  0.10222873427E+01  0.43465667963E+01  0.51100000000E-03 0. -1.
        -11    1    3    3    0    0 -0.52937653241E+01 -0.98769127028E+01 -0.77959133544E+01  0.13651139921E+02  0.51100000000E-03 0.  1.
         12    1    3    3    0    0  0.93682789612E+01 -0.23588578777E+02 -0.15595899762E+02  0.29789558385E+02  0.00000000000E+00 0. -1.
</event>
<event>
 7    1  0.4031943E-009  0.4778727E+02  0.7816164E-02  0.1312668E+00
        -11   -1    0    0    0    0  0.00000000000E+00  0.00000000000E+00  0.45593999997E+02  0.45594000000E+02  0.51100000000E-03 0.  1.
         11   -1    0    0    0    0 -0.00000000000E+00 -0.00000000000E+00 -0.45593999997E+02  0.45594000000E+02  0.51100000000E-03 0. -1.
    9900012    2    1    2    0    0  0.15307529929E+02 -0.36228398512E+02 -0.18352283503E+02  0.47787266815E+02  0.19999980714E+02 0.  0.
        -12    1    1    2    0    0 -0.15307529929E+02  0.36228398512E+02  0.18352283503E+02  0.43400733185E+02  0.00000000000E+00 0.  1.
         11    1    3    3    0    0  0.89952476538E+01 -0.19804065046E+02 -0.11161276949E+02  0.24447690609E+02  0.51100000000E-03 0. -1.
        -11    1    3    3    0    0  0.37603724803E+01 -0.18447401230E+02 -0.52361356923E+01  0.19541344135E+02  0.51100000000E-03 0.  1.
         12    1    3    3    0    0  0.25519097947E+01  0.20230677647E+01 -0.19548708612E+01  0.37982320709E+01  0.00000000000E+00 0. -1.
</event>
<event>
 7    1  0.4031943E-009  0.4778727E+02  0.7816164E-02  0.1312668E+00
        -11   -1    0    0    0    0  0.00000000000E+00  0.00000000000E+00  0.45593999997E+02  0.45594000000E+02  0.51100000000E-03 0. -1.
         11   -1    0    0    0    0 -0.00000000000E+00 -0.00000000000E+00 -0.45593999997E+02  0.45594000000E+02  0.51100000000E-03 0.  1.
    9900012    2    1    2    0    0  0.35003307023E+02  0.11226266023E+02  0.23072990656E+02  0.47787269025E+02  0.19999990792E+02 0.  0.
        -12    1    1    2    0    0 -0.35003307023E+02 -0.11226266023E+02 -0.23072990656E+02  0.43400730975E+02  0.00000000000E+00 0.  1.
         11    1    3    3    0    0  0.13957869920E+01 -0.24633088854E+01 -0.30062663604E+00  0.28471896016E+01  0.51100000000E-03 0. -1.
        -11    1    3    3    0    0  0.49115952185E+00  0.38715132171E-01  0.43584634009E+01  0.43862216104E+01  0.51100000000E-03 0.  1.
         12    1    3    3    0    0  0.33116360509E+02  0.13650859776E+02  0.19015153891E+02  0.40553857813E+02  0.00000000000E+00 0. -1.
</event>
<event>
 7    1  0.4684320E-009  0.4778727E+02  0.7816164E-02  0.1312668E+00
        -11   -1    0    0    0    0  0.00000000000E+00  0.00000000000E+00  0.45593999997E+02  0.45594000000E+02  0.51100000000E-03 0. -1.
         11   -1    0    0    0    0 -0.00000000000E+00 -0.00000000000E+00 -0.45593999997E+02  0.45594000000E+02  0.51100000000E-03 0.  1.
    9900012    2    1    2    0    0  0.20482580454E+01  0.13899138191E+02  0.41063874420E+02  0.47787272059E+02  0.20000004625E+02 0.  0.
        -12    1    1    2    0    0 -0.20482580454E+01 -0.13899138191E+02 -0.41063874420E+02  0.43400727941E+02  0.00000000000E+00 0.  1.
         11    1    3    3    0    0  0.24240255184E+01  0.52509624987E+01  0.67880634354E+01  0.89177526508E+01  0.51100000000E-03 0. -1.
        -11    1    3    3    0    0 -0.38421672473E+01 -0.19154547755E+01  0.20069513139E+01  0.47391001246E+01  0.51100000000E-03 0.  1.
        -12    1    3    3    0    0  0.34663997743E+01  0.10563630467E+02  0.32268859670E+02  0.34130419284E+02  0.00000000000E+00 0.  1.
</event>
<event>
 7    1  0.4031943E-009  0.4778727E+02  0.7816164E-02  0.1312668E+00
        -11   -1    0    0    0    0  0.00000000000E+00  0.00000000000E+00  0.45593999997E+02  0.45594000000E+02  0.51100000000E-03 0. -1.
         11   -1    0    0    0    0 -0.00000000000E+00 -0.00000000000E+00 -0.45593999997E+02  0.45594000000E+02  0.51100000000E-03 0.  1.
    9900012    2    1    2    0    0 -0.36154340997E+02  0.15314020959E+02  0.18492370465E+02  0.47787269865E+02  0.19999994622E+02 0.  0.
        -12    1    1    2    0    0  0.36154340997E+02 -0.15314020959E+02 -0.18492370465E+02  0.43400730135E+02  0.00000000000E+00 0.  1.
         11    1    3    3    0    0 -0.81926737576E+01  0.90615880341E+00 -0.97261697390E-01  0.82432085485E+01  0.51100000000E-03 0.  1.
        -11    1    3    3    0    0 -0.27498249261E+02  0.11589615815E+02  0.11640390935E+02  0.32030791569E+02  0.51100000000E-03 0. -1.
         12    1    3    3    0    0 -0.46341797795E+00  0.28182463408E+01  0.69492412270E+01  0.75132697470E+01  0.00000000000E+00 0. -1.
</event>
<event>
 7    1  0.4031943E-009  0.4778727E+02  0.7816164E-02  0.1312668E+00
        -11   -1    0    0    0    0  0.00000000000E+00  0.00000000000E+00  0.45593999997E+02  0.45594000000E+02  0.51100000000E-03 0.  1.
         11   -1    0    0    0    0 -0.00000000000E+00 -0.00000000000E+00 -0.45593999997E+02  0.45594000000E+02  0.51100000000E-03 0. -1.
    9900012    2    1    2    0    0 -0.22599265856E+01  0.77704159450E+01 -0.42639613846E+02  0.47787270731E+02  0.19999998573E+02 0.  0.
        -12    1    1    2    0    0  0.22599265856E+01 -0.77704159450E+01  0.42639613846E+02  0.43400729269E+02  0.00000000000E+00 0.  1.
         11    1    3    3    0    0  0.85084302930E+00  0.12261366127E+01  0.16635495104E+00  0.15016720961E+01  0.51100000000E-03 0. -1.
        -11    1    3    3    0    0 -0.62737857398E+00 -0.53301253826E+01 -0.15602069375E+02  0.16499345729E+02  0.51100000000E-03 0.  1.
         12    1    3    3    0    0 -0.24833910410E+01  0.11874404715E+02 -0.27203899422E+02  0.29786252906E+02  0.00000000000E+00 0. -1.
</event>
<event>
 7    1  0.4031943E-009  0.4778727E+02  0.7816164E-02  0.1312668E+00
        -11   -1    0    0    0    0  0.00000000000E+00  0.00000000000E+00  0.45593999997E+02  0.45594000000E+02  0.51100000000E-03 0.  1.
         11   -1    0    0    0    0 -0.00000000000E+00 -0.00000000000E+00 -0.45593999997E+02  0.45594000000E+02  0.51100000000E-03 0. -1.
    9900012    2    1    2    0    0 -0.25533433872E+02 -0.21835070838E+01 -0.35027125084E+02  0.47787269129E+02  0.19999991265E+02 0.  0.
        -12    1    1    2    0    0  0.25533433872E+02  0.21835070838E+01  0.35027125084E+02  0.43400730871E+02  0.00000000000E+00 0.  1.
         11    1    3    3    0    0  0.27228169067E+00 -0.28767126856E+01 -0.65155237568E+01  0.71275285535E+01  0.51100000000E-03 0. -1.
        -11    1    3    3    0    0 -0.13466845911E+01  0.39159364188E+00 -0.97025084516E+01  0.98033451170E+01  0.51100000000E-03 0.  1.
         12    1    3    3    0    0 -0.24459030972E+02  0.30161195990E+00 -0.18809092876E+02  0.30856395458E+02  0.00000000000E+00 0. -1.
</event>
<event>
 7    1  0.4031943E-009  0.4778727E+02  0.7816164E-02  0.1312668E+00
        -11   -1    0    0    0    0  0.00000000000E+00  0.00000000000E+00  0.45593999997E+02  0.45594000000E+02  0.51100000000E-03 0.  1.
         11   -1    0    0    0    0 -0.00000000000E+00 -0.00000000000E+00 -0.45593999997E+02  0.45594000000E+02  0.51100000000E-03 0. -1.
    9900012    2    1    2    0    0 -0.97703208139E+01  0.17305087211E+02 -0.38583655174E+02  0.47787266611E+02  0.19999979784E+02 0.  0.
        -12    1    1    2    0    0  0.97703208139E+01 -0.17305087211E+02  0.38583655174E+02  0.43400733389E+02  0.00000000000E+00 0.  1.
         11    1    3    3    0    0  0.24621627039E+01  0.70556889703E+00 -0.15716080222E+01  0.30049999477E+01  0.51100000000E-03 0. -1.
        -11    1    3    3    0    0 -0.85742959050E+00 -0.26172952443E+01 -0.28031209391E+01  0.39297464496E+01  0.51100000000E-03 0.  1.
        -12    1    3    3    0    0 -0.11375053927E+02  0.19216813558E+02 -0.34208926212E+02  0.40852520213E+02  0.00000000000E+00 0.  1.
</event>
<event>
 7    1  0.4031943E-009  0.4778727E+02  0.7816164E-02  0.1312668E+00
        -11   -1    0    0    0    0  0.00000000000E+00  0.00000000000E+00  0.45593999997E+02  0.45594000000E+02  0.51100000000E-03 0. -1.
         11   -1    0    0    0    0 -0.00000000000E+00 -0.00000000000E+00 -0.45593999997E+02  0.45594000000E+02  0.51100000000E-03 0.  1.
    9900012    2    1    2    0    0 -0.22927328732E+02  0.19566183384E+02  0.31227000343E+02  0.47787268607E+02  0.19999988887E+02 0.  0.
        -12    1    1    2    0    0  0.22927328732E+02 -0.19566183384E+02 -0.31227000343E+02  0.43400731393E+02  0.00000000000E+00 0.  1.
         11    1    3    3    0    0 -0.25229459314E+01  0.55758441451E+00  0.11619245703E+01  0.28330593923E+01  0.51100000000E-03 0. -1.
        -11    1    3    3    0    0  0.11428130718E+01  0.12050064551E+01  0.10989979869E+02  0.11114752362E+02  0.51100000000E-03 0.  1.
        -12    1    3    3    0    0 -0.21547195873E+02  0.17803592514E+02  0.19075095904E+02  0.33839456853E+02  0.00000000000E+00 0.  1.
</event>
<event>
 7    1  0.4031943E-009  0.4778727E+02  0.7816164E-02  0.1312668E+00
        -11   -1    0    0    0    0  0.00000000000E+00  0.00000000000E+00  0.45593999997E+02  0.45594000000E+02  0.51100000000E-03 0.  1.
         11   -1    0    0    0    0 -0.00000000000E+00 -0.00000000000E+00 -0.45593999997E+02  0.45594000000E+02  0.51100000000E-03 0. -1.
    9900012    2    1    2    0    0  0.16690351291E+02 -0.84474600324E+01 -0.39162429245E+02  0.47787271071E+02  0.20000000121E+02 0.  0.
        -12    1    1    2    0    0 -0.16690351291E+02  0.84474600324E+01  0.39162429245E+02  0.43400728929E+02  0.00000000000E+00 0.  1.
         11    1    3    3    0    0  0.85795800011E+01 -0.24569335428E+00 -0.16888901666E+02  0.18944776535E+02  0.51100000000E-03 0. -1.
        -11    1    3    3    0    0  0.10119915896E+02 -0.26021238790E+01 -0.19823031331E+02  0.22408398377E+02  0.51100000000E-03 0.  1.
         12    1    3    3    0    0 -0.20091446057E+01 -0.55996427991E+01 -0.24504962482E+01  0.64340961593E+01  0.00000000000E+00 0. -1.
</event>
<event>
 7    1  0.4031943E-009  0.4778727E+02  0.7816164E-02  0.1312668E+00
        -11   -1    0    0    0    0  0.00000000000E+00  0.00000000000E+00  0.45593999997E+02  0.45594000000E+02  0.51100000000E-03 0.  1.
         11   -1    0    0    0    0 -0.00000000000E+00 -0.00000000000E+00 -0.45593999997E+02  0.45594000000E+02  0.51100000000E-03 0. -1.
    9900012    2    1    2    0    0  0.13992609337E+02 -0.90014660161E+01 -0.40084955299E+02  0.47787272497E+02  0.20000006623E+02 0.  0.
        -12    1    1    2    0    0 -0.13992609337E+02  0.90014660161E+01  0.40084955299E+02  0.43400727503E+02  0.00000000000E+00 0.  1.
         11    1    3    3    0    0  0.34084576319E+01 -0.82571605814E+01 -0.13313507029E+02  0.16032708878E+02  0.51100000000E-03 0. -1.
        -11    1    3    3    0    0 -0.26501698582E+01  0.17937693958E+01 -0.82561812609E+01  0.88546901807E+01  0.51100000000E-03 0.  1.
         12    1    3    3    0    0  0.13234321563E+02 -0.25380748305E+01 -0.18515267008E+02  0.22899873438E+02  0.00000000000E+00 0. -1.
</event>
<event>
 7    1  0.4031943E-009  0.4778727E+02  0.7816164E-02  0.1312668E+00
        -11   -1    0    0    0    0  0.00000000000E+00  0.00000000000E+00  0.45593999997E+02  0.45594000000E+02  0.51100000000E-03 0.  1.
         11   -1    0    0    0    0 -0.00000000000E+00 -0.00000000000E+00 -0.45593999997E+02  0.45594000000E+02  0.51100000000E-03 0. -1.
    9900012    2    1    2    0    0 -0.33717219585E+02 -0.52364210815E+01 -0.26820745119E+02  0.47787269926E+02  0.19999994898E+02 0.  0.
        -12    1    1    2    0    0  0.33717219585E+02  0.52364210815E+01  0.26820745119E+02  0.43400730074E+02  0.00000000000E+00 0.  1.
         11    1    3    3    0    0 -0.14130682288E+01 -0.92795466170E+00 -0.79657128461E+01  0.81431224405E+01  0.51100000000E-03 0. -1.
        -11    1    3    3    0    0 -0.42450805388E+00  0.83916711363E+00  0.12801528811E+01  0.15884584328E+01  0.51100000000E-03 0.  1.
        -12    1    3    3    0    0 -0.31879643302E+02 -0.51476335334E+01 -0.20135185154E+02  0.38055689052E+02  0.00000000000E+00 0.  1.
</event>
<event>
 7    1  0.4031943E-009  0.4778727E+02  0.7816164E-02  0.1312668E+00
        -11   -1    0    0    0    0  0.00000000000E+00  0.00000000000E+00  0.45593999997E+02  0.45594000000E+02  0.51100000000E-03 0.  1.
         11   -1    0    0    0    0 -0.00000000000E+00 -0.00000000000E+00 -0.45593999997E+02  0.45594000000E+02  0.51100000000E-03 0. -1.
    9900012    2    1    2    0    0  0.15966590245E+02 -0.35096335067E+02 -0.19923329021E+02  0.47787265231E+02  0.19999973494E+02 0.  0.
        -12    1    1    2    0    0 -0.15966590245E+02  0.35096335067E+02  0.19923329021E+02  0.43400734769E+02  0.00000000000E+00 0.  1.
         11    1    3    3    0    0  0.13130960179E+01 -0.60626131161E+01 -0.28198783797E+01  0.68140452952E+01  0.51100000000E-03 0. -1.
        -11    1    3    3    0    0  0.18162867327E+02 -0.17927560573E+02 -0.12855269601E+02  0.28575253882E+02  0.51100000000E-03 0.  1.
        -12    1    3    3    0    0 -0.35093731001E+01 -0.11106161378E+02 -0.42481810404E+01  0.12397966054E+02  0.00000000000E+00 0.  1.
</event>
<event>
 7    1  0.4031943E-009  0.4778727E+02  0.7816164E-02  0.1312668E+00
        -11   -1    0    0    0    0  0.00000000000E+00  0.00000000000E+00  0.45593999997E+02  0.45594000000E+02  0.51100000000E-03 0. -1.
         11   -1    0    0    0    0 -0.00000000000E+00 -0.00000000000E+00 -0.45593999997E+02  0.45594000000E+02  0.51100000000E-03 0.  1.
    9900012    2    1    2    0    0  0.37706998899E+02  0.11533253662E+02 -0.18132563928E+02  0.47787267511E+02  0.19999983890E+02 0.  0.
        -12    1    1    2    0    0 -0.37706998899E+02 -0.11533253662E+02  0.18132563928E+02  0.43400732489E+02  0.00000000000E+00 0.  1.
         11    1    3    3    0    0  0.21558187442E+02  0.10875871595E+02 -0.49673505267E+01  0.24651868088E+02  0.51100000000E-03 0. -1.
        -11    1    3    3    0    0  0.43970875496E+01 -0.11833397661E+01  0.97565712470E+00  0.46568851185E+01  0.51100000000E-03 0.  1.
        -12    1    3    3    0    0  0.11751723907E+02  0.18407218331E+01 -0.14140870526E+02  0.18478514304E+02  0.00000000000E+00 0.  1.
</event>
<event>
 7    1  0.4031943E-009  0.4778727E+02  0.7816164E-02  0.1312668E+00
        -11   -1    0    0    0    0  0.00000000000E+00  0.00000000000E+00  0.45593999997E+02  0.45594000000E+02  0.51100000000E-03 0.  1.
         11   -1    0    0    0    0 -0.00000000000E+00 -0.00000000000E+00 -0.45593999997E+02  0.45594000000E+02  0.51100000000E-03 0. -1.
    9900012    2    1    2    0    0 -0.10141660431E+01  0.11831796937E+02 -0.41744504882E+02  0.47787266834E+02  0.19999980802E+02 0.  0.
        -12    1    1    2    0    0  0.10141660431E+01 -0.11831796937E+02  0.41744504882E+02  0.43400733166E+02  0.00000000000E+00 0.  1.
         11    1    3    3    0    0  0.70888008666E+01  0.79960986051E+00 -0.12332778876E+02  0.14247382522E+02  0.51100000000E-03 0. -1.
        -11    1    3    3    0    0 -0.10556115279E+01  0.80092438749E+00  0.27955545334E+00  0.13542330246E+01  0.51100000000E-03 0.  1.
        -12    1    3    3    0    0 -0.70473553818E+01  0.10231262689E+02 -0.29691281459E+02  0.32185651287E+02  0.00000000000E+00 0.  1.
</event>
<event>
 7    1  0.4031943E-009  0.4778727E+02  0.7816164E-02  0.1312668E+00
        -11   -1    0    0    0    0  0.00000000000E+00  0.00000000000E+00  0.45593999997E+02  0.45594000000E+02  0.51100000000E-03 0.  1.
         11   -1    0    0    0    0 -0.00000000000E+00 -0.00000000000E+00 -0.45593999997E+02  0.45594000000E+02  0.51100000000E-03 0. -1.
    9900012    2    1    2    0    0 -0.24349419449E+02 -0.35910794093E+02 -0.10696483024E+01  0.47787268354E+02  0.19999987735E+02 0.  0.
        -12    1    1    2    0    0  0.24349419449E+02  0.35910794093E+02  0.10696483024E+01  0.43400731646E+02  0.00000000000E+00 0.  1.
         11    1    3    3    0    0 -0.11371339692E+02 -0.17382038372E+02  0.13627980711E+01  0.20815855572E+02  0.51100000000E-03 0. -1.
        -11    1    3    3    0    0 -0.89454466854E+01 -0.10432031480E+02  0.56334757686E+01  0.14852082234E+02  0.51100000000E-03 0.  1.
         12    1    3    3    0    0 -0.40326330718E+01 -0.80967242408E+01 -0.80659221421E+01  0.12119330548E+02  0.00000000000E+00 0. -1.
</event>
<event>
 7    1  0.4031943E-009  0.4778726E+02  0.7816164E-02  0.1312668E+00
        -11   -1    0    0    0    0  0.00000000000E+00  0.00000000000E+00  0.45593999997E+02  0.45594000000E+02  0.51100000000E-03 0.  1.
         11   -1    0    0    0    0 -0.00000000000E+00 -0.00000000000E+00 -0.45593999997E+02  0.45594000000E+02  0.51100000000E-03 0. -1.
    9900012    2    1    2    0    0  0.24722456677E+02  0.16164472344E+02 -0.31798338436E+02  0.47787258559E+02  0.19999943074E+02 0.  0.
        -12    1    1    2    0    0 -0.24722456677E+02 -0.16164472344E+02  0.31798338436E+02  0.43400741441E+02  0.00000000000E+00 0.  1.
         11    1    3    3    0    0  0.70108316112E+01  0.55604933518E+01 -0.13937198508E+02  0.16562498263E+02  0.51100000000E-03 0. -1.
        -11    1    3    3    0    0  0.16277663840E+02  0.14205941790E+02 -0.16214727377E+02  0.27012747109E+02  0.51100000000E-03 0.  1.
         12    1    3    3    0    0  0.14339612263E+01 -0.36019627980E+01 -0.16464125518E+01  0.42120131870E+01  0.00000000000E+00 0. -1.
</event>
<event>
 7    1  0.4031943E-009  0.4778728E+02  0.7816164E-02  0.1312668E+00
        -11   -1    0    0    0    0  0.00000000000E+00  0.00000000000E+00  0.45593999997E+02  0.45594000000E+02  0.51100000000E-03 0.  1.
         11   -1    0    0    0    0 -0.00000000000E+00 -0.00000000000E+00 -0.45593999997E+02  0.45594000000E+02  0.51100000000E-03 0. -1.
    9900012    2    1    2    0    0 -0.32327347172E+02 -0.23609485913E+02 -0.16767749864E+02  0.47787278396E+02  0.20000033519E+02 0.  0.
        -12    1    1    2    0    0  0.32327347172E+02  0.23609485913E+02  0.16767749864E+02  0.43400721604E+02  0.00000000000E+00 0.  1.
         11    1    3    3    0    0 -0.63434976037E+01  0.13771037165E+01 -0.34802716626E+01  0.73653694817E+01  0.51100000000E-03 0. -1.
        -11    1    3    3    0    0  0.84547124035E+00 -0.31911201377E+01  0.22296600815E+00  0.33087434856E+01  0.51100000000E-03 0.  1.
         12    1    3    3    0    0 -0.26829320809E+02 -0.21795469491E+02 -0.13510444210E+02  0.37113165429E+02  0.00000000000E+00 0. -1.
</event>
<event>
 7    1  0.4031943E-009  0.4778728E+02  0.7816164E-02  0.1312668E+00
        -11   -1    0    0    0    0  0.00000000000E+00  0.00000000000E+00  0.45593999997E+02  0.45594000000E+02  0.51100000000E-03 0.  1.
         11   -1    0    0    0    0 -0.00000000000E+00 -0.00000000000E+00 -0.45593999997E+02  0.45594000000E+02  0.51100000000E-03 0. -1.
    9900012    2    1    2    0    0  0.31911581434E+02 -0.23339920139E+02 -0.17903126793E+02  0.47787275920E+02  0.20000022229E+02 0.  0.
        -12    1    1    2    0    0 -0.31911581434E+02  0.23339920139E+02  0.17903126793E+02  0.43400724080E+02  0.00000000000E+00 0.  1.
         11    1    3    3    0    0  0.75459832825E+01 -0.18444502166E+01  0.69655081723E+00  0.77992976352E+01  0.51100000000E-03 0. -1.
        -11    1    3    3    0    0  0.15630570569E+02 -0.16893310829E+02 -0.56405876952E+01  0.23696305975E+02  0.51100000000E-03 0.  1.
         12    1    3    3    0    0  0.87350275831E+01 -0.46021590928E+01 -0.12959089916E+02  0.16291672309E+02  0.00000000000E+00 0. -1.
</event>
<event>
 7    1  0.4031943E-009  0.4778727E+02  0.7816164E-02  0.1312668E+00
        -11   -1    0    0    0    0  0.00000000000E+00  0.00000000000E+00  0.45593999997E+02  0.45594000000E+02  0.51100000000E-03 0.  1.
         11   -1    0    0    0    0 -0.00000000000E+00 -0.00000000000E+00 -0.45593999997E+02  0.45594000000E+02  0.51100000000E-03 0. -1.
    9900012    2    1    2    0    0 -0.60523123586E+01 -0.24354634313E+01 -0.42907595941E+02  0.47787265485E+02  0.19999974652E+02 0.  0.
        -12    1    1    2    0    0  0.60523123586E+01  0.24354634313E+01  0.42907595941E+02  0.43400734515E+02  0.00000000000E+00 0.  1.
         11    1    3    3    0    0 -0.53245303287E+01 -0.48135136807E+01 -0.38546345297E+02  0.39208943791E+02  0.51100000000E-03 0. -1.
        -11    1    3    3    0    0  0.20584885060E+01  0.33320602128E+00 -0.46640346840E+01  0.51089745524E+01  0.51100000000E-03 0.  1.
        -12    1    3    3    0    0 -0.27862705358E+01  0.20448442281E+01  0.30278403993E+00  0.34693471419E+01  0.00000000000E+00 0.  1.
</event>
<event>
 7    1  0.5527540E-009  0.4778727E+02  0.7816164E-02  0.1312668E+00
        -11   -1    0    0    0    0  0.00000000000E+00  0.00000000000E+00  0.45593999997E+02  0.45594000000E+02  0.51100000000E-03 0. -1.
         11   -1    0    0    0    0 -0.00000000000E+00 -0.00000000000E+00 -0.45593999997E+02  0.45594000000E+02  0.51100000000E-03 0.  1.
    9900012    2    1    2    0    0 -0.12654798491E+02 -0.97379642749E+00  0.41503385811E+02  0.47787271456E+02  0.20000001878E+02 0.  0.
        -12    1    1    2    0    0  0.12654798491E+02  0.97379642749E+00 -0.41503385811E+02  0.43400728544E+02  0.00000000000E+00 0.  1.
         11    1    3    3    0    0 -0.89201802903E+01 -0.86759143811E+00  0.21200979306E+02  0.23017468477E+02  0.51100000000E-03 0. -1.
        -11    1    3    3    0    0 -0.36310615934E+01  0.65566784735E+01  0.99236596076E+01  0.12435982517E+02  0.51100000000E-03 0.  1.
        -12    1    3    3    0    0 -0.10355660701E+00 -0.66628834629E+01  0.10378746898E+02  0.12333820462E+02  0.00000000000E+00 0.  1.
</event>
