<event>
 7    1  0.2000468E-015  0.9000768E+02  0.7816164E-02  0.1186339E+00
        -11   -1    0    0    0    0  0.00000000000E+00  0.00000000000E+00  0.45593999997E+02  0.45594000000E+02  0.51100000000E-03 0.  1.
         11   -1    0    0    0    0 -0.00000000000E+00 -0.00000000000E+00 -0.45593999997E+02  0.45594000000E+02  0.51100000000E-03 0. -1.
    9900012    2    1    2    0    0  0.91266762157E+00 -0.67202160414E+00 -0.32951819028E+00  0.90007679085E+02  0.89999939649E+02 0.  0.
         12    1    1    2    0    0 -0.91266762157E+00  0.67202160414E+00  0.32951819028E+00  0.11803209147E+01  0.00000000000E+00 0. -1.
         11    1    3    3    0    0 -0.81019021356E+01 -0.79498307299E+01  0.18300961057E+02  0.21535222374E+02  0.51100000000E-03 0. -1.
        -11    1    3    3    0    0  0.19206433144E+02  0.20187768604E+02  0.14553136786E+02  0.31436075867E+02  0.51100000000E-03 0.  1.
         12    1    3    3    0    0 -0.10191863387E+02 -0.12909959478E+02 -0.33183616033E+02  0.37036380844E+02  0.00000000000E+00 0. -1.
</event>
<event>
 7    1  0.2000468E-015  0.9000774E+02  0.7816164E-02  0.1186339E+00
        -11   -1    0    0    0    0  0.00000000000E+00  0.00000000000E+00  0.45593999997E+02  0.45594000000E+02  0.51100000000E-03 0.  1.
         11   -1    0    0    0    0 -0.00000000000E+00 -0.00000000000E+00 -0.45593999997E+02  0.45594000000E+02  0.51100000000E-03 0. -1.
    9900012    2    1    2    0    0 -0.82466476492E+00 -0.71119704891E+00  0.45513259241E+00  0.90007737786E+02  0.89999999125E+02 0.  0.
         12    1    1    2    0    0  0.82466476492E+00  0.71119704891E+00 -0.45513259241E+00  0.11802622139E+01  0.00000000000E+00 0. -1.
         11    1    3    3    0    0  0.73960223254E+01  0.33214158603E+02  0.16921115958E+02  0.38002705739E+02  0.51100000000E-03 0. -1.
        -11    1    3    3    0    0 -0.15381290958E+01  0.43159046766E+01  0.56910381127E+01  0.73062158026E+01  0.51100000000E-03 0.  1.
        -12    1    3    3    0    0 -0.66825579945E+01 -0.38241260328E+02 -0.22157021479E+02  0.44698816245E+02  0.00000000000E+00 0.  1.
</event>
<event>
 7    1  0.2000468E-015  0.9000773E+02  0.7816164E-02  0.1186339E+00
        -11   -1    0    0    0    0  0.00000000000E+00  0.00000000000E+00  0.45593999997E+02  0.45594000000E+02  0.51100000000E-03 0. -1.
         11   -1    0    0    0    0 -0.00000000000E+00 -0.00000000000E+00 -0.45593999997E+02  0.45594000000E+02  0.51100000000E-03 0.  1.
    9900012    2    1    2    0    0  0.44614408516E+00 -0.10921721553E+01 -0.34091280755E-01  0.90007725974E+02  0.89999987157E+02 0.  0.
         12    1    1    2    0    0 -0.44614408516E+00  0.10921721553E+01  0.34091280755E-01  0.11802740263E+01  0.00000000000E+00 0. -1.
         11    1    3    3    0    0 -0.84960380309E+01  0.33281516335E+01 -0.22261809256E+01  0.93922913760E+01  0.51100000000E-03 0. -1.
        -11    1    3    3    0    0 -0.32480442916E+02  0.12427194730E+02 -0.55978680568E+01  0.35224288040E+02  0.51100000000E-03 0.  1.
         12    1    3    3    0    0  0.41422625032E+02 -0.16847518519E+02  0.77899577017E+01  0.45391146558E+02  0.00000000000E+00 0. -1.
</event>
<event>
 7    1  0.2000468E-015  0.9000772E+02  0.7816164E-02  0.1186339E+00
        -11   -1    0    0    0    0  0.00000000000E+00  0.00000000000E+00  0.45593999997E+02  0.45594000000E+02  0.51100000000E-03 0. -1.
         11   -1    0    0    0    0 -0.00000000000E+00 -0.00000000000E+00 -0.45593999997E+02  0.45594000000E+02  0.51100000000E-03 0.  1.
    9900012    2    1    2    0    0  0.83815832868E+00  0.76688527413E+00  0.32006375086E+00  0.90007719011E+02  0.89999980102E+02 0.  0.
         12    1    1    2    0    0 -0.83815832868E+00 -0.76688527413E+00 -0.32006375086E+00  0.11802809887E+01  0.00000000000E+00 0. -1.
         11    1    3    3    0    0 -0.72743481866E+01 -0.28249983149E+01 -0.29239016915E+01  0.83334241691E+01  0.51100000000E-03 0. -1.
        -11    1    3    3    0    0 -0.32899624013E+02  0.10634282533E+02  0.16073405523E+02  0.38129091132E+02  0.51100000000E-03 0.  1.
         12    1    3    3    0    0  0.41012130528E+02 -0.70423989435E+01 -0.12829440081E+02  0.43545203710E+02  0.00000000000E+00 0. -1.
</event>
<event>
 7    1  0.2528855E-015  0.9000786E+02  0.7816164E-02  0.1186339E+00
        -11   -1    0    0    0    0  0.00000000000E+00  0.00000000000E+00  0.45593999997E+02  0.45594000000E+02  0.51100000000E-03 0.  1.
         11   -1    0    0    0    0 -0.00000000000E+00 -0.00000000000E+00 -0.45593999997E+02  0.45594000000E+02  0.51100000000E-03 0. -1.
    9900012    2    1    2    0    0 -0.84018269941E-01 -0.72090391182E+00  0.93057799672E+00  0.90007857243E+02  0.90000120158E+02 0.  0.
         12    1    1    2    0    0  0.84018269941E-01  0.72090391182E+00 -0.93057799672E+00  0.11801427574E+01  0.00000000000E+00 0. -1.
         11    1    3    3    0    0 -0.25379766334E+02 -0.21365217233E+02 -0.17908542044E+02  0.37700410144E+02  0.51100000000E-03 0. -1.
        -11    1    3    3    0    0 -0.70977069003E+01 -0.38202789342E+01  0.46482329599E+01  0.93047323599E+01  0.51100000000E-03 0.  1.
        -12    1    3    3    0    0  0.32393454964E+02  0.24464592256E+02  0.14190887081E+02  0.43002714739E+02  0.00000000000E+00 0.  1.
</event>
<event>
 7    1  0.2000468E-015  0.9000781E+02  0.7816164E-02  0.1186339E+00
        -11   -1    0    0    0    0  0.00000000000E+00  0.00000000000E+00  0.45593999997E+02  0.45594000000E+02  0.51100000000E-03 0.  1.
         11   -1    0    0    0    0 -0.00000000000E+00 -0.00000000000E+00 -0.45593999997E+02  0.45594000000E+02  0.51100000000E-03 0. -1.
    9900012    2    1    2    0    0  0.65751330060E+00 -0.73704408038E+00 -0.64597970629E+00  0.90007810398E+02  0.90000072695E+02 0.  0.
         12    1    1    2    0    0 -0.65751330060E+00  0.73704408038E+00  0.64597970629E+00  0.11801896025E+01  0.00000000000E+00 0. -1.
         11    1    3    3    0    0 -0.18683253180E+02  0.29565946794E+02  0.28182319717E+01  0.35087769820E+02  0.51100000000E-03 0. -1.
        -11    1    3    3    0    0 -0.76162912263E+00  0.95907971459E+01  0.22587431991E+01  0.98825801244E+01  0.51100000000E-03 0.  1.
        -12    1    3    3    0    0  0.20102395603E+02 -0.39893788020E+02 -0.57229548771E+01  0.45037460454E+02  0.00000000000E+00 0.  1.
</event>
<event>
 7    1  0.2000468E-015  0.9000772E+02  0.7816164E-02  0.1186339E+00
        -11   -1    0    0    0    0  0.00000000000E+00  0.00000000000E+00  0.45593999997E+02  0.45594000000E+02  0.51100000000E-03 0.  1.
         11   -1    0    0    0    0 -0.00000000000E+00 -0.00000000000E+00 -0.45593999997E+02  0.45594000000E+02  0.51100000000E-03 0. -1.
    9900012    2    1    2    0    0 -0.65911756381E+00  0.63508360166E+00 -0.74518537356E+00  0.90007716820E+02  0.89999977882E+02 0.  0.
         12    1    1    2    0    0  0.65911756381E+00 -0.63508360166E+00  0.74518537356E+00  0.11802831800E+01  0.00000000000E+00 0. -1.
         11    1    3    3    0    0  0.93655690512E+01 -0.27743817005E+02 -0.21483295880E+02  0.36317561424E+02  0.51100000000E-03 0. -1.
        -11    1    3    3    0    0 -0.55537873606E+01 -0.87556915281E+01 -0.10208814884E+01  0.10418679737E+02  0.51100000000E-03 0.  1.
        -12    1    3    3    0    0 -0.44708992544E+01  0.37134592134E+02  0.21758991995E+02  0.43271475660E+02  0.00000000000E+00 0.  1.
</event>
<event>
 7    1  0.2000468E-015  0.9000752E+02  0.7816164E-02  0.1186339E+00
        -11   -1    0    0    0    0  0.00000000000E+00  0.00000000000E+00  0.45593999997E+02  0.45594000000E+02  0.51100000000E-03 0. -1.
         11   -1    0    0    0    0 -0.00000000000E+00 -0.00000000000E+00 -0.45593999997E+02  0.45594000000E+02  0.51100000000E-03 0.  1.
    9900012    2    1    2    0    0 -0.40541070171E+00 -0.37463714324E+00 -0.10434642450E+01  0.90007521937E+02  0.89999780427E+02 0.  0.
         12    1    1    2    0    0  0.40541070171E+00  0.37463714324E+00  0.10434642450E+01  0.11804780628E+01  0.00000000000E+00 0. -1.
         11    1    3    3    0    0 -0.74247844826E+01 -0.67785513359E+01  0.32225827494E+01  0.10557519721E+02  0.51100000000E-03 0. -1.
        -11    1    3    3    0    0 -0.13897332869E+02  0.35833812079E+02 -0.15787533637E+02  0.41550501412E+02  0.51100000000E-03 0.  1.
         12    1    3    3    0    0  0.20916706650E+02 -0.29429897887E+02  0.11521486643E+02  0.37899500804E+02  0.00000000000E+00 0. -1.
</event>
<event>
 7    1  0.2000468E-015  0.9000772E+02  0.7816164E-02  0.1186339E+00
        -11   -1    0    0    0    0  0.00000000000E+00  0.00000000000E+00  0.45593999997E+02  0.45594000000E+02  0.51100000000E-03 0.  1.
         11   -1    0    0    0    0 -0.00000000000E+00 -0.00000000000E+00 -0.45593999997E+02  0.45594000000E+02  0.51100000000E-03 0. -1.
    9900012    2    1    2    0    0  0.78947375948E+00  0.30574402715E+00  0.82238317603E+00  0.90007719391E+02  0.89999980487E+02 0.  0.
         12    1    1    2    0    0 -0.78947375948E+00 -0.30574402715E+00 -0.82238317603E+00  0.11802806087E+01  0.00000000000E+00 0. -1.
         11    1    3    3    0    0  0.12245155716E+01 -0.78107115343E+01 -0.45688189379E+01  0.91313065771E+01  0.51100000000E-03 0. -1.
        -11    1    3    3    0    0 -0.15351664004E+02  0.31963025489E+00  0.39752085373E+02  0.42614598942E+02  0.51100000000E-03 0.  1.
         12    1    3    3    0    0  0.14916622192E+02  0.77968253066E+01 -0.34360883259E+02  0.38261813873E+02  0.00000000000E+00 0. -1.
</event>
<event>
 7    1  0.2000468E-015  0.9000786E+02  0.7816164E-02  0.1186339E+00
        -11   -1    0    0    0    0  0.00000000000E+00  0.00000000000E+00  0.45593999997E+02  0.45594000000E+02  0.51100000000E-03 0. -1.
         11   -1    0    0    0    0 -0.00000000000E+00 -0.00000000000E+00 -0.45593999997E+02  0.45594000000E+02  0.51100000000E-03 0.  1.
    9900012    2    1    2    0    0  0.99493415760E+00  0.58530842541E+00  0.24547713710E+00  0.90007856383E+02  0.90000119288E+02 0.  0.
         12    1    1    2    0    0 -0.99493415760E+00 -0.58530842541E+00 -0.24547713710E+00  0.11801436165E+01  0.00000000000E+00 0. -1.
         11    1    3    3    0    0 -0.37134147124E+02 -0.78351766942E+01  0.13196893615E+02  0.40180752579E+02  0.51100000000E-03 0. -1.
        -11    1    3    3    0    0  0.47299785816E+01  0.99395381536E+01  0.47590938006E+01  0.11992334642E+02  0.51100000000E-03 0.  1.
        -12    1    3    3    0    0  0.33399102700E+02 -0.15190530341E+01 -0.17710510278E+02  0.37834769163E+02  0.00000000000E+00 0.  1.
</event>
<event>
 7    1  0.2000468E-015  0.9000786E+02  0.7816164E-02  0.1186339E+00
        -11   -1    0    0    0    0  0.00000000000E+00  0.00000000000E+00  0.45593999997E+02  0.45594000000E+02  0.51100000000E-03 0. -1.
         11   -1    0    0    0    0 -0.00000000000E+00 -0.00000000000E+00 -0.45593999997E+02  0.45594000000E+02  0.51100000000E-03 0.  1.
    9900012    2    1    2    0    0 -0.77772605286E+00  0.80799732016E+00 -0.36744205129E+00  0.90007859693E+02  0.90000122641E+02 0.  0.
         12    1    1    2    0    0  0.77772605286E+00 -0.80799732016E+00  0.36744205129E+00  0.11801403068E+01  0.00000000000E+00 0. -1.
         11    1    3    3    0    0 -0.27130067696E+00  0.84779776127E+01  0.63837238502E+01  0.10616102812E+02  0.51100000000E-03 0. -1.
        -11    1    3    3    0    0 -0.37366378664E+02  0.92807476732E+01 -0.44124076219E+01  0.38753682059E+02  0.51100000000E-03 0.  1.
         12    1    3    3    0    0  0.36859953288E+02 -0.16950727966E+02 -0.23387582796E+01  0.40638074822E+02  0.00000000000E+00 0. -1.
</event>
<event>
 7    1  0.2000468E-015  0.9000785E+02  0.7816164E-02  0.1186339E+00
        -11   -1    0    0    0    0  0.00000000000E+00  0.00000000000E+00  0.45593999997E+02  0.45594000000E+02  0.51100000000E-03 0. -1.
         11   -1    0    0    0    0 -0.00000000000E+00 -0.00000000000E+00 -0.45593999997E+02  0.45594000000E+02  0.51100000000E-03 0.  1.
    9900012    2    1    2    0    0  0.41640390892E+00 -0.10203752871E+01  0.42214273265E+00  0.90007846439E+02  0.90000109211E+02 0.  0.
         12    1    1    2    0    0 -0.41640390892E+00  0.10203752871E+01 -0.42214273265E+00  0.11801535614E+01  0.00000000000E+00 0. -1.
         11    1    3    3    0    0 -0.32195705357E+02 -0.15921797041E+02  0.22785625356E+02  0.42535300487E+02  0.51100000000E-03 0. -1.
        -11    1    3    3    0    0  0.70574539056E+01 -0.56588291955E+01 -0.41016420544E+01  0.99324453835E+01  0.51100000000E-03 0.  1.
        -12    1    3    3    0    0  0.25554655360E+02  0.20560250949E+02 -0.18261840569E+02  0.37540100568E+02  0.00000000000E+00 0.  1.
</event>
<event>
 7    1  0.2000468E-015  0.9000776E+02  0.7816164E-02  0.1186339E+00
        -11   -1    0    0    0    0  0.00000000000E+00  0.00000000000E+00  0.45593999997E+02  0.45594000000E+02  0.51100000000E-03 0. -1.
         11   -1    0    0    0    0 -0.00000000000E+00 -0.00000000000E+00 -0.45593999997E+02  0.45594000000E+02  0.51100000000E-03 0.  1.
    9900012    2    1    2    0    0 -0.57204563981E+00  0.81165491527E+00 -0.63792038777E+00  0.90007761746E+02  0.90000023401E+02 0.  0.
         12    1    1    2    0    0  0.57204563981E+00 -0.81165491527E+00  0.63792038777E+00  0.11802382542E+01  0.00000000000E+00 0. -1.
         11    1    3    3    0    0  0.21268171432E+02 -0.24329675592E+02 -0.23246203998E+02  0.39807715723E+02  0.51100000000E-03 0. -1.
        -11    1    3    3    0    0  0.21747166537E+01 -0.47114788235E+01  0.72667884275E+01  0.89293694929E+01  0.51100000000E-03 0.  1.
        -12    1    3    3    0    0 -0.24014933726E+02  0.29852809331E+02  0.15341495183E+02  0.41270676530E+02  0.00000000000E+00 0.  1.
</event>
<event>
 7    1  0.2000468E-015  0.9000777E+02  0.7816164E-02  0.1186339E+00
        -11   -1    0    0    0    0  0.00000000000E+00  0.00000000000E+00  0.45593999997E+02  0.45594000000E+02  0.51100000000E-03 0.  1.
         11   -1    0    0    0    0 -0.00000000000E+00 -0.00000000000E+00 -0.45593999997E+02  0.45594000000E+02  0.51100000000E-03 0. -1.
    9900012    2    1    2    0    0 -0.10670511019E+01  0.48882867825E+00  0.12401794740E+00  0.90007774605E+02  0.90000036430E+02 0.  0.
         12    1    1    2    0    0  0.10670511019E+01 -0.48882867825E+00 -0.12401794740E+00  0.11802253946E+01  0.00000000000E+00 0. -1.
         11    1    3    3    0    0 -0.19015573569E+02 -0.32845922456E+02  0.97738492014E+01  0.39191514242E+02  0.51100000000E-03 0. -1.
        -11    1    3    3    0    0  0.13723340974E+01 -0.43696826389E+01 -0.84500377142E+01  0.96114808886E+01  0.51100000000E-03 0.  1.
        -12    1    3    3    0    0  0.16576188369E+02  0.37704433773E+02 -0.11997935398E+01  0.41204779475E+02  0.00000000000E+00 0.  1.
</event>
<event>
 7    1  0.2000468E-015  0.9000764E+02  0.7816164E-02  0.1186339E+00
        -11   -1    0    0    0    0  0.00000000000E+00  0.00000000000E+00  0.45593999997E+02  0.45594000000E+02  0.51100000000E-03 0.  1.
         11   -1    0    0    0    0 -0.00000000000E+00 -0.00000000000E+00 -0.45593999997E+02  0.45594000000E+02  0.51100000000E-03 0. -1.
    9900012    2    1    2    0    0  0.85936527325E+00  0.50534142971E-01 -0.80758017109E+00  0.90007640688E+02  0.89999900745E+02 0.  0.
         12    1    1    2    0    0 -0.85936527325E+00 -0.50534142971E-01  0.80758017109E+00  0.11803593119E+01  0.00000000000E+00 0. -1.
         11    1    3    3    0    0  0.17390106801E+02 -0.26004656476E+02 -0.23704078096E+02  0.39249729829E+02  0.51100000000E-03 0. -1.
        -11    1    3    3    0    0 -0.88302351764E+00 -0.78785189468E+01  0.42868569532E+01  0.90126541111E+01  0.51100000000E-03 0.  1.
        -12    1    3    3    0    0 -0.15647718011E+02  0.33933709566E+02  0.18609640972E+02  0.41745256748E+02  0.00000000000E+00 0.  1.
</event>
<event>
 7    1  0.2000468E-015  0.9000770E+02  0.7816164E-02  0.1186339E+00
        -11   -1    0    0    0    0  0.00000000000E+00  0.00000000000E+00  0.45593999997E+02  0.45594000000E+02  0.51100000000E-03 0.  1.
         11   -1    0    0    0    0 -0.00000000000E+00 -0.00000000000E+00 -0.45593999997E+02  0.45594000000E+02  0.51100000000E-03 0. -1.
    9900012    2    1    2    0    0 -0.10031840547E+01  0.45394391347E+00  0.42505392224E+00  0.90007697428E+02  0.89999958234E+02 0.  0.
         12    1    1    2    0    0  0.10031840547E+01 -0.45394391347E+00 -0.42505392224E+00  0.11803025718E+01  0.00000000000E+00 0. -1.
         11    1    3    3    0    0  0.20689357927E+02 -0.31781690723E+02 -0.83680952656E+00  0.37931855308E+02  0.51100000000E-03 0. -1.
        -11    1    3    3    0    0 -0.63230328666E+01 -0.71794537592E+01 -0.14832689467E+01  0.96811873209E+01  0.51100000000E-03 0.  1.
        -12    1    3    3    0    0 -0.15369509115E+02  0.39415088396E+02  0.27451323955E+01  0.42394654799E+02  0.00000000000E+00 0.  1.
</event>
<event>
 7    1  0.2000468E-015  0.9000774E+02  0.7816164E-02  0.1186339E+00
        -11   -1    0    0    0    0  0.00000000000E+00  0.00000000000E+00  0.45593999997E+02  0.45594000000E+02  0.51100000000E-03 0.  1.
         11   -1    0    0    0    0 -0.00000000000E+00 -0.00000000000E+00 -0.45593999997E+02  0.45594000000E+02  0.51100000000E-03 0. -1.
    9900012    2    1    2    0    0 -0.93079545830E-01 -0.11598119320E+00  0.11708576172E+01  0.90007736047E+02  0.89999997363E+02 0.  0.
         12    1    1    2    0    0  0.93079545830E-01  0.11598119320E+00 -0.11708576172E+01  0.11802639530E+01  0.00000000000E+00 0. -1.
         11    1    3    3    0    0  0.14854931160E+02  0.67517736467E+01  0.61422298325E+01  0.17435091474E+02  0.51100000000E-03 0. -1.
        -11    1    3    3    0    0  0.63524773654E+01 -0.35705744683E+02  0.71140711929E+00  0.36273409991E+02  0.51100000000E-03 0.  1.
         12    1    3    3    0    0 -0.21300488071E+02  0.28837989843E+02 -0.56827793346E+01  0.36299234582E+02  0.00000000000E+00 0. -1.
</event>
<event>
 7    1  0.2000468E-015  0.9000758E+02  0.7816164E-02  0.1186339E+00
        -11   -1    0    0    0    0  0.00000000000E+00  0.00000000000E+00  0.45593999997E+02  0.45594000000E+02  0.51100000000E-03 0.  1.
         11   -1    0    0    0    0 -0.00000000000E+00 -0.00000000000E+00 -0.45593999997E+02  0.45594000000E+02  0.51100000000E-03 0. -1.
    9900012    2    1    2    0    0  0.82621168069E+00  0.28694238052E+00  0.79272837466E+00  0.90007584841E+02  0.89999844161E+02 0.  0.
         12    1    1    2    0    0 -0.82621168069E+00 -0.28694238052E+00 -0.79272837466E+00  0.11804151588E+01  0.00000000000E+00 0. -1.
         11    1    3    3    0    0 -0.34021602376E+02  0.12958749000E+02 -0.97968752224E+01  0.37701158712E+02  0.51100000000E-03 0. -1.
        -11    1    3    3    0    0 -0.27067917515E+01  0.78606223462E+01  0.47889373513E+00  0.83273912317E+01  0.51100000000E-03 0.  1.
        -12    1    3    3    0    0  0.37554605808E+02 -0.20532428965E+02  0.10110709862E+02  0.43979034897E+02  0.00000000000E+00 0.  1.
</event>
<event>
 7    1  0.2000468E-015  0.9000777E+02  0.7816164E-02  0.1186339E+00
        -11   -1    0    0    0    0  0.00000000000E+00  0.00000000000E+00  0.45593999997E+02  0.45594000000E+02  0.51100000000E-03 0.  1.
         11   -1    0    0    0    0 -0.00000000000E+00 -0.00000000000E+00 -0.45593999997E+02  0.45594000000E+02  0.51100000000E-03 0. -1.
    9900012    2    1    2    0    0 -0.40161496553E+00 -0.92195313809E+00  0.61777179847E+00  0.90007773681E+02  0.90000035493E+02 0.  0.
         12    1    1    2    0    0  0.40161496553E+00  0.92195313809E+00 -0.61777179847E+00  0.11802263191E+01  0.00000000000E+00 0. -1.
         11    1    3    3    0    0 -0.30212930469E+02 -0.38047131916E+01 -0.18214646907E+02  0.35483381634E+02  0.51100000000E-03 0. -1.
        -11    1    3    3    0    0 -0.69519412763E+01 -0.85753784676E+01 -0.12237308832E+01  0.11106940214E+02  0.51100000000E-03 0.  1.
        -12    1    3    3    0    0  0.36763256779E+02  0.11458138521E+02  0.20056149588E+02  0.43417451833E+02  0.00000000000E+00 0.  1.
</event>
<event>
 7    1  0.2000468E-015  0.9000770E+02  0.7816164E-02  0.1186339E+00
        -11   -1    0    0    0    0  0.00000000000E+00  0.00000000000E+00  0.45593999997E+02  0.45594000000E+02  0.51100000000E-03 0.  1.
         11   -1    0    0    0    0 -0.00000000000E+00 -0.00000000000E+00 -0.45593999997E+02  0.45594000000E+02  0.51100000000E-03 0. -1.
    9900012    2    1    2    0    0  0.23665996436E+00 -0.58526164861E+00  0.99727863969E+00  0.90007701808E+02  0.89999962672E+02 0.  0.
         12    1    1    2    0    0 -0.23665996436E+00  0.58526164861E+00 -0.99727863969E+00  0.11802981917E+01  0.00000000000E+00 0. -1.
         11    1    3    3    0    0  0.23637133684E+02 -0.22864429381E+02 -0.14615035972E+02  0.35987435258E+02  0.51100000000E-03 0. -1.
        -11    1    3    3    0    0  0.68559605281E+01 -0.13327942814E+01 -0.66564575161E+01  0.96482621380E+01  0.51100000000E-03 0.  1.
        -12    1    3    3    0    0 -0.30256434248E+02  0.23611962014E+02  0.22268772128E+02  0.44372004413E+02  0.00000000000E+00 0.  1.
</event>
<event>
 7    1  0.2000468E-015  0.9000778E+02  0.7816164E-02  0.1186339E+00
        -11   -1    0    0    0    0  0.00000000000E+00  0.00000000000E+00  0.45593999997E+02  0.45594000000E+02  0.51100000000E-03 0.  1.
         11   -1    0    0    0    0 -0.00000000000E+00 -0.00000000000E+00 -0.45593999997E+02  0.45594000000E+02  0.51100000000E-03 0. -1.
    9900012    2    1    2    0    0 -0.85948063884E+00 -0.14801212668E+00  0.79517466395E+00  0.90007780824E+02  0.90000042730E+02 0.  0.
         12    1    1    2    0    0  0.85948063884E+00  0.14801212668E+00 -0.79517466395E+00  0.11802191764E+01  0.00000000000E+00 0. -1.
         11    1    3    3    0    0 -0.71324551020E+01 -0.47060568849E+01 -0.47913834239E+01  0.97967465295E+01  0.51100000000E-03 0. -1.
        -11    1    3    3    0    0  0.39132644501E+01 -0.35404700922E+02  0.15690960084E+02  0.38923164243E+02  0.51100000000E-03 0.  1.
         12    1    3    3    0    0  0.23597100131E+01  0.39962745681E+02 -0.10104401996E+02  0.41287870051E+02  0.00000000000E+00 0. -1.
</event>
<event>
 7    1  0.2000468E-015  0.9000780E+02  0.7816164E-02  0.1186339E+00
        -11   -1    0    0    0    0  0.00000000000E+00  0.00000000000E+00  0.45593999997E+02  0.45594000000E+02  0.51100000000E-03 0.  1.
         11   -1    0    0    0    0 -0.00000000000E+00 -0.00000000000E+00 -0.45593999997E+02  0.45594000000E+02  0.51100000000E-03 0. -1.
    9900012    2    1    2    0    0 -0.95768501539E+00  0.65272825003E+00  0.22285469261E+00  0.90007797064E+02  0.90000059185E+02 0.  0.
         12    1    1    2    0    0  0.95768501539E+00 -0.65272825003E+00 -0.22285469261E+00  0.11802029364E+01  0.00000000000E+00 0. -1.
         11    1    3    3    0    0  0.15499483293E+02  0.21576045511E+02 -0.22868282135E+02  0.35053074763E+02  0.51100000000E-03 0. -1.
        -11    1    3    3    0    0  0.73445049938E+00  0.66016743834E+01 -0.77345744388E+01  0.10195350127E+02  0.51100000000E-03 0.  1.
        -12    1    3    3    0    0 -0.17191618808E+02 -0.27524991645E+02  0.30825711267E+02  0.44759372174E+02  0.00000000000E+00 0.  1.
</event>
<event>
 7    1  0.2000468E-015  0.9000777E+02  0.7816164E-02  0.1186339E+00
        -11   -1    0    0    0    0  0.00000000000E+00  0.00000000000E+00  0.45593999997E+02  0.45594000000E+02  0.51100000000E-03 0. -1.
         11   -1    0    0    0    0 -0.00000000000E+00 -0.00000000000E+00 -0.45593999997E+02  0.45594000000E+02  0.51100000000E-03 0.  1.
    9900012    2    1    2    0    0 -0.70971435160E-01  0.83170275162E+00 -0.83436706231E+00  0.90007773409E+02  0.90000035218E+02 0.  0.
         12    1    1    2    0    0  0.70971435160E-01 -0.83170275162E+00  0.83436706231E+00  0.11802265911E+01  0.00000000000E+00 0. -1.
         11    1    3    3    0    0 -0.26042264967E+02  0.26399693121E+01  0.31650209169E+02  0.41071945940E+02  0.51100000000E-03 0. -1.
        -11    1    3    3    0    0  0.73562393633E+01  0.32788283854E+01  0.29582597860E+01  0.85799926791E+01  0.51100000000E-03 0.  1.
        -12    1    3    3    0    0  0.18615054169E+02 -0.50870949458E+01 -0.35442836017E+02  0.40355834790E+02  0.00000000000E+00 0.  1.
</event>
<event>
 7    1  0.2000468E-015  0.9000766E+02  0.7816164E-02  0.1186339E+00
        -11   -1    0    0    0    0  0.00000000000E+00  0.00000000000E+00  0.45593999997E+02  0.45594000000E+02  0.51100000000E-03 0. -1.
         11   -1    0    0    0    0 -0.00000000000E+00 -0.00000000000E+00 -0.45593999997E+02  0.45594000000E+02  0.51100000000E-03 0.  1.
    9900012    2    1    2    0    0 -0.56063480384E+00  0.89449324730E+00 -0.52798419796E+00  0.90007662393E+02  0.89999922737E+02 0.  0.
         12    1    1    2    0    0  0.56063480384E+00 -0.89449324730E+00  0.52798419796E+00  0.11803376068E+01  0.00000000000E+00 0. -1.
         11    1    3    3    0    0  0.10115908544E+02  0.39902276982E-01  0.37225873489E+02  0.38575884373E+02  0.51100000000E-03 0. -1.
        -11    1    3    3    0    0 -0.47487223398E+01 -0.63479056198E+01  0.38372508711E+01  0.88074266462E+01  0.51100000000E-03 0.  1.
        -12    1    3    3    0    0 -0.59278210077E+01  0.72024965902E+01 -0.41591108558E+02  0.42624351375E+02  0.00000000000E+00 0.  1.
</event>
<event>
 7    1  0.2000468E-015  0.9000777E+02  0.7816164E-02  0.1186339E+00
        -11   -1    0    0    0    0  0.00000000000E+00  0.00000000000E+00  0.45593999997E+02  0.45594000000E+02  0.51100000000E-03 0.  1.
         11   -1    0    0    0    0 -0.00000000000E+00 -0.00000000000E+00 -0.45593999997E+02  0.45594000000E+02  0.51100000000E-03 0. -1.
    9900012    2    1    2    0    0 -0.73039172769E+00 -0.87958783176E+00 -0.29289339437E+00  0.90007774017E+02  0.90000035834E+02 0.  0.
         12    1    1    2    0    0  0.73039172769E+00  0.87958783176E+00  0.29289339437E+00  0.11802259826E+01  0.00000000000E+00 0. -1.
         11    1    3    3    0    0 -0.65638413249E+01  0.40235061294E+01 -0.12205046397E+01  0.77950141981E+01  0.51100000000E-03 0. -1.
        -11    1    3    3    0    0  0.21240213049E+02 -0.33217776936E+02  0.20563372969E+02  0.44468187090E+02  0.51100000000E-03 0.  1.
         12    1    3    3    0    0 -0.15406763452E+02  0.28314682975E+02 -0.19635761724E+02  0.37744572729E+02  0.00000000000E+00 0. -1.
</event>
<event>
 7    1  0.2000468E-015  0.9000775E+02  0.7816164E-02  0.1186339E+00
        -11   -1    0    0    0    0  0.00000000000E+00  0.00000000000E+00  0.45593999997E+02  0.45594000000E+02  0.51100000000E-03 0.  1.
         11   -1    0    0    0    0 -0.00000000000E+00 -0.00000000000E+00 -0.45593999997E+02  0.45594000000E+02  0.51100000000E-03 0. -1.
    9900012    2    1    2    0    0  0.11707523286E+01  0.14005875380E+00  0.52177362243E-01  0.90007745813E+02  0.90000007257E+02 0.  0.
         12    1    1    2    0    0 -0.11707523286E+01 -0.14005875380E+00 -0.52177362243E-01  0.11802541872E+01  0.00000000000E+00 0. -1.
         11    1    3    3    0    0  0.48195066483E+01 -0.76778018662E+01  0.29660738258E+01  0.95380228575E+01  0.51100000000E-03 0. -1.
        -11    1    3    3    0    0 -0.42654811034E+01  0.27854571451E+02  0.30486750518E+02  0.41515219344E+02  0.51100000000E-03 0.  1.
         12    1    3    3    0    0  0.61672678363E+00 -0.20036710831E+02 -0.33400646981E+02  0.38954503611E+02  0.00000000000E+00 0. -1.
</event>
<event>
 7    1  0.2000468E-015  0.9000775E+02  0.7816164E-02  0.1186339E+00
        -11   -1    0    0    0    0  0.00000000000E+00  0.00000000000E+00  0.45593999997E+02  0.45594000000E+02  0.51100000000E-03 0. -1.
         11   -1    0    0    0    0 -0.00000000000E+00 -0.00000000000E+00 -0.45593999997E+02  0.45594000000E+02  0.51100000000E-03 0.  1.
    9900012    2    1    2    0    0 -0.26275312355E-01  0.11368861121E+01  0.31588806804E+00  0.90007751850E+02  0.90000013374E+02 0.  0.
         12    1    1    2    0    0  0.26275312355E-01 -0.11368861121E+01 -0.31588806804E+00  0.11802481500E+01  0.00000000000E+00 0. -1.
         11    1    3    3    0    0 -0.30585617835E+01 -0.62770366103E+01 -0.48184497820E+01  0.84837166002E+01  0.51100000000E-03 0. -1.
        -11    1    3    3    0    0 -0.45751420051E+01 -0.27119656033E+02 -0.23380503895E+02  0.36097861853E+02  0.51100000000E-03 0.  1.
         12    1    3    3    0    0  0.76074284763E+01  0.34533578756E+02  0.28514841745E+02  0.45426173396E+02  0.00000000000E+00 0. -1.
</event>
<event>
 7    1  0.2000468E-015  0.9000769E+02  0.7816164E-02  0.1186339E+00
        -11   -1    0    0    0    0  0.00000000000E+00  0.00000000000E+00  0.45593999997E+02  0.45594000000E+02  0.51100000000E-03 0. -1.
         11   -1    0    0    0    0 -0.00000000000E+00 -0.00000000000E+00 -0.45593999997E+02  0.45594000000E+02  0.51100000000E-03 0.  1.
    9900012    2    1    2    0    0  0.99645617367E+00 -0.34265214475E+00  0.53178854947E+00  0.90007688829E+02  0.89999949522E+02 0.  0.
         12    1    1    2    0    0 -0.99645617367E+00  0.34265214475E+00 -0.53178854947E+00  0.11803111707E+01  0.00000000000E+00 0. -1.
         11    1    3    3    0    0 -0.35702885885E-02  0.34245315598E+02  0.10884370788E+02  0.35933427068E+02  0.51100000000E-03 0. -1.
        -11    1    3    3    0    0  0.45709496213E+01  0.62212653897E+01 -0.10593959032E+02  0.13108382499E+02  0.51100000000E-03 0.  1.
        -12    1    3    3    0    0 -0.35709231590E+01 -0.40809233132E+02  0.24137679364E+00  0.40965879263E+02  0.00000000000E+00 0.  1.
</event>
<event>
 7    1  0.2000468E-015  0.9000759E+02  0.7816164E-02  0.1186339E+00
        -11   -1    0    0    0    0  0.00000000000E+00  0.00000000000E+00  0.45593999997E+02  0.45594000000E+02  0.51100000000E-03 0.  1.
         11   -1    0    0    0    0 -0.00000000000E+00 -0.00000000000E+00 -0.45593999997E+02  0.45594000000E+02  0.51100000000E-03 0. -1.
    9900012    2    1    2    0    0  0.83796906903E+00  0.52752658032E+00  0.64255861914E+00  0.90007594124E+02  0.89999853566E+02 0.  0.
         12    1    1    2    0    0 -0.83796906903E+00 -0.52752658032E+00 -0.64255861914E+00  0.11804058762E+01  0.00000000000E+00 0. -1.
         11    1    3    3    0    0  0.64949093036E+01 -0.73056783303E+01  0.14297072128E+01  0.98793140300E+01  0.51100000000E-03 0. -1.
        -11    1    3    3    0    0  0.11021244963E+02 -0.32216883378E+02  0.98757153424E+01  0.35453140466E+02  0.51100000000E-03 0.  1.
         12    1    3    3    0    0 -0.16678185198E+02  0.40050088289E+02 -0.10662863936E+02  0.44675139628E+02  0.00000000000E+00 0. -1.
</event>
<event>
 7    1  0.2000468E-015  0.9000769E+02  0.7816164E-02  0.1186339E+00
        -11   -1    0    0    0    0  0.00000000000E+00  0.00000000000E+00  0.45593999997E+02  0.45594000000E+02  0.51100000000E-03 0. -1.
         11   -1    0    0    0    0 -0.00000000000E+00 -0.00000000000E+00 -0.45593999997E+02  0.45594000000E+02  0.51100000000E-03 0.  1.
    9900012    2    1    2    0    0 -0.73228380344E+00  0.32861755716E+00 -0.86539155772E+00  0.90007690034E+02  0.89999950742E+02 0.  0.
         12    1    1    2    0    0  0.73228380344E+00 -0.32861755716E+00  0.86539155772E+00  0.11803099660E+01  0.00000000000E+00 0. -1.
         11    1    3    3    0    0  0.26186458646E+02 -0.13203645489E+02  0.23988002778E+02  0.37887876004E+02  0.51100000000E-03 0. -1.
        -11    1    3    3    0    0 -0.26749959179E+01 -0.26189894499E+01  0.76229470583E+01  0.84925868269E+01  0.51100000000E-03 0.  1.
        -12    1    3    3    0    0 -0.24243746531E+02  0.16151252496E+02 -0.32476341394E+02  0.43627227203E+02  0.00000000000E+00 0.  1.
</event>
<event>
 7    1  0.2000468E-015  0.9000777E+02  0.7816164E-02  0.1186339E+00
        -11   -1    0    0    0    0  0.00000000000E+00  0.00000000000E+00  0.45593999997E+02  0.45594000000E+02  0.51100000000E-03 0. -1.
         11   -1    0    0    0    0 -0.00000000000E+00 -0.00000000000E+00 -0.45593999997E+02  0.45594000000E+02  0.51100000000E-03 0.  1.
    9900012    2    1    2    0    0 -0.10890481702E+01  0.44190286355E+00  0.10787604784E+00  0.90007770658E+02  0.90000032431E+02 0.  0.
         12    1    1    2    0    0  0.10890481702E+01 -0.44190286355E+00 -0.10787604784E+00  0.11802293419E+01  0.00000000000E+00 0. -1.
         11    1    3    3    0    0 -0.11727375083E+02  0.33290009268E+02 -0.75627425246E+01  0.36096414201E+02  0.51100000000E-03 0. -1.
        -11    1    3    3    0    0 -0.19763478076E+01  0.52103456825E+01 -0.89218081550E+01  0.10519140355E+02  0.51100000000E-03 0.  1.
        -12    1    3    3    0    0  0.12614674720E+02 -0.38058452087E+02  0.16592426728E+02  0.43392216102E+02  0.00000000000E+00 0.  1.
</event>
<event>
 7    1  0.2000468E-015  0.9000772E+02  0.7816164E-02  0.1186339E+00
        -11   -1    0    0    0    0  0.00000000000E+00  0.00000000000E+00  0.45593999997E+02  0.45594000000E+02  0.51100000000E-03 0.  1.
         11   -1    0    0    0    0 -0.00000000000E+00 -0.00000000000E+00 -0.45593999997E+02  0.45594000000E+02  0.51100000000E-03 0. -1.
    9900012    2    1    2    0    0 -0.92281746025E+00 -0.13086294290E+00  0.72411850058E+00  0.90007718348E+02  0.89999979430E+02 0.  0.
         12    1    1    2    0    0  0.92281746025E+00  0.13086294290E+00 -0.72411850058E+00  0.11802816518E+01  0.00000000000E+00 0. -1.
         11    1    3    3    0    0  0.66912092178E+01  0.76698610917E+01  0.56613271336E+01  0.11646874050E+02  0.51100000000E-03 0. -1.
        -11    1    3    3    0    0  0.36859075539E+01 -0.55146280809E+01  0.35601763192E+02  0.36214397413E+02  0.51100000000E-03 0.  1.
         12    1    3    3    0    0 -0.11299934232E+02 -0.22860959537E+01 -0.40538971825E+02  0.42146446885E+02  0.00000000000E+00 0. -1.
</event>
<event>
 7    1  0.2000468E-015  0.9000774E+02  0.7816164E-02  0.1186339E+00
        -11   -1    0    0    0    0  0.00000000000E+00  0.00000000000E+00  0.45593999997E+02  0.45594000000E+02  0.51100000000E-03 0. -1.
         11   -1    0    0    0    0 -0.00000000000E+00 -0.00000000000E+00 -0.45593999997E+02  0.45594000000E+02  0.51100000000E-03 0.  1.
    9900012    2    1    2    0    0  0.62656629295E-01  0.35730095277E+00 -0.11231337045E+01  0.90007737681E+02  0.89999999018E+02 0.  0.
         12    1    1    2    0    0 -0.62656629295E-01 -0.35730095277E+00  0.11231337045E+01  0.11802623192E+01  0.00000000000E+00 0. -1.
         11    1    3    3    0    0 -0.38447801913E+01 -0.19261691957E+01 -0.84907930761E+01  0.95176693477E+01  0.51100000000E-03 0. -1.
        -11    1    3    3    0    0  0.34426616139E+02  0.18730972661E+02 -0.11728599623E+02  0.40909672267E+02  0.51100000000E-03 0.  1.
         12    1    3    3    0    0 -0.30519179318E+02 -0.16447502513E+02  0.19096258995E+02  0.39580396066E+02  0.00000000000E+00 0. -1.
</event>
<event>
 7    1  0.2000468E-015  0.9000776E+02  0.7816164E-02  0.1186339E+00
        -11   -1    0    0    0    0  0.00000000000E+00  0.00000000000E+00  0.45593999997E+02  0.45594000000E+02  0.51100000000E-03 0. -1.
         11   -1    0    0    0    0 -0.00000000000E+00 -0.00000000000E+00 -0.45593999997E+02  0.45594000000E+02  0.51100000000E-03 0.  1.
    9900012    2    1    2    0    0 -0.94869413217E+00  0.40784829072E-01 -0.70091390771E+00  0.90007760929E+02  0.90000022573E+02 0.  0.
         12    1    1    2    0    0  0.94869413217E+00 -0.40784829072E-01  0.70091390771E+00  0.11802390710E+01  0.00000000000E+00 0. -1.
         11    1    3    3    0    0  0.16164923054E+01  0.88123157107E+01 -0.44958993558E+01  0.10024124243E+02  0.51100000000E-03 0. -1.
        -11    1    3    3    0    0  0.44735734935E+01  0.99677640086E+01 -0.34817119855E+02  0.36491108704E+02  0.51100000000E-03 0.  1.
         12    1    3    3    0    0 -0.70387599311E+01 -0.18739294890E+02  0.38612105303E+02  0.43492527983E+02  0.00000000000E+00 0. -1.
</event>
<event>
 7    1  0.2000468E-015  0.9000773E+02  0.7816164E-02  0.1186339E+00
        -11   -1    0    0    0    0  0.00000000000E+00  0.00000000000E+00  0.45593999997E+02  0.45594000000E+02  0.51100000000E-03 0. -1.
         11   -1    0    0    0    0 -0.00000000000E+00 -0.00000000000E+00 -0.45593999997E+02  0.45594000000E+02  0.51100000000E-03 0.  1.
    9900012    2    1    2    0    0  0.26759836456E+00  0.94709830958E+00  0.65147700946E+00  0.90007734612E+02  0.89999995909E+02 0.  0.
         12    1    1    2    0    0 -0.26759836456E+00 -0.94709830958E+00 -0.65147700946E+00  0.11802653882E+01  0.00000000000E+00 0. -1.
         11    1    3    3    0    0 -0.59591256850E+01  0.74336647427E+01 -0.39999098475E+01  0.10332948731E+02  0.51100000000E-03 0. -1.
        -11    1    3    3    0    0 -0.12034512931E+02  0.16509112024E+02 -0.28706139889E+02  0.35233829609E+02  0.51100000000E-03 0.  1.
         12    1    3    3    0    0  0.18261236981E+02 -0.22995678457E+02  0.33357526746E+02  0.44440956272E+02  0.00000000000E+00 0. -1.
</event>
<event>
 7    1  0.2000468E-015  0.9000774E+02  0.7816164E-02  0.1186339E+00
        -11   -1    0    0    0    0  0.00000000000E+00  0.00000000000E+00  0.45593999997E+02  0.45594000000E+02  0.51100000000E-03 0.  1.
         11   -1    0    0    0    0 -0.00000000000E+00 -0.00000000000E+00 -0.45593999997E+02  0.45594000000E+02  0.51100000000E-03 0. -1.
    9900012    2    1    2    0    0  0.76458325733E+00 -0.59027229788E+00 -0.67823052141E+00  0.90007743425E+02  0.90000004838E+02 0.  0.
         12    1    1    2    0    0 -0.76458325733E+00  0.59027229788E+00  0.67823052141E+00  0.11802565752E+01  0.00000000000E+00 0. -1.
         11    1    3    3    0    0  0.29497093246E+01  0.67794851665E+01  0.54945206983E+01  0.92115124810E+01  0.51100000000E-03 0. -1.
        -11    1    3    3    0    0 -0.19604391631E+02  0.23567287389E+02  0.20074773166E+02  0.36643494976E+02  0.51100000000E-03 0.  1.
         12    1    3    3    0    0  0.17419265563E+02 -0.30937044854E+02 -0.26247524386E+02  0.44152735968E+02  0.00000000000E+00 0. -1.
</event>
<event>
 7    1  0.2000468E-015  0.9000777E+02  0.7816164E-02  0.1186339E+00
        -11   -1    0    0    0    0  0.00000000000E+00  0.00000000000E+00  0.45593999997E+02  0.45594000000E+02  0.51100000000E-03 0.  1.
         11   -1    0    0    0    0 -0.00000000000E+00 -0.00000000000E+00 -0.45593999997E+02  0.45594000000E+02  0.51100000000E-03 0. -1.
    9900012    2    1    2    0    0  0.54979591135E+00  0.66282404321E+00  0.80705215086E+00  0.90007769332E+02  0.90000031087E+02 0.  0.
         12    1    1    2    0    0 -0.54979591135E+00 -0.66282404321E+00 -0.80705215086E+00  0.11802306684E+01  0.00000000000E+00 0. -1.
         11    1    3    3    0    0 -0.26333187730E+01  0.85539506434E+01  0.45620040790E+01  0.10045711565E+02  0.51100000000E-03 0. -1.
        -11    1    3    3    0    0 -0.28135049683E+02 -0.42757524389E+01  0.24557336171E+02  0.37588905806E+02  0.51100000000E-03 0.  1.
         12    1    3    3    0    0  0.31318164367E+02 -0.36153741613E+01 -0.28312288100E+02  0.42373151961E+02  0.00000000000E+00 0. -1.
</event>
<event>
 7    1  0.2000468E-015  0.9000768E+02  0.7816164E-02  0.1186339E+00
        -11   -1    0    0    0    0  0.00000000000E+00  0.00000000000E+00  0.45593999997E+02  0.45594000000E+02  0.51100000000E-03 0. -1.
         11   -1    0    0    0    0 -0.00000000000E+00 -0.00000000000E+00 -0.45593999997E+02  0.45594000000E+02  0.51100000000E-03 0.  1.
    9900012    2    1    2    0    0  0.87408450994E-02  0.36679369592E-01 -0.11797160369E+01  0.90007681523E+02  0.89999942119E+02 0.  0.
         12    1    1    2    0    0 -0.87408450994E-02 -0.36679369592E-01  0.11797160369E+01  0.11803184766E+01  0.00000000000E+00 0. -1.
         11    1    3    3    0    0  0.24003732858E+01  0.61878014323E+00 -0.10303693314E+02  0.10597677903E+02  0.51100000000E-03 0. -1.
        -11    1    3    3    0    0  0.21851729813E+02  0.28852257130E+02 -0.88406289655E+01  0.37257315497E+02  0.51100000000E-03 0.  1.
         12    1    3    3    0    0 -0.24243362254E+02 -0.29434357903E+02  0.17964606242E+02  0.42152688123E+02  0.00000000000E+00 0. -1.
</event>
<event>
 7    1  0.2000468E-015  0.9000715E+02  0.7816164E-02  0.1186340E+00
        -11   -1    0    0    0    0  0.00000000000E+00  0.00000000000E+00  0.45593999997E+02  0.45594000000E+02  0.51100000000E-03 0.  1.
         11   -1    0    0    0    0 -0.00000000000E+00 -0.00000000000E+00 -0.45593999997E+02  0.45594000000E+02  0.51100000000E-03 0. -1.
    9900012    2    1    2    0    0  0.11675468997E+01 -0.12141144854E+00 -0.12846173170E+00  0.90007149070E+02  0.89999402636E+02 0.  0.
         12    1    1    2    0    0 -0.11675468997E+01  0.12141144854E+00  0.12846173170E+00  0.11808509302E+01  0.00000000000E+00 0. -1.
         11    1    3    3    0    0 -0.21522652329E+02 -0.20607282275E+02 -0.25377991434E+02  0.39139840259E+02  0.51100000000E-03 0. -1.
        -11    1    3    3    0    0 -0.77707095293E+01  0.66088248611E+00  0.39563253252E+01  0.87448958021E+01  0.51100000000E-03 0.  1.
        -12    1    3    3    0    0  0.30460908758E+02  0.19824988340E+02  0.21293204377E+02  0.42122413009E+02  0.00000000000E+00 0.  1.
</event>
<event>
 7    1  0.2000468E-015  0.9000775E+02  0.7816164E-02  0.1186339E+00
        -11   -1    0    0    0    0  0.00000000000E+00  0.00000000000E+00  0.45593999997E+02  0.45594000000E+02  0.51100000000E-03 0. -1.
         11   -1    0    0    0    0 -0.00000000000E+00 -0.00000000000E+00 -0.45593999997E+02  0.45594000000E+02  0.51100000000E-03 0.  1.
    9900012    2    1    2    0    0  0.80826873417E+00 -0.83571864437E+00  0.20314061185E+00  0.90007749981E+02  0.90000011481E+02 0.  0.
         12    1    1    2    0    0 -0.80826873417E+00  0.83571864437E+00 -0.20314061185E+00  0.11802500190E+01  0.00000000000E+00 0. -1.
         11    1    3    3    0    0  0.17234954779E+02  0.99575472699E+01  0.34164643407E+02  0.39540097032E+02  0.51100000000E-03 0. -1.
        -11    1    3    3    0    0 -0.58297544756E+01  0.83132614830E+01 -0.81730444680E-01  0.10153966410E+02  0.51100000000E-03 0.  1.
        -12    1    3    3    0    0 -0.10596931569E+02 -0.19106527397E+02 -0.33879772351E+02  0.40313686539E+02  0.00000000000E+00 0.  1.
</event>
<event>
 7    1  0.2000468E-015  0.9000725E+02  0.7816164E-02  0.1186340E+00
        -11   -1    0    0    0    0  0.00000000000E+00  0.00000000000E+00  0.45593999997E+02  0.45594000000E+02  0.51100000000E-03 0. -1.
         11   -1    0    0    0    0 -0.00000000000E+00 -0.00000000000E+00 -0.45593999997E+02  0.45594000000E+02  0.51100000000E-03 0.  1.
    9900012    2    1    2    0    0  0.58027850615E+00 -0.63619928877E+00 -0.80789468729E+00  0.90007251718E+02  0.89999506639E+02 0.  0.
         12    1    1    2    0    0 -0.58027850615E+00  0.63619928877E+00  0.80789468729E+00  0.11807482820E+01  0.00000000000E+00 0. -1.
         11    1    3    3    0    0 -0.13773478744E+01  0.39450365078E+01  0.97260214673E+01  0.10585645661E+02  0.51100000000E-03 0. -1.
        -11    1    3    3    0    0 -0.35222204043E+02  0.55287052354E+01  0.81916223571E+01  0.36582412664E+02  0.51100000000E-03 0.  1.
         12    1    3    3    0    0  0.37179830424E+02 -0.10109941032E+02 -0.18725538512E+02  0.42839193393E+02  0.00000000000E+00 0. -1.
</event>
<event>
 7    1  0.2000468E-015  0.9000777E+02  0.7816164E-02  0.1186339E+00
        -11   -1    0    0    0    0  0.00000000000E+00  0.00000000000E+00  0.45593999997E+02  0.45594000000E+02  0.51100000000E-03 0.  1.
         11   -1    0    0    0    0 -0.00000000000E+00 -0.00000000000E+00 -0.45593999997E+02  0.45594000000E+02  0.51100000000E-03 0. -1.
    9900012    2    1    2    0    0  0.63942429982E+00 -0.89146447115E+00 -0.43516332079E+00  0.90007771440E+02  0.90000033223E+02 0.  0.
         12    1    1    2    0    0 -0.63942429982E+00  0.89146447115E+00  0.43516332079E+00  0.11802285602E+01  0.00000000000E+00 0. -1.
         11    1    3    3    0    0 -0.28503815193E+02 -0.15854826752E+02 -0.21545726818E+02  0.39090425379E+02  0.51100000000E-03 0. -1.
        -11    1    3    3    0    0  0.42344268408E+01 -0.56866470403E+01 -0.55412028290E+01  0.89985140042E+01  0.51100000000E-03 0.  1.
        -12    1    3    3    0    0  0.24908812652E+02  0.20650009321E+02  0.26651766327E+02  0.41918832057E+02  0.00000000000E+00 0.  1.
</event>
<event>
 7    1  0.2000468E-015  0.9000774E+02  0.7816164E-02  0.1186339E+00
        -11   -1    0    0    0    0  0.00000000000E+00  0.00000000000E+00  0.45593999997E+02  0.45594000000E+02  0.51100000000E-03 0.  1.
         11   -1    0    0    0    0 -0.00000000000E+00 -0.00000000000E+00 -0.45593999997E+02  0.45594000000E+02  0.51100000000E-03 0. -1.
    9900012    2    1    2    0    0 -0.47533666706E+00  0.49699234515E+00  0.95920681279E+00  0.90007735603E+02  0.89999996913E+02 0.  0.
         12    1    1    2    0    0  0.47533666706E+00 -0.49699234515E+00 -0.95920681279E+00  0.11802643975E+01  0.00000000000E+00 0. -1.
         11    1    3    3    0    0  0.33223616844E+02  0.11026144797E+02 -0.70698421329E+01  0.35712284348E+02  0.51100000000E-03 0. -1.
        -11    1    3    3    0    0  0.48550349407E+01 -0.93364628110E+00 -0.96242926012E+01  0.10819892236E+02  0.51100000000E-03 0.  1.
        -12    1    3    3    0    0 -0.38553988452E+02 -0.95955061704E+01  0.17653341547E+02  0.43475559019E+02  0.00000000000E+00 0.  1.
</event>
<event>
 7    1  0.2000468E-015  0.9000782E+02  0.7816164E-02  0.1186339E+00
        -11   -1    0    0    0    0  0.00000000000E+00  0.00000000000E+00  0.45593999997E+02  0.45594000000E+02  0.51100000000E-03 0. -1.
         11   -1    0    0    0    0 -0.00000000000E+00 -0.00000000000E+00 -0.45593999997E+02  0.45594000000E+02  0.51100000000E-03 0.  1.
    9900012    2    1    2    0    0 -0.99587258754E+00 -0.62565314288E+00 -0.98095723956E-01  0.90007819151E+02  0.90000081564E+02 0.  0.
         12    1    1    2    0    0  0.99587258754E+00  0.62565314288E+00  0.98095723956E-01  0.11801808492E+01  0.00000000000E+00 0. -1.
         11    1    3    3    0    0  0.42583188728E+00 -0.12847379750E+02  0.40288816870E+01  0.13471020272E+02  0.51100000000E-03 0. -1.
        -11    1    3    3    0    0 -0.34365504208E+02 -0.10143173980E+02  0.34757997647E+01  0.35999347801E+02  0.51100000000E-03 0.  1.
         12    1    3    3    0    0  0.32943799733E+02  0.22364900588E+02 -0.76027771756E+01  0.40537451078E+02  0.00000000000E+00 0. -1.
</event>
<event>
 7    1  0.2000468E-015  0.9000770E+02  0.7816164E-02  0.1186339E+00
        -11   -1    0    0    0    0  0.00000000000E+00  0.00000000000E+00  0.45593999997E+02  0.45594000000E+02  0.51100000000E-03 0.  1.
         11   -1    0    0    0    0 -0.00000000000E+00 -0.00000000000E+00 -0.45593999997E+02  0.45594000000E+02  0.51100000000E-03 0. -1.
    9900012    2    1    2    0    0 -0.12975392837E+00 -0.46613480289E-01  0.11722176352E+01  0.90007702121E+02  0.89999962989E+02 0.  0.
         12    1    1    2    0    0  0.12975392837E+00  0.46613480289E-01 -0.11722176352E+01  0.11802978789E+01  0.00000000000E+00 0. -1.
         11    1    3    3    0    0  0.86762785928E+01  0.32843371788E+01  0.21355088204E+01  0.95197205372E+01  0.51100000000E-03 0. -1.
        -11    1    3    3    0    0  0.29647047813E+02 -0.22647594496E+02  0.19389299828E+01  0.37358003563E+02  0.51100000000E-03 0.  1.
         12    1    3    3    0    0 -0.38453080334E+02  0.19316643837E+02 -0.29022211680E+01  0.43129978020E+02  0.00000000000E+00 0. -1.
</event>
<event>
 7    1  0.2000468E-015  0.9000776E+02  0.7816164E-02  0.1186339E+00
        -11   -1    0    0    0    0  0.00000000000E+00  0.00000000000E+00  0.45593999997E+02  0.45594000000E+02  0.51100000000E-03 0.  1.
         11   -1    0    0    0    0 -0.00000000000E+00 -0.00000000000E+00 -0.45593999997E+02  0.45594000000E+02  0.51100000000E-03 0. -1.
    9900012    2    1    2    0    0 -0.10576219824E+01  0.52288368630E+00 -0.31719435363E-01  0.90007755225E+02  0.90000016794E+02 0.  0.
         12    1    1    2    0    0  0.10576219824E+01 -0.52288368630E+00  0.31719435363E-01  0.11802447753E+01  0.00000000000E+00 0. -1.
         11    1    3    3    0    0  0.29382697070E+01  0.26350043298E+02 -0.26384555968E+02  0.37404585341E+02  0.51100000000E-03 0. -1.
        -11    1    3    3    0    0 -0.51302705740E+01  0.83678029104E+01  0.69955470426E+00  0.98401818456E+01  0.51100000000E-03 0.  1.
        -12    1    3    3    0    0  0.11343788846E+01 -0.34194962522E+02  0.25653281829E+02  0.42762988038E+02  0.00000000000E+00 0.  1.
</event>
<event>
 7    1  0.2000468E-015  0.9000751E+02  0.7816164E-02  0.1186340E+00
        -11   -1    0    0    0    0  0.00000000000E+00  0.00000000000E+00  0.45593999997E+02  0.45594000000E+02  0.51100000000E-03 0.  1.
         11   -1    0    0    0    0 -0.00000000000E+00 -0.00000000000E+00 -0.45593999997E+02  0.45594000000E+02  0.51100000000E-03 0. -1.
    9900012    2    1    2    0    0  0.35483327927E+00  0.11176978627E+01 -0.13564083283E+00  0.90007511286E+02  0.89999769635E+02 0.  0.
         12    1    1    2    0    0 -0.35483327927E+00 -0.11176978627E+01  0.13564083283E+00  0.11804887140E+01  0.00000000000E+00 0. -1.
         11    1    3    3    0    0 -0.28840134816E+02 -0.39642739783E+01 -0.18871799435E+02  0.34693135611E+02  0.51100000000E-03 0. -1.
        -11    1    3    3    0    0 -0.97048695440E+01  0.48679959930E+01 -0.22883957545E+01  0.11095883617E+02  0.51100000000E-03 0.  1.
        -12    1    3    3    0    0  0.38899837639E+02  0.21397584793E+00  0.21024554356E+02  0.44218492058E+02  0.00000000000E+00 0.  1.
</event>
<event>
 7    1  0.2000468E-015  0.9000740E+02  0.7816164E-02  0.1186340E+00
        -11   -1    0    0    0    0  0.00000000000E+00  0.00000000000E+00  0.45593999997E+02  0.45594000000E+02  0.51100000000E-03 0. -1.
         11   -1    0    0    0    0 -0.00000000000E+00 -0.00000000000E+00 -0.45593999997E+02  0.45594000000E+02  0.51100000000E-03 0.  1.
    9900012    2    1    2    0    0 -0.82724745252E+00  0.78619324459E+00  0.30228872961E+00  0.90007399881E+02  0.89999656759E+02 0.  0.
         12    1    1    2    0    0  0.82724745252E+00 -0.78619324459E+00 -0.30228872961E+00  0.11806001193E+01  0.00000000000E+00 0. -1.
         11    1    3    3    0    0 -0.18195330991E+02 -0.31117431468E+02  0.10069897640E+02  0.37426827942E+02  0.51100000000E-03 0. -1.
        -11    1    3    3    0    0 -0.29880478822E+01 -0.67701884900E+01  0.12601137162E+01  0.75067815457E+01  0.51100000000E-03 0.  1.
        -12    1    3    3    0    0  0.20356131421E+02  0.38673813203E+02 -0.11027722627E+02  0.45073790393E+02  0.00000000000E+00 0.  1.
</event>
<event>
 7    1  0.2000468E-015  0.9000715E+02  0.7816164E-02  0.1186340E+00
        -11   -1    0    0    0    0  0.00000000000E+00  0.00000000000E+00  0.45593999997E+02  0.45594000000E+02  0.51100000000E-03 0.  1.
         11   -1    0    0    0    0 -0.00000000000E+00 -0.00000000000E+00 -0.45593999997E+02  0.45594000000E+02  0.51100000000E-03 0. -1.
    9900012    2    1    2    0    0  0.16124258865E+00  0.10041918154E+01  0.60000932862E+00  0.90007147948E+02  0.89999401499E+02 0.  0.
         12    1    1    2    0    0 -0.16124258865E+00 -0.10041918154E+01 -0.60000932862E+00  0.11808520521E+01  0.00000000000E+00 0. -1.
         11    1    3    3    0    0  0.78809939370E+00 -0.74949676343E+01 -0.28182861182E+00  0.75415560809E+01  0.51100000000E-03 0. -1.
        -11    1    3    3    0    0 -0.32693143247E+02  0.11148831708E+02  0.24673659452E+02  0.42449117009E+02  0.51100000000E-03 0.  1.
         12    1    3    3    0    0  0.32066286442E+02 -0.26496722583E+01 -0.23791821512E+02  0.40016474858E+02  0.00000000000E+00 0. -1.
</event>
<event>
 7    1  0.2000468E-015  0.9000770E+02  0.7816164E-02  0.1186339E+00
        -11   -1    0    0    0    0  0.00000000000E+00  0.00000000000E+00  0.45593999997E+02  0.45594000000E+02  0.51100000000E-03 0.  1.
         11   -1    0    0    0    0 -0.00000000000E+00 -0.00000000000E+00 -0.45593999997E+02  0.45594000000E+02  0.51100000000E-03 0. -1.
    9900012    2    1    2    0    0 -0.40789525232E-01 -0.97668491394E+00  0.66146214652E+00  0.90007699454E+02  0.89999960287E+02 0.  0.
         12    1    1    2    0    0  0.40789525232E-01  0.97668491394E+00 -0.66146214652E+00  0.11803005455E+01  0.00000000000E+00 0. -1.
         11    1    3    3    0    0 -0.28506767397E+02 -0.10264906178E+02 -0.21148484893E+02  0.36949458721E+02  0.51100000000E-03 0. -1.
        -11    1    3    3    0    0 -0.17070382518E+01 -0.60267422121E+01 -0.64361159425E+01  0.89810461512E+01  0.51100000000E-03 0.  1.
        -12    1    3    3    0    0  0.30173016123E+02  0.15314963476E+02  0.28246062982E+02  0.44077194582E+02  0.00000000000E+00 0.  1.
</event>
<event>
 7    1  0.2000468E-015  0.9000778E+02  0.7816164E-02  0.1186339E+00
        -11   -1    0    0    0    0  0.00000000000E+00  0.00000000000E+00  0.45593999997E+02  0.45594000000E+02  0.51100000000E-03 0. -1.
         11   -1    0    0    0    0 -0.00000000000E+00 -0.00000000000E+00 -0.45593999997E+02  0.45594000000E+02  0.51100000000E-03 0.  1.
    9900012    2    1    2    0    0 -0.10796198762E+01  0.38194751285E+00 -0.28539568658E+00  0.90007782360E+02  0.90000044287E+02 0.  0.
         12    1    1    2    0    0  0.10796198762E+01 -0.38194751285E+00  0.28539568658E+00  0.11802176399E+01  0.00000000000E+00 0. -1.
         11    1    3    3    0    0 -0.88647065886E+01 -0.35007339822E+01 -0.37695127889E+01  0.10249262815E+02  0.51100000000E-03 0. -1.
        -11    1    3    3    0    0 -0.27783687005E+02  0.18712187574E+02  0.18657022176E+02  0.38342713834E+02  0.51100000000E-03 0.  1.
         12    1    3    3    0    0  0.35568773718E+02 -0.14829506079E+02 -0.15172905074E+02  0.41415805711E+02  0.00000000000E+00 0. -1.
</event>
<event>
 7    1  0.2000468E-015  0.9000774E+02  0.7816164E-02  0.1186339E+00
        -11   -1    0    0    0    0  0.00000000000E+00  0.00000000000E+00  0.45593999997E+02  0.45594000000E+02  0.51100000000E-03 0. -1.
         11   -1    0    0    0    0 -0.00000000000E+00 -0.00000000000E+00 -0.45593999997E+02  0.45594000000E+02  0.51100000000E-03 0.  1.
    9900012    2    1    2    0    0 -0.10793064635E+01 -0.39601217009E+00  0.26699494572E+00  0.90007739697E+02  0.90000001061E+02 0.  0.
         12    1    1    2    0    0  0.10793064635E+01  0.39601217009E+00 -0.26699494572E+00  0.11802603027E+01  0.00000000000E+00 0. -1.
         11    1    3    3    0    0 -0.83361799271E+01 -0.29726120796E+00 -0.52366383805E+01  0.98489919176E+01  0.51100000000E-03 0. -1.
        -11    1    3    3    0    0 -0.34385722534E+02  0.10458833801E+02 -0.39907825620E+01  0.36162016873E+02  0.51100000000E-03 0.  1.
         12    1    3    3    0    0  0.41642595997E+02 -0.10557584763E+02  0.94944158882E+01  0.43996730907E+02  0.00000000000E+00 0. -1.
</event>
<event>
 7    1  0.2000468E-015  0.9000773E+02  0.7816164E-02  0.1186339E+00
        -11   -1    0    0    0    0  0.00000000000E+00  0.00000000000E+00  0.45593999997E+02  0.45594000000E+02  0.51100000000E-03 0.  1.
         11   -1    0    0    0    0 -0.00000000000E+00 -0.00000000000E+00 -0.45593999997E+02  0.45594000000E+02  0.51100000000E-03 0. -1.
    9900012    2    1    2    0    0 -0.10787528210E+01 -0.35765374873E+00  0.31845062091E+00  0.90007731111E+02  0.89999992361E+02 0.  0.
         12    1    1    2    0    0  0.10787528210E+01  0.35765374873E+00 -0.31845062091E+00  0.11802688892E+01  0.00000000000E+00 0. -1.
         11    1    3    3    0    0  0.34139987088E+02  0.14153426987E+01 -0.19307918682E+02  0.39247135404E+02  0.51100000000E-03 0. -1.
        -11    1    3    3    0    0  0.36975279861E+01 -0.56574123143E+01  0.68350925913E+01  0.96123107677E+01  0.51100000000E-03 0.  1.
        -12    1    3    3    0    0 -0.38916267895E+02  0.38844158668E+01  0.12791276712E+02  0.41148284939E+02  0.00000000000E+00 0.  1.
</event>
<event>
 7    1  0.2000468E-015  0.9000778E+02  0.7816164E-02  0.1186339E+00
        -11   -1    0    0    0    0  0.00000000000E+00  0.00000000000E+00  0.45593999997E+02  0.45594000000E+02  0.51100000000E-03 0. -1.
         11   -1    0    0    0    0 -0.00000000000E+00 -0.00000000000E+00 -0.45593999997E+02  0.45594000000E+02  0.51100000000E-03 0.  1.
    9900012    2    1    2    0    0 -0.87255208265E+00 -0.64868518224E+00 -0.45910901256E+00  0.90007779390E+02  0.90000041278E+02 0.  0.
         12    1    1    2    0    0  0.87255208265E+00  0.64868518224E+00  0.45910901256E+00  0.11802206099E+01  0.00000000000E+00 0. -1.
         11    1    3    3    0    0  0.74086518294E+01 -0.37751732931E+02 -0.16016208532E+02  0.41672537687E+02  0.51100000000E-03 0. -1.
        -11    1    3    3    0    0 -0.48020748259E+00  0.61176539334E+01 -0.69351690753E+01  0.92602839719E+01  0.51100000000E-03 0.  1.
        -12    1    3    3    0    0 -0.78009964294E+01  0.30985393816E+02  0.22492268594E+02  0.39074957732E+02  0.00000000000E+00 0.  1.
</event>
<event>
 7    1  0.2000468E-015  0.9000773E+02  0.7816164E-02  0.1186339E+00
        -11   -1    0    0    0    0  0.00000000000E+00  0.00000000000E+00  0.45593999997E+02  0.45594000000E+02  0.51100000000E-03 0. -1.
         11   -1    0    0    0    0 -0.00000000000E+00 -0.00000000000E+00 -0.45593999997E+02  0.45594000000E+02  0.51100000000E-03 0.  1.
    9900012    2    1    2    0    0  0.15306433127E+00 -0.79448860052E+00 -0.85930466767E+00  0.90007726583E+02  0.89999987774E+02 0.  0.
         12    1    1    2    0    0 -0.15306433127E+00  0.79448860052E+00  0.85930466767E+00  0.11802734165E+01  0.00000000000E+00 0. -1.
         11    1    3    3    0    0  0.21374601769E+02  0.15989364241E+02  0.32535397080E+02  0.42084265861E+02  0.51100000000E-03 0. -1.
        -11    1    3    3    0    0  0.40279612472E+01 -0.72909380566E+00 -0.65551465582E+01  0.77282595872E+01  0.51100000000E-03 0.  1.
        -12    1    3    3    0    0 -0.25249498685E+02 -0.16054759036E+02 -0.26839555190E+02  0.40195201135E+02  0.00000000000E+00 0.  1.
</event>
<event>
 7    1  0.2000468E-015  0.9000768E+02  0.7816164E-02  0.1186339E+00
        -11   -1    0    0    0    0  0.00000000000E+00  0.00000000000E+00  0.45593999997E+02  0.45594000000E+02  0.51100000000E-03 0.  1.
         11   -1    0    0    0    0 -0.00000000000E+00 -0.00000000000E+00 -0.45593999997E+02  0.45594000000E+02  0.51100000000E-03 0. -1.
    9900012    2    1    2    0    0  0.36870062094E+00  0.11197265459E+01  0.58630529321E-01  0.90007675797E+02  0.89999936317E+02 0.  0.
         12    1    1    2    0    0 -0.36870062094E+00 -0.11197265459E+01 -0.58630529321E-01  0.11803242031E+01  0.00000000000E+00 0. -1.
         11    1    3    3    0    0  0.33594152348E+02  0.81863057581E+01  0.42883534269E+01  0.34842110288E+02  0.51100000000E-03 0. -1.
        -11    1    3    3    0    0  0.74507556763E+01  0.62112669555E+00  0.90057815433E+01  0.11704856257E+02  0.51100000000E-03 0.  1.
        -12    1    3    3    0    0 -0.40676207404E+02 -0.76877059078E+01 -0.13235504441E+02  0.43460709252E+02  0.00000000000E+00 0.  1.
</event>
<event>
 7    1  0.2000468E-015  0.9000768E+02  0.7816164E-02  0.1186339E+00
        -11   -1    0    0    0    0  0.00000000000E+00  0.00000000000E+00  0.45593999997E+02  0.45594000000E+02  0.51100000000E-03 0. -1.
         11   -1    0    0    0    0 -0.00000000000E+00 -0.00000000000E+00 -0.45593999997E+02  0.45594000000E+02  0.51100000000E-03 0.  1.
    9900012    2    1    2    0    0 -0.87192805308E+00 -0.78521123662E+00  0.12783055652E+00  0.90007679761E+02  0.89999940334E+02 0.  0.
         12    1    1    2    0    0  0.87192805308E+00  0.78521123662E+00 -0.12783055652E+00  0.11803202392E+01  0.00000000000E+00 0. -1.
         11    1    3    3    0    0  0.67203882239E+01  0.26023194714E+01 -0.53002955317E+01  0.89458827120E+01  0.51100000000E-03 0. -1.
        -11    1    3    3    0    0  0.17481292415E+02 -0.27050982362E+02 -0.20275139543E+02  0.38058277877E+02  0.51100000000E-03 0.  1.
         12    1    3    3    0    0 -0.25073608692E+02  0.23663451654E+02  0.25703265631E+02  0.43003519171E+02  0.00000000000E+00 0. -1.
</event>
<event>
 7    1  0.2000468E-015  0.9000741E+02  0.7816164E-02  0.1186340E+00
        -11   -1    0    0    0    0  0.00000000000E+00  0.00000000000E+00  0.45593999997E+02  0.45594000000E+02  0.51100000000E-03 0.  1.
         11   -1    0    0    0    0 -0.00000000000E+00 -0.00000000000E+00 -0.45593999997E+02  0.45594000000E+02  0.51100000000E-03 0. -1.
    9900012    2    1    2    0    0  0.10216310511E+01 -0.53274575433E+00  0.25736263196E+00  0.90007413888E+02  0.89999670951E+02 0.  0.
         12    1    1    2    0    0 -0.10216310511E+01  0.53274575433E+00 -0.25736263196E+00  0.11805861119E+01  0.00000000000E+00 0. -1.
         11    1    3    3    0    0 -0.24908622531E+02 -0.30144189550E+02  0.11143224700E+01  0.39119731017E+02  0.51100000000E-03 0. -1.
        -11    1    3    3    0    0 -0.72714578745E+01  0.35322181331E+01  0.26893514458E+01  0.85195819159E+01  0.51100000000E-03 0.  1.
        -12    1    3    3    0    0  0.33201711456E+02  0.26079225663E+02 -0.35463112839E+01  0.42368100955E+02  0.00000000000E+00 0.  1.
</event>
<event>
 7    1  0.2000468E-015  0.9000767E+02  0.7816164E-02  0.1186339E+00
        -11   -1    0    0    0    0  0.00000000000E+00  0.00000000000E+00  0.45593999997E+02  0.45594000000E+02  0.51100000000E-03 0.  1.
         11   -1    0    0    0    0 -0.00000000000E+00 -0.00000000000E+00 -0.45593999997E+02  0.45594000000E+02  0.51100000000E-03 0. -1.
    9900012    2    1    2    0    0  0.82062396623E+00  0.92118955485E-01 -0.84337442193E+00  0.90007665297E+02  0.89999925679E+02 0.  0.
         12    1    1    2    0    0 -0.82062396623E+00 -0.92118955485E-01  0.84337442193E+00  0.11803347032E+01  0.00000000000E+00 0. -1.
         11    1    3    3    0    0 -0.33398485457E-01 -0.93432165310E+01  0.52893128196E+01  0.10736556290E+02  0.51100000000E-03 0. -1.
        -11    1    3    3    0    0 -0.85621019033E+01 -0.33120128758E+02  0.42353339271E+01  0.34470140291E+02  0.51100000000E-03 0.  1.
         12    1    3    3    0    0  0.94161243550E+01  0.42555464244E+02 -0.10368021169E+02  0.44800968716E+02  0.00000000000E+00 0. -1.
</event>
<event>
 7    1  0.2000468E-015  0.9000771E+02  0.7816164E-02  0.1186339E+00
        -11   -1    0    0    0    0  0.00000000000E+00  0.00000000000E+00  0.45593999997E+02  0.45594000000E+02  0.51100000000E-03 0.  1.
         11   -1    0    0    0    0 -0.00000000000E+00 -0.00000000000E+00 -0.45593999997E+02  0.45594000000E+02  0.51100000000E-03 0. -1.
    9900012    2    1    2    0    0 -0.69623277472E-01 -0.66151740341E+00  0.97499902551E+00  0.90007713689E+02  0.89999974710E+02 0.  0.
         12    1    1    2    0    0  0.69623277472E-01  0.66151740341E+00 -0.97499902551E+00  0.11802863108E+01  0.00000000000E+00 0. -1.
         11    1    3    3    0    0 -0.18882778213E+01 -0.52431739951E+01  0.44262514607E+01  0.71167526954E+01  0.51100000000E-03 0. -1.
        -11    1    3    3    0    0  0.19089334453E+01 -0.16644328118E+02  0.35093903230E+02  0.38887783809E+02  0.51100000000E-03 0.  1.
         12    1    3    3    0    0 -0.90278901470E-01  0.21225984709E+02 -0.38545155665E+02  0.44003177185E+02  0.00000000000E+00 0. -1.
</event>
<event>
 7    1  0.2000468E-015  0.9000779E+02  0.7816164E-02  0.1186339E+00
        -11   -1    0    0    0    0  0.00000000000E+00  0.00000000000E+00  0.45593999997E+02  0.45594000000E+02  0.51100000000E-03 0. -1.
         11   -1    0    0    0    0 -0.00000000000E+00 -0.00000000000E+00 -0.45593999997E+02  0.45594000000E+02  0.51100000000E-03 0.  1.
    9900012    2    1    2    0    0 -0.77752126630E+00 -0.28449848661E+00 -0.84108693318E+00  0.90007785639E+02  0.90000047610E+02 0.  0.
         12    1    1    2    0    0  0.77752126630E+00  0.28449848661E+00  0.84108693318E+00  0.11802143609E+01  0.00000000000E+00 0. -1.
         11    1    3    3    0    0 -0.40186369488E+01  0.84133195855E+01 -0.68399091922E+00  0.93488626695E+01  0.51100000000E-03 0. -1.
        -11    1    3    3    0    0 -0.24519907944E+02 -0.40749902547E+00 -0.30212723590E+02  0.38912730668E+02  0.51100000000E-03 0.  1.
         12    1    3    3    0    0  0.27761023626E+02 -0.82903190467E+01  0.30055627576E+02  0.41746192302E+02  0.00000000000E+00 0. -1.
</event>
<event>
 7    1  0.2000468E-015  0.9000765E+02  0.7816164E-02  0.1186339E+00
        -11   -1    0    0    0    0  0.00000000000E+00  0.00000000000E+00  0.45593999997E+02  0.45594000000E+02  0.51100000000E-03 0.  1.
         11   -1    0    0    0    0 -0.00000000000E+00 -0.00000000000E+00 -0.45593999997E+02  0.45594000000E+02  0.51100000000E-03 0. -1.
    9900012    2    1    2    0    0 -0.69764474149E+00 -0.77452220328E+00 -0.55374343389E+00  0.90007650637E+02  0.89999910825E+02 0.  0.
         12    1    1    2    0    0  0.69764474149E+00  0.77452220328E+00  0.55374343389E+00  0.11803493632E+01  0.00000000000E+00 0. -1.
         11    1    3    3    0    0  0.33327491691E+01 -0.10085559262E+02 -0.42607246462E+02  0.43911310320E+02  0.51100000000E-03 0. -1.
        -11    1    3    3    0    0  0.76986802713E+00 -0.43338820603E+01  0.91440258075E+01  0.10148321966E+02  0.51100000000E-03 0.  1.
        -12    1    3    3    0    0 -0.48002619377E+01  0.13644919119E+02  0.32909477221E+02  0.35948018351E+02  0.00000000000E+00 0.  1.
</event>
<event>
 7    1  0.2412168E-015  0.9000774E+02  0.7816164E-02  0.1186339E+00
        -11   -1    0    0    0    0  0.00000000000E+00  0.00000000000E+00  0.45593999997E+02  0.45594000000E+02  0.51100000000E-03 0. -1.
         11   -1    0    0    0    0 -0.00000000000E+00 -0.00000000000E+00 -0.45593999997E+02  0.45594000000E+02  0.51100000000E-03 0.  1.
    9900012    2    1    2    0    0 -0.10909727500E+01  0.44136744186E+00 -0.89407390613E-01  0.90007737130E+02  0.89999998460E+02 0.  0.
         12    1    1    2    0    0  0.10909727500E+01 -0.44136744186E+00  0.89407390613E-01  0.11802628696E+01  0.00000000000E+00 0. -1.
         11    1    3    3    0    0 -0.37832373140E+02  0.75846062454E+01  0.33330143406E+01  0.38728848345E+02  0.51100000000E-03 0. -1.
        -11    1    3    3    0    0 -0.48257400943E+01 -0.25770234219E+01 -0.74780064182E+01  0.92654949909E+01  0.51100000000E-03 0.  1.
        -12    1    3    3    0    0  0.41567140484E+02 -0.45662153817E+01  0.40555846870E+01  0.42013393794E+02  0.00000000000E+00 0.  1.
</event>
<event>
 7    1  0.2000468E-015  0.9000779E+02  0.7816164E-02  0.1186339E+00
        -11   -1    0    0    0    0  0.00000000000E+00  0.00000000000E+00  0.45593999997E+02  0.45594000000E+02  0.51100000000E-03 0.  1.
         11   -1    0    0    0    0 -0.00000000000E+00 -0.00000000000E+00 -0.45593999997E+02  0.45594000000E+02  0.51100000000E-03 0. -1.
    9900012    2    1    2    0    0  0.72009333635E+00  0.67203999605E+00  0.65016290934E+00  0.90007794942E+02  0.90000057036E+02 0.  0.
         12    1    1    2    0    0 -0.72009333635E+00 -0.67203999605E+00 -0.65016290934E+00  0.11802050576E+01  0.00000000000E+00 0. -1.
         11    1    3    3    0    0  0.25940196655E+02 -0.21797381819E+02 -0.16804761735E+02  0.37820889385E+02  0.51100000000E-03 0. -1.
        -11    1    3    3    0    0 -0.14262808797E+01 -0.90587554064E+01  0.44545915925E+00  0.91811633677E+01  0.51100000000E-03 0.  1.
        -12    1    3    3    0    0 -0.23793822439E+02  0.31528177222E+02  0.17009465485E+02  0.43005742189E+02  0.00000000000E+00 0.  1.
</event>
<event>
 7    1  0.2000468E-015  0.9000784E+02  0.7816164E-02  0.1186339E+00
        -11   -1    0    0    0    0  0.00000000000E+00  0.00000000000E+00  0.45593999997E+02  0.45594000000E+02  0.51100000000E-03 0.  1.
         11   -1    0    0    0    0 -0.00000000000E+00 -0.00000000000E+00 -0.45593999997E+02  0.45594000000E+02  0.51100000000E-03 0. -1.
    9900012    2    1    2    0    0  0.77417936224E+00 -0.35416641482E+00 -0.81730842496E+00  0.90007838742E+02  0.90000101413E+02 0.  0.
         12    1    1    2    0    0 -0.77417936224E+00  0.35416641482E+00  0.81730842496E+00  0.11801612584E+01  0.00000000000E+00 0. -1.
         11    1    3    3    0    0  0.16398084569E+02 -0.32552660843E+02 -0.78406687484E+01  0.37283360795E+02  0.51100000000E-03 0. -1.
        -11    1    3    3    0    0 -0.43762179214E+01 -0.41847104832E+01  0.12844378190E+02  0.14200040016E+02  0.51100000000E-03 0.  1.
        -12    1    3    3    0    0 -0.11247687285E+02  0.36383204911E+02 -0.58210178664E+01  0.38524437931E+02  0.00000000000E+00 0.  1.
</event>
<event>
 7    1  0.2000468E-015  0.9000768E+02  0.7816164E-02  0.1186339E+00
        -11   -1    0    0    0    0  0.00000000000E+00  0.00000000000E+00  0.45593999997E+02  0.45594000000E+02  0.51100000000E-03 0.  1.
         11   -1    0    0    0    0 -0.00000000000E+00 -0.00000000000E+00 -0.45593999997E+02  0.45594000000E+02  0.51100000000E-03 0. -1.
    9900012    2    1    2    0    0  0.35888253461E+00  0.10644325878E+01  0.36240103668E+00  0.90007683128E+02  0.89999943745E+02 0.  0.
         12    1    1    2    0    0 -0.35888253461E+00 -0.10644325878E+01 -0.36240103668E+00  0.11803168723E+01  0.00000000000E+00 0. -1.
         11    1    3    3    0    0  0.46520507546E+00 -0.24464201832E+02 -0.28919315356E+02  0.37881926930E+02  0.51100000000E-03 0. -1.
        -11    1    3    3    0    0  0.92108776956E+00  0.36068184287E+01 -0.80229955930E+01  0.88445463650E+01  0.51100000000E-03 0.  1.
        -12    1    3    3    0    0 -0.10274103104E+01  0.21921815991E+02  0.37304711985E+02  0.43281209833E+02  0.00000000000E+00 0.  1.
</event>
<event>
 7    1  0.2000468E-015  0.9000796E+02  0.7816164E-02  0.1186339E+00
        -11   -1    0    0    0    0  0.00000000000E+00  0.00000000000E+00  0.45593999997E+02  0.45594000000E+02  0.51100000000E-03 0.  1.
         11   -1    0    0    0    0 -0.00000000000E+00 -0.00000000000E+00 -0.45593999997E+02  0.45594000000E+02  0.51100000000E-03 0. -1.
    9900012    2    1    2    0    0 -0.14478770918E+00 -0.39472616095E+00  0.11025955276E+01  0.90007962238E+02  0.90000226539E+02 0.  0.
         12    1    1    2    0    0  0.14478770918E+00  0.39472616095E+00 -0.11025955276E+01  0.11800377622E+01  0.00000000000E+00 0. -1.
         11    1    3    3    0    0 -0.30709836662E+01 -0.22360201956E+02 -0.34969057188E+02  0.41620241867E+02  0.51100000000E-03 0. -1.
        -11    1    3    3    0    0  0.10097561845E+02  0.21951908566E+01  0.68992800955E+01  0.12424962141E+02  0.51100000000E-03 0.  1.
        -12    1    3    3    0    0 -0.71713658880E+01  0.19770284938E+02  0.29172372620E+02  0.35962758230E+02  0.00000000000E+00 0.  1.
</event>
<event>
 7    1  0.2000468E-015  0.9000801E+02  0.7816164E-02  0.1186338E+00
        -11   -1    0    0    0    0  0.00000000000E+00  0.00000000000E+00  0.45593999997E+02  0.45594000000E+02  0.51100000000E-03 0.  1.
         11   -1    0    0    0    0 -0.00000000000E+00 -0.00000000000E+00 -0.45593999997E+02  0.45594000000E+02  0.51100000000E-03 0. -1.
    9900012    2    1    2    0    0  0.11032366768E+01 -0.33774291680E+00 -0.24732450193E+00  0.90008012351E+02  0.90000277313E+02 0.  0.
         12    1    1    2    0    0 -0.11032366768E+01  0.33774291680E+00  0.24732450193E+00  0.11799876491E+01  0.00000000000E+00 0. -1.
         11    1    3    3    0    0 -0.27347278882E+02 -0.64853103904E+01 -0.26842372768E+02  0.38864455344E+02  0.51100000000E-03 0. -1.
        -11    1    3    3    0    0  0.43024568693E+01  0.11475612165E+02 -0.29596010131E+01  0.12607935917E+02  0.51100000000E-03 0.  1.
        -12    1    3    3    0    0  0.24148058689E+02 -0.53280446915E+01  0.29554649280E+02  0.38535621089E+02  0.00000000000E+00 0.  1.
</event>
<event>
 7    1  0.2000468E-015  0.9000775E+02  0.7816164E-02  0.1186339E+00
        -11   -1    0    0    0    0  0.00000000000E+00  0.00000000000E+00  0.45593999997E+02  0.45594000000E+02  0.51100000000E-03 0. -1.
         11   -1    0    0    0    0 -0.00000000000E+00 -0.00000000000E+00 -0.45593999997E+02  0.45594000000E+02  0.51100000000E-03 0.  1.
    9900012    2    1    2    0    0  0.10715785611E+01  0.31884848414E-01  0.49365638691E+00  0.90007748381E+02  0.90000009859E+02 0.  0.
         12    1    1    2    0    0 -0.10715785611E+01 -0.31884848414E-01 -0.49365638691E+00  0.11802516191E+01  0.00000000000E+00 0. -1.
         11    1    3    3    0    0 -0.65931816494E+01  0.19560862623E+01  0.62413094486E+01  0.92871018957E+01  0.51100000000E-03 0. -1.
        -11    1    3    3    0    0 -0.10075958838E+02  0.17548293368E+02  0.30078948965E+02  0.36252044324E+02  0.51100000000E-03 0.  1.
         12    1    3    3    0    0  0.17740719048E+02 -0.19472494782E+02 -0.35826602026E+02  0.44468602161E+02  0.00000000000E+00 0. -1.
</event>
<event>
 7    1  0.2000468E-015  0.9000776E+02  0.7816164E-02  0.1186339E+00
        -11   -1    0    0    0    0  0.00000000000E+00  0.00000000000E+00  0.45593999997E+02  0.45594000000E+02  0.51100000000E-03 0.  1.
         11   -1    0    0    0    0 -0.00000000000E+00 -0.00000000000E+00 -0.45593999997E+02  0.45594000000E+02  0.51100000000E-03 0. -1.
    9900012    2    1    2    0    0  0.66192479785E+00 -0.90308437513E+00  0.37317921895E+00  0.90007759111E+02  0.90000020731E+02 0.  0.
         12    1    1    2    0    0 -0.66192479785E+00  0.90308437513E+00 -0.37317921895E+00  0.11802408890E+01  0.00000000000E+00 0. -1.
         11    1    3    3    0    0  0.98721749163E+01  0.70029191146E+00  0.30893562106E+01  0.10367949093E+02  0.51100000000E-03 0. -1.
        -11    1    3    3    0    0  0.18393771220E+02 -0.15455475126E+01  0.30991198522E+02  0.36071788463E+02  0.51100000000E-03 0.  1.
         12    1    3    3    0    0 -0.27604021339E+02 -0.57828774030E-01 -0.33707375513E+02  0.43568021555E+02  0.00000000000E+00 0. -1.
</event>
<event>
 7    1  0.2000468E-015  0.9000775E+02  0.7816164E-02  0.1186339E+00
        -11   -1    0    0    0    0  0.00000000000E+00  0.00000000000E+00  0.45593999997E+02  0.45594000000E+02  0.51100000000E-03 0.  1.
         11   -1    0    0    0    0 -0.00000000000E+00 -0.00000000000E+00 -0.45593999997E+02  0.45594000000E+02  0.51100000000E-03 0. -1.
    9900012    2    1    2    0    0  0.98314902233E+00 -0.62634512069E+00  0.18469298282E+00  0.90007745066E+02  0.90000006501E+02 0.  0.
         12    1    1    2    0    0 -0.98314902233E+00  0.62634512069E+00 -0.18469298282E+00  0.11802549336E+01  0.00000000000E+00 0. -1.
         11    1    3    3    0    0  0.22532476164E+01 -0.74306778561E+01 -0.62599082138E+01  0.99738933886E+01  0.51100000000E-03 0. -1.
        -11    1    3    3    0    0 -0.36421860028E+02  0.81199897632E+01  0.19997911869E+02  0.42336775988E+02  0.51100000000E-03 0.  1.
         12    1    3    3    0    0  0.35151761434E+02 -0.13156570278E+01 -0.13553310673E+02  0.37697075690E+02  0.00000000000E+00 0. -1.
</event>
<event>
 7    1  0.2000468E-015  0.9000779E+02  0.7816164E-02  0.1186339E+00
        -11   -1    0    0    0    0  0.00000000000E+00  0.00000000000E+00  0.45593999997E+02  0.45594000000E+02  0.51100000000E-03 0.  1.
         11   -1    0    0    0    0 -0.00000000000E+00 -0.00000000000E+00 -0.45593999997E+02  0.45594000000E+02  0.51100000000E-03 0. -1.
    9900012    2    1    2    0    0  0.11700680342E+01 -0.90757092341E-01  0.12493217030E+00  0.90007786417E+02  0.90000048398E+02 0.  0.
         12    1    1    2    0    0 -0.11700680342E+01  0.90757092341E-01 -0.12493217030E+00  0.11802135831E+01  0.00000000000E+00 0. -1.
         11    1    3    3    0    0 -0.90010613436E+01  0.89556956819E+01 -0.28505016877E+02  0.31205121020E+02  0.51100000000E-03 0. -1.
        -11    1    3    3    0    0 -0.45383922618E+01 -0.21042544728E+02 -0.31801224040E+01  0.21760029221E+02  0.51100000000E-03 0.  1.
        -12    1    3    3    0    0  0.14709521640E+02  0.11996091954E+02  0.31810071452E+02  0.37042636175E+02  0.00000000000E+00 0.  1.
</event>
<event>
 7    1  0.2000468E-015  0.9000773E+02  0.7816164E-02  0.1186339E+00
        -11   -1    0    0    0    0  0.00000000000E+00  0.00000000000E+00  0.45593999997E+02  0.45594000000E+02  0.51100000000E-03 0. -1.
         11   -1    0    0    0    0 -0.00000000000E+00 -0.00000000000E+00 -0.45593999997E+02  0.45594000000E+02  0.51100000000E-03 0.  1.
    9900012    2    1    2    0    0  0.11410517013E+01 -0.37415881364E-01 -0.29940990557E+00  0.90007726631E+02  0.89999987823E+02 0.  0.
         12    1    1    2    0    0 -0.11410517013E+01  0.37415881364E-01  0.29940990557E+00  0.11802733686E+01  0.00000000000E+00 0. -1.
         11    1    3    3    0    0 -0.29999681173E+01  0.57267304442E+01 -0.65565957112E+01  0.92078335056E+01  0.51100000000E-03 0. -1.
        -11    1    3    3    0    0  0.21499101377E+02 -0.10271957609E+02 -0.31207749945E+02  0.39263827246E+02  0.51100000000E-03 0.  1.
         12    1    3    3    0    0 -0.17358081558E+02  0.45078112832E+01  0.37464935751E+02  0.41536065880E+02  0.00000000000E+00 0. -1.
</event>
<event>
 7    1  0.2000468E-015  0.9000780E+02  0.7816164E-02  0.1186339E+00
        -11   -1    0    0    0    0  0.00000000000E+00  0.00000000000E+00  0.45593999997E+02  0.45594000000E+02  0.51100000000E-03 0.  1.
         11   -1    0    0    0    0 -0.00000000000E+00 -0.00000000000E+00 -0.45593999997E+02  0.45594000000E+02  0.51100000000E-03 0. -1.
    9900012    2    1    2    0    0 -0.39050843022E+00  0.24804356687E+00  0.10857450283E+01  0.90007803105E+02  0.90000065306E+02 0.  0.
         12    1    1    2    0    0  0.39050843022E+00 -0.24804356687E+00 -0.10857450283E+01  0.11801968953E+01  0.00000000000E+00 0. -1.
         11    1    3    3    0    0  0.17432867193E+01 -0.93860380355E+00  0.44710415739E+01  0.48898096796E+01  0.51100000000E-03 0. -1.
        -11    1    3    3    0    0  0.38264337644E+02 -0.15281607910E+02  0.14259673478E+01  0.41227666182E+02  0.51100000000E-03 0.  1.
         12    1    3    3    0    0 -0.40398132794E+02  0.16468255281E+02 -0.48112638934E+01  0.43890327243E+02  0.00000000000E+00 0. -1.
</event>
<event>
 7    1  0.2000468E-015  0.9000772E+02  0.7816164E-02  0.1186339E+00
        -11   -1    0    0    0    0  0.00000000000E+00  0.00000000000E+00  0.45593999997E+02  0.45594000000E+02  0.51100000000E-03 0.  1.
         11   -1    0    0    0    0 -0.00000000000E+00 -0.00000000000E+00 -0.45593999997E+02  0.45594000000E+02  0.51100000000E-03 0. -1.
    9900012    2    1    2    0    0 -0.79106123212E+00 -0.17207386680E+00  0.85887955274E+00  0.90007719790E+02  0.89999980891E+02 0.  0.
         12    1    1    2    0    0  0.79106123212E+00  0.17207386680E+00 -0.85887955274E+00  0.11802802103E+01  0.00000000000E+00 0. -1.
         11    1    3    3    0    0  0.11111835835E+02  0.59771597124E+01  0.83700872584E+00  0.12645153922E+02  0.51100000000E-03 0. -1.
        -11    1    3    3    0    0  0.80458082106E+01  0.32699907720E+02 -0.76534578564E+00  0.33683894506E+02  0.51100000000E-03 0.  1.
         12    1    3    3    0    0 -0.19948705278E+02 -0.38849141299E+02  0.78721661255E+00  0.43678671362E+02  0.00000000000E+00 0. -1.
</event>
<event>
 7    1  0.2000468E-015  0.9000767E+02  0.7816164E-02  0.1186339E+00
        -11   -1    0    0    0    0  0.00000000000E+00  0.00000000000E+00  0.45593999997E+02  0.45594000000E+02  0.51100000000E-03 0.  1.
         11   -1    0    0    0    0 -0.00000000000E+00 -0.00000000000E+00 -0.45593999997E+02  0.45594000000E+02  0.51100000000E-03 0. -1.
    9900012    2    1    2    0    0 -0.19369554657E+00 -0.58382242049E+00  0.10073746616E+01  0.90007673650E+02  0.89999934142E+02 0.  0.
         12    1    1    2    0    0  0.19369554657E+00  0.58382242049E+00 -0.10073746616E+01  0.11803263499E+01  0.00000000000E+00 0. -1.
         11    1    3    3    0    0 -0.23985239170E+02  0.88724937164E+01 -0.20955448597E+02  0.33062723254E+02  0.51100000000E-03 0. -1.
        -11    1    3    3    0    0 -0.71318454251E+01 -0.58640105961E+00 -0.95354628655E+01  0.11921918373E+02  0.51100000000E-03 0.  1.
        -12    1    3    3    0    0  0.30923389049E+02 -0.88699150773E+01  0.31498286125E+02  0.45023032023E+02  0.00000000000E+00 0.  1.
</event>
<event>
 7    1  0.2228011E-015  0.9000771E+02  0.7816164E-02  0.1186339E+00
        -11   -1    0    0    0    0  0.00000000000E+00  0.00000000000E+00  0.45593999997E+02  0.45594000000E+02  0.51100000000E-03 0. -1.
         11   -1    0    0    0    0 -0.00000000000E+00 -0.00000000000E+00 -0.45593999997E+02  0.45594000000E+02  0.51100000000E-03 0.  1.
    9900012    2    1    2    0    0 -0.84593612407E+00 -0.78683694673E+00 -0.24160331648E+00  0.90007706617E+02  0.89999967545E+02 0.  0.
         12    1    1    2    0    0  0.84593612407E+00  0.78683694673E+00  0.24160331648E+00  0.11802933827E+01  0.00000000000E+00 0. -1.
         11    1    3    3    0    0  0.13319746041E+02 -0.21107440702E+02 -0.31143167673E+02  0.39910356808E+02  0.51100000000E-03 0. -1.
        -11    1    3    3    0    0  0.86195899741E+01  0.33432428667E+01  0.17896868693E+01  0.94168775896E+01  0.51100000000E-03 0.  1.
        -12    1    3    3    0    0 -0.22785272139E+02  0.16977360888E+02  0.29111877487E+02  0.40680472220E+02  0.00000000000E+00 0.  1.
</event>
<event>
 7    1  0.2353832E-015  0.9000777E+02  0.7816164E-02  0.1186339E+00
        -11   -1    0    0    0    0  0.00000000000E+00  0.00000000000E+00  0.45593999997E+02  0.45594000000E+02  0.51100000000E-03 0. -1.
         11   -1    0    0    0    0 -0.00000000000E+00 -0.00000000000E+00 -0.45593999997E+02  0.45594000000E+02  0.51100000000E-03 0.  1.
    9900012    2    1    2    0    0  0.21076863166E+00  0.65131946867E+00 -0.96140097811E+00  0.90007774468E+02  0.90000036291E+02 0.  0.
         12    1    1    2    0    0 -0.21076863166E+00 -0.65131946867E+00  0.96140097811E+00  0.11802255323E+01  0.00000000000E+00 0. -1.
         11    1    3    3    0    0  0.18322438776E+01  0.21977437935E+02  0.28628359565E+02  0.36137900707E+02  0.51100000000E-03 0. -1.
        -11    1    3    3    0    0 -0.18251997330E+01  0.83951135642E+01  0.36018163949E+01  0.93157054175E+01  0.51100000000E-03 0.  1.
        -12    1    3    3    0    0  0.20372448703E+00 -0.29721232031E+02 -0.33191576938E+02  0.44554168343E+02  0.00000000000E+00 0.  1.
</event>
<event>
 7    1  0.2000468E-015  0.9000763E+02  0.7816164E-02  0.1186339E+00
        -11   -1    0    0    0    0  0.00000000000E+00  0.00000000000E+00  0.45593999997E+02  0.45594000000E+02  0.51100000000E-03 0.  1.
         11   -1    0    0    0    0 -0.00000000000E+00 -0.00000000000E+00 -0.45593999997E+02  0.45594000000E+02  0.51100000000E-03 0. -1.
    9900012    2    1    2    0    0  0.99163774048E+00  0.42576957501E-01  0.63883489195E+00  0.90007632165E+02  0.89999892110E+02 0.  0.
         12    1    1    2    0    0 -0.99163774048E+00 -0.42576957501E-01 -0.63883489195E+00  0.11803678345E+01  0.00000000000E+00 0. -1.
         11    1    3    3    0    0  0.32685482917E+01  0.18937140160E+01  0.93633848457E+01  0.10096659682E+02  0.51100000000E-03 0. -1.
        -11    1    3    3    0    0  0.61869774633E+01 -0.14546802225E+01  0.34898559978E+02  0.35472584816E+02  0.51100000000E-03 0.  1.
         12    1    3    3    0    0 -0.84638880145E+01 -0.39645683608E+00 -0.43623109932E+02  0.44438387668E+02  0.00000000000E+00 0. -1.
</event>
<event>
 7    1  0.2000468E-015  0.9000775E+02  0.7816164E-02  0.1186339E+00
        -11   -1    0    0    0    0  0.00000000000E+00  0.00000000000E+00  0.45593999997E+02  0.45594000000E+02  0.51100000000E-03 0. -1.
         11   -1    0    0    0    0 -0.00000000000E+00 -0.00000000000E+00 -0.45593999997E+02  0.45594000000E+02  0.51100000000E-03 0.  1.
    9900012    2    1    2    0    0  0.10465695074E+01 -0.51139812052E+00  0.19011193744E+00  0.90007754975E+02  0.90000016540E+02 0.  0.
         12    1    1    2    0    0 -0.10465695074E+01  0.51139812052E+00 -0.19011193744E+00  0.11802450255E+01  0.00000000000E+00 0. -1.
         11    1    3    3    0    0  0.20291631535E+02 -0.22645085718E+02 -0.78756342156E+01  0.31409804713E+02  0.51100000000E-03 0. -1.
        -11    1    3    3    0    0  0.31682589621E+01 -0.13674748022E+02  0.83879260123E+01  0.16352183382E+02  0.51100000000E-03 0.  1.
        -12    1    3    3    0    0 -0.22413320990E+02  0.35808435620E+02 -0.32217985928E+00  0.42245766879E+02  0.00000000000E+00 0.  1.
</event>
<event>
 7    1  0.2000468E-015  0.9000720E+02  0.7816164E-02  0.1186340E+00
        -11   -1    0    0    0    0  0.00000000000E+00  0.00000000000E+00  0.45593999997E+02  0.45594000000E+02  0.51100000000E-03 0.  1.
         11   -1    0    0    0    0 -0.00000000000E+00 -0.00000000000E+00 -0.45593999997E+02  0.45594000000E+02  0.51100000000E-03 0. -1.
    9900012    2    1    2    0    0 -0.79669349697E-01 -0.39799469106E+00  0.11088521218E+01  0.90007195187E+02  0.89999449361E+02 0.  0.
         12    1    1    2    0    0  0.79669349697E-01  0.39799469106E+00 -0.11088521218E+01  0.11808048134E+01  0.00000000000E+00 0. -1.
         11    1    3    3    0    0 -0.94023171360E+01  0.72771861230E+00 -0.33218401132E+00  0.94362857302E+01  0.51100000000E-03 0. -1.
        -11    1    3    3    0    0 -0.16193412853E+02 -0.27292276749E+02  0.22021293750E+02  0.38626834825E+02  0.51100000000E-03 0.  1.
         12    1    3    3    0    0  0.25516060639E+02  0.26166563445E+02 -0.20580257617E+02  0.41944074631E+02  0.00000000000E+00 0. -1.
</event>
<event>
 7    1  0.2000468E-015  0.9000770E+02  0.7816164E-02  0.1186339E+00
        -11   -1    0    0    0    0  0.00000000000E+00  0.00000000000E+00  0.45593999997E+02  0.45594000000E+02  0.51100000000E-03 0.  1.
         11   -1    0    0    0    0 -0.00000000000E+00 -0.00000000000E+00 -0.45593999997E+02  0.45594000000E+02  0.51100000000E-03 0. -1.
    9900012    2    1    2    0    0  0.11435362786E+01 -0.14074869390E+00  0.25616502443E+00  0.90007700913E+02  0.89999961765E+02 0.  0.
         12    1    1    2    0    0 -0.11435362786E+01  0.14074869390E+00 -0.25616502443E+00  0.11802990871E+01  0.00000000000E+00 0. -1.
         11    1    3    3    0    0 -0.43298364505E+01 -0.15701066732E+01 -0.78570988459E+01  0.91075090551E+01  0.51100000000E-03 0. -1.
        -11    1    3    3    0    0 -0.31904184432E+02  0.12631474419E+02  0.20487983314E+02  0.39964841934E+02  0.51100000000E-03 0.  1.
         12    1    3    3    0    0  0.37377557161E+02 -0.11202116440E+02 -0.12374719443E+02  0.40935349924E+02  0.00000000000E+00 0. -1.
</event>
<event>
 7    1  0.2000468E-015  0.9000782E+02  0.7816164E-02  0.1186339E+00
        -11   -1    0    0    0    0  0.00000000000E+00  0.00000000000E+00  0.45593999997E+02  0.45594000000E+02  0.51100000000E-03 0.  1.
         11   -1    0    0    0    0 -0.00000000000E+00 -0.00000000000E+00 -0.45593999997E+02  0.45594000000E+02  0.51100000000E-03 0. -1.
    9900012    2    1    2    0    0 -0.11140637104E+01 -0.32609179840E+00 -0.21295241171E+00  0.90007820971E+02  0.90000083407E+02 0.  0.
         12    1    1    2    0    0  0.11140637104E+01  0.32609179840E+00  0.21295241171E+00  0.11801790295E+01  0.00000000000E+00 0. -1.
         11    1    3    3    0    0  0.39304806709E+01 -0.26774829864E+01 -0.71582304197E+01  0.85940593697E+01  0.51100000000E-03 0. -1.
        -11    1    3    3    0    0  0.24866411434E+02 -0.24782821461E+02  0.18125098081E+02  0.39510072613E+02  0.51100000000E-03 0.  1.
         12    1    3    3    0    0 -0.29910955815E+02  0.27134212649E+02 -0.11179820073E+02  0.41903688988E+02  0.00000000000E+00 0. -1.
</event>
<event>
 7    1  0.2000468E-015  0.9000783E+02  0.7816164E-02  0.1186339E+00
        -11   -1    0    0    0    0  0.00000000000E+00  0.00000000000E+00  0.45593999997E+02  0.45594000000E+02  0.51100000000E-03 0.  1.
         11   -1    0    0    0    0 -0.00000000000E+00 -0.00000000000E+00 -0.45593999997E+02  0.45594000000E+02  0.51100000000E-03 0. -1.
    9900012    2    1    2    0    0 -0.33914322388E+00 -0.12219013013E+00  0.11237707735E+01  0.90007826578E+02  0.90000089089E+02 0.  0.
         12    1    1    2    0    0  0.33914322388E+00  0.12219013013E+00 -0.11237707735E+01  0.11801734219E+01  0.00000000000E+00 0. -1.
         11    1    3    3    0    0  0.14759399259E+02 -0.32508436620E+02  0.39825402660E+01  0.35923515212E+02  0.51100000000E-03 0. -1.
        -11    1    3    3    0    0  0.21255499994E+01 -0.87942561659E+01  0.17307153032E+01  0.92115297336E+01  0.51100000000E-03 0.  1.
        -12    1    3    3    0    0 -0.17224092482E+02  0.41180502655E+02 -0.45894847956E+01  0.44872781633E+02  0.00000000000E+00 0.  1.
</event>
<event>
 7    1  0.2000468E-015  0.9000804E+02  0.7816164E-02  0.1186338E+00
        -11   -1    0    0    0    0  0.00000000000E+00  0.00000000000E+00  0.45593999997E+02  0.45594000000E+02  0.51100000000E-03 0. -1.
         11   -1    0    0    0    0 -0.00000000000E+00 -0.00000000000E+00 -0.45593999997E+02  0.45594000000E+02  0.51100000000E-03 0.  1.
    9900012    2    1    2    0    0 -0.69543989661E+00  0.68514993409E+00 -0.66274320018E+00  0.90008044225E+02  0.90000309608E+02 0.  0.
         12    1    1    2    0    0  0.69543989661E+00 -0.68514993409E+00  0.66274320018E+00  0.11799557752E+01  0.00000000000E+00 0. -1.
         11    1    3    3    0    0 -0.32061665694E+00  0.36290899035E+01 -0.91687611377E+01  0.98660665733E+01  0.51100000000E-03 0. -1.
        -11    1    3    3    0    0 -0.22542547002E+02  0.31462255995E+02  0.56309118348E+01  0.39111982128E+02  0.51100000000E-03 0.  1.
         12    1    3    3    0    0  0.22167723762E+02 -0.34406195965E+02  0.28751061028E+01  0.41029995523E+02  0.00000000000E+00 0. -1.
</event>
<event>
 7    1  0.2000468E-015  0.9000777E+02  0.7816164E-02  0.1186339E+00
        -11   -1    0    0    0    0  0.00000000000E+00  0.00000000000E+00  0.45593999997E+02  0.45594000000E+02  0.51100000000E-03 0.  1.
         11   -1    0    0    0    0 -0.00000000000E+00 -0.00000000000E+00 -0.45593999997E+02  0.45594000000E+02  0.51100000000E-03 0. -1.
    9900012    2    1    2    0    0  0.27686715522E+00 -0.85937572479E+00  0.76010152796E+00  0.90007772738E+02  0.90000034538E+02 0.  0.
         12    1    1    2    0    0 -0.27686715522E+00  0.85937572479E+00 -0.76010152796E+00  0.11802272624E+01  0.00000000000E+00 0. -1.
         11    1    3    3    0    0 -0.92481450164E+01 -0.41612312693E+01  0.42924172437E+00  0.10150284757E+02  0.51100000000E-03 0. -1.
        -11    1    3    3    0    0  0.16072868656E+02 -0.23187891305E+01  0.37940906763E+02  0.41270162298E+02  0.51100000000E-03 0.  1.
         12    1    3    3    0    0 -0.65478564841E+01  0.56206446750E+01 -0.37610046959E+02  0.38587325683E+02  0.00000000000E+00 0. -1.
</event>
<event>
 7    1  0.2000468E-015  0.9000771E+02  0.7816164E-02  0.1186339E+00
        -11   -1    0    0    0    0  0.00000000000E+00  0.00000000000E+00  0.45593999997E+02  0.45594000000E+02  0.51100000000E-03 0.  1.
         11   -1    0    0    0    0 -0.00000000000E+00 -0.00000000000E+00 -0.45593999997E+02  0.45594000000E+02  0.51100000000E-03 0. -1.
    9900012    2    1    2    0    0  0.83797539416E+00 -0.58164566529E+00  0.59377192105E+00  0.90007712096E+02  0.89999973096E+02 0.  0.
         12    1    1    2    0    0 -0.83797539416E+00  0.58164566529E+00 -0.59377192105E+00  0.11802879036E+01  0.00000000000E+00 0. -1.
         11    1    3    3    0    0  0.53788108351E+01  0.29971054071E+02 -0.23142684109E+02  0.38246300686E+02  0.51100000000E-03 0. -1.
        -11    1    3    3    0    0 -0.18085206896E+01 -0.50051695465E+01 -0.88117990872E+01  0.10294186354E+02  0.51100000000E-03 0.  1.
        -12    1    3    3    0    0 -0.27323147514E+01 -0.25547530190E+02  0.32548255117E+02  0.41467225056E+02  0.00000000000E+00 0.  1.
</event>
<event>
 7    1  0.2000468E-015  0.9000777E+02  0.7816164E-02  0.1186339E+00
        -11   -1    0    0    0    0  0.00000000000E+00  0.00000000000E+00  0.45593999997E+02  0.45594000000E+02  0.51100000000E-03 0. -1.
         11   -1    0    0    0    0 -0.00000000000E+00 -0.00000000000E+00 -0.45593999997E+02  0.45594000000E+02  0.51100000000E-03 0.  1.
    9900012    2    1    2    0    0 -0.10172641106E+01 -0.44883927097E+00 -0.39581195545E+00  0.90007766944E+02  0.90000028668E+02 0.  0.
         12    1    1    2    0    0  0.10172641106E+01  0.44883927097E+00  0.39581195545E+00  0.11802330558E+01  0.00000000000E+00 0. -1.
         11    1    3    3    0    0  0.50349950777E+01 -0.17679473478E+02  0.25650087573E+02  0.31556963584E+02  0.51100000000E-03 0. -1.
        -11    1    3    3    0    0  0.15952254648E+02 -0.67349279041E+01 -0.91499192728E+00  0.17339864265E+02  0.51100000000E-03 0.  1.
        -12    1    3    3    0    0 -0.22004513836E+02  0.23965562111E+02 -0.25130907601E+02  0.41110939096E+02  0.00000000000E+00 0.  1.
</event>
<event>
 7    1  0.2000468E-015  0.9000820E+02  0.7816164E-02  0.1186338E+00
        -11   -1    0    0    0    0  0.00000000000E+00  0.00000000000E+00  0.45593999997E+02  0.45594000000E+02  0.51100000000E-03 0.  1.
         11   -1    0    0    0    0 -0.00000000000E+00 -0.00000000000E+00 -0.45593999997E+02  0.45594000000E+02  0.51100000000E-03 0. -1.
    9900012    2    1    2    0    0  0.11291681656E+01  0.35558957109E-01  0.34007176389E+00  0.90008197478E+02  0.90000464884E+02 0.  0.
         12    1    1    2    0    0 -0.11291681656E+01 -0.35558957109E-01 -0.34007176389E+00  0.11798025217E+01  0.00000000000E+00 0. -1.
         11    1    3    3    0    0  0.31816760163E+01  0.21731832858E+01  0.81218593811E+01  0.89894598244E+01  0.51100000000E-03 0. -1.
        -11    1    3    3    0    0 -0.37039416341E+02  0.67828494021E+01  0.12413058546E+02  0.39648574144E+02  0.51100000000E-03 0.  1.
         12    1    3    3    0    0  0.34986908490E+02 -0.89204737308E+01 -0.20194846163E+02  0.41370163510E+02  0.00000000000E+00 0. -1.
</event>
<event>
 7    1  0.2000468E-015  0.9000777E+02  0.7816164E-02  0.1186339E+00
        -11   -1    0    0    0    0  0.00000000000E+00  0.00000000000E+00  0.45593999997E+02  0.45594000000E+02  0.51100000000E-03 0. -1.
         11   -1    0    0    0    0 -0.00000000000E+00 -0.00000000000E+00 -0.45593999997E+02  0.45594000000E+02  0.51100000000E-03 0.  1.
    9900012    2    1    2    0    0  0.96811412331E+00 -0.52338420025E+00 -0.42633193768E+00  0.90007773370E+02  0.90000035179E+02 0.  0.
         12    1    1    2    0    0 -0.96811412331E+00  0.52338420025E+00  0.42633193768E+00  0.11802266299E+01  0.00000000000E+00 0. -1.
         11    1    3    3    0    0  0.44925979594E+01 -0.12511612057E+02  0.13777660701E+00  0.13294467095E+02  0.51100000000E-03 0. -1.
        -11    1    3    3    0    0  0.16537419505E+02  0.16144601579E+02 -0.31828271598E+02  0.39334123572E+02  0.51100000000E-03 0.  1.
         12    1    3    3    0    0 -0.20061903341E+02 -0.41563737225E+01  0.31264163053E+02  0.37379182703E+02  0.00000000000E+00 0. -1.
</event>
<event>
 7    1  0.2000468E-015  0.9000773E+02  0.7816164E-02  0.1186339E+00
        -11   -1    0    0    0    0  0.00000000000E+00  0.00000000000E+00  0.45593999997E+02  0.45594000000E+02  0.51100000000E-03 0.  1.
         11   -1    0    0    0    0 -0.00000000000E+00 -0.00000000000E+00 -0.45593999997E+02  0.45594000000E+02  0.51100000000E-03 0. -1.
    9900012    2    1    2    0    0 -0.11267434862E+01  0.20526142430E+00 -0.28521115956E+00  0.90007733699E+02  0.89999994984E+02 0.  0.
         12    1    1    2    0    0  0.11267434862E+01 -0.20526142430E+00  0.28521115956E+00  0.11802663011E+01  0.00000000000E+00 0. -1.
         11    1    3    3    0    0 -0.21778993559E+02  0.41414550880E+01 -0.28616837761E+02  0.36199442184E+02  0.51100000000E-03 0. -1.
        -11    1    3    3    0    0 -0.10491163969E+01 -0.17015321797E+02  0.18343018059E+01  0.17146034074E+02  0.51100000000E-03 0.  1.
        -12    1    3    3    0    0  0.21701366470E+02  0.13079128133E+02  0.26497324796E+02  0.36662257442E+02  0.00000000000E+00 0.  1.
</event>
<event>
 7    1  0.2000468E-015  0.9000758E+02  0.7816164E-02  0.1186339E+00
        -11   -1    0    0    0    0  0.00000000000E+00  0.00000000000E+00  0.45593999997E+02  0.45594000000E+02  0.51100000000E-03 0.  1.
         11   -1    0    0    0    0 -0.00000000000E+00 -0.00000000000E+00 -0.45593999997E+02  0.45594000000E+02  0.51100000000E-03 0. -1.
    9900012    2    1    2    0    0  0.33582449404E+00  0.14025212601E-01  0.11315590715E+01  0.90007576038E+02  0.89999835242E+02 0.  0.
         12    1    1    2    0    0 -0.33582449404E+00 -0.14025212601E-01 -0.11315590715E+01  0.11804239618E+01  0.00000000000E+00 0. -1.
         11    1    3    3    0    0 -0.19089495012E+02  0.88240622970E+01  0.31755799408E+02  0.38088104332E+02  0.51100000000E-03 0. -1.
        -11    1    3    3    0    0  0.80073364595E+01  0.45958059095E+01  0.61865274066E+01  0.11113594862E+02  0.51100000000E-03 0.  1.
        -12    1    3    3    0    0  0.11417983047E+02 -0.13405842994E+02 -0.36810767744E+02  0.40805876845E+02  0.00000000000E+00 0.  1.
</event>
<event>
 7    1  0.2000468E-015  0.9000771E+02  0.7816164E-02  0.1186339E+00
        -11   -1    0    0    0    0  0.00000000000E+00  0.00000000000E+00  0.45593999997E+02  0.45594000000E+02  0.51100000000E-03 0. -1.
         11   -1    0    0    0    0 -0.00000000000E+00 -0.00000000000E+00 -0.45593999997E+02  0.45594000000E+02  0.51100000000E-03 0.  1.
    9900012    2    1    2    0    0  0.78584878861E+00  0.83065065794E+00 -0.29248133780E+00  0.90007710134E+02  0.89999971108E+02 0.  0.
         12    1    1    2    0    0 -0.78584878861E+00 -0.83065065794E+00  0.29248133780E+00  0.11802898657E+01  0.00000000000E+00 0. -1.
         11    1    3    3    0    0 -0.43201884914E+01 -0.43006341458E+01 -0.69974199216E+01  0.92802676943E+01  0.51100000000E-03 0. -1.
        -11    1    3    3    0    0 -0.34476699002E+02  0.16034981829E+02 -0.41791996097E+01  0.38252178055E+02  0.51100000000E-03 0.  1.
         12    1    3    3    0    0  0.39582736282E+02 -0.10903697025E+02  0.10884138193E+02  0.42475264385E+02  0.00000000000E+00 0. -1.
</event>
<event>
 7    1  0.2000468E-015  0.9000779E+02  0.7816164E-02  0.1186339E+00
        -11   -1    0    0    0    0  0.00000000000E+00  0.00000000000E+00  0.45593999997E+02  0.45594000000E+02  0.51100000000E-03 0.  1.
         11   -1    0    0    0    0 -0.00000000000E+00 -0.00000000000E+00 -0.45593999997E+02  0.45594000000E+02  0.51100000000E-03 0. -1.
    9900012    2    1    2    0    0  0.63123066447E-01 -0.97016240021E+00  0.66910841176E+00  0.90007785752E+02  0.90000047724E+02 0.  0.
         12    1    1    2    0    0 -0.63123066447E-01  0.97016240021E+00 -0.66910841176E+00  0.11802142479E+01  0.00000000000E+00 0. -1.
         11    1    3    3    0    0 -0.76553665025E+01  0.23891686956E+02 -0.24855155327E+02  0.35315663501E+02  0.51100000000E-03 0. -1.
        -11    1    3    3    0    0 -0.60150599188E+00  0.38880538550E+01 -0.85066163868E+01  0.93723686895E+01  0.51100000000E-03 0.  1.
        -12    1    3    3    0    0  0.83199955608E+01 -0.28749903211E+02  0.34030880126E+02  0.45319753562E+02  0.00000000000E+00 0.  1.
</event>
<event>
 7    1  0.2000468E-015  0.9000775E+02  0.7816164E-02  0.1186339E+00
        -11   -1    0    0    0    0  0.00000000000E+00  0.00000000000E+00  0.45593999997E+02  0.45594000000E+02  0.51100000000E-03 0.  1.
         11   -1    0    0    0    0 -0.00000000000E+00 -0.00000000000E+00 -0.45593999997E+02  0.45594000000E+02  0.51100000000E-03 0. -1.
    9900012    2    1    2    0    0  0.41388301073E+00  0.10701191413E+01  0.27665367710E+00  0.90007749442E+02  0.90000010934E+02 0.  0.
         12    1    1    2    0    0 -0.41388301073E+00 -0.10701191413E+01 -0.27665367710E+00  0.11802505582E+01  0.00000000000E+00 0. -1.
         11    1    3    3    0    0  0.57852969102E+01 -0.26789104878E+01  0.57955390807E+01  0.86159442453E+01  0.51100000000E-03 0. -1.
        -11    1    3    3    0    0 -0.84074597469E+01  0.13286790816E+02  0.35681913482E+02  0.38992603652E+02  0.51100000000E-03 0.  1.
         12    1    3    3    0    0  0.30360458474E+01 -0.95377611869E+01 -0.41200798885E+02  0.42399201545E+02  0.00000000000E+00 0. -1.
</event>
<event>
 7    1  0.2000468E-015  0.9000779E+02  0.7816164E-02  0.1186339E+00
        -11   -1    0    0    0    0  0.00000000000E+00  0.00000000000E+00  0.45593999997E+02  0.45594000000E+02  0.51100000000E-03 0. -1.
         11   -1    0    0    0    0 -0.00000000000E+00 -0.00000000000E+00 -0.45593999997E+02  0.45594000000E+02  0.51100000000E-03 0.  1.
    9900012    2    1    2    0    0 -0.13245394756E+00 -0.12287117437E+00 -0.11663006962E+01  0.90007788711E+02  0.90000050722E+02 0.  0.
         12    1    1    2    0    0  0.13245394756E+00  0.12287117437E+00  0.11663006962E+01  0.11802112894E+01  0.00000000000E+00 0. -1.
         11    1    3    3    0    0 -0.15976793952E+01  0.24087389020E+01  0.10641783731E+02  0.11027337112E+02  0.51100000000E-03 0. -1.
        -11    1    3    3    0    0 -0.13601914841E+02  0.33258938471E+02  0.57021142079E+01  0.36382457067E+02  0.51100000000E-03 0.  1.
         12    1    3    3    0    0  0.15067140289E+02 -0.35790548547E+02 -0.17510198635E+02  0.42597994531E+02  0.00000000000E+00 0. -1.
</event>
<event>
 7    1  0.2000468E-015  0.9000788E+02  0.7816164E-02  0.1186339E+00
        -11   -1    0    0    0    0  0.00000000000E+00  0.00000000000E+00  0.45593999997E+02  0.45594000000E+02  0.51100000000E-03 0. -1.
         11   -1    0    0    0    0 -0.00000000000E+00 -0.00000000000E+00 -0.45593999997E+02  0.45594000000E+02  0.51100000000E-03 0.  1.
    9900012    2    1    2    0    0  0.49275565273E+00  0.85339811342E+00 -0.64930437523E+00  0.90007876004E+02  0.90000139168E+02 0.  0.
         12    1    1    2    0    0 -0.49275565273E+00 -0.85339811342E+00  0.64930437523E+00  0.11801239956E+01  0.00000000000E+00 0. -1.
         11    1    3    3    0    0  0.10384545287E+02 -0.25416531071E+01  0.30502541467E+02  0.32321878311E+02  0.51100000000E-03 0. -1.
        -11    1    3    3    0    0 -0.42795060310E+01  0.30022190350E+01  0.12564769742E+02  0.13608854835E+02  0.51100000000E-03 0.  1.
        -12    1    3    3    0    0 -0.56122836033E+01  0.39283218557E+00 -0.43716615584E+02  0.44077142858E+02  0.00000000000E+00 0.  1.
</event>
<event>
 7    1  0.2000468E-015  0.9000776E+02  0.7816164E-02  0.1186339E+00
        -11   -1    0    0    0    0  0.00000000000E+00  0.00000000000E+00  0.45593999997E+02  0.45594000000E+02  0.51100000000E-03 0. -1.
         11   -1    0    0    0    0 -0.00000000000E+00 -0.00000000000E+00 -0.45593999997E+02  0.45594000000E+02  0.51100000000E-03 0.  1.
    9900012    2    1    2    0    0  0.39154063332E-01  0.10576123092E+01 -0.52239491662E+00  0.90007757107E+02  0.90000018701E+02 0.  0.
         12    1    1    2    0    0 -0.39154063332E-01 -0.10576123092E+01  0.52239491662E+00  0.11802428929E+01  0.00000000000E+00 0. -1.
         11    1    3    3    0    0 -0.56219653089E+01  0.14438365380E+02  0.35077703953E+02  0.38347336330E+02  0.51100000000E-03 0. -1.
        -11    1    3    3    0    0 -0.63945711920E+01 -0.68867771563E+01  0.36565180331E+01  0.10084064891E+02  0.51100000000E-03 0.  1.
        -12    1    3    3    0    0  0.12055690564E+02 -0.64939759145E+01 -0.39256616902E+02  0.41576355886E+02  0.00000000000E+00 0.  1.
</event>
<event>
 7    1  0.2000468E-015  0.9000782E+02  0.7816164E-02  0.1186339E+00
        -11   -1    0    0    0    0  0.00000000000E+00  0.00000000000E+00  0.45593999997E+02  0.45594000000E+02  0.51100000000E-03 0.  1.
         11   -1    0    0    0    0 -0.00000000000E+00 -0.00000000000E+00 -0.45593999997E+02  0.45594000000E+02  0.51100000000E-03 0. -1.
    9900012    2    1    2    0    0 -0.26807380855E+00  0.78892093832E+00 -0.83580860900E+00  0.90007815335E+02  0.90000077697E+02 0.  0.
         12    1    1    2    0    0  0.26807380855E+00 -0.78892093832E+00  0.83580860900E+00  0.11801846655E+01  0.00000000000E+00 0. -1.
         11    1    3    3    0    0  0.67637285947E+01 -0.52398726812E+01  0.49910950013E+01  0.99053177531E+01  0.51100000000E-03 0. -1.
        -11    1    3    3    0    0  0.20839994171E+02  0.53232797704E+01  0.28610372140E+02  0.35793799167E+02  0.51100000000E-03 0.  1.
         12    1    3    3    0    0 -0.27871796575E+02  0.70551384913E+00 -0.34437275750E+02  0.44308698414E+02  0.00000000000E+00 0. -1.
</event>
<event>
 7    1  0.2000468E-015  0.9000775E+02  0.7816164E-02  0.1186339E+00
        -11   -1    0    0    0    0  0.00000000000E+00  0.00000000000E+00  0.45593999997E+02  0.45594000000E+02  0.51100000000E-03 0.  1.
         11   -1    0    0    0    0 -0.00000000000E+00 -0.00000000000E+00 -0.45593999997E+02  0.45594000000E+02  0.51100000000E-03 0. -1.
    9900012    2    1    2    0    0 -0.11190120855E+01  0.25285234496E+00 -0.27723556823E+00  0.90007753451E+02  0.90000014997E+02 0.  0.
         12    1    1    2    0    0  0.11190120855E+01 -0.25285234496E+00  0.27723556823E+00  0.11802465489E+01  0.00000000000E+00 0. -1.
         11    1    3    3    0    0  0.44408431654E+01 -0.20016321015E+00 -0.31536684184E+01  0.54503924707E+01  0.51100000000E-03 0. -1.
        -11    1    3    3    0    0  0.25438151778E+02 -0.11447900532E+02  0.30523426389E+02  0.41350133631E+02  0.51100000000E-03 0.  1.
         12    1    3    3    0    0 -0.30998007029E+02  0.11900916088E+02 -0.27646993539E+02  0.43207227350E+02  0.00000000000E+00 0. -1.
</event>
<event>
 7    1  0.2000468E-015  0.9000774E+02  0.7816164E-02  0.1186339E+00
        -11   -1    0    0    0    0  0.00000000000E+00  0.00000000000E+00  0.45593999997E+02  0.45594000000E+02  0.51100000000E-03 0.  1.
         11   -1    0    0    0    0 -0.00000000000E+00 -0.00000000000E+00 -0.45593999997E+02  0.45594000000E+02  0.51100000000E-03 0. -1.
    9900012    2    1    2    0    0 -0.99864761670E+00 -0.25050209665E+00  0.57703960445E+00  0.90007736018E+02  0.89999997333E+02 0.  0.
         12    1    1    2    0    0  0.99864761670E+00  0.25050209665E+00 -0.57703960445E+00  0.11802639823E+01  0.00000000000E+00 0. -1.
         11    1    3    3    0    0 -0.71121234865E+01  0.52746855326E+01 -0.38735717331E+01  0.96648417570E+01  0.51100000000E-03 0. -1.
        -11    1    3    3    0    0  0.12129862060E+02  0.28182470996E+02  0.25718231604E+02  0.40035142839E+02  0.51100000000E-03 0.  1.
         12    1    3    3    0    0 -0.60163861903E+01 -0.33707658626E+02 -0.21267620267E+02  0.40307751421E+02  0.00000000000E+00 0. -1.
</event>
<event>
 7    1  0.2000468E-015  0.9000767E+02  0.7816164E-02  0.1186339E+00
        -11   -1    0    0    0    0  0.00000000000E+00  0.00000000000E+00  0.45593999997E+02  0.45594000000E+02  0.51100000000E-03 0.  1.
         11   -1    0    0    0    0 -0.00000000000E+00 -0.00000000000E+00 -0.45593999997E+02  0.45594000000E+02  0.51100000000E-03 0. -1.
    9900012    2    1    2    0    0  0.96315873739E+00 -0.31418712458E+00 -0.60563142328E+00  0.90007670502E+02  0.89999930953E+02 0.  0.
         12    1    1    2    0    0 -0.96315873739E+00  0.31418712458E+00  0.60563142328E+00  0.11803294979E+01  0.00000000000E+00 0. -1.
         11    1    3    3    0    0 -0.39533008414E+02 -0.73884559906E+01  0.25761500049E+01  0.40299932820E+02  0.51100000000E-03 0. -1.
        -11    1    3    3    0    0 -0.65869547368E+00 -0.57076564210E+01 -0.32753336882E+01  0.66135491665E+01  0.51100000000E-03 0.  1.
        -12    1    3    3    0    0  0.41154862625E+02  0.12781925287E+02  0.93552260051E-01  0.43094188515E+02  0.00000000000E+00 0.  1.
</event>
<event>
 7    1  0.2000468E-015  0.9000773E+02  0.7816164E-02  0.1186339E+00
        -11   -1    0    0    0    0  0.00000000000E+00  0.00000000000E+00  0.45593999997E+02  0.45594000000E+02  0.51100000000E-03 0. -1.
         11   -1    0    0    0    0 -0.00000000000E+00 -0.00000000000E+00 -0.45593999997E+02  0.45594000000E+02  0.51100000000E-03 0.  1.
    9900012    2    1    2    0    0  0.48073012341E+00 -0.66480640721E+00  0.84850517754E+00  0.90007733061E+02  0.89999994338E+02 0.  0.
         12    1    1    2    0    0 -0.48073012341E+00  0.66480640721E+00 -0.84850517754E+00  0.11802669388E+01  0.00000000000E+00 0. -1.
         11    1    3    3    0    0 -0.79201920523E+01 -0.16854508986E+01 -0.74789209915E+00  0.81320065009E+01  0.51100000000E-03 0. -1.
        -11    1    3    3    0    0  0.60681025510E+01  0.32593859900E+02 -0.24192532337E+02  0.41042175781E+02  0.51100000000E-03 0.  1.
         12    1    3    3    0    0  0.23328196247E+01 -0.31573215408E+02  0.25788929613E+02  0.40833550779E+02  0.00000000000E+00 0. -1.
</event>
<event>
 7    1  0.2000468E-015  0.9000751E+02  0.7816164E-02  0.1186340E+00
        -11   -1    0    0    0    0  0.00000000000E+00  0.00000000000E+00  0.45593999997E+02  0.45594000000E+02  0.51100000000E-03 0. -1.
         11   -1    0    0    0    0 -0.00000000000E+00 -0.00000000000E+00 -0.45593999997E+02  0.45594000000E+02  0.51100000000E-03 0.  1.
    9900012    2    1    2    0    0  0.34368314612E+00 -0.24185404605E+00 -0.11031517904E+01  0.90007510543E+02  0.89999768882E+02 0.  0.
         12    1    1    2    0    0 -0.34368314612E+00  0.24185404605E+00  0.11031517904E+01  0.11804894567E+01  0.00000000000E+00 0. -1.
         11    1    3    3    0    0 -0.59886959151E+01  0.87230547406E+01  0.13881942694E+01  0.10671609361E+02  0.51100000000E-03 0. -1.
        -11    1    3    3    0    0  0.28734163610E+02 -0.66295326749E+01 -0.31144323210E+02  0.42890228845E+02  0.51100000000E-03 0.  1.
         12    1    3    3    0    0 -0.22401784549E+02 -0.23353761118E+01  0.28652977150E+02  0.36445672337E+02  0.00000000000E+00 0. -1.
</event>
<event>
 7    1  0.2000468E-015  0.9000776E+02  0.7816164E-02  0.1186339E+00
        -11   -1    0    0    0    0  0.00000000000E+00  0.00000000000E+00  0.45593999997E+02  0.45594000000E+02  0.51100000000E-03 0.  1.
         11   -1    0    0    0    0 -0.00000000000E+00 -0.00000000000E+00 -0.45593999997E+02  0.45594000000E+02  0.51100000000E-03 0. -1.
    9900012    2    1    2    0    0 -0.39488721308E+00  0.19099344529E+00  0.10957020323E+01  0.90007755385E+02  0.90000016956E+02 0.  0.
         12    1    1    2    0    0  0.39488721308E+00 -0.19099344529E+00 -0.10957020323E+01  0.11802446148E+01  0.00000000000E+00 0. -1.
         11    1    3    3    0    0  0.98485257105E+01  0.29826502193E+01  0.13964461111E+01  0.10384590652E+02  0.51100000000E-03 0. -1.
        -11    1    3    3    0    0  0.31235035121E+02 -0.35522146159E+01  0.15724991094E+02  0.35149978562E+02  0.51100000000E-03 0.  1.
         12    1    3    3    0    0 -0.41478448045E+02  0.76055784188E+00 -0.16025735173E+02  0.44473186172E+02  0.00000000000E+00 0. -1.
</event>
<event>
 7    1  0.2000468E-015  0.9000768E+02  0.7816164E-02  0.1186339E+00
        -11   -1    0    0    0    0  0.00000000000E+00  0.00000000000E+00  0.45593999997E+02  0.45594000000E+02  0.51100000000E-03 0.  1.
         11   -1    0    0    0    0 -0.00000000000E+00 -0.00000000000E+00 -0.45593999997E+02  0.45594000000E+02  0.51100000000E-03 0. -1.
    9900012    2    1    2    0    0 -0.74925705688E+00  0.30827932822E+00  0.85833209783E+00  0.90007679589E+02  0.89999940160E+02 0.  0.
         12    1    1    2    0    0  0.74925705688E+00 -0.30827932822E+00 -0.85833209783E+00  0.11803204106E+01  0.00000000000E+00 0. -1.
         11    1    3    3    0    0  0.17780246756E+01 -0.28977740310E+01  0.83872045220E+01  0.90500644217E+01  0.51100000000E-03 0. -1.
        -11    1    3    3    0    0 -0.23507290129E+02 -0.27131946844E+02  0.13670641447E+02  0.38413821296E+02  0.51100000000E-03 0.  1.
         12    1    3    3    0    0  0.20980008396E+02  0.30338000203E+02 -0.21199513871E+02  0.42543793872E+02  0.00000000000E+00 0. -1.
</event>
<event>
 7    1  0.2000468E-015  0.9000777E+02  0.7816164E-02  0.1186339E+00
        -11   -1    0    0    0    0  0.00000000000E+00  0.00000000000E+00  0.45593999997E+02  0.45594000000E+02  0.51100000000E-03 0. -1.
         11   -1    0    0    0    0 -0.00000000000E+00 -0.00000000000E+00 -0.45593999997E+02  0.45594000000E+02  0.51100000000E-03 0.  1.
    9900012    2    1    2    0    0  0.26457792387E+00  0.95138702969E-01 -0.11462511693E+01  0.90007769262E+02  0.90000031017E+02 0.  0.
         12    1    1    2    0    0 -0.26457792387E+00 -0.95138702969E-01  0.11462511693E+01  0.11802307375E+01  0.00000000000E+00 0. -1.
         11    1    3    3    0    0  0.33295365337E+01  0.97207958463E+01  0.37403811334E+01  0.10934813062E+02  0.51100000000E-03 0. -1.
        -11    1    3    3    0    0  0.20104065219E+02 -0.35249893743E+02  0.94578472798E+01  0.41667485197E+02  0.51100000000E-03 0.  1.
         12    1    3    3    0    0 -0.23169023829E+02  0.25624236600E+02 -0.14344479583E+02  0.37405471003E+02  0.00000000000E+00 0. -1.
</event>
<event>
 7    1  0.2000468E-015  0.9000815E+02  0.7816164E-02  0.1186338E+00
        -11   -1    0    0    0    0  0.00000000000E+00  0.00000000000E+00  0.45593999997E+02  0.45594000000E+02  0.51100000000E-03 0. -1.
         11   -1    0    0    0    0 -0.00000000000E+00 -0.00000000000E+00 -0.45593999997E+02  0.45594000000E+02  0.51100000000E-03 0.  1.
    9900012    2    1    2    0    0 -0.41251304740E+00  0.70316105939E-01 -0.11031454086E+01  0.90008152060E+02  0.90000418866E+02 0.  0.
         12    1    1    2    0    0  0.41251304740E+00 -0.70316105939E-01  0.11031454086E+01  0.11798479400E+01  0.00000000000E+00 0. -1.
         11    1    3    3    0    0  0.90868924657E+01 -0.34408803128E-01 -0.15723478352E+00  0.90883178690E+01  0.51100000000E-03 0. -1.
        -11    1    3    3    0    0  0.30924640910E+02  0.45184159849E+01  0.17992053785E+02  0.36061939744E+02  0.51100000000E-03 0.  1.
         12    1    3    3    0    0 -0.40424046424E+02 -0.44136910758E+01 -0.18937964410E+02  0.44857894447E+02  0.00000000000E+00 0. -1.
</event>
<event>
 7    1  0.2000468E-015  0.9000782E+02  0.7816164E-02  0.1186339E+00
        -11   -1    0    0    0    0  0.00000000000E+00  0.00000000000E+00  0.45593999997E+02  0.45594000000E+02  0.51100000000E-03 0.  1.
         11   -1    0    0    0    0 -0.00000000000E+00 -0.00000000000E+00 -0.45593999997E+02  0.45594000000E+02  0.51100000000E-03 0. -1.
    9900012    2    1    2    0    0 -0.75260067883E+00 -0.90723269515E+00 -0.57876150918E-01  0.90007818406E+02  0.90000080809E+02 0.  0.
         12    1    1    2    0    0  0.75260067883E+00  0.90723269515E+00  0.57876150918E-01  0.11801815936E+01  0.00000000000E+00 0. -1.
         11    1    3    3    0    0 -0.37943452999E+02 -0.18938317917E+02 -0.88984534619E+01  0.43330681801E+02  0.51100000000E-03 0. -1.
        -11    1    3    3    0    0  0.83550877740E+01  0.13158051686E+02  0.77626578770E+01  0.17412658426E+02  0.51100000000E-03 0.  1.
        -12    1    3    3    0    0  0.28835764546E+02  0.48730335359E+01  0.10779194340E+01  0.29264478180E+02  0.00000000000E+00 0.  1.
</event>
<event>
 7    1  0.2000468E-015  0.9000771E+02  0.7816164E-02  0.1186339E+00
        -11   -1    0    0    0    0  0.00000000000E+00  0.00000000000E+00  0.45593999997E+02  0.45594000000E+02  0.51100000000E-03 0. -1.
         11   -1    0    0    0    0 -0.00000000000E+00 -0.00000000000E+00 -0.45593999997E+02  0.45594000000E+02  0.51100000000E-03 0.  1.
    9900012    2    1    2    0    0 -0.10362057122E+01  0.86552758283E-01 -0.55844706423E+00  0.90007713263E+02  0.89999974278E+02 0.  0.
         12    1    1    2    0    0  0.10362057122E+01 -0.86552758283E-01  0.55844706423E+00  0.11802867370E+01  0.00000000000E+00 0. -1.
         11    1    3    3    0    0 -0.21989088622E+02  0.16837932616E+02  0.22191581483E+02  0.35489467200E+02  0.51100000000E-03 0. -1.
        -11    1    3    3    0    0 -0.31168958557E+01  0.84911309060E+01  0.46440428833E+01  0.10167668287E+02  0.51100000000E-03 0.  1.
        -12    1    3    3    0    0  0.24069778765E+02 -0.25242510764E+02 -0.27394071430E+02  0.44350577775E+02  0.00000000000E+00 0.  1.
</event>
<event>
 7    1  0.2000468E-015  0.9000794E+02  0.7816164E-02  0.1186339E+00
        -11   -1    0    0    0    0  0.00000000000E+00  0.00000000000E+00  0.45593999997E+02  0.45594000000E+02  0.51100000000E-03 0. -1.
         11   -1    0    0    0    0 -0.00000000000E+00 -0.00000000000E+00 -0.45593999997E+02  0.45594000000E+02  0.51100000000E-03 0.  1.
    9900012    2    1    2    0    0 -0.98385989892E+00  0.59960365038E+00 -0.25501469551E+00  0.90007941809E+02  0.90000205841E+02 0.  0.
         12    1    1    2    0    0  0.98385989892E+00 -0.59960365038E+00  0.25501469551E+00  0.11800581906E+01  0.00000000000E+00 0. -1.
         11    1    3    3    0    0 -0.15984693416E+02 -0.28405108340E+02  0.14529442987E+02  0.35685645814E+02  0.51100000000E-03 0. -1.
        -11    1    3    3    0    0 -0.99216060928E+01  0.10804203859E+01  0.58644276100E+01  0.11575711085E+02  0.51100000000E-03 0.  1.
        -12    1    3    3    0    0  0.24922439610E+02  0.27924291604E+02 -0.20648885292E+02  0.42746584910E+02  0.00000000000E+00 0.  1.
</event>
<event>
 7    1  0.2000468E-015  0.9000768E+02  0.7816164E-02  0.1186339E+00
        -11   -1    0    0    0    0  0.00000000000E+00  0.00000000000E+00  0.45593999997E+02  0.45594000000E+02  0.51100000000E-03 0.  1.
         11   -1    0    0    0    0 -0.00000000000E+00 -0.00000000000E+00 -0.45593999997E+02  0.45594000000E+02  0.51100000000E-03 0. -1.
    9900012    2    1    2    0    0 -0.65695379533E+00  0.87037139550E+00  0.45168312503E+00  0.90007681272E+02  0.89999941864E+02 0.  0.
         12    1    1    2    0    0  0.65695379533E+00 -0.87037139550E+00 -0.45168312503E+00  0.11803187285E+01  0.00000000000E+00 0. -1.
         11    1    3    3    0    0  0.45290804366E+01 -0.79543295443E+01 -0.29699179659E+01  0.96231149367E+01  0.51100000000E-03 0. -1.
        -11    1    3    3    0    0  0.34399164722E+02  0.68939900083E+01 -0.13096355731E+02  0.37447885996E+02  0.51100000000E-03 0.  1.
         12    1    3    3    0    0 -0.39585198954E+02  0.19307109316E+01  0.16517956822E+02  0.42936680339E+02  0.00000000000E+00 0. -1.
</event>
<event>
 7    1  0.2000468E-015  0.9000773E+02  0.7816164E-02  0.1186339E+00
        -11   -1    0    0    0    0  0.00000000000E+00  0.00000000000E+00  0.45593999997E+02  0.45594000000E+02  0.51100000000E-03 0. -1.
         11   -1    0    0    0    0 -0.00000000000E+00 -0.00000000000E+00 -0.45593999997E+02  0.45594000000E+02  0.51100000000E-03 0.  1.
    9900012    2    1    2    0    0 -0.55159312591E+00 -0.89277518106E+00 -0.54011669073E+00  0.90007733700E+02  0.89999994984E+02 0.  0.
         12    1    1    2    0    0  0.55159312591E+00  0.89277518106E+00  0.54011669073E+00  0.11802663005E+01  0.00000000000E+00 0. -1.
         11    1    3    3    0    0 -0.10400537379E+02  0.94615033886E+01  0.34470331177E+02  0.37227610128E+02  0.51100000000E-03 0. -1.
        -11    1    3    3    0    0 -0.13007826333E+02  0.20223131809E+01 -0.15138085059E+02  0.20061279023E+02  0.51100000000E-03 0.  1.
        -12    1    3    3    0    0  0.22856770586E+02 -0.12376591751E+02 -0.19872362808E+02  0.32718844548E+02  0.00000000000E+00 0.  1.
</event>
<event>
 7    1  0.2000468E-015  0.9000770E+02  0.7816164E-02  0.1186339E+00
        -11   -1    0    0    0    0  0.00000000000E+00  0.00000000000E+00  0.45593999997E+02  0.45594000000E+02  0.51100000000E-03 0.  1.
         11   -1    0    0    0    0 -0.00000000000E+00 -0.00000000000E+00 -0.45593999997E+02  0.45594000000E+02  0.51100000000E-03 0. -1.
    9900012    2    1    2    0    0 -0.10101434241E+01 -0.31992759602E+00  0.51996546866E+00  0.90007700253E+02  0.89999961096E+02 0.  0.
         12    1    1    2    0    0  0.10101434241E+01  0.31992759602E+00 -0.51996546866E+00  0.11802997469E+01  0.00000000000E+00 0. -1.
         11    1    3    3    0    0 -0.53357463643E+01 -0.50374299098E+01 -0.36471174730E+01  0.81943489969E+01  0.51100000000E-03 0. -1.
        -11    1    3    3    0    0 -0.31737641603E+02 -0.17472021286E+02  0.13124708335E+02  0.38533198562E+02  0.51100000000E-03 0.  1.
         12    1    3    3    0    0  0.36063244543E+02  0.22189523600E+02 -0.89576253932E+01  0.43280152694E+02  0.00000000000E+00 0. -1.
</event>
<event>
 7    1  0.2000468E-015  0.9000775E+02  0.7816164E-02  0.1186339E+00
        -11   -1    0    0    0    0  0.00000000000E+00  0.00000000000E+00  0.45593999997E+02  0.45594000000E+02  0.51100000000E-03 0.  1.
         11   -1    0    0    0    0 -0.00000000000E+00 -0.00000000000E+00 -0.45593999997E+02  0.45594000000E+02  0.51100000000E-03 0. -1.
    9900012    2    1    2    0    0  0.11167993550E+01 -0.36098737067E+00  0.12425765520E+00  0.90007748906E+02  0.90000010391E+02 0.  0.
         12    1    1    2    0    0 -0.11167993550E+01  0.36098737067E+00 -0.12425765520E+00  0.11802510945E+01  0.00000000000E+00 0. -1.
         11    1    3    3    0    0 -0.12116411160E+02 -0.40508271679E+02 -0.43123839114E+00  0.42283725718E+02  0.51100000000E-03 0. -1.
        -11    1    3    3    0    0  0.90275772009E+01  0.31507868312E+01 -0.36880172671E+01  0.10248223231E+02  0.51100000000E-03 0.  1.
        -12    1    3    3    0    0  0.42056333139E+01  0.36996497477E+02  0.42435133135E+01  0.37475799956E+02  0.00000000000E+00 0.  1.
</event>
<event>
 7    1  0.2000468E-015  0.9000772E+02  0.7816164E-02  0.1186339E+00
        -11   -1    0    0    0    0  0.00000000000E+00  0.00000000000E+00  0.45593999997E+02  0.45594000000E+02  0.51100000000E-03 0. -1.
         11   -1    0    0    0    0 -0.00000000000E+00 -0.00000000000E+00 -0.45593999997E+02  0.45594000000E+02  0.51100000000E-03 0.  1.
    9900012    2    1    2    0    0  0.11568555528E+01  0.21896714464E+00 -0.82412840882E-01  0.90007723229E+02  0.89999984375E+02 0.  0.
         12    1    1    2    0    0 -0.11568555528E+01 -0.21896714464E+00  0.82412840882E-01  0.11802767713E+01  0.00000000000E+00 0. -1.
         11    1    3    3    0    0 -0.98614357953E+01 -0.35736766768E+02  0.11708452971E+02  0.38877400714E+02  0.51100000000E-03 0. -1.
        -11    1    3    3    0    0  0.46427604222E+01 -0.24236610961E+01  0.63267851284E+01  0.82132556132E+01  0.51100000000E-03 0.  1.
        -12    1    3    3    0    0  0.63755309259E+01  0.38379395009E+02 -0.18117650941E+02  0.42917066902E+02  0.00000000000E+00 0.  1.
</event>
<event>
 7    1  0.2000468E-015  0.9000772E+02  0.7816164E-02  0.1186339E+00
        -11   -1    0    0    0    0  0.00000000000E+00  0.00000000000E+00  0.45593999997E+02  0.45594000000E+02  0.51100000000E-03 0.  1.
         11   -1    0    0    0    0 -0.00000000000E+00 -0.00000000000E+00 -0.45593999997E+02  0.45594000000E+02  0.51100000000E-03 0. -1.
    9900012    2    1    2    0    0 -0.33558772330E+00  0.10315693569E+01 -0.46508706473E+00  0.90007720187E+02  0.89999981294E+02 0.  0.
         12    1    1    2    0    0  0.33558772330E+00 -0.10315693569E+01  0.46508706473E+00  0.11802798125E+01  0.00000000000E+00 0. -1.
         11    1    3    3    0    0  0.33561156973E+01  0.40301535656E+02 -0.15586572723E+02  0.43340726093E+02  0.51100000000E-03 0. -1.
        -11    1    3    3    0    0  0.33427897440E+01 -0.35266630620E+01  0.82809891766E+01  0.96013737366E+01  0.51100000000E-03 0.  1.
        -12    1    3    3    0    0 -0.70344931647E+01 -0.35743303237E+02  0.68404964821E+01  0.37065620358E+02  0.00000000000E+00 0.  1.
</event>
<event>
 8    1  0.2000468E-015  0.9000693E+02  0.7816164E-02  0.1186341E+00
        -11   -1    0    0    0    0  0.00000000000E+00  0.00000000000E+00  0.45593999997E+02  0.45594000000E+02  0.51100000000E-03 0.  1.
         11   -1    0    0    0    0 -0.00000000000E+00 -0.00000000000E+00 -0.45593999997E+02  0.45594000000E+02  0.51100000000E-03 0. -1.
    9900012    2    1    2    0    0  0.20391834797E+00 -0.11323224556E+01  0.26682138980E+00  0.90006928245E+02  0.89999178894E+02 0.  0.
         23    2    3    3    0    0  0.23491252101E+02  0.90685484045E+01  0.87810790269E+01  0.63195545164E+02  0.57293036962E+02 0.  0.
         12    1    1    2    0    0 -0.20391834797E+00  0.11323224556E+01 -0.26682138980E+00  0.11810717548E+01  0.00000000000E+00 0. -1.
         11    1    4    4    0    0  0.19705459977E+02  0.25113885294E+02 -0.14179435324E+02  0.34929482874E+02  0.51100000000E-03 0. -1.
        -11    1    4    4    0    0  0.37857921231E+01 -0.16045336889E+02  0.22960514351E+02  0.28266062290E+02  0.51100000000E-03 0.  1.
        -12    1    3    3    0    0 -0.23287333753E+02 -0.10200870860E+02 -0.85142576371E+01  0.26811383081E+02  0.00000000000E+00 0.  1.
</event>
<event>
 7    1  0.2000468E-015  0.9000782E+02  0.7816164E-02  0.1186339E+00
        -11   -1    0    0    0    0  0.00000000000E+00  0.00000000000E+00  0.45593999997E+02  0.45594000000E+02  0.51100000000E-03 0.  1.
         11   -1    0    0    0    0 -0.00000000000E+00 -0.00000000000E+00 -0.45593999997E+02  0.45594000000E+02  0.51100000000E-03 0. -1.
    9900012    2    1    2    0    0 -0.49048328761E+00 -0.10712616538E+01 -0.68249547541E-01  0.90007816376E+02  0.90000078752E+02 0.  0.
         12    1    1    2    0    0  0.49048328761E+00  0.10712616538E+01  0.68249547541E-01  0.11801836243E+01  0.00000000000E+00 0. -1.
         11    1    3    3    0    0 -0.20763592133E+01  0.54174265605E+01  0.10205274600E+02  0.11739140005E+02  0.51100000000E-03 0. -1.
        -11    1    3    3    0    0 -0.29868367064E+02  0.12868907877E+02  0.12540898687E+02  0.34856882838E+02  0.51100000000E-03 0.  1.
         12    1    3    3    0    0  0.31454242989E+02 -0.19357596092E+02 -0.22814422835E+02  0.43411793533E+02  0.00000000000E+00 0. -1.
</event>
<event>
 7    1  0.2000468E-015  0.9000775E+02  0.7816164E-02  0.1186339E+00
        -11   -1    0    0    0    0  0.00000000000E+00  0.00000000000E+00  0.45593999997E+02  0.45594000000E+02  0.51100000000E-03 0. -1.
         11   -1    0    0    0    0 -0.00000000000E+00 -0.00000000000E+00 -0.45593999997E+02  0.45594000000E+02  0.51100000000E-03 0.  1.
    9900012    2    1    2    0    0  0.35102720962E-02  0.11789067816E+01 -0.56190163691E-01  0.90007749664E+02  0.90000011159E+02 0.  0.
         12    1    1    2    0    0 -0.35102720962E-02 -0.11789067816E+01  0.56190163691E-01  0.11802503362E+01  0.00000000000E+00 0. -1.
         11    1    3    3    0    0 -0.84798585963E+00  0.33732454772E+01 -0.90088040660E+01  0.96569361616E+01  0.51100000000E-03 0. -1.
        -11    1    3    3    0    0 -0.42004470710E+01  0.11653379540E+01 -0.35358543572E+02  0.35626231514E+02  0.51100000000E-03 0.  1.
         12    1    3    3    0    0  0.50519432027E+01 -0.33596766496E+01  0.44311157474E+02  0.44724581988E+02  0.00000000000E+00 0. -1.
</event>
<event>
 7    1  0.2000468E-015  0.9000770E+02  0.7816164E-02  0.1186339E+00
        -11   -1    0    0    0    0  0.00000000000E+00  0.00000000000E+00  0.45593999997E+02  0.45594000000E+02  0.51100000000E-03 0.  1.
         11   -1    0    0    0    0 -0.00000000000E+00 -0.00000000000E+00 -0.45593999997E+02  0.45594000000E+02  0.51100000000E-03 0. -1.
    9900012    2    1    2    0    0  0.27808058686E+00 -0.10256016650E+01 -0.51374104038E+00  0.90007696037E+02  0.89999956825E+02 0.  0.
         12    1    1    2    0    0 -0.27808058686E+00  0.10256016650E+01  0.51374104038E+00  0.11803039628E+01  0.00000000000E+00 0. -1.
         11    1    3    3    0    0  0.11920766430E+02  0.36622848155E+02  0.15724344658E+01  0.38546209018E+02  0.51100000000E-03 0. -1.
        -11    1    3    3    0    0 -0.43721228463E+01  0.50501464291E+01 -0.45436922597E+01  0.80786494385E+01  0.51100000000E-03 0.  1.
        -12    1    3    3    0    0 -0.72705629969E+01 -0.42698596249E+02  0.24575167536E+01  0.43382837580E+02  0.00000000000E+00 0.  1.
</event>
<event>
 7    1  0.2180201E-015  0.9000782E+02  0.7816164E-02  0.1186339E+00
        -11   -1    0    0    0    0  0.00000000000E+00  0.00000000000E+00  0.45593999997E+02  0.45594000000E+02  0.51100000000E-03 0. -1.
         11   -1    0    0    0    0 -0.00000000000E+00 -0.00000000000E+00 -0.45593999997E+02  0.45594000000E+02  0.51100000000E-03 0.  1.
    9900012    2    1    2    0    0  0.10686358519E+01  0.17565360749E+00 -0.46904072967E+00  0.90007815277E+02  0.90000077639E+02 0.  0.
         12    1    1    2    0    0 -0.10686358519E+01 -0.17565360749E+00  0.46904072967E+00  0.11801847228E+01  0.00000000000E+00 0. -1.
         11    1    3    3    0    0  0.60356264216E+01  0.17220086839E+01  0.36549115550E+02  0.37084119890E+02  0.51100000000E-03 0. -1.
        -11    1    3    3    0    0  0.67848058242E+01  0.32217971076E+01  0.50068587564E+01  0.90267492234E+01  0.51100000000E-03 0.  1.
        -12    1    3    3    0    0 -0.11751796394E+02 -0.47681521840E+01 -0.42025015036E+02  0.43896946164E+02  0.00000000000E+00 0.  1.
</event>
<event>
 7    1  0.2000468E-015  0.9000769E+02  0.7816164E-02  0.1186339E+00
        -11   -1    0    0    0    0  0.00000000000E+00  0.00000000000E+00  0.45593999997E+02  0.45594000000E+02  0.51100000000E-03 0. -1.
         11   -1    0    0    0    0 -0.00000000000E+00 -0.00000000000E+00 -0.45593999997E+02  0.45594000000E+02  0.51100000000E-03 0.  1.
    9900012    2    1    2    0    0  0.77227769867E-01 -0.97534459191E+00  0.66020465334E+00  0.90007690131E+02  0.89999950841E+02 0.  0.
         12    1    1    2    0    0 -0.77227769867E-01  0.97534459191E+00 -0.66020465334E+00  0.11803098685E+01  0.00000000000E+00 0. -1.
         11    1    3    3    0    0  0.25680980272E+02 -0.22932957883E+01  0.29467613491E+02  0.39154976676E+02  0.51100000000E-03 0. -1.
        -11    1    3    3    0    0  0.26036769396E+01 -0.90449486806E+01 -0.27805744755E+00  0.94163446435E+01  0.51100000000E-03 0.  1.
        -12    1    3    3    0    0 -0.28207429442E+02  0.10362899877E+02 -0.28529351391E+02  0.41436368812E+02  0.00000000000E+00 0.  1.
</event>
<event>
 7    1  0.2000468E-015  0.9000777E+02  0.7816164E-02  0.1186339E+00
        -11   -1    0    0    0    0  0.00000000000E+00  0.00000000000E+00  0.45593999997E+02  0.45594000000E+02  0.51100000000E-03 0.  1.
         11   -1    0    0    0    0 -0.00000000000E+00 -0.00000000000E+00 -0.45593999997E+02  0.45594000000E+02  0.51100000000E-03 0. -1.
    9900012    2    1    2    0    0  0.78357114551E+00  0.87237560432E+00  0.13388358448E+00  0.90007767926E+02  0.90000029662E+02 0.  0.
         12    1    1    2    0    0 -0.78357114551E+00 -0.87237560432E+00 -0.13388358448E+00  0.11802320743E+01  0.00000000000E+00 0. -1.
         11    1    3    3    0    0 -0.31309054223E+02 -0.11634506081E+02 -0.23978092863E+02  0.41116511838E+02  0.51100000000E-03 0. -1.
        -11    1    3    3    0    0  0.56110934025E+00  0.33842835991E+01 -0.42842509807E+01  0.54884447613E+01  0.51100000000E-03 0.  1.
        -12    1    3    3    0    0  0.31531516029E+02  0.91225980863E+01  0.28396227428E+02  0.43402811327E+02  0.00000000000E+00 0.  1.
</event>
<event>
 7    1  0.2000468E-015  0.9000767E+02  0.7816164E-02  0.1186339E+00
        -11   -1    0    0    0    0  0.00000000000E+00  0.00000000000E+00  0.45593999997E+02  0.45594000000E+02  0.51100000000E-03 0.  1.
         11   -1    0    0    0    0 -0.00000000000E+00 -0.00000000000E+00 -0.45593999997E+02  0.45594000000E+02  0.51100000000E-03 0. -1.
    9900012    2    1    2    0    0  0.84747020090E+00 -0.81959713835E+00 -0.56772729861E-01  0.90007674471E+02  0.89999934974E+02 0.  0.
         12    1    1    2    0    0 -0.84747020090E+00  0.81959713835E+00  0.56772729861E-01  0.11803255286E+01  0.00000000000E+00 0. -1.
         11    1    3    3    0    0 -0.57294071253E+01  0.14394584408E+02 -0.15898295780E+02  0.22198783193E+02  0.51100000000E-03 0. -1.
        -11    1    3    3    0    0 -0.94842192755E+01 -0.35026599369E+02 -0.25305484427E+01  0.36376046435E+02  0.51100000000E-03 0.  1.
         12    1    3    3    0    0  0.16061096602E+02  0.19812417822E+02  0.18372071492E+02  0.31432844843E+02  0.00000000000E+00 0. -1.
</event>
<event>
 7    1  0.2000468E-015  0.9000721E+02  0.7816164E-02  0.1186340E+00
        -11   -1    0    0    0    0  0.00000000000E+00  0.00000000000E+00  0.45593999997E+02  0.45594000000E+02  0.51100000000E-03 0.  1.
         11   -1    0    0    0    0 -0.00000000000E+00 -0.00000000000E+00 -0.45593999997E+02  0.45594000000E+02  0.51100000000E-03 0. -1.
    9900012    2    1    2    0    0  0.10297245253E+01  0.40922018804E+00  0.40800291377E+00  0.90007212069E+02  0.89999466467E+02 0.  0.
         12    1    1    2    0    0 -0.10297245253E+01 -0.40922018804E+00 -0.40800291377E+00  0.11807879309E+01  0.00000000000E+00 0. -1.
         11    1    3    3    0    0 -0.23340452042E+01  0.56750996743E+01  0.89103685402E+01  0.10818927447E+02  0.51100000000E-03 0. -1.
        -11    1    3    3    0    0 -0.98771895626E+01  0.25018709943E+02  0.21588497817E+02  0.34489968964E+02  0.51100000000E-03 0.  1.
         12    1    3    3    0    0  0.13240959292E+02 -0.30284589429E+02 -0.30090863444E+02  0.44698315658E+02  0.00000000000E+00 0. -1.
</event>
<event>
 7    1  0.2000468E-015  0.9000773E+02  0.7816164E-02  0.1186339E+00
        -11   -1    0    0    0    0  0.00000000000E+00  0.00000000000E+00  0.45593999997E+02  0.45594000000E+02  0.51100000000E-03 0.  1.
         11   -1    0    0    0    0 -0.00000000000E+00 -0.00000000000E+00 -0.45593999997E+02  0.45594000000E+02  0.51100000000E-03 0. -1.
    9900012    2    1    2    0    0 -0.37881896809E+00 -0.14410902479E+00 -0.11084924048E+01  0.90007734507E+02  0.89999995803E+02 0.  0.
         12    1    1    2    0    0  0.37881896809E+00  0.14410902479E+00  0.11084924048E+01  0.11802654926E+01  0.00000000000E+00 0. -1.
         11    1    3    3    0    0  0.27762922320E+02 -0.17349256785E+02  0.14844386824E+02  0.35946243019E+02  0.51100000000E-03 0. -1.
        -11    1    3    3    0    0  0.10078171884E+01  0.44485867269E+01  0.11288052310E+02  0.12174799570E+02  0.51100000000E-03 0.  1.
        -12    1    3    3    0    0 -0.29149558476E+02  0.12756561034E+02 -0.27240931539E+02  0.41886691918E+02  0.00000000000E+00 0.  1.
</event>
<event>
 7    1  0.2000468E-015  0.9000797E+02  0.7816164E-02  0.1186339E+00
        -11   -1    0    0    0    0  0.00000000000E+00  0.00000000000E+00  0.45593999997E+02  0.45594000000E+02  0.51100000000E-03 0.  1.
         11   -1    0    0    0    0 -0.00000000000E+00 -0.00000000000E+00 -0.45593999997E+02  0.45594000000E+02  0.51100000000E-03 0. -1.
    9900012    2    1    2    0    0  0.37610776635E+00 -0.10783901416E+01  0.29679982751E+00  0.90007969286E+02  0.90000233680E+02 0.  0.
         12    1    1    2    0    0 -0.37610776635E+00  0.10783901416E+01 -0.29679982751E+00  0.11800307145E+01  0.00000000000E+00 0. -1.
         11    1    3    3    0    0  0.62822881765E+01  0.34685806315E+02 -0.14449274464E+02  0.38096638136E+02  0.51100000000E-03 0. -1.
        -11    1    3    3    0    0  0.98162639866E+01 -0.25995299328E+01 -0.37331357211E+01  0.10819098719E+02  0.51100000000E-03 0.  1.
        -12    1    3    3    0    0 -0.15722444397E+02 -0.33164666524E+02  0.18479210012E+02  0.41092232430E+02  0.00000000000E+00 0.  1.
</event>
<event>
 7    1  0.2000468E-015  0.9000780E+02  0.7816164E-02  0.1186339E+00
        -11   -1    0    0    0    0  0.00000000000E+00  0.00000000000E+00  0.45593999997E+02  0.45594000000E+02  0.51100000000E-03 0. -1.
         11   -1    0    0    0    0 -0.00000000000E+00 -0.00000000000E+00 -0.45593999997E+02  0.45594000000E+02  0.51100000000E-03 0.  1.
    9900012    2    1    2    0    0 -0.47542391093E+00 -0.74105592107E+00 -0.78592523330E+00  0.90007800760E+02  0.90000062930E+02 0.  0.
         12    1    1    2    0    0  0.47542391093E+00  0.74105592107E+00  0.78592523330E+00  0.11801992398E+01  0.00000000000E+00 0. -1.
         11    1    3    3    0    0 -0.16666080284E+02 -0.33197882332E+02 -0.59842100079E+01  0.37625369009E+02  0.51100000000E-03 0. -1.
        -11    1    3    3    0    0  0.43425760507E+01 -0.80928544107E+01 -0.23215253771E+01  0.94732116838E+01  0.51100000000E-03 0.  1.
        -12    1    3    3    0    0  0.11848080322E+02  0.40549680822E+02  0.75198101517E+01  0.42909220068E+02  0.00000000000E+00 0.  1.
</event>
<event>
 7    1  0.2000468E-015  0.9000768E+02  0.7816164E-02  0.1186339E+00
        -11   -1    0    0    0    0  0.00000000000E+00  0.00000000000E+00  0.45593999997E+02  0.45594000000E+02  0.51100000000E-03 0.  1.
         11   -1    0    0    0    0 -0.00000000000E+00 -0.00000000000E+00 -0.45593999997E+02  0.45594000000E+02  0.51100000000E-03 0. -1.
    9900012    2    1    2    0    0 -0.51526586204E-01  0.10210971490E+01  0.58979785554E+00  0.90007679752E+02  0.89999940325E+02 0.  0.
         12    1    1    2    0    0  0.51526586204E-01 -0.10210971490E+01 -0.58979785554E+00  0.11803202477E+01  0.00000000000E+00 0. -1.
         11    1    3    3    0    0 -0.34401653623E+02 -0.17182404300E+02 -0.22397404206E+01  0.38519154027E+02  0.51100000000E-03 0. -1.
        -11    1    3    3    0    0  0.18005800428E+02 -0.74420316195E+01 -0.49420941581E+01  0.20100173597E+02  0.51100000000E-03 0.  1.
        -12    1    3    3    0    0  0.16344326609E+02  0.25645533069E+02  0.77716324342E+01  0.31388352129E+02  0.00000000000E+00 0.  1.
</event>
<event>
 7    1  0.2000468E-015  0.9000822E+02  0.7816164E-02  0.1186338E+00
        -11   -1    0    0    0    0  0.00000000000E+00  0.00000000000E+00  0.45593999997E+02  0.45594000000E+02  0.51100000000E-03 0.  1.
         11   -1    0    0    0    0 -0.00000000000E+00 -0.00000000000E+00 -0.45593999997E+02  0.45594000000E+02  0.51100000000E-03 0. -1.
    9900012    2    1    2    0    0  0.10873069757E+01  0.35441747173E+00  0.28990370545E+00  0.90008215120E+02  0.90000482759E+02 0.  0.
         12    1    1    2    0    0 -0.10873069757E+01 -0.35441747173E+00 -0.28990370545E+00  0.11797848795E+01  0.00000000000E+00 0. -1.
         11    1    3    3    0    0 -0.19420467504E+02  0.41726839167E+01 -0.36386314264E+02  0.41455153058E+02  0.51100000000E-03 0. -1.
        -11    1    3    3    0    0 -0.45985711198E+01  0.30463123904E+01  0.41950866165E+01  0.69300524893E+01  0.51100000000E-03 0.  1.
        -12    1    3    3    0    0  0.25106345599E+02 -0.68645788354E+01  0.32481131353E+02  0.41623009573E+02  0.00000000000E+00 0.  1.
</event>
<event>
 7    1  0.2036628E-015  0.9000812E+02  0.7816164E-02  0.1186338E+00
        -11   -1    0    0    0    0  0.00000000000E+00  0.00000000000E+00  0.45593999997E+02  0.45594000000E+02  0.51100000000E-03 0.  1.
         11   -1    0    0    0    0 -0.00000000000E+00 -0.00000000000E+00 -0.45593999997E+02  0.45594000000E+02  0.51100000000E-03 0. -1.
    9900012    2    1    2    0    0 -0.29500188932E-01 -0.11224670534E+01  0.36238378583E+00  0.90008116720E+02  0.90000383060E+02 0.  0.
         12    1    1    2    0    0  0.29500188932E-01  0.11224670534E+01 -0.36238378583E+00  0.11798832804E+01  0.00000000000E+00 0. -1.
         11    1    3    3    0    0 -0.76658429830E+01  0.24638622709E+02 -0.25471165071E+02  0.36257511332E+02  0.51100000000E-03 0. -1.
        -11    1    3    3    0    0  0.39072227362E+01  0.90302010142E+01 -0.66028945646E+00  0.98613844005E+01  0.51100000000E-03 0.  1.
        -12    1    3    3    0    0  0.37291200579E+01 -0.34791290777E+02  0.26493838313E+02  0.43889220987E+02  0.00000000000E+00 0.  1.
</event>
<event>
 7    1  0.2000468E-015  0.9000776E+02  0.7816164E-02  0.1186339E+00
        -11   -1    0    0    0    0  0.00000000000E+00  0.00000000000E+00  0.45593999997E+02  0.45594000000E+02  0.51100000000E-03 0. -1.
         11   -1    0    0    0    0 -0.00000000000E+00 -0.00000000000E+00 -0.45593999997E+02  0.45594000000E+02  0.51100000000E-03 0.  1.
    9900012    2    1    2    0    0  0.18357578623E+00  0.89959108867E+00 -0.74161897546E+00  0.90007761507E+02  0.90000023159E+02 0.  0.
         12    1    1    2    0    0 -0.18357578623E+00 -0.89959108867E+00  0.74161897546E+00  0.11802384932E+01  0.00000000000E+00 0. -1.
         11    1    3    3    0    0 -0.32465508695E+02  0.12768999807E+02  0.87383348753E+01  0.35964080797E+02  0.51100000000E-03 0. -1.
        -11    1    3    3    0    0 -0.71843075969E+01  0.58196254294E+01  0.74599428152E+00  0.92757114830E+01  0.51100000000E-03 0.  1.
        -12    1    3    3    0    0  0.39833392078E+02 -0.17689034148E+02 -0.10225948132E+02  0.44767969227E+02  0.00000000000E+00 0.  1.
</event>
<event>
 7    1  0.2000468E-015  0.9000775E+02  0.7816164E-02  0.1186339E+00
        -11   -1    0    0    0    0  0.00000000000E+00  0.00000000000E+00  0.45593999997E+02  0.45594000000E+02  0.51100000000E-03 0.  1.
         11   -1    0    0    0    0 -0.00000000000E+00 -0.00000000000E+00 -0.45593999997E+02  0.45594000000E+02  0.51100000000E-03 0. -1.
    9900012    2    1    2    0    0 -0.98456142425E+00  0.64362500805E+00  0.96857309377E-01  0.90007747617E+02  0.90000009086E+02 0.  0.
         12    1    1    2    0    0  0.98456142425E+00 -0.64362500805E+00 -0.96857309377E-01  0.11802523830E+01  0.00000000000E+00 0. -1.
         11    1    3    3    0    0  0.36664072153E+02  0.73969799744E+01 -0.20421997840E+01  0.37458511447E+02  0.51100000000E-03 0. -1.
        -11    1    3    3    0    0  0.58650176500E+01 -0.38687194726E+01 -0.46348872231E+01  0.84171017711E+01  0.51100000000E-03 0.  1.
        -12    1    3    3    0    0 -0.43513651227E+02 -0.28846354938E+01  0.67739443164E+01  0.44132134399E+02  0.00000000000E+00 0.  1.
</event>
<event>
 7    1  0.2000468E-015  0.9000774E+02  0.7816164E-02  0.1186339E+00
        -11   -1    0    0    0    0  0.00000000000E+00  0.00000000000E+00  0.45593999997E+02  0.45594000000E+02  0.51100000000E-03 0. -1.
         11   -1    0    0    0    0 -0.00000000000E+00 -0.00000000000E+00 -0.45593999997E+02  0.45594000000E+02  0.51100000000E-03 0.  1.
    9900012    2    1    2    0    0  0.57508372323E+00  0.15702677906E+00 -0.10186429724E+01  0.90007740620E+02  0.90000001996E+02 0.  0.
         12    1    1    2    0    0 -0.57508372323E+00 -0.15702677906E+00  0.10186429724E+01  0.11802593797E+01  0.00000000000E+00 0. -1.
         11    1    3    3    0    0  0.25029697773E+02  0.13942993525E+02  0.25461175323E+02  0.38329678947E+02  0.51100000000E-03 0. -1.
        -11    1    3    3    0    0 -0.65727547342E+00  0.82263384330E+01  0.20403536822E+01  0.85010410229E+01  0.51100000000E-03 0.  1.
        -12    1    3    3    0    0 -0.23797338577E+02 -0.22012305179E+02 -0.28520171978E+02  0.43177020651E+02  0.00000000000E+00 0.  1.
</event>
<event>
 7    1  0.2000468E-015  0.9000786E+02  0.7816164E-02  0.1186339E+00
        -11   -1    0    0    0    0  0.00000000000E+00  0.00000000000E+00  0.45593999997E+02  0.45594000000E+02  0.51100000000E-03 0.  1.
         11   -1    0    0    0    0 -0.00000000000E+00 -0.00000000000E+00 -0.45593999997E+02  0.45594000000E+02  0.51100000000E-03 0. -1.
    9900012    2    1    2    0    0  0.68764309033E+00 -0.85070780479E+00  0.44290249426E+00  0.90007864665E+02  0.90000127679E+02 0.  0.
         12    1    1    2    0    0 -0.68764309033E+00  0.85070780479E+00 -0.44290249426E+00  0.11801353347E+01  0.00000000000E+00 0. -1.
         11    1    3    3    0    0 -0.21620479174E+00 -0.47098619867E+01  0.70075782398E+01  0.84460462640E+01  0.51100000000E-03 0. -1.
        -11    1    3    3    0    0  0.33414483184E+02 -0.19651469266E+02  0.66283718810E+01  0.39327385431E+02  0.51100000000E-03 0.  1.
         12    1    3    3    0    0 -0.32510635302E+02  0.23510623448E+02 -0.13193047626E+02  0.42234432970E+02  0.00000000000E+00 0. -1.
</event>
<event>
 7    1  0.2000468E-015  0.9000777E+02  0.7816164E-02  0.1186339E+00
        -11   -1    0    0    0    0  0.00000000000E+00  0.00000000000E+00  0.45593999997E+02  0.45594000000E+02  0.51100000000E-03 0.  1.
         11   -1    0    0    0    0 -0.00000000000E+00 -0.00000000000E+00 -0.45593999997E+02  0.45594000000E+02  0.51100000000E-03 0. -1.
    9900012    2    1    2    0    0  0.68782023240E+00 -0.75167350024E+00  0.59568469225E+00  0.90007766982E+02  0.90000028707E+02 0.  0.
         12    1    1    2    0    0 -0.68782023240E+00  0.75167350024E+00 -0.59568469225E+00  0.11802330175E+01  0.00000000000E+00 0. -1.
         11    1    3    3    0    0  0.27966923121E+02  0.48647344493E+00 -0.23142419414E+02  0.36303677801E+02  0.51100000000E-03 0. -1.
        -11    1    3    3    0    0  0.33759022503E+01  0.85744070388E+01 -0.50613478243E+01  0.10513534807E+02  0.51100000000E-03 0.  1.
        -12    1    3    3    0    0 -0.30655005139E+02 -0.98125539839E+01  0.28799451930E+02  0.43190554375E+02  0.00000000000E+00 0.  1.
</event>
<event>
 7    1  0.2000468E-015  0.9000770E+02  0.7816164E-02  0.1186339E+00
        -11   -1    0    0    0    0  0.00000000000E+00  0.00000000000E+00  0.45593999997E+02  0.45594000000E+02  0.51100000000E-03 0. -1.
         11   -1    0    0    0    0 -0.00000000000E+00 -0.00000000000E+00 -0.45593999997E+02  0.45594000000E+02  0.51100000000E-03 0.  1.
    9900012    2    1    2    0    0  0.79597205651E+00  0.75558043133E+00 -0.43432115997E+00  0.90007699965E+02  0.89999960804E+02 0.  0.
         12    1    1    2    0    0 -0.79597205651E+00 -0.75558043133E+00  0.43432115997E+00  0.11803000351E+01  0.00000000000E+00 0. -1.
         11    1    3    3    0    0 -0.18091607365E+02 -0.68134976838E+01  0.31374729169E+02  0.36852457698E+02  0.51100000000E-03 0. -1.
        -11    1    3    3    0    0 -0.67202243633E+01 -0.75259740071E+01 -0.67940631567E+00  0.10112531506E+02  0.51100000000E-03 0.  1.
        -12    1    3    3    0    0  0.25607803785E+02  0.15095052122E+02 -0.31129644013E+02  0.43042710761E+02  0.00000000000E+00 0.  1.
</event>
<event>
 7    1  0.2000468E-015  0.9000791E+02  0.7816164E-02  0.1186339E+00
        -11   -1    0    0    0    0  0.00000000000E+00  0.00000000000E+00  0.45593999997E+02  0.45594000000E+02  0.51100000000E-03 0.  1.
         11   -1    0    0    0    0 -0.00000000000E+00 -0.00000000000E+00 -0.45593999997E+02  0.45594000000E+02  0.51100000000E-03 0. -1.
    9900012    2    1    2    0    0  0.50712481490E-01 -0.50503572944E+00  0.10653514101E+01  0.90007912516E+02  0.90000176161E+02 0.  0.
         12    1    1    2    0    0 -0.50712481490E-01  0.50503572944E+00 -0.10653514101E+01  0.11800874844E+01  0.00000000000E+00 0. -1.
         11    1    3    3    0    0  0.10753363867E+02 -0.31362450987E+02  0.54478469500E+01  0.33599363134E+02  0.51100000000E-03 0.  1.
        -11    1    3    3    0    0  0.12164889400E+02  0.81145405148E+01  0.13179216458E+02  0.19685579712E+02  0.51100000000E-03 0. -1.
         12    1    3    3    0    0 -0.22867540785E+02  0.22742874742E+02 -0.17561711998E+02  0.36722969670E+02  0.00000000000E+00 0. -1.
</event>
<event>
 7    1  0.2298794E-015  0.9000778E+02  0.7816164E-02  0.1186339E+00
        -11   -1    0    0    0    0  0.00000000000E+00  0.00000000000E+00  0.45593999997E+02  0.45594000000E+02  0.51100000000E-03 0. -1.
         11   -1    0    0    0    0 -0.00000000000E+00 -0.00000000000E+00 -0.45593999997E+02  0.45594000000E+02  0.51100000000E-03 0.  1.
    9900012    2    1    2    0    0 -0.10368403647E+01  0.32560766231E+00 -0.46029436784E+00  0.90007775785E+02  0.90000037626E+02 0.  0.
         12    1    1    2    0    0  0.10368403647E+01 -0.32560766231E+00  0.46029436784E+00  0.11802242145E+01  0.00000000000E+00 0. -1.
         11    1    3    3    0    0  0.31404020467E+02  0.15958820031E+02  0.20887575974E+02  0.40953476881E+02  0.51100000000E-03 0. -1.
        -11    1    3    3    0    0 -0.78288300171E+01 -0.10348615286E+01  0.56522575082E+01  0.97113095420E+01  0.51100000000E-03 0.  1.
        -12    1    3    3    0    0 -0.24612030815E+02 -0.14598350840E+02 -0.27000127850E+02  0.39342989363E+02  0.00000000000E+00 0.  1.
</event>
<event>
 7    1  0.2000468E-015  0.9000779E+02  0.7816164E-02  0.1186339E+00
        -11   -1    0    0    0    0  0.00000000000E+00  0.00000000000E+00  0.45593999997E+02  0.45594000000E+02  0.51100000000E-03 0. -1.
         11   -1    0    0    0    0 -0.00000000000E+00 -0.00000000000E+00 -0.45593999997E+02  0.45594000000E+02  0.51100000000E-03 0.  1.
    9900012    2    1    2    0    0 -0.63346009640E+00  0.44209018736E+00 -0.89229015147E+00  0.90007789365E+02  0.90000051385E+02 0.  0.
         12    1    1    2    0    0  0.63346009640E+00 -0.44209018736E+00  0.89229015147E+00  0.11802106345E+01  0.00000000000E+00 0. -1.
         11    1    3    3    0    0  0.49244109312E+01 -0.48075746320E+01 -0.86887682395E+01  0.11084100804E+02  0.51100000000E-03 0. -1.
        -11    1    3    3    0    0  0.10677980166E+02  0.36576320562E+02 -0.10017242429E+02  0.39397863298E+02  0.51100000000E-03 0.  1.
         12    1    3    3    0    0 -0.16235851194E+02 -0.31326655743E+02  0.17813720517E+02  0.39525825263E+02  0.00000000000E+00 0. -1.
</event>
<event>
 7    1  0.2000468E-015  0.9000760E+02  0.7816164E-02  0.1186339E+00
        -11   -1    0    0    0    0  0.00000000000E+00  0.00000000000E+00  0.45593999997E+02  0.45594000000E+02  0.51100000000E-03 0. -1.
         11   -1    0    0    0    0 -0.00000000000E+00 -0.00000000000E+00 -0.45593999997E+02  0.45594000000E+02  0.51100000000E-03 0.  1.
    9900012    2    1    2    0    0  0.50848438871E-02  0.11803787252E+01  0.44134106272E-02  0.90007602072E+02  0.89999861619E+02 0.  0.
         12    1    1    2    0    0 -0.50848438871E-02 -0.11803787252E+01 -0.44134106272E-02  0.11803979281E+01  0.00000000000E+00 0. -1.
         11    1    3    3    0    0  0.14059021032E+02 -0.14843764496E+02  0.37007453905E+02  0.42279369219E+02  0.51100000000E-03 0. -1.
        -11    1    3    3    0    0 -0.81738311858E+01  0.65973997230E+01 -0.16031445924E+01  0.10625783369E+02  0.51100000000E-03 0.  1.
        -12    1    3    3    0    0 -0.58801050024E+01  0.94267434980E+01 -0.35399895902E+02  0.37102449484E+02  0.00000000000E+00 0.  1.
</event>
<event>
 7    1  0.2000468E-015  0.9000756E+02  0.7816164E-02  0.1186339E+00
        -11   -1    0    0    0    0  0.00000000000E+00  0.00000000000E+00  0.45593999997E+02  0.45594000000E+02  0.51100000000E-03 0. -1.
         11   -1    0    0    0    0 -0.00000000000E+00 -0.00000000000E+00 -0.45593999997E+02  0.45594000000E+02  0.51100000000E-03 0.  1.
    9900012    2    1    2    0    0 -0.11242624697E+01  0.16102185287E+00 -0.32178539216E+00  0.90007559414E+02  0.89999818398E+02 0.  0.
         12    1    1    2    0    0  0.11242624697E+01 -0.16102185287E+00  0.32178539216E+00  0.11804405857E+01  0.00000000000E+00 0. -1.
         11    1    3    3    0    0 -0.12470500427E+02 -0.18698380753E+00 -0.15132871877E+01  0.12563374635E+02  0.51100000000E-03 0. -1.
        -11    1    3    3    0    0 -0.14276690786E+02 -0.46454090580E+01 -0.31923103369E+02  0.35277305085E+02  0.51100000000E-03 0.  1.
         12    1    3    3    0    0  0.25622928743E+02  0.49934147184E+01  0.33114605164E+02  0.42166879694E+02  0.00000000000E+00 0. -1.
</event>
<event>
 7    1  0.2000468E-015  0.9000768E+02  0.7816164E-02  0.1186339E+00
        -11   -1    0    0    0    0  0.00000000000E+00  0.00000000000E+00  0.45593999997E+02  0.45594000000E+02  0.51100000000E-03 0.  1.
         11   -1    0    0    0    0 -0.00000000000E+00 -0.00000000000E+00 -0.45593999997E+02  0.45594000000E+02  0.51100000000E-03 0. -1.
    9900012    2    1    2    0    0 -0.41701000714E+00  0.59790442988E+00  0.92831510134E+00  0.90007679713E+02  0.89999940285E+02 0.  0.
         12    1    1    2    0    0  0.41701000714E+00 -0.59790442988E+00 -0.92831510134E+00  0.11803202873E+01  0.00000000000E+00 0. -1.
         11    1    3    3    0    0 -0.11117600780E+02 -0.27787725935E+02 -0.26544660255E+02  0.40004721572E+02  0.51100000000E-03 0. -1.
        -11    1    3    3    0    0  0.34679262236E+00 -0.19459419846E+01 -0.43868894848E+01  0.48116270578E+01  0.51100000000E-03 0.  1.
        -12    1    3    3    0    0  0.10353798150E+02  0.30331572349E+02  0.31859864842E+02  0.45191331083E+02  0.00000000000E+00 0.  1.
</event>
<event>
 7    1  0.2861990E-015  0.9000774E+02  0.7816164E-02  0.1186339E+00
        -11   -1    0    0    0    0  0.00000000000E+00  0.00000000000E+00  0.45593999997E+02  0.45594000000E+02  0.51100000000E-03 0. -1.
         11   -1    0    0    0    0 -0.00000000000E+00 -0.00000000000E+00 -0.45593999997E+02  0.45594000000E+02  0.51100000000E-03 0.  1.
    9900012    2    1    2    0    0 -0.53873321267E+00 -0.47561058613E-01 -0.10490551149E+01  0.90007740637E+02  0.90000002014E+02 0.  0.
         12    1    1    2    0    0  0.53873321267E+00  0.47561058614E-01  0.10490551149E+01  0.11802593625E+01  0.00000000000E+00 0. -1.
         11    1    3    3    0    0  0.27708655769E+02  0.18385442648E+02  0.13426168183E+02  0.35861624311E+02  0.51100000000E-03 0. -1.
        -11    1    3    3    0    0  0.93823541335E+01 -0.73156345069E+00  0.16302540040E+01  0.95509937989E+01  0.51100000000E-03 0.  1.
        -12    1    3    3    0    0 -0.37629743116E+02 -0.17701440256E+02 -0.16105477302E+02  0.44595122527E+02  0.00000000000E+00 0.  1.
</event>
<event>
 7    1  0.2000468E-015  0.9000769E+02  0.7816164E-02  0.1186339E+00
        -11   -1    0    0    0    0  0.00000000000E+00  0.00000000000E+00  0.45593999997E+02  0.45594000000E+02  0.51100000000E-03 0. -1.
         11   -1    0    0    0    0 -0.00000000000E+00 -0.00000000000E+00 -0.45593999997E+02  0.45594000000E+02  0.51100000000E-03 0.  1.
    9900012    2    1    2    0    0  0.61515395434E+00 -0.10056718472E+01 -0.57775551292E-01  0.90007691453E+02  0.89999952180E+02 0.  0.
         12    1    1    2    0    0 -0.61515395434E+00  0.10056718472E+01  0.57775551292E-01  0.11803085470E+01  0.00000000000E+00 0. -1.
         11    1    3    3    0    0 -0.66379039558E+01  0.11074681153E+02  0.20808225952E+01  0.13078232086E+02  0.51100000000E-03 0. -1.
        -11    1    3    3    0    0 -0.48394296202E+01  0.16521662013E+02 -0.30403199522E+02  0.34939088943E+02  0.51100000000E-03 0.  1.
         12    1    3    3    0    0  0.12092487530E+02 -0.28602015013E+02  0.28264601375E+02  0.41990370424E+02  0.00000000000E+00 0. -1.
</event>
<event>
 7    1  0.2000468E-015  0.9000792E+02  0.7816164E-02  0.1186339E+00
        -11   -1    0    0    0    0  0.00000000000E+00  0.00000000000E+00  0.45593999997E+02  0.45594000000E+02  0.51100000000E-03 0. -1.
         11   -1    0    0    0    0 -0.00000000000E+00 -0.00000000000E+00 -0.45593999997E+02  0.45594000000E+02  0.51100000000E-03 0.  1.
    9900012    2    1    2    0    0  0.46192606179E+00  0.34705257049E+00 -0.10289682145E+01  0.90007916630E+02  0.90000180330E+02 0.  0.
         12    1    1    2    0    0 -0.46192606179E+00 -0.34705257049E+00  0.10289682145E+01  0.11800833698E+01  0.00000000000E+00 0. -1.
         11    1    3    3    0    0  0.29899311903E+02 -0.10321559895E+02  0.19379754636E+02  0.37095529933E+02  0.51100000000E-03 0. -1.
        -11    1    3    3    0    0  0.72916067199E+00  0.11175897699E+02  0.60975446881E+01  0.12751957346E+02  0.51100000000E-03 0.  1.
        -12    1    3    3    0    0 -0.30166546513E+02 -0.50728523358E+00 -0.26506267539E+02  0.40160429351E+02  0.00000000000E+00 0.  1.
</event>
<event>
 7    1  0.2000468E-015  0.9000777E+02  0.7816164E-02  0.1186339E+00
        -11   -1    0    0    0    0  0.00000000000E+00  0.00000000000E+00  0.45593999997E+02  0.45594000000E+02  0.51100000000E-03 0. -1.
         11   -1    0    0    0    0 -0.00000000000E+00 -0.00000000000E+00 -0.45593999997E+02  0.45594000000E+02  0.51100000000E-03 0.  1.
    9900012    2    1    2    0    0 -0.71747026224E+00 -0.13485173472E+00 -0.92736047668E+00  0.90007768658E+02  0.90000030404E+02 0.  0.
         12    1    1    2    0    0  0.71747026224E+00  0.13485173472E+00  0.92736047668E+00  0.11802313423E+01  0.00000000000E+00 0. -1.
         11    1    3    3    0    0 -0.43998511868E+01  0.88820061696E+01 -0.12418646004E+01  0.99895421321E+01  0.51100000000E-03 0. -1.
        -11    1    3    3    0    0 -0.74303331094E+01  0.13000110254E+02 -0.34352252851E+02  0.37473857460E+02  0.51100000000E-03 0.  1.
         12    1    3    3    0    0  0.11112714034E+02 -0.22016968158E+02  0.34666756975E+02  0.42544369066E+02  0.00000000000E+00 0. -1.
</event>
<event>
 7    1  0.2000468E-015  0.9000789E+02  0.7816164E-02  0.1186339E+00
        -11   -1    0    0    0    0  0.00000000000E+00  0.00000000000E+00  0.45593999997E+02  0.45594000000E+02  0.51100000000E-03 0. -1.
         11   -1    0    0    0    0 -0.00000000000E+00 -0.00000000000E+00 -0.45593999997E+02  0.45594000000E+02  0.51100000000E-03 0.  1.
    9900012    2    1    2    0    0 -0.76933747669E+00  0.50069510292E+00 -0.74167372846E+00  0.90007891675E+02  0.90000155045E+02 0.  0.
         12    1    1    2    0    0  0.76933747669E+00 -0.50069510292E+00  0.74167372846E+00  0.11801083249E+01  0.00000000000E+00 0. -1.
         11    1    3    3    0    0 -0.44201972426E+01 -0.37950278410E+02 -0.71914272551E+01  0.38877736577E+02  0.51100000000E-03 0. -1.
        -11    1    3    3    0    0 -0.16256424373E+01 -0.57530879772E+01 -0.78008147879E+00  0.60290349130E+01  0.51100000000E-03 0.  1.
        -12    1    3    3    0    0  0.52765022032E+01  0.44204061491E+02  0.72298350054E+01  0.45101120185E+02  0.00000000000E+00 0.  1.
</event>
<event>
 7    1  0.2000468E-015  0.9000755E+02  0.7816164E-02  0.1186339E+00
        -11   -1    0    0    0    0  0.00000000000E+00  0.00000000000E+00  0.45593999997E+02  0.45594000000E+02  0.51100000000E-03 0. -1.
         11   -1    0    0    0    0 -0.00000000000E+00 -0.00000000000E+00 -0.45593999997E+02  0.45594000000E+02  0.51100000000E-03 0.  1.
    9900012    2    1    2    0    0 -0.32813535242E+00 -0.11312569657E+01 -0.77788268745E-01  0.90007548329E+02  0.89999807167E+02 0.  0.
         12    1    1    2    0    0  0.32813535242E+00  0.11312569657E+01  0.77788268745E-01  0.11804516706E+01  0.00000000000E+00 0. -1.
         11    1    3    3    0    0  0.49172211887E+00  0.64758518442E+01 -0.49813634317E+01  0.81848903261E+01  0.51100000000E-03 0. -1.
        -11    1    3    3    0    0  0.35551421657E+02  0.86794168384E+01 -0.12031089331E+02  0.38522499520E+02  0.51100000000E-03 0.  1.
         12    1    3    3    0    0 -0.36371279129E+02 -0.16286525648E+02  0.16934664494E+02  0.43300158483E+02  0.00000000000E+00 0. -1.
</event>
<event>
 7    1  0.2000468E-015  0.9000774E+02  0.7816164E-02  0.1186339E+00
        -11   -1    0    0    0    0  0.00000000000E+00  0.00000000000E+00  0.45593999997E+02  0.45594000000E+02  0.51100000000E-03 0.  1.
         11   -1    0    0    0    0 -0.00000000000E+00 -0.00000000000E+00 -0.45593999997E+02  0.45594000000E+02  0.51100000000E-03 0. -1.
    9900012    2    1    2    0    0 -0.12290735373E+00  0.12271615803E+00  0.11674072217E+01  0.90007743632E+02  0.90000005048E+02 0.  0.
         12    1    1    2    0    0  0.12290735373E+00 -0.12271615803E+00 -0.11674072217E+01  0.11802563681E+01  0.00000000000E+00 0. -1.
         11    1    3    3    0    0 -0.41148231937E+01  0.30928918305E+02  0.21712224316E+02  0.38012503764E+02  0.51100000000E-03 0. -1.
        -11    1    3    3    0    0 -0.73973605687E+01  0.57603965576E+01 -0.27993395540E+01  0.97846519654E+01  0.51100000000E-03 0.  1.
        -12    1    3    3    0    0  0.11389276409E+02 -0.36566598705E+02 -0.17745477540E+02  0.42210587902E+02  0.00000000000E+00 0.  1.
</event>
<event>
 7    1  0.2000468E-015  0.9000826E+02  0.7816164E-02  0.1186338E+00
        -11   -1    0    0    0    0  0.00000000000E+00  0.00000000000E+00  0.45593999997E+02  0.45594000000E+02  0.51100000000E-03 0.  1.
         11   -1    0    0    0    0 -0.00000000000E+00 -0.00000000000E+00 -0.45593999997E+02  0.45594000000E+02  0.51100000000E-03 0. -1.
    9900012    2    1    2    0    0  0.10339088885E+01 -0.17067690592E+00  0.54193286112E+00  0.90008258748E+02  0.90000526962E+02 0.  0.
         12    1    1    2    0    0 -0.10339088885E+01  0.17067690592E+00 -0.54193286112E+00  0.11797412521E+01  0.00000000000E+00 0. -1.
         11    1    3    3    0    0  0.22438984603E+02  0.25098971142E+02  0.25544308089E+02  0.42260833622E+02  0.51100000000E-03 0. -1.
        -11    1    3    3    0    0  0.15925127656E+01  0.18082482574E+01 -0.80140357610E+01  0.83684304447E+01  0.51100000000E-03 0.  1.
        -12    1    3    3    0    0 -0.22997588480E+02 -0.27077896306E+02 -0.16988339467E+02  0.39378994681E+02  0.00000000000E+00 0.  1.
</event>
<event>
 7    1  0.2000468E-015  0.9000787E+02  0.7816164E-02  0.1186339E+00
        -11   -1    0    0    0    0  0.00000000000E+00  0.00000000000E+00  0.45593999997E+02  0.45594000000E+02  0.51100000000E-03 0. -1.
         11   -1    0    0    0    0 -0.00000000000E+00 -0.00000000000E+00 -0.45593999997E+02  0.45594000000E+02  0.51100000000E-03 0.  1.
    9900012    2    1    2    0    0  0.48962347423E+00  0.96881449297E+00 -0.46301178618E+00  0.90007867557E+02  0.90000130609E+02 0.  0.
         12    1    1    2    0    0 -0.48962347423E+00 -0.96881449297E+00  0.46301178618E+00  0.11801324428E+01  0.00000000000E+00 0. -1.
         11    1    3    3    0    0 -0.17734532519E+02 -0.39677083091E+00  0.34107659923E+02  0.38444811567E+02  0.51100000000E-03 0. -1.
        -11    1    3    3    0    0  0.11571897744E+00 -0.79744635186E+01  0.32428805244E+01  0.86093979841E+01  0.51100000000E-03 0.  1.
        -12    1    3    3    0    0  0.18108437016E+02  0.93400488425E+01 -0.37813552234E+02  0.42953658006E+02  0.00000000000E+00 0.  1.
</event>
<event>
 7    1  0.2000468E-015  0.9000774E+02  0.7816164E-02  0.1186339E+00
        -11   -1    0    0    0    0  0.00000000000E+00  0.00000000000E+00  0.45593999997E+02  0.45594000000E+02  0.51100000000E-03 0.  1.
         11   -1    0    0    0    0 -0.00000000000E+00 -0.00000000000E+00 -0.45593999997E+02  0.45594000000E+02  0.51100000000E-03 0. -1.
    9900012    2    1    2    0    0 -0.55340005850E+00 -0.88650794025E+00  0.54851423062E+00  0.90007739091E+02  0.90000000447E+02 0.  0.
         12    1    1    2    0    0  0.55340005850E+00  0.88650794025E+00 -0.54851423062E+00  0.11802609093E+01  0.00000000000E+00 0. -1.
         11    1    3    3    0    0 -0.24564369446E+01 -0.10338307417E+02  0.16129399805E+00  0.10627356149E+02  0.51100000000E-03 0. -1.
        -11    1    3    3    0    0  0.35594264563E+02  0.90617809495E+01  0.18501448098E+02  0.41126282664E+02  0.51100000000E-03 0.  1.
         12    1    3    3    0    0 -0.33691227677E+02  0.39001852731E+00 -0.18114227865E+02  0.38254100277E+02  0.00000000000E+00 0. -1.
</event>
<event>
 7    1  0.2000468E-015  0.9000773E+02  0.7816164E-02  0.1186339E+00
        -11   -1    0    0    0    0  0.00000000000E+00  0.00000000000E+00  0.45593999997E+02  0.45594000000E+02  0.51100000000E-03 0.  1.
         11   -1    0    0    0    0 -0.00000000000E+00 -0.00000000000E+00 -0.45593999997E+02  0.45594000000E+02  0.51100000000E-03 0. -1.
    9900012    2    1    2    0    0 -0.29049008022E+00 -0.11135477607E+01  0.26204494511E+00  0.90007728567E+02  0.89999989784E+02 0.  0.
         12    1    1    2    0    0  0.29049008022E+00  0.11135477607E+01 -0.26204494511E+00  0.11802714329E+01  0.00000000000E+00 0. -1.
         11    1    3    3    0    0 -0.13718122796E+02  0.24219078328E+01  0.17044502485E+02  0.22012896125E+02  0.51100000000E-03 0. -1.
        -11    1    3    3    0    0 -0.21160371603E+02 -0.16630040764E+01  0.10707455456E+02  0.23773441306E+02  0.51100000000E-03 0.  1.
         12    1    3    3    0    0  0.34588004318E+02 -0.18724515170E+01 -0.27489912997E+02  0.44221391136E+02  0.00000000000E+00 0. -1.
</event>
<event>
 7    1  0.2000468E-015  0.9000774E+02  0.7816164E-02  0.1186339E+00
        -11   -1    0    0    0    0  0.00000000000E+00  0.00000000000E+00  0.45593999997E+02  0.45594000000E+02  0.51100000000E-03 0. -1.
         11   -1    0    0    0    0 -0.00000000000E+00 -0.00000000000E+00 -0.45593999997E+02  0.45594000000E+02  0.51100000000E-03 0.  1.
    9900012    2    1    2    0    0 -0.39770330746E+00 -0.76709945964E+00 -0.80399477931E+00  0.90007738543E+02  0.89999999892E+02 0.  0.
         12    1    1    2    0    0  0.39770330746E+00  0.76709945964E+00  0.80399477931E+00  0.11802614570E+01  0.00000000000E+00 0. -1.
         11    1    3    3    0    0  0.64708121471E+01  0.33245777360E+02 -0.20835303797E+02  0.39765097846E+02  0.51100000000E-03 0. -1.
        -11    1    3    3    0    0 -0.99347699815E+01  0.42790834569E+00 -0.62819463223E+00  0.99638039370E+01  0.51100000000E-03 0.  1.
        -12    1    3    3    0    0  0.30662545270E+01 -0.34440785166E+02  0.20659503650E+02  0.40278836760E+02  0.00000000000E+00 0.  1.
</event>
<event>
 7    1  0.2000468E-015  0.9000775E+02  0.7816164E-02  0.1186339E+00
        -11   -1    0    0    0    0  0.00000000000E+00  0.00000000000E+00  0.45593999997E+02  0.45594000000E+02  0.51100000000E-03 0. -1.
         11   -1    0    0    0    0 -0.00000000000E+00 -0.00000000000E+00 -0.45593999997E+02  0.45594000000E+02  0.51100000000E-03 0.  1.
    9900012    2    1    2    0    0 -0.26970697661E+00 -0.52336894628E-01 -0.11478239436E+01  0.90007753920E+02  0.90000015472E+02 0.  0.
         12    1    1    2    0    0  0.26970697661E+00  0.52336894628E-01  0.11478239436E+01  0.11802460799E+01  0.00000000000E+00 0. -1.
         11    1    3    3    0    0 -0.83777777675E+01  0.25741511773E+02  0.34508182696E+01  0.27289571922E+02  0.51100000000E-03 0. -1.
        -11    1    3    3    0    0 -0.84584827929E+01  0.13580714997E+02  0.83947676403E+01  0.18068034618E+02  0.51100000000E-03 0.  1.
        -12    1    3    3    0    0  0.16566553584E+02 -0.39374563664E+02 -0.12993409854E+02  0.44650147380E+02  0.00000000000E+00 0.  1.
</event>
<event>
 7    1  0.2000468E-015  0.9000770E+02  0.7816164E-02  0.1186339E+00
        -11   -1    0    0    0    0  0.00000000000E+00  0.00000000000E+00  0.45593999997E+02  0.45594000000E+02  0.51100000000E-03 0. -1.
         11   -1    0    0    0    0 -0.00000000000E+00 -0.00000000000E+00 -0.45593999997E+02  0.45594000000E+02  0.51100000000E-03 0.  1.
    9900012    2    1    2    0    0  0.84998011173E-01  0.10142224253E+00 -0.11728602775E+01  0.90007698190E+02  0.89999959006E+02 0.  0.
         12    1    1    2    0    0 -0.84998011173E-01 -0.10142224253E+00  0.11728602775E+01  0.11803018104E+01  0.00000000000E+00 0. -1.
         11    1    3    3    0    0  0.10179370223E+02 -0.50183368090E+01 -0.15741627276E+01  0.11457803935E+02  0.51100000000E-03 0. -1.
        -11    1    3    3    0    0 -0.11614922990E+02 -0.34263432267E+02 -0.10474401220E+02  0.37664337349E+02  0.51100000000E-03 0.  1.
         12    1    3    3    0    0  0.15205507784E+01  0.39383191319E+02  0.10875703670E+02  0.40885556905E+02  0.00000000000E+00 0. -1.
</event>
<event>
 7    1  0.2000468E-015  0.9000771E+02  0.7816164E-02  0.1186339E+00
        -11   -1    0    0    0    0  0.00000000000E+00  0.00000000000E+00  0.45593999997E+02  0.45594000000E+02  0.51100000000E-03 0.  1.
         11   -1    0    0    0    0 -0.00000000000E+00 -0.00000000000E+00 -0.45593999997E+02  0.45594000000E+02  0.51100000000E-03 0. -1.
    9900012    2    1    2    0    0 -0.20006564262E+00  0.46077879843E+00  0.10680496165E+01  0.90007714719E+02  0.89999975753E+02 0.  0.
         12    1    1    2    0    0  0.20006564262E+00 -0.46077879843E+00 -0.10680496165E+01  0.11802852815E+01  0.00000000000E+00 0. -1.
         11    1    3    3    0    0 -0.11676452975E+02  0.54908345981E+01 -0.26580906477E+02  0.29547138746E+02  0.51100000000E-03 0. -1.
        -11    1    3    3    0    0 -0.58038991542E+01  0.22896249084E+01 -0.13699098213E+02  0.15053003678E+02  0.51100000000E-03 0.  1.
        -12    1    3    3    0    0  0.17280286486E+02 -0.73196807080E+01  0.41348054307E+02  0.45407572295E+02  0.00000000000E+00 0.  1.
</event>
<event>
 7    1  0.2000468E-015  0.9000771E+02  0.7816164E-02  0.1186339E+00
        -11   -1    0    0    0    0  0.00000000000E+00  0.00000000000E+00  0.45593999997E+02  0.45594000000E+02  0.51100000000E-03 0.  1.
         11   -1    0    0    0    0 -0.00000000000E+00 -0.00000000000E+00 -0.45593999997E+02  0.45594000000E+02  0.51100000000E-03 0. -1.
    9900012    2    1    2    0    0 -0.11065092872E+01 -0.17784276763E+00  0.37024981390E+00  0.90007713688E+02  0.89999974709E+02 0.  0.
         12    1    1    2    0    0  0.11065092872E+01  0.17784276763E+00 -0.37024981390E+00  0.11802863116E+01  0.00000000000E+00 0. -1.
         11    1    3    3    0    0 -0.78733468794E+01 -0.52142420051E+01 -0.75744982882E+00  0.94737342835E+01  0.51100000000E-03 0. -1.
        -11    1    3    3    0    0  0.22903648447E+01 -0.23297792056E+02 -0.30099232574E+02  0.38131308496E+02  0.51100000000E-03 0.  1.
         12    1    3    3    0    0  0.44764727475E+01  0.28334191294E+02  0.31226932217E+02  0.42402670909E+02  0.00000000000E+00 0. -1.
</event>
<event>
 7    1  0.2000468E-015  0.9000776E+02  0.7816164E-02  0.1186339E+00
        -11   -1    0    0    0    0  0.00000000000E+00  0.00000000000E+00  0.45593999997E+02  0.45594000000E+02  0.51100000000E-03 0. -1.
         11   -1    0    0    0    0 -0.00000000000E+00 -0.00000000000E+00 -0.45593999997E+02  0.45594000000E+02  0.51100000000E-03 0.  1.
    9900012    2    1    2    0    0 -0.74601259974E+00 -0.45334913692E+00 -0.79429791793E+00  0.90007758744E+02  0.90000020360E+02 0.  0.
         12    1    1    2    0    0  0.74601259974E+00  0.45334913692E+00  0.79429791793E+00  0.11802412556E+01  0.00000000000E+00 0. -1.
         11    1    3    3    0    0  0.76801679349E+01 -0.55188646964E+01 -0.13049522879E+01  0.95470282173E+01  0.51100000000E-03 0. -1.
        -11    1    3    3    0    0 -0.10274144855E+02 -0.36419539980E+02 -0.63546645778E+01  0.38370857523E+02  0.51100000000E-03 0.  1.
         12    1    3    3    0    0  0.18479643203E+01  0.41485055540E+02  0.68653189478E+01  0.42089873004E+02  0.00000000000E+00 0. -1.
</event>
<event>
 7    1  0.2000468E-015  0.9000771E+02  0.7816164E-02  0.1186339E+00
        -11   -1    0    0    0    0  0.00000000000E+00  0.00000000000E+00  0.45593999997E+02  0.45594000000E+02  0.51100000000E-03 0.  1.
         11   -1    0    0    0    0 -0.00000000000E+00 -0.00000000000E+00 -0.45593999997E+02  0.45594000000E+02  0.51100000000E-03 0. -1.
    9900012    2    1    2    0    0  0.11732874466E+01  0.18669839289E-01 -0.12698283224E+00  0.90007713325E+02  0.89999974341E+02 0.  0.
         12    1    1    2    0    0 -0.11732874466E+01 -0.18669839289E-01  0.12698283224E+00  0.11802866749E+01  0.00000000000E+00 0. -1.
         11    1    3    3    0    0  0.13907998000E+01 -0.29440991799E+01 -0.86694453298E+01  0.92607411503E+01  0.51100000000E-03 0. -1.
        -11    1    3    3    0    0 -0.70279993233E+01 -0.35015461456E+02 -0.11168938958E+02  0.37419520483E+02  0.51100000000E-03 0.  1.
         12    1    3    3    0    0  0.68104869699E+01  0.37978230475E+02  0.19711401455E+02  0.43327451692E+02  0.00000000000E+00 0. -1.
</event>
<event>
 7    1  0.2000468E-015  0.9000779E+02  0.7816164E-02  0.1186339E+00
        -11   -1    0    0    0    0  0.00000000000E+00  0.00000000000E+00  0.45593999997E+02  0.45594000000E+02  0.51100000000E-03 0.  1.
         11   -1    0    0    0    0 -0.00000000000E+00 -0.00000000000E+00 -0.45593999997E+02  0.45594000000E+02  0.51100000000E-03 0. -1.
    9900012    2    1    2    0    0 -0.47848949147E-01  0.40257737527E+00  0.11083957424E+01  0.90007788499E+02  0.90000050507E+02 0.  0.
         12    1    1    2    0    0  0.47848949147E-01 -0.40257737527E+00 -0.11083957424E+01  0.11802115009E+01  0.00000000000E+00 0. -1.
         11    1    3    3    0    0 -0.29533158426E+02  0.12715105396E+02  0.24507014703E+02  0.40428642344E+02  0.51100000000E-03 0. -1.
        -11    1    3    3    0    0 -0.25529925786E+01  0.47766578549E+01 -0.90275656870E+01  0.10527638570E+02  0.51100000000E-03 0.  1.
        -12    1    3    3    0    0  0.32038302055E+02 -0.17089185876E+02 -0.14371053274E+02  0.39051507585E+02  0.00000000000E+00 0.  1.
</event>
<event>
 7    1  0.2000468E-015  0.9000753E+02  0.7816164E-02  0.1186339E+00
        -11   -1    0    0    0    0  0.00000000000E+00  0.00000000000E+00  0.45593999997E+02  0.45594000000E+02  0.51100000000E-03 0.  1.
         11   -1    0    0    0    0 -0.00000000000E+00 -0.00000000000E+00 -0.45593999997E+02  0.45594000000E+02  0.51100000000E-03 0. -1.
    9900012    2    1    2    0    0 -0.79153329442E+00 -0.71362017501E+00 -0.50766584042E+00  0.90007532586E+02  0.89999791216E+02 0.  0.
         12    1    1    2    0    0  0.79153329442E+00  0.71362017501E+00  0.50766584042E+00  0.11804674142E+01  0.00000000000E+00 0. -1.
         11    1    3    3    0    0  0.26107144162E+02 -0.12924838819E+02 -0.18296102784E+02  0.34400317036E+02  0.51100000000E-03 0. -1.
        -11    1    3    3    0    0  0.86119714869E+01 -0.30938567480E+00 -0.65050587338E+01  0.10797108955E+02  0.51100000000E-03 0.  1.
        -12    1    3    3    0    0 -0.35510648943E+02  0.12520604319E+02  0.24293495678E+02  0.44810106596E+02  0.00000000000E+00 0.  1.
</event>
<event>
 7    1  0.2000468E-015  0.9000800E+02  0.7816164E-02  0.1186339E+00
        -11   -1    0    0    0    0  0.00000000000E+00  0.00000000000E+00  0.45593999997E+02  0.45594000000E+02  0.51100000000E-03 0. -1.
         11   -1    0    0    0    0 -0.00000000000E+00 -0.00000000000E+00 -0.45593999997E+02  0.45594000000E+02  0.51100000000E-03 0.  1.
    9900012    2    1    2    0    0  0.76274078694E+00 -0.28659360561E+00 -0.85351780682E+00  0.90007999132E+02  0.90000263920E+02 0.  0.
         12    1    1    2    0    0 -0.76274078694E+00  0.28659360561E+00  0.85351780682E+00  0.11800008684E+01  0.00000000000E+00 0. -1.
         11    1    3    3    0    0 -0.36400628240E+02  0.13528347212E+00  0.18500854849E+01  0.36447864882E+02  0.51100000000E-03 0. -1.
        -11    1    3    3    0    0 -0.36164366326E+01  0.24132444838E+00 -0.11310175455E+02  0.11876738630E+02  0.51100000000E-03 0.  1.
        -12    1    3    3    0    0  0.40779805660E+02 -0.66320152610E+00  0.86065721632E+01  0.41683395619E+02  0.00000000000E+00 0.  1.
</event>
<event>
 7    1  0.2000468E-015  0.9000812E+02  0.7816164E-02  0.1186338E+00
        -11   -1    0    0    0    0  0.00000000000E+00  0.00000000000E+00  0.45593999997E+02  0.45594000000E+02  0.51100000000E-03 0.  1.
         11   -1    0    0    0    0 -0.00000000000E+00 -0.00000000000E+00 -0.45593999997E+02  0.45594000000E+02  0.51100000000E-03 0. -1.
    9900012    2    1    2    0    0 -0.34744741731E+00  0.71812385907E+00  0.86931291586E+00  0.90008115883E+02  0.90000382211E+02 0.  0.
         12    1    1    2    0    0  0.34744741731E+00 -0.71812385907E+00 -0.86931291586E+00  0.11798841174E+01  0.00000000000E+00 0. -1.
         11    1    3    3    0    0 -0.24390772338E+02 -0.25651823610E+02 -0.10433833158E+02  0.36902448488E+02  0.51100000000E-03 0. -1.
        -11    1    3    3    0    0  0.11418116057E+02 -0.75544436318E+01 -0.32842036306E+01  0.14079381614E+02  0.51100000000E-03 0.  1.
        -12    1    3    3    0    0  0.12625208864E+02  0.33924391101E+02  0.14587349705E+02  0.39026285781E+02  0.00000000000E+00 0.  1.
</event>
<event>
 7    1  0.2000468E-015  0.9000775E+02  0.7816164E-02  0.1186339E+00
        -11   -1    0    0    0    0  0.00000000000E+00  0.00000000000E+00  0.45593999997E+02  0.45594000000E+02  0.51100000000E-03 0. -1.
         11   -1    0    0    0    0 -0.00000000000E+00 -0.00000000000E+00 -0.45593999997E+02  0.45594000000E+02  0.51100000000E-03 0.  1.
    9900012    2    1    2    0    0  0.33874215270E+00  0.67604395307E-01 -0.11285762528E+01  0.90007745384E+02  0.90000006823E+02 0.  0.
         12    1    1    2    0    0 -0.33874215270E+00 -0.67604395307E-01  0.11285762528E+01  0.11802546160E+01  0.00000000000E+00 0. -1.
         11    1    3    3    0    0  0.37209003655E+01  0.14039462294E+01 -0.65970224288E+01  0.77030428878E+01  0.51100000000E-03 0. -1.
        -11    1    3    3    0    0  0.25475248730E+01  0.13242191058E+01 -0.38123231694E+02  0.38231194518E+02  0.51100000000E-03 0.  1.
         12    1    3    3    0    0 -0.59296830858E+01 -0.26605609399E+01  0.43591677870E+02  0.44073507978E+02  0.00000000000E+00 0. -1.
</event>
<event>
 7    1  0.2000468E-015  0.9000758E+02  0.7816164E-02  0.1186339E+00
        -11   -1    0    0    0    0  0.00000000000E+00  0.00000000000E+00  0.45593999997E+02  0.45594000000E+02  0.51100000000E-03 0.  1.
         11   -1    0    0    0    0 -0.00000000000E+00 -0.00000000000E+00 -0.45593999997E+02  0.45594000000E+02  0.51100000000E-03 0. -1.
    9900012    2    1    2    0    0 -0.10561155893E+01  0.47700735573E+00 -0.22468911125E+00  0.90007575775E+02  0.89999834975E+02 0.  0.
         12    1    1    2    0    0  0.10561155893E+01 -0.47700735573E+00  0.22468911125E+00  0.11804242254E+01  0.00000000000E+00 0. -1.
         11    1    3    3    0    0 -0.59926540204E+01 -0.47609792166E+01 -0.43089188485E+02  0.43763649184E+02  0.51100000000E-03 0. -1.
        -11    1    3    3    0    0  0.52455332173E+01  0.55321290836E+01  0.69170989324E+01  0.10293994795E+02  0.51100000000E-03 0.  1.
        -12    1    3    3    0    0 -0.30899478617E+00 -0.29414251128E+00  0.35947400442E+02  0.35949931796E+02  0.00000000000E+00 0.  1.
</event>
<event>
 7    1  0.2000468E-015  0.9000755E+02  0.7816164E-02  0.1186339E+00
        -11   -1    0    0    0    0  0.00000000000E+00  0.00000000000E+00  0.45593999997E+02  0.45594000000E+02  0.51100000000E-03 0. -1.
         11   -1    0    0    0    0 -0.00000000000E+00 -0.00000000000E+00 -0.45593999997E+02  0.45594000000E+02  0.51100000000E-03 0.  1.
    9900012    2    1    2    0    0 -0.57933535976E+00 -0.10265014571E+01 -0.64203394385E-01  0.90007552298E+02  0.89999811188E+02 0.  0.
         12    1    1    2    0    0  0.57933535976E+00  0.10265014571E+01  0.64203394385E-01  0.11804477017E+01  0.00000000000E+00 0. -1.
         11    1    3    3    0    0  0.55733399383E+01  0.59038693993E+01  0.52217498750E-01  0.81191452063E+01  0.51100000000E-03 0. -1.
        -11    1    3    3    0    0  0.32723020386E+02 -0.19346964844E+01 -0.19521248797E+02  0.38152565688E+02  0.51100000000E-03 0.  1.
         12    1    3    3    0    0 -0.38875695684E+02 -0.49956743720E+01  0.19404827904E+02  0.43735841404E+02  0.00000000000E+00 0. -1.
</event>
<event>
 7    1  0.2000468E-015  0.9000807E+02  0.7816164E-02  0.1186338E+00
        -11   -1    0    0    0    0  0.00000000000E+00  0.00000000000E+00  0.45593999997E+02  0.45594000000E+02  0.51100000000E-03 0. -1.
         11   -1    0    0    0    0 -0.00000000000E+00 -0.00000000000E+00 -0.45593999997E+02  0.45594000000E+02  0.51100000000E-03 0.  1.
    9900012    2    1    2    0    0  0.55014135720E+00 -0.10285743015E+01  0.17781736773E+00  0.90008067958E+02  0.90000333655E+02 0.  0.
         12    1    1    2    0    0 -0.55014135720E+00  0.10285743015E+01 -0.17781736773E+00  0.11799320417E+01  0.00000000000E+00 0. -1.
         11    1    3    3    0    0  0.33742488684E+01  0.18023944614E+01  0.82526817407E+01  0.90962045599E+01  0.51100000000E-03 0. -1.
        -11    1    3    3    0    0  0.24699934081E+02  0.27967312456E+02 -0.12545562377E+02  0.39365574367E+02  0.51100000000E-03 0.  1.
         12    1    3    3    0    0 -0.27524041592E+02 -0.30798281219E+02  0.44706980044E+01  0.41546289031E+02  0.00000000000E+00 0. -1.
</event>
<event>
 7    1  0.2000468E-015  0.9000774E+02  0.7816164E-02  0.1186339E+00
        -11   -1    0    0    0    0  0.00000000000E+00  0.00000000000E+00  0.45593999997E+02  0.45594000000E+02  0.51100000000E-03 0.  1.
         11   -1    0    0    0    0 -0.00000000000E+00 -0.00000000000E+00 -0.45593999997E+02  0.45594000000E+02  0.51100000000E-03 0. -1.
    9900012    2    1    2    0    0 -0.83459130461E+00 -0.76984832502E+00 -0.32218687440E+00  0.90007740083E+02  0.90000001452E+02 0.  0.
         12    1    1    2    0    0  0.83459130461E+00  0.76984832502E+00  0.32218687440E+00  0.11802599168E+01  0.00000000000E+00 0. -1.
         11    1    3    3    0    0 -0.23503092385E+01 -0.92693222598E+01  0.19096824292E+01  0.97514704488E+01  0.51100000000E-03 0. -1.
        -11    1    3    3    0    0  0.31619171641E+02  0.29388253812E+02  0.28647951878E+01  0.43262553428E+02  0.51100000000E-03 0.  1.
         12    1    3    3    0    0 -0.30103453707E+02 -0.20888779877E+02 -0.50966644914E+01  0.36993716207E+02  0.00000000000E+00 0. -1.
</event>
<event>
 7    1  0.2000468E-015  0.9000739E+02  0.7816164E-02  0.1186340E+00
        -11   -1    0    0    0    0  0.00000000000E+00  0.00000000000E+00  0.45593999997E+02  0.45594000000E+02  0.51100000000E-03 0.  1.
         11   -1    0    0    0    0 -0.00000000000E+00 -0.00000000000E+00 -0.45593999997E+02  0.45594000000E+02  0.51100000000E-03 0. -1.
    9900012    2    1    2    0    0  0.99137044993E-01 -0.85512355778E+00  0.80793822569E+00  0.90007394804E+02  0.89999651615E+02 0.  0.
         12    1    1    2    0    0 -0.99137044993E-01  0.85512355778E+00 -0.80793822569E+00  0.11806051962E+01  0.00000000000E+00 0. -1.
         11    1    3    3    0    0  0.16743344049E+02  0.34670721118E+02  0.12474831414E+02  0.40472458436E+02  0.51100000000E-03 0. -1.
        -11    1    3    3    0    0 -0.65469327411E+01 -0.21747551498E+01  0.71477686377E+01  0.99339058299E+01  0.51100000000E-03 0.  1.
        -12    1    3    3    0    0 -0.10097274263E+02 -0.33351089526E+02 -0.18814661826E+02  0.39601030538E+02  0.00000000000E+00 0.  1.
</event>
<event>
 7    1  0.2000468E-015  0.9000771E+02  0.7816164E-02  0.1186339E+00
        -11   -1    0    0    0    0  0.00000000000E+00  0.00000000000E+00  0.45593999997E+02  0.45594000000E+02  0.51100000000E-03 0.  1.
         11   -1    0    0    0    0 -0.00000000000E+00 -0.00000000000E+00 -0.45593999997E+02  0.45594000000E+02  0.51100000000E-03 0. -1.
    9900012    2    1    2    0    0  0.58424146274E+00  0.48709569406E+00  0.90249173274E+00  0.90007706973E+02  0.89999967905E+02 0.  0.
         12    1    1    2    0    0 -0.58424146274E+00 -0.48709569406E+00 -0.90249173274E+00  0.11802930270E+01  0.00000000000E+00 0. -1.
         11    1    3    3    0    0 -0.79910566024E+01  0.50069088205E+01 -0.10187174283E+01  0.94849305226E+01  0.51100000000E-03 0. -1.
        -11    1    3    3    0    0 -0.76682516740E+01 -0.35812629587E+02 -0.17146533101E+02  0.40439462402E+02  0.51100000000E-03 0.  1.
         12    1    3    3    0    0  0.16243549739E+02  0.31292816461E+02  0.19067742262E+02  0.40083314049E+02  0.00000000000E+00 0. -1.
</event>
<event>
 7    1  0.2000468E-015  0.9000690E+02  0.7816164E-02  0.1186341E+00
        -11   -1    0    0    0    0  0.00000000000E+00  0.00000000000E+00  0.45593999997E+02  0.45594000000E+02  0.51100000000E-03 0.  1.
         11   -1    0    0    0    0 -0.00000000000E+00 -0.00000000000E+00 -0.45593999997E+02  0.45594000000E+02  0.51100000000E-03 0. -1.
    9900012    2    1    2    0    0  0.10278713247E+01  0.15861183410E+00  0.55975010638E+00  0.90006899938E+02  0.89999150213E+02 0.  0.
         12    1    1    2    0    0 -0.10278713247E+01 -0.15861183410E+00 -0.55975010638E+00  0.11811000617E+01  0.00000000000E+00 0. -1.
         11    1    3    3    0    0  0.17001464447E+02  0.81568653466E+01 -0.31612498813E+02  0.36809432583E+02  0.51100000000E-03 0. -1.
        -11    1    3    3    0    0  0.55951745000E+00 -0.69444763798E+01 -0.74809568113E+01  0.10222696662E+02  0.51100000000E-03 0.  1.
        -12    1    3    3    0    0 -0.16533110572E+02 -0.10537771326E+01  0.39653205730E+02  0.42974770693E+02  0.00000000000E+00 0.  1.
</event>
<event>
 7    1  0.2000468E-015  0.9000779E+02  0.7816164E-02  0.1186339E+00
        -11   -1    0    0    0    0  0.00000000000E+00  0.00000000000E+00  0.45593999997E+02  0.45594000000E+02  0.51100000000E-03 0. -1.
         11   -1    0    0    0    0 -0.00000000000E+00 -0.00000000000E+00 -0.45593999997E+02  0.45594000000E+02  0.51100000000E-03 0.  1.
    9900012    2    1    2    0    0 -0.61952590696E+00  0.96464346503E+00  0.28025297334E+00  0.90007791928E+02  0.90000053981E+02 0.  0.
         12    1    1    2    0    0  0.61952590696E+00 -0.96464346503E+00 -0.28025297334E+00  0.11802080719E+01  0.00000000000E+00 0. -1.
         11    1    3    3    0    0 -0.11560364679E+02 -0.35433718663E+02  0.80594750263E+01  0.38133260912E+02  0.51100000000E-03 0. -1.
        -11    1    3    3    0    0 -0.13524443937E+00 -0.62391439052E+01  0.23568163797E+01  0.66708163996E+01  0.51100000000E-03 0.  1.
        -12    1    3    3    0    0  0.11076083212E+02  0.42637506033E+02 -0.10136038433E+02  0.45203714617E+02  0.00000000000E+00 0.  1.
</event>
<event>
 7    1  0.2000468E-015  0.9000772E+02  0.7816164E-02  0.1186339E+00
        -11   -1    0    0    0    0  0.00000000000E+00  0.00000000000E+00  0.45593999997E+02  0.45594000000E+02  0.51100000000E-03 0.  1.
         11   -1    0    0    0    0 -0.00000000000E+00 -0.00000000000E+00 -0.45593999997E+02  0.45594000000E+02  0.51100000000E-03 0. -1.
    9900012    2    1    2    0    0  0.96982390389E+00  0.65186008019E+00 -0.16604260700E+00  0.90007724559E+02  0.89999985723E+02 0.  0.
         12    1    1    2    0    0 -0.96982390389E+00 -0.65186008019E+00  0.16604260700E+00  0.11802754407E+01  0.00000000000E+00 0. -1.
         11    1    3    3    0    0 -0.18808943947E+02  0.22245111283E+02 -0.19129364197E+02  0.34850450833E+02  0.51100000000E-03 0. -1.
        -11    1    3    3    0    0 -0.79086996334E+01  0.61165737734E+01 -0.27509446940E+01  0.10369556480E+02  0.51100000000E-03 0.  1.
        -12    1    3    3    0    0  0.27687467484E+02 -0.27709824976E+02  0.21714266284E+02  0.44787717247E+02  0.00000000000E+00 0.  1.
</event>
<event>
 7    1  0.2000468E-015  0.9000780E+02  0.7816164E-02  0.1186339E+00
        -11   -1    0    0    0    0  0.00000000000E+00  0.00000000000E+00  0.45593999997E+02  0.45594000000E+02  0.51100000000E-03 0. -1.
         11   -1    0    0    0    0 -0.00000000000E+00 -0.00000000000E+00 -0.45593999997E+02  0.45594000000E+02  0.51100000000E-03 0.  1.
    9900012    2    1    2    0    0  0.50603729889E+00 -0.43030772748E-01 -0.10653374021E+01  0.90007801213E+02  0.90000063389E+02 0.  0.
         12    1    1    2    0    0 -0.50603729889E+00  0.43030772748E-01  0.10653374021E+01  0.11801987865E+01  0.00000000000E+00 0. -1.
         11    1    3    3    0    0 -0.77216773735E+01 -0.53178390031E+01  0.89724590489E+01  0.12977239104E+02  0.51100000000E-03 0. -1.
        -11    1    3    3    0    0 -0.23979147433E+02 -0.91158591114E+01 -0.27552364896E+02  0.37646131416E+02  0.51100000000E-03 0.  1.
         12    1    3    3    0    0  0.32206862105E+02  0.14390667342E+02  0.17514568445E+02  0.39384430693E+02  0.00000000000E+00 0. -1.
</event>
<event>
 7    1  0.2000468E-015  0.9000760E+02  0.7816164E-02  0.1186339E+00
        -11   -1    0    0    0    0  0.00000000000E+00  0.00000000000E+00  0.45593999997E+02  0.45594000000E+02  0.51100000000E-03 0.  1.
         11   -1    0    0    0    0 -0.00000000000E+00 -0.00000000000E+00 -0.45593999997E+02  0.45594000000E+02  0.51100000000E-03 0. -1.
    9900012    2    1    2    0    0  0.95806195889E+00  0.18260371581E+00  0.66491506188E+00  0.90007602239E+02  0.89999861789E+02 0.  0.
         12    1    1    2    0    0 -0.95806195889E+00 -0.18260371581E+00 -0.66491506188E+00  0.11803977608E+01  0.00000000000E+00 0. -1.
         11    1    3    3    0    0  0.26743893853E+01  0.42205149040E+01 -0.76335867868E+01  0.91234177879E+01  0.51100000000E-03 0. -1.
        -11    1    3    3    0    0  0.31290481954E+02  0.21129850380E+02  0.10890541988E+02  0.39295912548E+02  0.51100000000E-03 0.  1.
         12    1    3    3    0    0 -0.33006809380E+02 -0.25167761568E+02 -0.25920401391E+01  0.41588271903E+02  0.00000000000E+00 0. -1.
</event>
<event>
 7    1  0.2000468E-015  0.9000815E+02  0.7816164E-02  0.1186338E+00
        -11   -1    0    0    0    0  0.00000000000E+00  0.00000000000E+00  0.45593999997E+02  0.45594000000E+02  0.51100000000E-03 0.  1.
         11   -1    0    0    0    0 -0.00000000000E+00 -0.00000000000E+00 -0.45593999997E+02  0.45594000000E+02  0.51100000000E-03 0. -1.
    9900012    2    1    2    0    0  0.43386231529E+00  0.93463916741E+00  0.57468694431E+00  0.90008147481E+02  0.90000414227E+02 0.  0.
         12    1    1    2    0    0 -0.43386231529E+00 -0.93463916741E+00 -0.57468694431E+00  0.11798525187E+01  0.00000000000E+00 0. -1.
         11    1    3    3    0    0  0.38208834333E+02 -0.12774263483E+01 -0.11270486497E+02  0.39856877766E+02  0.51100000000E-03 0. -1.
        -11    1    3    3    0    0 -0.22130562134E-01 -0.92588631886E+01  0.17431645812E+01  0.94215529678E+01  0.51100000000E-03 0.  1.
        -12    1    3    3    0    0 -0.37752841455E+02  0.11470928704E+02  0.10102008860E+02  0.40729716747E+02  0.00000000000E+00 0.  1.
</event>
<event>
 7    1  0.2000468E-015  0.9000763E+02  0.7816164E-02  0.1186339E+00
        -11   -1    0    0    0    0  0.00000000000E+00  0.00000000000E+00  0.45593999997E+02  0.45594000000E+02  0.51100000000E-03 0.  1.
         11   -1    0    0    0    0 -0.00000000000E+00 -0.00000000000E+00 -0.45593999997E+02  0.45594000000E+02  0.51100000000E-03 0. -1.
    9900012    2    1    2    0    0  0.86546170913E+00  0.77619217373E+00 -0.20438950470E+00  0.90007630003E+02  0.89999889919E+02 0.  0.
         12    1    1    2    0    0 -0.86546170913E+00 -0.77619217373E+00  0.20438950470E+00  0.11803699971E+01  0.00000000000E+00 0. -1.
         11    1    3    3    0    0 -0.34284519043E+02 -0.13187330240E+02  0.67169674533E+01  0.37342356338E+02  0.51100000000E-03 0. -1.
        -11    1    3    3    0    0 -0.50685593492E+01  0.31808494139E+01  0.65781969610E+01  0.88927370583E+01  0.51100000000E-03 0.  1.
        -12    1    3    3    0    0  0.40218540102E+02  0.10782672999E+02 -0.13499553919E+02  0.43772536606E+02  0.00000000000E+00 0.  1.
</event>
<event>
 7    1  0.2000468E-015  0.9000772E+02  0.7816164E-02  0.1186339E+00
        -11   -1    0    0    0    0  0.00000000000E+00  0.00000000000E+00  0.45593999997E+02  0.45594000000E+02  0.51100000000E-03 0.  1.
         11   -1    0    0    0    0 -0.00000000000E+00 -0.00000000000E+00 -0.45593999997E+02  0.45594000000E+02  0.51100000000E-03 0. -1.
    9900012    2    1    2    0    0 -0.94888165619E+00  0.16277834129E+00 -0.68278603092E+00  0.90007716157E+02  0.89999977210E+02 0.  0.
         12    1    1    2    0    0  0.94888165619E+00 -0.16277834129E+00  0.68278603092E+00  0.11802838429E+01  0.00000000000E+00 0. -1.
         11    1    3    3    0    0  0.31335684851E+02  0.72174104653E+00 -0.21381689404E+02  0.37942360196E+02  0.51100000000E-03 0. -1.
        -11    1    3    3    0    0 -0.51861956057E+01 -0.12621081970E+02 -0.31512866638E+01  0.14004247315E+02  0.51100000000E-03 0.  1.
        -12    1    3    3    0    0 -0.27098370901E+02  0.12062119265E+02  0.23850190036E+02  0.38061108647E+02  0.00000000000E+00 0.  1.
</event>
<event>
 7    1  0.2000468E-015  0.9000767E+02  0.7816164E-02  0.1186339E+00
        -11   -1    0    0    0    0  0.00000000000E+00  0.00000000000E+00  0.45593999997E+02  0.45594000000E+02  0.51100000000E-03 0. -1.
         11   -1    0    0    0    0 -0.00000000000E+00 -0.00000000000E+00 -0.45593999997E+02  0.45594000000E+02  0.51100000000E-03 0.  1.
    9900012    2    1    2    0    0  0.45071296867E+00 -0.99910041825E+00 -0.43799480694E+00  0.90007668150E+02  0.89999928569E+02 0.  0.
         12    1    1    2    0    0 -0.45071296867E+00  0.99910041825E+00  0.43799480694E+00  0.11803318503E+01  0.00000000000E+00 0. -1.
         11    1    3    3    0    0  0.10456786539E+01 -0.42721836972E+01 -0.42042636922E+01  0.60844745743E+01  0.51100000000E-03 0. -1.
        -11    1    3    3    0    0 -0.87463403393E+01 -0.11606005698E+02 -0.37008547510E+02  0.39759658282E+02  0.51100000000E-03 0.  1.
         12    1    3    3    0    0  0.81513746540E+01  0.14879088977E+02  0.40774816396E+02  0.44163535294E+02  0.00000000000E+00 0. -1.
</event>
<event>
 7    1  0.2000468E-015  0.9000774E+02  0.7816164E-02  0.1186339E+00
        -11   -1    0    0    0    0  0.00000000000E+00  0.00000000000E+00  0.45593999997E+02  0.45594000000E+02  0.51100000000E-03 0.  1.
         11   -1    0    0    0    0 -0.00000000000E+00 -0.00000000000E+00 -0.45593999997E+02  0.45594000000E+02  0.51100000000E-03 0. -1.
    9900012    2    1    2    0    0  0.87946867388E+00  0.70100481145E+00  0.35796490871E+00  0.90007740804E+02  0.90000002183E+02 0.  0.
         12    1    1    2    0    0 -0.87946867388E+00 -0.70100481145E+00 -0.35796490871E+00  0.11802591961E+01  0.00000000000E+00 0. -1.
         11    1    3    3    0    0  0.34729089294E+02 -0.84441092591E+01 -0.74585311207E+01  0.36510851964E+02  0.51100000000E-03 0. -1.
        -11    1    3    3    0    0  0.72806066759E+01  0.61704262239E+00 -0.58119296652E+01  0.93363002234E+01  0.51100000000E-03 0.  1.
        -12    1    3    3    0    0 -0.41130227296E+02  0.85280714481E+01  0.13628425695E+02  0.44160588617E+02  0.00000000000E+00 0.  1.
</event>
<event>
 7    1  0.2000468E-015  0.9000769E+02  0.7816164E-02  0.1186339E+00
        -11   -1    0    0    0    0  0.00000000000E+00  0.00000000000E+00  0.45593999997E+02  0.45594000000E+02  0.51100000000E-03 0.  1.
         11   -1    0    0    0    0 -0.00000000000E+00 -0.00000000000E+00 -0.45593999997E+02  0.45594000000E+02  0.51100000000E-03 0. -1.
    9900012    2    1    2    0    0  0.50252445707E+00  0.10679544472E+01 -0.88639982334E-02  0.90007688134E+02  0.89999948817E+02 0.  0.
         12    1    1    2    0    0 -0.50252445707E+00 -0.10679544472E+01  0.88639982334E-02  0.11803118663E+01  0.00000000000E+00 0. -1.
         11    1    3    3    0    0 -0.35740364167E+02  0.15921455001E+02 -0.10789760781E+02  0.40586762597E+02  0.51100000000E-03 0. -1.
        -11    1    3    3    0    0 -0.44161305841E+01 -0.30595541097E+01  0.36361022392E+01  0.64872428998E+01  0.51100000000E-03 0.  1.
        -12    1    3    3    0    0  0.40659019208E+02 -0.11793946444E+02  0.71447945432E+01  0.42933682637E+02  0.00000000000E+00 0.  1.
</event>
<event>
 7    1  0.2000468E-015  0.9000773E+02  0.7816164E-02  0.1186339E+00
        -11   -1    0    0    0    0  0.00000000000E+00  0.00000000000E+00  0.45593999997E+02  0.45594000000E+02  0.51100000000E-03 0. -1.
         11   -1    0    0    0    0 -0.00000000000E+00 -0.00000000000E+00 -0.45593999997E+02  0.45594000000E+02  0.51100000000E-03 0.  1.
    9900012    2    1    2    0    0 -0.10414887341E+01  0.24681484357E+00 -0.49741730907E+00  0.90007728705E+02  0.89999989924E+02 0.  0.
         12    1    1    2    0    0  0.10414887341E+01 -0.24681484357E+00  0.49741730907E+00  0.11802712949E+01  0.00000000000E+00 0. -1.
         11    1    3    3    0    0  0.57100204259E+00 -0.29920042858E+01  0.90279517276E+01  0.95279612529E+01  0.51100000000E-03 0. -1.
        -11    1    3    3    0    0 -0.38377371982E+02 -0.11574937026E+02 -0.20016611710E+01  0.40134878785E+02  0.51100000000E-03 0.  1.
         12    1    3    3    0    0  0.36764881206E+02  0.14813756155E+02 -0.75237078657E+01  0.40344888667E+02  0.00000000000E+00 0. -1.
</event>
<event>
 7    1  0.2000468E-015  0.9000803E+02  0.7816164E-02  0.1186338E+00
        -11   -1    0    0    0    0  0.00000000000E+00  0.00000000000E+00  0.45593999997E+02  0.45594000000E+02  0.51100000000E-03 0.  1.
         11   -1    0    0    0    0 -0.00000000000E+00 -0.00000000000E+00 -0.45593999997E+02  0.45594000000E+02  0.51100000000E-03 0. -1.
    9900012    2    1    2    0    0 -0.34162613273E+00  0.11282979389E+01 -0.50579534906E-01  0.90008032652E+02  0.90000297882E+02 0.  0.
         12    1    1    2    0    0  0.34162613273E+00 -0.11282979389E+01  0.50579534906E-01  0.11799673482E+01  0.00000000000E+00 0. -1.
         11    1    3    3    0    0  0.36210917043E+02  0.29697089597E+01 -0.75085186093E+01  0.37100236338E+02  0.51100000000E-03 0. -1.
        -11    1    3    3    0    0  0.19828335813E+01  0.81884339194E+01 -0.65762035131E+01  0.10687774884E+02  0.51100000000E-03 0.  1.
        -12    1    3    3    0    0 -0.38535376757E+02 -0.10029844940E+02  0.14034142587E+02  0.42220021429E+02  0.00000000000E+00 0.  1.
</event>
<event>
 7    1  0.2000468E-015  0.9000768E+02  0.7816164E-02  0.1186339E+00
        -11   -1    0    0    0    0  0.00000000000E+00  0.00000000000E+00  0.45593999997E+02  0.45594000000E+02  0.51100000000E-03 0.  1.
         11   -1    0    0    0    0 -0.00000000000E+00 -0.00000000000E+00 -0.45593999997E+02  0.45594000000E+02  0.51100000000E-03 0. -1.
    9900012    2    1    2    0    0 -0.73899161148E+00 -0.25966499864E+00 -0.88295941031E+00  0.90007681469E+02  0.89999942065E+02 0.  0.
         12    1    1    2    0    0  0.73899161148E+00  0.25966499864E+00  0.88295941031E+00  0.11803185306E+01  0.00000000000E+00 0. -1.
         11    1    3    3    0    0 -0.16012856610E+01  0.97439022014E+01  0.51547525177E+01  0.11139085225E+02  0.51100000000E-03 0. -1.
        -11    1    3    3    0    0 -0.26575290123E+02 -0.29506692507E+02 -0.17379006513E+02  0.43346520223E+02  0.51100000000E-03 0.  1.
         12    1    3    3    0    0  0.27437584172E+02  0.19503125307E+02  0.11341294585E+02  0.35522076021E+02  0.00000000000E+00 0. -1.
</event>
<event>
 7    1  0.2000468E-015  0.9000771E+02  0.7816164E-02  0.1186339E+00
        -11   -1    0    0    0    0  0.00000000000E+00  0.00000000000E+00  0.45593999997E+02  0.45594000000E+02  0.51100000000E-03 0. -1.
         11   -1    0    0    0    0 -0.00000000000E+00 -0.00000000000E+00 -0.45593999997E+02  0.45594000000E+02  0.51100000000E-03 0.  1.
    9900012    2    1    2    0    0  0.22625859181E+00  0.84485090229E+00 -0.79253934061E+00  0.90007709949E+02  0.89999970921E+02 0.  0.
         12    1    1    2    0    0 -0.22625859181E+00 -0.84485090229E+00  0.79253934061E+00  0.11802900507E+01  0.00000000000E+00 0. -1.
         11    1    3    3    0    0 -0.32614925485E+02  0.74085555622E+01  0.19739743108E+02  0.38836548741E+02  0.51100000000E-03 0. -1.
        -11    1    3    3    0    0 -0.58718089947E+01 -0.81162130156E+00  0.16906724792E+01  0.61640282040E+01  0.51100000000E-03 0.  1.
        -12    1    3    3    0    0  0.38712993071E+02 -0.57520833584E+01 -0.22222954928E+02  0.45007133004E+02  0.00000000000E+00 0.  1.
</event>
<event>
 7    1  0.2000468E-015  0.9000767E+02  0.7816164E-02  0.1186339E+00
        -11   -1    0    0    0    0  0.00000000000E+00  0.00000000000E+00  0.45593999997E+02  0.45594000000E+02  0.51100000000E-03 0.  1.
         11   -1    0    0    0    0 -0.00000000000E+00 -0.00000000000E+00 -0.45593999997E+02  0.45594000000E+02  0.51100000000E-03 0. -1.
    9900012    2    1    2    0    0 -0.96305102833E+00 -0.68227301137E+00  0.14694147037E-01  0.90007669680E+02  0.89999930120E+02 0.  0.
         12    1    1    2    0    0  0.96305102833E+00  0.68227301137E+00 -0.14694147037E-01  0.11803303195E+01  0.00000000000E+00 0. -1.
         11    1    3    3    0    0 -0.89292462720E+00 -0.36619258639E+02 -0.13017111428E+02  0.38874318102E+02  0.51100000000E-03 0. -1.
        -11    1    3    3    0    0 -0.22775356472E+00  0.28108703259E+01 -0.10258376625E+02  0.10638945197E+02  0.51100000000E-03 0.  1.
        -12    1    3    3    0    0  0.15762716359E+00  0.33126115302E+02  0.23290182200E+02  0.40494406382E+02  0.00000000000E+00 0.  1.
</event>
<event>
 7    1  0.2000468E-015  0.9000775E+02  0.7816164E-02  0.1186339E+00
        -11   -1    0    0    0    0  0.00000000000E+00  0.00000000000E+00  0.45593999997E+02  0.45594000000E+02  0.51100000000E-03 0. -1.
         11   -1    0    0    0    0 -0.00000000000E+00 -0.00000000000E+00 -0.45593999997E+02  0.45594000000E+02  0.51100000000E-03 0.  1.
    9900012    2    1    2    0    0  0.10480681557E+01 -0.21172722663E+00 -0.49971888846E+00  0.90007748228E+02  0.90000009705E+02 0.  0.
         12    1    1    2    0    0 -0.10480681557E+01  0.21172722663E+00  0.49971888846E+00  0.11802517718E+01  0.00000000000E+00 0. -1.
         11    1    3    3    0    0  0.34914305047E+02  0.44472071573E+01 -0.18751053511E+02  0.39879673474E+02  0.51100000000E-03 0. -1.
        -11    1    3    3    0    0  0.57655382891E+01 -0.36957202855E+01  0.43734053186E+01  0.81256664055E+01  0.51100000000E-03 0.  1.
        -12    1    3    3    0    0 -0.39631775180E+02 -0.96321409850E+00  0.13877929304E+02  0.42002408349E+02  0.00000000000E+00 0.  1.
</event>
<event>
 7    1  0.2000468E-015  0.9000792E+02  0.7816164E-02  0.1186339E+00
        -11   -1    0    0    0    0  0.00000000000E+00  0.00000000000E+00  0.45593999997E+02  0.45594000000E+02  0.51100000000E-03 0. -1.
         11   -1    0    0    0    0 -0.00000000000E+00 -0.00000000000E+00 -0.45593999997E+02  0.45594000000E+02  0.51100000000E-03 0.  1.
    9900012    2    1    2    0    0  0.92664964966E+00  0.14411765329E+00 -0.71633532996E+00  0.90007921284E+02  0.90000185045E+02 0.  0.
         12    1    1    2    0    0 -0.92664964966E+00 -0.14411765329E+00  0.71633532996E+00  0.11800787161E+01  0.00000000000E+00 0. -1.
         11    1    3    3    0    0 -0.52975978131E+01 -0.25054916254E+01  0.37246819065E+02  0.37705007116E+02  0.51100000000E-03 0. -1.
        -11    1    3    3    0    0  0.29737752762E+01 -0.12642855503E+02 -0.20688970398E+01  0.13151633734E+02  0.51100000000E-03 0.  1.
        -12    1    3    3    0    0  0.32504721866E+01  0.15292464782E+02 -0.35894257355E+02  0.39151280434E+02  0.00000000000E+00 0.  1.
</event>
<event>
 7    1  0.2000468E-015  0.9000773E+02  0.7816164E-02  0.1186339E+00
        -11   -1    0    0    0    0  0.00000000000E+00  0.00000000000E+00  0.45593999997E+02  0.45594000000E+02  0.51100000000E-03 0.  1.
         11   -1    0    0    0    0 -0.00000000000E+00 -0.00000000000E+00 -0.45593999997E+02  0.45594000000E+02  0.51100000000E-03 0. -1.
    9900012    2    1    2    0    0  0.54238953172E+00 -0.22242361225E-01  0.10480257328E+01  0.90007729241E+02  0.89999990467E+02 0.  0.
         12    1    1    2    0    0 -0.54238953172E+00  0.22242361225E-01 -0.10480257328E+01  0.11802707585E+01  0.00000000000E+00 0. -1.
         11    1    3    3    0    0  0.63338819128E+01  0.78862917271E+01 -0.17085711156E+01  0.10258210020E+02  0.51100000000E-03 0. -1.
        -11    1    3    3    0    0 -0.98856959174E+01  0.31958990272E+02  0.16604654758E+02  0.37347270354E+02  0.51100000000E-03 0.  1.
         12    1    3    3    0    0  0.40942035364E+01 -0.39867524360E+02 -0.13848057910E+02  0.42402248868E+02  0.00000000000E+00 0. -1.
</event>
<event>
 7    1  0.2000468E-015  0.9000782E+02  0.7816164E-02  0.1186339E+00
        -11   -1    0    0    0    0  0.00000000000E+00  0.00000000000E+00  0.45593999997E+02  0.45594000000E+02  0.51100000000E-03 0.  1.
         11   -1    0    0    0    0 -0.00000000000E+00 -0.00000000000E+00 -0.45593999997E+02  0.45594000000E+02  0.51100000000E-03 0. -1.
    9900012    2    1    2    0    0 -0.74578518560E+00  0.71026602471E+00  0.57632577767E+00  0.90007820026E+02  0.90000082450E+02 0.  0.
         12    1    1    2    0    0  0.74578518560E+00 -0.71026602471E+00 -0.57632577767E+00  0.11801799740E+01  0.00000000000E+00 0. -1.
         11    1    3    3    0    0  0.27797909276E+01 -0.54742272401E+01  0.80570048161E+01  0.10129646013E+02  0.51100000000E-03 0. -1.
        -11    1    3    3    0    0 -0.32363808899E+02  0.80344203491E+00  0.21323336553E+02  0.38765272185E+02  0.51100000000E-03 0.  1.
         12    1    3    3    0    0  0.28838232786E+02  0.53810512299E+01 -0.28804015591E+02  0.41112901828E+02  0.00000000000E+00 0. -1.
</event>
<event>
 7    1  0.2000468E-015  0.9000777E+02  0.7816164E-02  0.1186339E+00
        -11   -1    0    0    0    0  0.00000000000E+00  0.00000000000E+00  0.45593999997E+02  0.45594000000E+02  0.51100000000E-03 0. -1.
         11   -1    0    0    0    0 -0.00000000000E+00 -0.00000000000E+00 -0.45593999997E+02  0.45594000000E+02  0.51100000000E-03 0.  1.
    9900012    2    1    2    0    0 -0.85486464223E+00 -0.19454106940E+00 -0.79012972795E+00  0.90007769187E+02  0.90000030941E+02 0.  0.
         12    1    1    2    0    0  0.85486464223E+00  0.19454106940E+00  0.79012972795E+00  0.11802308127E+01  0.00000000000E+00 0. -1.
         11    1    3    3    0    0 -0.71113357529E+01  0.25358006161E+01 -0.38386035362E+01  0.84697259888E+01  0.51100000000E-03 0. -1.
        -11    1    3    3    0    0  0.47224882441E+00 -0.19059137494E+02 -0.34930649093E+02  0.39794773366E+02  0.51100000000E-03 0.  1.
         12    1    3    3    0    0  0.57842222863E+01  0.16328795808E+02  0.37979122901E+02  0.41743269833E+02  0.00000000000E+00 0. -1.
</event>
<event>
 7    1  0.2000468E-015  0.9000772E+02  0.7816164E-02  0.1186339E+00
        -11   -1    0    0    0    0  0.00000000000E+00  0.00000000000E+00  0.45593999997E+02  0.45594000000E+02  0.51100000000E-03 0.  1.
         11   -1    0    0    0    0 -0.00000000000E+00 -0.00000000000E+00 -0.45593999997E+02  0.45594000000E+02  0.51100000000E-03 0. -1.
    9900012    2    1    2    0    0 -0.16585535753E+00  0.11609361232E+01  0.13333101006E+00  0.90007721287E+02  0.89999982408E+02 0.  0.
         12    1    1    2    0    0  0.16585535753E+00 -0.11609361232E+01 -0.13333101006E+00  0.11802787128E+01  0.00000000000E+00 0. -1.
         11    1    3    3    0    0  0.27227709212E+02  0.11505046294E+02 -0.19669416524E+02  0.35504931852E+02  0.51100000000E-03 0. -1.
        -11    1    3    3    0    0  0.73537217977E+01 -0.58358998154E+00 -0.65089988596E+01  0.98379300648E+01  0.51100000000E-03 0.  1.
        -12    1    3    3    0    0 -0.34747286367E+02 -0.97605201889E+01  0.26311746394E+02  0.44664859370E+02  0.00000000000E+00 0.  1.
</event>
<event>
 7    1  0.2000468E-015  0.9000786E+02  0.7816164E-02  0.1186339E+00
        -11   -1    0    0    0    0  0.00000000000E+00  0.00000000000E+00  0.45593999997E+02  0.45594000000E+02  0.51100000000E-03 0. -1.
         11   -1    0    0    0    0 -0.00000000000E+00 -0.00000000000E+00 -0.45593999997E+02  0.45594000000E+02  0.51100000000E-03 0.  1.
    9900012    2    1    2    0    0 -0.75935745436E+00 -0.72656123218E+00  0.53686439577E+00  0.90007856641E+02  0.90000119549E+02 0.  0.
         12    1    1    2    0    0  0.75935745436E+00  0.72656123218E+00 -0.53686439577E+00  0.11801433587E+01  0.00000000000E+00 0. -1.
         11    1    3    3    0    0  0.74816012327E+01  0.33967064852E+01  0.32860242683E+02  0.33871928221E+02  0.51100000000E-03 0. -1.
        -11    1    3    3    0    0  0.65723289944E+01  0.15231103010E+02 -0.12376837384E+01  0.16634718771E+02  0.51100000000E-03 0.  1.
        -12    1    3    3    0    0 -0.14813287681E+02 -0.19354370727E+02 -0.31085694549E+02  0.39501209649E+02  0.00000000000E+00 0.  1.
</event>
<event>
 7    1  0.2000468E-015  0.9000777E+02  0.7816164E-02  0.1186339E+00
        -11   -1    0    0    0    0  0.00000000000E+00  0.00000000000E+00  0.45593999997E+02  0.45594000000E+02  0.51100000000E-03 0.  1.
         11   -1    0    0    0    0 -0.00000000000E+00 -0.00000000000E+00 -0.45593999997E+02  0.45594000000E+02  0.51100000000E-03 0. -1.
    9900012    2    1    2    0    0 -0.77812639349E+00  0.70532984775E+00 -0.53849405753E+00  0.90007768358E+02  0.90000030101E+02 0.  0.
         12    1    1    2    0    0  0.77812639349E+00 -0.70532984775E+00  0.53849405753E+00  0.11802316418E+01  0.00000000000E+00 0. -1.
         11    1    3    3    0    0  0.17144278727E+02 -0.33006889185E+01 -0.36624098027E+02  0.40572717397E+02  0.51100000000E-03 0. -1.
        -11    1    3    3    0    0 -0.16975447986E+00  0.82090391781E+01 -0.83495834480E+00  0.82531385854E+01  0.51100000000E-03 0.  1.
        -12    1    3    3    0    0 -0.17752650641E+02 -0.42030204119E+01  0.36920562314E+02  0.41181912376E+02  0.00000000000E+00 0.  1.
</event>
<event>
 7    1  0.2000468E-015  0.9000764E+02  0.7816164E-02  0.1186339E+00
        -11   -1    0    0    0    0  0.00000000000E+00  0.00000000000E+00  0.45593999997E+02  0.45594000000E+02  0.51100000000E-03 0. -1.
         11   -1    0    0    0    0 -0.00000000000E+00 -0.00000000000E+00 -0.45593999997E+02  0.45594000000E+02  0.51100000000E-03 0.  1.
    9900012    2    1    2    0    0  0.92905967693E+00 -0.69438372557E+00 -0.21891769159E+00  0.90007641750E+02  0.89999901821E+02 0.  0.
         12    1    1    2    0    0 -0.92905967693E+00  0.69438372557E+00  0.21891769159E+00  0.11803582496E+01  0.00000000000E+00 0. -1.
         11    1    3    3    0    0 -0.69179008849E+01  0.58928456433E+01  0.32911772565E+01  0.96651347856E+01  0.51100000000E-03 0. -1.
        -11    1    3    3    0    0 -0.34865588347E+02 -0.81506593572E+01  0.66317067322E+01  0.36414585446E+02  0.51100000000E-03 0.  1.
         12    1    3    3    0    0  0.42712548909E+02  0.15634299884E+01 -0.10141801680E+02  0.43927921519E+02  0.00000000000E+00 0. -1.
</event>
<event>
 7    1  0.2000468E-015  0.9000801E+02  0.7816164E-02  0.1186339E+00
        -11   -1    0    0    0    0  0.00000000000E+00  0.00000000000E+00  0.45593999997E+02  0.45594000000E+02  0.51100000000E-03 0. -1.
         11   -1    0    0    0    0 -0.00000000000E+00 -0.00000000000E+00 -0.45593999997E+02  0.45594000000E+02  0.51100000000E-03 0.  1.
    9900012    2    1    2    0    0  0.11611680048E+01  0.18290994823E+00  0.10300929702E+00  0.90008009280E+02  0.90000274202E+02 0.  0.
         12    1    1    2    0    0 -0.11611680048E+01 -0.18290994823E+00 -0.10300929702E+00  0.11799907202E+01  0.00000000000E+00 0. -1.
         11    1    3    3    0    0  0.24891310803E+02  0.61425035356E+00  0.32943149429E+02  0.41294137012E+02  0.51100000000E-03 0. -1.
        -11    1    3    3    0    0  0.17697754087E+01 -0.86039142471E+01 -0.50963024638E+01  0.10155380073E+02  0.51100000000E-03 0.  1.
        -12    1    3    3    0    0 -0.25499918207E+02  0.81725738418E+01 -0.27743837668E+02  0.38558492195E+02  0.00000000000E+00 0.  1.
</event>
<event>
 7    1  0.2930615E-015  0.9000775E+02  0.7816164E-02  0.1186339E+00
        -11   -1    0    0    0    0  0.00000000000E+00  0.00000000000E+00  0.45593999997E+02  0.45594000000E+02  0.51100000000E-03 0.  1.
         11   -1    0    0    0    0 -0.00000000000E+00 -0.00000000000E+00 -0.45593999997E+02  0.45594000000E+02  0.51100000000E-03 0. -1.
    9900012    2    1    2    0    0 -0.38741889659E+00 -0.11054525538E+01 -0.14443735870E+00  0.90007753881E+02  0.90000015433E+02 0.  0.
         12    1    1    2    0    0  0.38741889659E+00  0.11054525538E+01  0.14443735870E+00  0.11802461187E+01  0.00000000000E+00 0. -1.
         11    1    3    3    0    0  0.38117278172E+02 -0.18551427400E+00 -0.10623014577E+02  0.39570313996E+02  0.51100000000E-03 0. -1.
        -11    1    3    3    0    0  0.22716174476E+01  0.13913878157E+01  0.91975904281E+01  0.95755874925E+01  0.51100000000E-03 0.  1.
        -12    1    3    3    0    0 -0.40776314516E+02 -0.23113260954E+01  0.12809867904E+01  0.40861852393E+02  0.00000000000E+00 0.  1.
</event>
<event>
 7    1  0.2000468E-015  0.9000773E+02  0.7816164E-02  0.1186339E+00
        -11   -1    0    0    0    0  0.00000000000E+00  0.00000000000E+00  0.45593999997E+02  0.45594000000E+02  0.51100000000E-03 0.  1.
         11   -1    0    0    0    0 -0.00000000000E+00 -0.00000000000E+00 -0.45593999997E+02  0.45594000000E+02  0.51100000000E-03 0. -1.
    9900012    2    1    2    0    0 -0.84683364055E+00 -0.75274834916E+00 -0.33055953390E+00  0.90007734395E+02  0.89999995689E+02 0.  0.
         12    1    1    2    0    0  0.84683364055E+00  0.75274834916E+00  0.33055953390E+00  0.11802656046E+01  0.00000000000E+00 0. -1.
         11    1    3    3    0    0  0.70528315073E+01  0.24182744279E+00  0.69677384858E+01  0.99171716054E+01  0.51100000000E-03 0. -1.
        -11    1    3    3    0    0  0.17218934250E+02 -0.12601884917E+02  0.28022451925E+02  0.35221541879E+02  0.51100000000E-03 0.  1.
         12    1    3    3    0    0 -0.25118599398E+02  0.11607309125E+02 -0.35320749945E+02  0.44869020911E+02  0.00000000000E+00 0. -1.
</event>
<event>
 7    1  0.2000468E-015  0.9000769E+02  0.7816164E-02  0.1186339E+00
        -11   -1    0    0    0    0  0.00000000000E+00  0.00000000000E+00  0.45593999997E+02  0.45594000000E+02  0.51100000000E-03 0.  1.
         11   -1    0    0    0    0 -0.00000000000E+00 -0.00000000000E+00 -0.45593999997E+02  0.45594000000E+02  0.51100000000E-03 0. -1.
    9900012    2    1    2    0    0  0.36180476836E+00 -0.11198703046E+01 -0.90142355972E-01  0.90007687400E+02  0.89999948074E+02 0.  0.
         12    1    1    2    0    0 -0.36180476836E+00  0.11198703046E+01  0.90142355972E-01  0.11803126000E+01  0.00000000000E+00 0. -1.
         11    1    3    3    0    0 -0.26526848208E+02  0.26228895441E+02  0.19750960467E+01  0.37356788360E+02  0.51100000000E-03 0. -1.
        -11    1    3    3    0    0 -0.74180981390E+01 -0.39643113977E+01 -0.68636418021E+01  0.10856036289E+02  0.51100000000E-03 0.  1.
        -12    1    3    3    0    0  0.34306751115E+02 -0.23384454348E+02  0.47984033994E+01  0.41794862751E+02  0.00000000000E+00 0.  1.
</event>
<event>
 7    1  0.2000468E-015  0.9000767E+02  0.7816164E-02  0.1186339E+00
        -11   -1    0    0    0    0  0.00000000000E+00  0.00000000000E+00  0.45593999997E+02  0.45594000000E+02  0.51100000000E-03 0.  1.
         11   -1    0    0    0    0 -0.00000000000E+00 -0.00000000000E+00 -0.45593999997E+02  0.45594000000E+02  0.51100000000E-03 0. -1.
    9900012    2    1    2    0    0 -0.64822221052E+00 -0.73039375359E+00  0.66295986086E+00  0.90007668332E+02  0.89999928754E+02 0.  0.
         12    1    1    2    0    0  0.64822221052E+00  0.73039375359E+00 -0.66295986086E+00  0.11803316681E+01  0.00000000000E+00 0. -1.
         11    1    3    3    0    0  0.32483504647E+01 -0.40173237917E+01  0.95453662407E+01  0.10853786810E+02  0.51100000000E-03 0. -1.
        -11    1    3    3    0    0 -0.56703452581E+01  0.24493625428E+02  0.27340166461E+02  0.37142633245E+02  0.51100000000E-03 0.  1.
         12    1    3    3    0    0  0.17737725829E+01 -0.21206695390E+02 -0.36222572841E+02  0.42011248277E+02  0.00000000000E+00 0. -1.
</event>
<event>
 7    1  0.2000468E-015  0.9000774E+02  0.7816164E-02  0.1186339E+00
        -11   -1    0    0    0    0  0.00000000000E+00  0.00000000000E+00  0.45593999997E+02  0.45594000000E+02  0.51100000000E-03 0.  1.
         11   -1    0    0    0    0 -0.00000000000E+00 -0.00000000000E+00 -0.45593999997E+02  0.45594000000E+02  0.51100000000E-03 0. -1.
    9900012    2    1    2    0    0 -0.61325538158E+00  0.54416805172E+00  0.84900157224E+00  0.90007743798E+02  0.90000005217E+02 0.  0.
         12    1    1    2    0    0  0.61325538158E+00 -0.54416805172E+00 -0.84900157224E+00  0.11802562015E+01  0.00000000000E+00 0. -1.
         11    1    3    3    0    0 -0.18795805816E+02 -0.33600521241E+02  0.26722149940E+01  0.38592979636E+02  0.51100000000E-03 0. -1.
        -11    1    3    3    0    0 -0.79884649638E+01  0.43024887736E+01 -0.69001605541E+01  0.11399087598E+02  0.51100000000E-03 0.  1.
        -12    1    3    3    0    0  0.26171015398E+02  0.29842200519E+02  0.50769471324E+01  0.40015676565E+02  0.00000000000E+00 0.  1.
</event>
<event>
 7    1  0.2000468E-015  0.9000795E+02  0.7816164E-02  0.1186339E+00
        -11   -1    0    0    0    0  0.00000000000E+00  0.00000000000E+00  0.45593999997E+02  0.45594000000E+02  0.51100000000E-03 0.  1.
         11   -1    0    0    0    0 -0.00000000000E+00 -0.00000000000E+00 -0.45593999997E+02  0.45594000000E+02  0.51100000000E-03 0. -1.
    9900012    2    1    2    0    0 -0.20256674836E+00  0.10773058854E+01  0.43692196978E+00  0.90007948278E+02  0.90000212395E+02 0.  0.
         12    1    1    2    0    0  0.20256674836E+00 -0.10773058854E+01 -0.43692196978E+00  0.11800517217E+01  0.00000000000E+00 0. -1.
         11    1    3    3    0    0 -0.10561217394E+01 -0.54646962862E+01  0.66870161737E+01  0.87002577086E+01  0.51100000000E-03 0. -1.
        -11    1    3    3    0    0 -0.30975677053E+02 -0.12535452828E+02  0.17025751515E+02  0.37503417996E+02  0.51100000000E-03 0.  1.
         12    1    3    3    0    0  0.31829232044E+02  0.19077454999E+02 -0.23275845719E+02  0.43804272573E+02  0.00000000000E+00 0. -1.
</event>
<event>
 7    1  0.2000468E-015  0.9000843E+02  0.7816164E-02  0.1186338E+00
        -11   -1    0    0    0    0  0.00000000000E+00  0.00000000000E+00  0.45593999997E+02  0.45594000000E+02  0.51100000000E-03 0. -1.
         11   -1    0    0    0    0 -0.00000000000E+00 -0.00000000000E+00 -0.45593999997E+02  0.45594000000E+02  0.51100000000E-03 0.  1.
    9900012    2    1    2    0    0 -0.70560261325E+00  0.71988834359E+00 -0.61258746004E+00  0.90008433270E+02  0.90000703786E+02 0.  0.
         12    1    1    2    0    0  0.70560261325E+00 -0.71988834359E+00  0.61258746004E+00  0.11795667303E+01  0.00000000000E+00 0. -1.
         11    1    3    3    0    0 -0.63924723891E+01  0.10323571682E+02  0.32516840193E+02  0.34710009103E+02  0.51100000000E-03 0. -1.
        -11    1    3    3    0    0 -0.50097774332E+01 -0.87698249819E+00  0.93436620927E+01  0.10638185456E+02  0.51100000000E-03 0.  1.
        -12    1    3    3    0    0  0.10696647209E+02 -0.87267008405E+01 -0.42473089746E+02  0.44660238710E+02  0.00000000000E+00 0.  1.
</event>
<event>
 7    1  0.2000468E-015  0.9000776E+02  0.7816164E-02  0.1186339E+00
        -11   -1    0    0    0    0  0.00000000000E+00  0.00000000000E+00  0.45593999997E+02  0.45594000000E+02  0.51100000000E-03 0. -1.
         11   -1    0    0    0    0 -0.00000000000E+00 -0.00000000000E+00 -0.45593999997E+02  0.45594000000E+02  0.51100000000E-03 0.  1.
    9900012    2    1    2    0    0  0.44391322413E+00  0.94483787757E+00 -0.55061955572E+00  0.90007762964E+02  0.90000024635E+02 0.  0.
         12    1    1    2    0    0 -0.44391322413E+00 -0.94483787757E+00  0.55061955572E+00  0.11802370358E+01  0.00000000000E+00 0. -1.
         11    1    3    3    0    0 -0.61266442874E+01  0.55661788356E+01 -0.41660707939E+01  0.92668367405E+01  0.51100000000E-03 0. -1.
        -11    1    3    3    0    0  0.15325797360E+02  0.27481281953E+02 -0.22298225597E+02  0.38565681474E+02  0.51100000000E-03 0.  1.
         12    1    3    3    0    0 -0.87552398489E+01 -0.32102622911E+02  0.25913676835E+02  0.42175244750E+02  0.00000000000E+00 0. -1.
</event>
<event>
 7    1  0.2000468E-015  0.9000753E+02  0.7816164E-02  0.1186339E+00
        -11   -1    0    0    0    0  0.00000000000E+00  0.00000000000E+00  0.45593999997E+02  0.45594000000E+02  0.51100000000E-03 0.  1.
         11   -1    0    0    0    0 -0.00000000000E+00 -0.00000000000E+00 -0.45593999997E+02  0.45594000000E+02  0.51100000000E-03 0. -1.
    9900012    2    1    2    0    0 -0.32254330556E+00  0.92317606112E-01  0.11317867664E+01  0.90007534834E+02  0.89999793493E+02 0.  0.
         12    1    1    2    0    0  0.32254330556E+00 -0.92317606112E-01 -0.11317867664E+01  0.11804651663E+01  0.00000000000E+00 0. -1.
         11    1    3    3    0    0  0.67542452273E+01  0.14350914842E+00 -0.49637089700E+01  0.83832470121E+01  0.51100000000E-03 0. -1.
        -11    1    3    3    0    0  0.22640429113E+02  0.20036998195E+02  0.26632794148E+02  0.40291141104E+02  0.51100000000E-03 0.  1.
         12    1    3    3    0    0 -0.29717217645E+02 -0.20088189737E+02 -0.20537298412E+02  0.41333146717E+02  0.00000000000E+00 0. -1.
</event>
<event>
 7    1  0.2000468E-015  0.9000768E+02  0.7816164E-02  0.1186339E+00
        -11   -1    0    0    0    0  0.00000000000E+00  0.00000000000E+00  0.45593999997E+02  0.45594000000E+02  0.51100000000E-03 0.  1.
         11   -1    0    0    0    0 -0.00000000000E+00 -0.00000000000E+00 -0.45593999997E+02  0.45594000000E+02  0.51100000000E-03 0. -1.
    9900012    2    1    2    0    0 -0.88129734075E+00  0.11729460293E+00  0.77633857747E+00  0.90007684528E+02  0.89999945164E+02 0.  0.
         12    1    1    2    0    0  0.88129734075E+00 -0.11729460293E+00 -0.77633857747E+00  0.11803154720E+01  0.00000000000E+00 0. -1.
         11    1    3    3    0    0 -0.10783421558E+02 -0.16262253320E+01  0.42006844355E+01  0.11686425430E+02  0.51100000000E-03 0. -1.
        -11    1    3    3    0    0  0.25955707176E+02 -0.18725521638E+02  0.24388866734E+02  0.40238796160E+02  0.51100000000E-03 0.  1.
         12    1    3    3    0    0 -0.16053582958E+02  0.20469041573E+02 -0.27813212592E+02  0.38082462938E+02  0.00000000000E+00 0. -1.
</event>
<event>
 7    1  0.2000468E-015  0.9000774E+02  0.7816164E-02  0.1186339E+00
        -11   -1    0    0    0    0  0.00000000000E+00  0.00000000000E+00  0.45593999997E+02  0.45594000000E+02  0.51100000000E-03 0. -1.
         11   -1    0    0    0    0 -0.00000000000E+00 -0.00000000000E+00 -0.45593999997E+02  0.45594000000E+02  0.51100000000E-03 0.  1.
    9900012    2    1    2    0    0 -0.30553263558E+00 -0.73470080941E+00 -0.87171055040E+00  0.90007739540E+02  0.90000000901E+02 0.  0.
         12    1    1    2    0    0  0.30553263558E+00  0.73470080941E+00  0.87171055040E+00  0.11802604604E+01  0.00000000000E+00 0. -1.
         11    1    3    3    0    0  0.64431676287E+01  0.26889302180E+02  0.20979878426E+02  0.34708850166E+02  0.51100000000E-03 0. -1.
        -11    1    3    3    0    0  0.10415195758E+02  0.33182555039E+01  0.38243866125E+01  0.11580719127E+02  0.51100000000E-03 0.  1.
        -12    1    3    3    0    0 -0.17163896022E+02 -0.30942258493E+02 -0.25675975589E+02  0.43718170247E+02  0.00000000000E+00 0.  1.
</event>
<event>
 7    1  0.2000468E-015  0.9000751E+02  0.7816164E-02  0.1186340E+00
        -11   -1    0    0    0    0  0.00000000000E+00  0.00000000000E+00  0.45593999997E+02  0.45594000000E+02  0.51100000000E-03 0.  1.
         11   -1    0    0    0    0 -0.00000000000E+00 -0.00000000000E+00 -0.45593999997E+02  0.45594000000E+02  0.51100000000E-03 0. -1.
    9900012    2    1    2    0    0 -0.40238510044E+00  0.54923655642E+00  0.96435359781E+00  0.90007511785E+02  0.89999770140E+02 0.  0.
         12    1    1    2    0    0  0.40238510044E+00 -0.54923655642E+00 -0.96435359781E+00  0.11804882149E+01  0.00000000000E+00 0. -1.
         11    1    3    3    0    0  0.56807679978E+01  0.59256077303E+01  0.66120530311E+01  0.10540550155E+02  0.51100000000E-03 0. -1.
        -11    1    3    3    0    0 -0.22435604118E+02 -0.29482390923E+02  0.18702048070E+02  0.41501015758E+02  0.51100000000E-03 0.  1.
         12    1    3    3    0    0  0.16352451020E+02  0.24106019749E+02 -0.24349747503E+02  0.37965945872E+02  0.00000000000E+00 0. -1.
</event>
<event>
 7    1  0.2000468E-015  0.9000778E+02  0.7816164E-02  0.1186339E+00
        -11   -1    0    0    0    0  0.00000000000E+00  0.00000000000E+00  0.45593999997E+02  0.45594000000E+02  0.51100000000E-03 0.  1.
         11   -1    0    0    0    0 -0.00000000000E+00 -0.00000000000E+00 -0.45593999997E+02  0.45594000000E+02  0.51100000000E-03 0. -1.
    9900012    2    1    2    0    0 -0.11137846917E+01 -0.29141649370E+00 -0.25978988462E+00  0.90007775150E+02  0.90000036982E+02 0.  0.
         12    1    1    2    0    0  0.11137846917E+01  0.29141649370E+00  0.25978988462E+00  0.11802248500E+01  0.00000000000E+00 0. -1.
         11    1    3    3    0    0 -0.45509324465E+01 -0.43307693528E+01 -0.87719455575E+01  0.10789512429E+02  0.51100000000E-03 0. -1.
        -11    1    3    3    0    0 -0.72420647853E+01  0.25380452019E+02  0.34824382320E+02  0.43696137716E+02  0.51100000000E-03 0.  1.
         12    1    3    3    0    0  0.10679212540E+02 -0.21341099160E+02 -0.26312226647E+02  0.35522125006E+02  0.00000000000E+00 0. -1.
</event>
<event>
 7    1  0.2000468E-015  0.9000775E+02  0.7816164E-02  0.1186339E+00
        -11   -1    0    0    0    0  0.00000000000E+00  0.00000000000E+00  0.45593999997E+02  0.45594000000E+02  0.51100000000E-03 0.  1.
         11   -1    0    0    0    0 -0.00000000000E+00 -0.00000000000E+00 -0.45593999997E+02  0.45594000000E+02  0.51100000000E-03 0. -1.
    9900012    2    1    2    0    0  0.29137793933E+00  0.90936975874E+00  0.69363253021E+00  0.90007754030E+02  0.90000015584E+02 0.  0.
         12    1    1    2    0    0 -0.29137793933E+00 -0.90936975874E+00 -0.69363253021E+00  0.11802459695E+01  0.00000000000E+00 0. -1.
         11    1    3    3    0    0 -0.59923645337E+01  0.32636054829E+02 -0.18197782867E+02  0.37844151583E+02  0.51100000000E-03 0. -1.
        -11    1    3    3    0    0  0.95810407018E+01 -0.11717127417E+00 -0.64209061286E+01  0.11534214573E+02  0.51100000000E-03 0.  1.
        -12    1    3    3    0    0 -0.32972982288E+01 -0.31609513796E+02  0.25312321526E+02  0.40629387875E+02  0.00000000000E+00 0.  1.
</event>
<event>
 7    1  0.2000468E-015  0.9000776E+02  0.7816164E-02  0.1186339E+00
        -11   -1    0    0    0    0  0.00000000000E+00  0.00000000000E+00  0.45593999997E+02  0.45594000000E+02  0.51100000000E-03 0. -1.
         11   -1    0    0    0    0 -0.00000000000E+00 -0.00000000000E+00 -0.45593999997E+02  0.45594000000E+02  0.51100000000E-03 0.  1.
    9900012    2    1    2    0    0  0.49039086042E+00 -0.98331771331E+00 -0.43078794512E+00  0.90007756307E+02  0.90000017890E+02 0.  0.
         12    1    1    2    0    0 -0.49039086042E+00  0.98331771331E+00  0.43078794512E+00  0.11802436930E+01  0.00000000000E+00 0. -1.
         11    1    3    3    0    0 -0.79110142202E+01 -0.24043977118E+02  0.31091695666E+02  0.40092275082E+02  0.51100000000E-03 0. -1.
        -11    1    3    3    0    0  0.72967611820E+01  0.68132651253E+01  0.40649464696E+01  0.10779011804E+02  0.51100000000E-03 0.  1.
        -12    1    3    3    0    0  0.11046438986E+01  0.16247394279E+02 -0.35587430080E+02  0.39136469421E+02  0.00000000000E+00 0.  1.
</event>
<event>
 7    1  0.2000468E-015  0.9000762E+02  0.7816164E-02  0.1186339E+00
        -11   -1    0    0    0    0  0.00000000000E+00  0.00000000000E+00  0.45593999997E+02  0.45594000000E+02  0.51100000000E-03 0.  1.
         11   -1    0    0    0    0 -0.00000000000E+00 -0.00000000000E+00 -0.45593999997E+02  0.45594000000E+02  0.51100000000E-03 0. -1.
    9900012    2    1    2    0    0  0.30874633137E+00  0.11389210887E+01 -0.28989403493E-01  0.90007616194E+02  0.89999875928E+02 0.  0.
         12    1    1    2    0    0 -0.30874633137E+00 -0.11389210887E+01  0.28989403493E-01  0.11803838058E+01  0.00000000000E+00 0. -1.
         11    1    3    3    0    0  0.14964862061E+01 -0.11475076239E+02 -0.13934028854E+02  0.18112813311E+02  0.51100000000E-03 0. -1.
        -11    1    3    3    0    0 -0.28494773220E+01 -0.22952483609E+02  0.25521499533E+02  0.34442458732E+02  0.51100000000E-03 0.  1.
        -12    1    3    3    0    0  0.16617374472E+01  0.35566480937E+02 -0.11616460082E+02  0.37452344151E+02  0.00000000000E+00 0.  1.
</event>
<event>
 7    1  0.2000468E-015  0.9000773E+02  0.7816164E-02  0.1186339E+00
        -11   -1    0    0    0    0  0.00000000000E+00  0.00000000000E+00  0.45593999997E+02  0.45594000000E+02  0.51100000000E-03 0.  1.
         11   -1    0    0    0    0 -0.00000000000E+00 -0.00000000000E+00 -0.45593999997E+02  0.45594000000E+02  0.51100000000E-03 0. -1.
    9900012    2    1    2    0    0  0.42585862271E+00  0.10672369641E+01 -0.26958458907E+00  0.90007734710E+02  0.89999996008E+02 0.  0.
         12    1    1    2    0    0 -0.42585862271E+00 -0.10672369641E+01  0.26958458907E+00  0.11802652900E+01  0.00000000000E+00 0. -1.
         11    1    3    3    0    0  0.10404296107E+02  0.47741101632E+01 -0.80629024210E+01  0.14001853486E+02  0.51100000000E-03 0. -1.
        -11    1    3    3    0    0  0.32335433223E+02 -0.69927556026E+01  0.51611532140E+01  0.33483075955E+02  0.51100000000E-03 0.  1.
        -12    1    3    3    0    0 -0.42313870707E+02  0.32858824035E+01  0.26321646179E+01  0.42522805269E+02  0.00000000000E+00 0.  1.
</event>
<event>
 7    1  0.2000468E-015  0.9000771E+02  0.7816164E-02  0.1186339E+00
        -11   -1    0    0    0    0  0.00000000000E+00  0.00000000000E+00  0.45593999997E+02  0.45594000000E+02  0.51100000000E-03 0.  1.
         11   -1    0    0    0    0 -0.00000000000E+00 -0.00000000000E+00 -0.45593999997E+02  0.45594000000E+02  0.51100000000E-03 0. -1.
    9900012    2    1    2    0    0  0.28482363233E+00 -0.33531728907E+00  0.10952317777E+01  0.90007705616E+02  0.89999966530E+02 0.  0.
         12    1    1    2    0    0 -0.28482363233E+00  0.33531728907E+00 -0.10952317777E+01  0.11802943840E+01  0.00000000000E+00 0. -1.
         11    1    3    3    0    0  0.69156993507E+00 -0.39070568786E+02 -0.16580147814E+02  0.42448662123E+02  0.51100000000E-03 0. -1.
        -11    1    3    3    0    0 -0.33190910050E+01  0.12008847542E+01 -0.29785267297E+01  0.46184533161E+01  0.51100000000E-03 0.  1.
        -12    1    3    3    0    0  0.29123447023E+01  0.37534366742E+02  0.20653906322E+02  0.42940590177E+02  0.00000000000E+00 0.  1.
</event>
<event>
 7    1  0.2000468E-015  0.9000774E+02  0.7816164E-02  0.1186339E+00
        -11   -1    0    0    0    0  0.00000000000E+00  0.00000000000E+00  0.45593999997E+02  0.45594000000E+02  0.51100000000E-03 0.  1.
         11   -1    0    0    0    0 -0.00000000000E+00 -0.00000000000E+00 -0.45593999997E+02  0.45594000000E+02  0.51100000000E-03 0. -1.
    9900012    2    1    2    0    0 -0.62739754852E+00  0.66547168943E+00  0.74600669947E+00  0.90007743143E+02  0.90000004552E+02 0.  0.
         12    1    1    2    0    0  0.62739754852E+00 -0.66547168943E+00 -0.74600669947E+00  0.11802568572E+01  0.00000000000E+00 0. -1.
         11    1    3    3    0    0  0.13890456696E+02 -0.19350583195E+02 -0.72164338532E+01  0.24889089478E+02  0.51100000000E-03 0. -1.
        -11    1    3    3    0    0  0.71707908904E+01 -0.14094117244E+02 -0.12176336784E+02  0.19958145220E+02  0.51100000000E-03 0.  1.
        -12    1    3    3    0    0 -0.21688645134E+02  0.34110172128E+02  0.20138777337E+02  0.45160508445E+02  0.00000000000E+00 0.  1.
</event>
<event>
 7    1  0.2000468E-015  0.9000781E+02  0.7816164E-02  0.1186339E+00
        -11   -1    0    0    0    0  0.00000000000E+00  0.00000000000E+00  0.45593999997E+02  0.45594000000E+02  0.51100000000E-03 0.  1.
         11   -1    0    0    0    0 -0.00000000000E+00 -0.00000000000E+00 -0.45593999997E+02  0.45594000000E+02  0.51100000000E-03 0. -1.
    9900012    2    1    2    0    0  0.14568055706E+00 -0.92226935111E+00  0.72183391633E+00  0.90007810276E+02  0.90000072572E+02 0.  0.
         12    1    1    2    0    0 -0.14568055706E+00  0.92226935111E+00 -0.72183391633E+00  0.11801897235E+01  0.00000000000E+00 0. -1.
         11    1    3    3    0    0 -0.54711662947E+01 -0.85014035770E+01  0.62234937846E+01  0.11871790032E+02  0.51100000000E-03 0. -1.
        -11    1    3    3    0    0  0.17926589447E+02  0.33808054340E+01  0.32884907681E+02  0.37605978355E+02  0.51100000000E-03 0.  1.
         12    1    3    3    0    0 -0.12309742595E+02  0.41983287919E+01 -0.38386567549E+02  0.40530041890E+02  0.00000000000E+00 0. -1.
</event>
<event>
 7    1  0.2000468E-015  0.9000765E+02  0.7816164E-02  0.1186339E+00
        -11   -1    0    0    0    0  0.00000000000E+00  0.00000000000E+00  0.45593999997E+02  0.45594000000E+02  0.51100000000E-03 0. -1.
         11   -1    0    0    0    0 -0.00000000000E+00 -0.00000000000E+00 -0.45593999997E+02  0.45594000000E+02  0.51100000000E-03 0.  1.
    9900012    2    1    2    0    0  0.27349623243E+00  0.78361120164E+00 -0.83927037906E+00  0.90007651969E+02  0.89999912175E+02 0.  0.
         12    1    1    2    0    0 -0.27349623243E+00 -0.78361120164E+00  0.83927037906E+00  0.11803480307E+01  0.00000000000E+00 0. -1.
         11    1    3    3    0    0 -0.19517696390E+01  0.58713947100E+01  0.28161065233E+01  0.67980244760E+01  0.51100000000E-03 0. -1.
        -11    1    3    3    0    0  0.55879755139E+01  0.14536372535E+01 -0.42897413728E+02  0.43284253908E+02  0.51100000000E-03 0.  1.
         12    1    3    3    0    0 -0.33627096425E+01 -0.65414207619E+01  0.39242036825E+02  0.39925373585E+02  0.00000000000E+00 0. -1.
</event>
<event>
 7    1  0.2000468E-015  0.9000756E+02  0.7816164E-02  0.1186339E+00
        -11   -1    0    0    0    0  0.00000000000E+00  0.00000000000E+00  0.45593999997E+02  0.45594000000E+02  0.51100000000E-03 0. -1.
         11   -1    0    0    0    0 -0.00000000000E+00 -0.00000000000E+00 -0.45593999997E+02  0.45594000000E+02  0.51100000000E-03 0.  1.
    9900012    2    1    2    0    0 -0.18651327199E-02  0.31088393297E+00 -0.11387696181E+01  0.90007555786E+02  0.89999814722E+02 0.  0.
         12    1    1    2    0    0  0.18651327199E-02 -0.31088393297E+00  0.11387696181E+01  0.11804442137E+01  0.00000000000E+00 0. -1.
         11    1    3    3    0    0 -0.41592467756E+01 -0.72913195848E+01  0.55434596891E+00  0.84124892120E+01  0.51100000000E-03 0. -1.
        -11    1    3    3    0    0 -0.11319942797E+02 -0.31001136199E+02 -0.17189554586E+02  0.37211454388E+02  0.51100000000E-03 0.  1.
         12    1    3    3    0    0  0.15477324440E+02  0.38603339716E+02  0.15496438999E+02  0.44383612187E+02  0.00000000000E+00 0. -1.
</event>
<event>
 7    1  0.2000468E-015  0.9000706E+02  0.7816164E-02  0.1186340E+00
        -11   -1    0    0    0    0  0.00000000000E+00  0.00000000000E+00  0.45593999997E+02  0.45594000000E+02  0.51100000000E-03 0.  1.
         11   -1    0    0    0    0 -0.00000000000E+00 -0.00000000000E+00 -0.45593999997E+02  0.45594000000E+02  0.51100000000E-03 0. -1.
    9900012    2    1    2    0    0  0.82010072702E+00  0.17813970955E-01  0.84954927309E+00  0.90007061175E+02  0.89999313580E+02 0.  0.
         12    1    1    2    0    0 -0.82010072702E+00 -0.17813970955E-01 -0.84954927309E+00  0.11809388246E+01  0.00000000000E+00 0. -1.
         11    1    3    3    0    0 -0.91422132394E+01  0.27662042328E+01 -0.11487586766E+00  0.95522324876E+01  0.51100000000E-03 0. -1.
        -11    1    3    3    0    0 -0.31979724550E+02  0.28671825209E+01  0.15576359803E+02  0.35686783308E+02  0.51100000000E-03 0.  1.
         12    1    3    3    0    0  0.41942038516E+02 -0.56155727828E+01 -0.14611934662E+02  0.44768045380E+02  0.00000000000E+00 0. -1.
</event>
<event>
 7    1  0.2000468E-015  0.9000784E+02  0.7816164E-02  0.1186339E+00
        -11   -1    0    0    0    0  0.00000000000E+00  0.00000000000E+00  0.45593999997E+02  0.45594000000E+02  0.51100000000E-03 0. -1.
         11   -1    0    0    0    0 -0.00000000000E+00 -0.00000000000E+00 -0.45593999997E+02  0.45594000000E+02  0.51100000000E-03 0.  1.
    9900012    2    1    2    0    0 -0.76824000394E+00 -0.11503964853E+00  0.88844955193E+00  0.90007843472E+02  0.90000106206E+02 0.  0.
         12    1    1    2    0    0  0.76824000394E+00  0.11503964853E+00 -0.88844955193E+00  0.11801565281E+01  0.00000000000E+00 0. -1.
         11    1    3    3    0    0 -0.87638893250E+01 -0.87769091531E-01  0.47565742613E+01  0.99718833968E+01  0.51100000000E-03 0. -1.
        -11    1    3    3    0    0 -0.73905060679E+00  0.79619323324E+01 -0.40633054252E+02  0.41412361202E+02  0.51100000000E-03 0.  1.
         12    1    3    3    0    0  0.87346999279E+01 -0.79892028894E+01  0.36764929542E+02  0.38623598873E+02  0.00000000000E+00 0. -1.
</event>
<event>
 7    1  0.2000468E-015  0.9000764E+02  0.7816164E-02  0.1186339E+00
        -11   -1    0    0    0    0  0.00000000000E+00  0.00000000000E+00  0.45593999997E+02  0.45594000000E+02  0.51100000000E-03 0.  1.
         11   -1    0    0    0    0 -0.00000000000E+00 -0.00000000000E+00 -0.45593999997E+02  0.45594000000E+02  0.51100000000E-03 0. -1.
    9900012    2    1    2    0    0 -0.79977109132E+00 -0.73824092773E+00  0.45674500727E+00  0.90007640111E+02  0.89999900160E+02 0.  0.
         12    1    1    2    0    0  0.79977109132E+00  0.73824092773E+00 -0.45674500727E+00  0.11803598890E+01  0.00000000000E+00 0. -1.
         11    1    3    3    0    0 -0.14858428544E+01 -0.41013932588E+02 -0.55120422887E+01  0.41409334766E+02  0.51100000000E-03 0. -1.
        -11    1    3    3    0    0 -0.45134538621E+01  0.66070844304E+00 -0.53891976698E+01  0.70605419904E+01  0.51100000000E-03 0.  1.
        -12    1    3    3    0    0  0.51995256252E+01  0.39614983217E+02  0.11357984966E+02  0.41537763355E+02  0.00000000000E+00 0.  1.
</event>
<event>
 7    1  0.2000468E-015  0.9000756E+02  0.7816164E-02  0.1186339E+00
        -11   -1    0    0    0    0  0.00000000000E+00  0.00000000000E+00  0.45593999997E+02  0.45594000000E+02  0.51100000000E-03 0.  1.
         11   -1    0    0    0    0 -0.00000000000E+00 -0.00000000000E+00 -0.45593999997E+02  0.45594000000E+02  0.51100000000E-03 0. -1.
    9900012    2    1    2    0    0  0.91009223018E+00  0.48301671316E+00 -0.57607384762E+00  0.90007561907E+02  0.89999820924E+02 0.  0.
         12    1    1    2    0    0 -0.91009223018E+00 -0.48301671316E+00  0.57607384762E+00  0.11804380926E+01  0.00000000000E+00 0. -1.
         11    1    3    3    0    0  0.38092687727E+01 -0.28665769119E+01  0.74776146231E+01  0.88680613714E+01  0.51100000000E-03 0. -1.
        -11    1    3    3    0    0  0.21221044428E+02  0.22720688646E+01  0.29550348445E+02  0.36451585933E+02  0.51100000000E-03 0.  1.
         12    1    3    3    0    0 -0.24120220970E+02  0.10775247604E+01 -0.37604036915E+02  0.44687914603E+02  0.00000000000E+00 0. -1.
</event>
<event>
 7    1  0.2000468E-015  0.9000769E+02  0.7816164E-02  0.1186339E+00
        -11   -1    0    0    0    0  0.00000000000E+00  0.00000000000E+00  0.45593999997E+02  0.45594000000E+02  0.51100000000E-03 0. -1.
         11   -1    0    0    0    0 -0.00000000000E+00 -0.00000000000E+00 -0.45593999997E+02  0.45594000000E+02  0.51100000000E-03 0.  1.
    9900012    2    1    2    0    0 -0.10035907883E+01  0.35639304318E+00 -0.50883373263E+00  0.90007694006E+02  0.89999954767E+02 0.  0.
         12    1    1    2    0    0  0.10035907883E+01 -0.35639304318E+00  0.50883373263E+00  0.11803059938E+01  0.00000000000E+00 0. -1.
         11    1    3    3    0    0 -0.69489008247E+01 -0.45732513663E+01  0.48774037268E+01  0.96431798752E+01  0.51100000000E-03 0. -1.
        -11    1    3    3    0    0 -0.31344513923E+02 -0.37434167363E+01  0.17163993847E+02  0.35931802167E+02  0.51100000000E-03 0.  1.
         12    1    3    3    0    0  0.37289823959E+02  0.86730611458E+01 -0.22550231306E+02  0.44432711964E+02  0.00000000000E+00 0. -1.
</event>
<event>
 7    1  0.2000468E-015  0.9000762E+02  0.7816164E-02  0.1186339E+00
        -11   -1    0    0    0    0  0.00000000000E+00  0.00000000000E+00  0.45593999997E+02  0.45594000000E+02  0.51100000000E-03 0. -1.
         11   -1    0    0    0    0 -0.00000000000E+00 -0.00000000000E+00 -0.45593999997E+02  0.45594000000E+02  0.51100000000E-03 0.  1.
    9900012    2    1    2    0    0 -0.10391687848E+01 -0.37124488957E+00  0.41904777732E+00  0.90007620582E+02  0.89999880373E+02 0.  0.
         12    1    1    2    0    0  0.10391687848E+01  0.37124488957E+00 -0.41904777732E+00  0.11803794182E+01  0.00000000000E+00 0. -1.
         11    1    3    3    0    0 -0.75881769968E+00 -0.27925962222E+01 -0.95982525343E+01  0.10025011219E+02  0.51100000000E-03 0. -1.
        -11    1    3    3    0    0  0.79836850218E+01 -0.16946030713E+02 -0.29650632365E+02  0.35072313629E+02  0.51100000000E-03 0.  1.
         12    1    3    3    0    0 -0.82640361069E+01  0.19367382045E+02  0.39667932676E+02  0.44910295734E+02  0.00000000000E+00 0. -1.
</event>
<event>
 7    1  0.2000468E-015  0.9000773E+02  0.7816164E-02  0.1186339E+00
        -11   -1    0    0    0    0  0.00000000000E+00  0.00000000000E+00  0.45593999997E+02  0.45594000000E+02  0.51100000000E-03 0.  1.
         11   -1    0    0    0    0 -0.00000000000E+00 -0.00000000000E+00 -0.45593999997E+02  0.45594000000E+02  0.51100000000E-03 0. -1.
    9900012    2    1    2    0    0  0.83729567808E+00 -0.28843684117E+00  0.78024890639E+00  0.90007725363E+02  0.89999986537E+02 0.  0.
         12    1    1    2    0    0 -0.83729567808E+00  0.28843684117E+00 -0.78024890639E+00  0.11802746374E+01  0.00000000000E+00 0. -1.
         11    1    3    3    0    0  0.38829771754E+02 -0.10811334599E+02 -0.43456157387E+01  0.40540356519E+02  0.51100000000E-03 0. -1.
        -11    1    3    3    0    0  0.58887265753E+00 -0.66062698201E+01 -0.13275710190E+01  0.67640237296E+01  0.51100000000E-03 0.  1.
        -12    1    3    3    0    0 -0.38581348734E+02  0.17129167578E+02  0.64534356641E+01  0.42703345114E+02  0.00000000000E+00 0.  1.
</event>
<event>
 7    1  0.2180620E-015  0.9000792E+02  0.7816164E-02  0.1186339E+00
        -11   -1    0    0    0    0  0.00000000000E+00  0.00000000000E+00  0.45593999997E+02  0.45594000000E+02  0.51100000000E-03 0.  1.
         11   -1    0    0    0    0 -0.00000000000E+00 -0.00000000000E+00 -0.45593999997E+02  0.45594000000E+02  0.51100000000E-03 0. -1.
    9900012    2    1    2    0    0  0.60744568078E+00  0.99396232742E+00 -0.18878526599E+00  0.90007918969E+02  0.90000182699E+02 0.  0.
         12    1    1    2    0    0 -0.60744568078E+00 -0.99396232742E+00  0.18878526599E+00  0.11800810311E+01  0.00000000000E+00 0. -1.
         11    1    3    3    0    0  0.15719482597E+02  0.34148623653E+02 -0.12516839955E+02  0.39621987750E+02  0.51100000000E-03 0. -1.
        -11    1    3    3    0    0 -0.70984512664E+01  0.27978401785E+01 -0.55566403119E+01  0.94388649669E+01  0.51100000000E-03 0.  1.
        -12    1    3    3    0    0 -0.80135856495E+01 -0.35952501504E+02  0.17884695001E+02  0.40947066252E+02  0.00000000000E+00 0.  1.
</event>
<event>
 7    1  0.2000468E-015  0.9000776E+02  0.7816164E-02  0.1186339E+00
        -11   -1    0    0    0    0  0.00000000000E+00  0.00000000000E+00  0.45593999997E+02  0.45594000000E+02  0.51100000000E-03 0.  1.
         11   -1    0    0    0    0 -0.00000000000E+00 -0.00000000000E+00 -0.45593999997E+02  0.45594000000E+02  0.51100000000E-03 0. -1.
    9900012    2    1    2    0    0 -0.78115886641E+00  0.80858995709E+00  0.35909704933E+00  0.90007755286E+02  0.90000016856E+02 0.  0.
         12    1    1    2    0    0  0.78115886641E+00 -0.80858995709E+00 -0.35909704933E+00  0.11802447137E+01  0.00000000000E+00 0. -1.
         11    1    3    3    0    0 -0.66700619397E+01 -0.72117498711E+01  0.12562178476E+02  0.15947018242E+02  0.51100000000E-03 0. -1.
        -11    1    3    3    0    0 -0.24688382692E+02  0.25218605163E+02  0.38105266108E+01  0.35496681530E+02  0.51100000000E-03 0.  1.
         12    1    3    3    0    0  0.30577285766E+02 -0.17198265335E+02 -0.16013608038E+02  0.38564055514E+02  0.00000000000E+00 0. -1.
</event>
<event>
 7    1  0.2000468E-015  0.9000780E+02  0.7816164E-02  0.1186339E+00
        -11   -1    0    0    0    0  0.00000000000E+00  0.00000000000E+00  0.45593999997E+02  0.45594000000E+02  0.51100000000E-03 0. -1.
         11   -1    0    0    0    0 -0.00000000000E+00 -0.00000000000E+00 -0.45593999997E+02  0.45594000000E+02  0.51100000000E-03 0.  1.
    9900012    2    1    2    0    0 -0.17827869720E-01 -0.69356180062E+00 -0.95473808596E+00  0.90007800603E+02  0.90000062771E+02 0.  0.
         12    1    1    2    0    0  0.17827869720E-01  0.69356180062E+00  0.95473808596E+00  0.11801993971E+01  0.00000000000E+00 0. -1.
         11    1    3    3    0    0  0.75005945861E+01  0.14803913785E+02  0.28708272105E+02  0.33159910585E+02  0.51100000000E-03 0. -1.
        -11    1    3    3    0    0 -0.10204376378E+02  0.10100504192E+02  0.35876790769E+01  0.14799355514E+02  0.51100000000E-03 0.  1.
        -12    1    3    3    0    0  0.26859539222E+01 -0.25597979777E+02 -0.33250689268E+02  0.42048534504E+02  0.00000000000E+00 0.  1.
</event>
<event>
 7    1  0.2000468E-015  0.9000774E+02  0.7816164E-02  0.1186339E+00
        -11   -1    0    0    0    0  0.00000000000E+00  0.00000000000E+00  0.45593999997E+02  0.45594000000E+02  0.51100000000E-03 0. -1.
         11   -1    0    0    0    0 -0.00000000000E+00 -0.00000000000E+00 -0.45593999997E+02  0.45594000000E+02  0.51100000000E-03 0.  1.
    9900012    2    1    2    0    0 -0.17072651925E-01  0.11735021110E+01  0.12496320746E+00  0.90007739655E+02  0.90000001018E+02 0.  0.
         12    1    1    2    0    0  0.17072651925E-01 -0.11735021110E+01 -0.12496320746E+00  0.11802603455E+01  0.00000000000E+00 0. -1.
         11    1    3    3    0    0  0.82073760071E+01  0.55154626131E+01  0.52999791563E+01  0.11219230280E+02  0.51100000000E-03 0. -1.
        -11    1    3    3    0    0 -0.14644849401E+02  0.28073885801E+02 -0.24919313816E+02  0.40293757323E+02  0.51100000000E-03 0.  1.
         12    1    3    3    0    0  0.64204007421E+01 -0.32415846303E+02  0.19744297867E+02  0.38494752051E+02  0.00000000000E+00 0. -1.
</event>
<event>
 7    1  0.2000468E-015  0.9000775E+02  0.7816164E-02  0.1186339E+00
        -11   -1    0    0    0    0  0.00000000000E+00  0.00000000000E+00  0.45593999997E+02  0.45594000000E+02  0.51100000000E-03 0.  1.
         11   -1    0    0    0    0 -0.00000000000E+00 -0.00000000000E+00 -0.45593999997E+02  0.45594000000E+02  0.51100000000E-03 0. -1.
    9900012    2    1    2    0    0  0.60637938092E+00  0.10091768588E+01 -0.82741258745E-01  0.90007754262E+02  0.90000015818E+02 0.  0.
         12    1    1    2    0    0 -0.60637938092E+00 -0.10091768588E+01  0.82741258745E-01  0.11802457379E+01  0.00000000000E+00 0. -1.
         11    1    3    3    0    0 -0.40062421000E+01  0.72043777763E+01  0.52086466331E+01  0.97510530157E+01  0.51100000000E-03 0. -1.
        -11    1    3    3    0    0 -0.23422386246E+02  0.27228619773E+02 -0.70265526680E+01  0.36597518425E+02  0.51100000000E-03 0.  1.
         12    1    3    3    0    0  0.28035007727E+02 -0.33423820690E+02  0.17351647762E+01  0.43659182821E+02  0.00000000000E+00 0. -1.
</event>
<event>
 7    1  0.2000468E-015  0.9000768E+02  0.7816164E-02  0.1186339E+00
        -11   -1    0    0    0    0  0.00000000000E+00  0.00000000000E+00  0.45593999997E+02  0.45594000000E+02  0.51100000000E-03 0.  1.
         11   -1    0    0    0    0 -0.00000000000E+00 -0.00000000000E+00 -0.45593999997E+02  0.45594000000E+02  0.51100000000E-03 0. -1.
    9900012    2    1    2    0    0 -0.89160411493E+00  0.73130311126E+00  0.25176068598E+00  0.90007684118E+02  0.89999944748E+02 0.  0.
         12    1    1    2    0    0  0.89160411493E+00 -0.73130311126E+00 -0.25176068598E+00  0.11803158820E+01  0.00000000000E+00 0. -1.
         11    1    3    3    0    0  0.70000370582E+01 -0.96552850777E+00 -0.35453746485E+02  0.36151084412E+02  0.51100000000E-03 0. -1.
        -11    1    3    3    0    0 -0.32376518415E+01  0.63677391016E+01 -0.73790620297E+01  0.10270396653E+02  0.51100000000E-03 0.  1.
        -12    1    3    3    0    0 -0.46539893316E+01 -0.46709074825E+01  0.43084569200E+02  0.43586203053E+02  0.00000000000E+00 0.  1.
</event>
<event>
 7    1  0.2000468E-015  0.9000774E+02  0.7816164E-02  0.1186339E+00
        -11   -1    0    0    0    0  0.00000000000E+00  0.00000000000E+00  0.45593999997E+02  0.45594000000E+02  0.51100000000E-03 0.  1.
         11   -1    0    0    0    0 -0.00000000000E+00 -0.00000000000E+00 -0.45593999997E+02  0.45594000000E+02  0.51100000000E-03 0. -1.
    9900012    2    1    2    0    0  0.17640151939E+00 -0.82283446978E+00  0.82754675997E+00  0.90007742528E+02  0.90000003929E+02 0.  0.
         12    1    1    2    0    0 -0.17640151939E+00  0.82283446978E+00 -0.82754675997E+00  0.11802574722E+01  0.00000000000E+00 0. -1.
         11    1    3    3    0    0 -0.32007378070E+02  0.19772601406E+02 -0.12055840581E+02  0.39506598305E+02  0.51100000000E-03 0. -1.
        -11    1    3    3    0    0 -0.55233999962E+01 -0.57930974397E+01  0.36645989295E-01  0.80043281200E+01  0.51100000000E-03 0.  1.
        -12    1    3    3    0    0  0.37707179586E+02 -0.14802338436E+02  0.12846741351E+02  0.42496816102E+02  0.00000000000E+00 0.  1.
</event>
<event>
 7    1  0.2000468E-015  0.9000771E+02  0.7816164E-02  0.1186339E+00
        -11   -1    0    0    0    0  0.00000000000E+00  0.00000000000E+00  0.45593999997E+02  0.45594000000E+02  0.51100000000E-03 0. -1.
         11   -1    0    0    0    0 -0.00000000000E+00 -0.00000000000E+00 -0.45593999997E+02  0.45594000000E+02  0.51100000000E-03 0.  1.
    9900012    2    1    2    0    0 -0.10973637785E+01 -0.27729249655E+00 -0.33464672990E+00  0.90007709008E+02  0.89999969967E+02 0.  0.
         12    1    1    2    0    0  0.10973637785E+01  0.27729249655E+00  0.33464672990E+00  0.11802909916E+01  0.00000000000E+00 0. -1.
         11    1    3    3    0    0  0.23342023842E+01  0.19322045919E+01 -0.21069336078E+01  0.36906753913E+01  0.51100000000E-03 0. -1.
        -11    1    3    3    0    0  0.40942323811E+02  0.31237709244E+01 -0.39861596299E+01  0.41254348773E+02  0.51100000000E-03 0.  1.
         12    1    3    3    0    0 -0.44373889974E+02 -0.53332680128E+01  0.57584465078E+01  0.45062684844E+02  0.00000000000E+00 0. -1.
</event>
<event>
 7    1  0.2000468E-015  0.9000769E+02  0.7816164E-02  0.1186339E+00
        -11   -1    0    0    0    0  0.00000000000E+00  0.00000000000E+00  0.45593999997E+02  0.45594000000E+02  0.51100000000E-03 0. -1.
         11   -1    0    0    0    0 -0.00000000000E+00 -0.00000000000E+00 -0.45593999997E+02  0.45594000000E+02  0.51100000000E-03 0.  1.
    9900012    2    1    2    0    0 -0.69722303721E+00 -0.31517527641E-01 -0.95185024874E+00  0.90007689781E+02  0.89999950486E+02 0.  0.
         12    1    1    2    0    0  0.69722303721E+00  0.31517527641E-01  0.95185024874E+00  0.11803102195E+01  0.00000000000E+00 0. -1.
         11    1    3    3    0    0 -0.20931542074E+01 -0.12693004567E+02  0.25847205030E+00  0.12867030253E+02  0.51100000000E-03 0. -1.
        -11    1    3    3    0    0 -0.19070349929E+02 -0.26646993977E+02  0.80024113326E+00  0.32777750389E+02  0.51100000000E-03 0.  1.
         12    1    3    3    0    0  0.20466281099E+02  0.39308481017E+02 -0.20105634323E+01  0.44362909138E+02  0.00000000000E+00 0. -1.
</event>
<event>
 7    1  0.2220542E-015  0.9000754E+02  0.7816164E-02  0.1186339E+00
        -11   -1    0    0    0    0  0.00000000000E+00  0.00000000000E+00  0.45593999997E+02  0.45594000000E+02  0.51100000000E-03 0. -1.
         11   -1    0    0    0    0 -0.00000000000E+00 -0.00000000000E+00 -0.45593999997E+02  0.45594000000E+02  0.51100000000E-03 0.  1.
    9900012    2    1    2    0    0 -0.36677950232E+00  0.45291287479E+00 -0.10265576498E+01  0.90007543358E+02  0.89999802130E+02 0.  0.
         12    1    1    2    0    0  0.36677950232E+00 -0.45291287479E+00  0.10265576498E+01  0.11804566420E+01  0.00000000000E+00 0. -1.
         11    1    3    3    0    0  0.30283820851E+02  0.92917027812E+01  0.28088234678E+02  0.42336680001E+02  0.51100000000E-03 0. -1.
        -11    1    3    3    0    0 -0.54081033972E+01  0.62430579885E+01 -0.51161434718E+01  0.97158777106E+01  0.51100000000E-03 0.  1.
        -12    1    3    3    0    0 -0.25242496956E+02 -0.15081847895E+02 -0.23998648856E+02  0.37954985646E+02  0.00000000000E+00 0.  1.
</event>
<event>
 7    1  0.2000468E-015  0.9000758E+02  0.7816164E-02  0.1186339E+00
        -11   -1    0    0    0    0  0.00000000000E+00  0.00000000000E+00  0.45593999997E+02  0.45594000000E+02  0.51100000000E-03 0. -1.
         11   -1    0    0    0    0 -0.00000000000E+00 -0.00000000000E+00 -0.45593999997E+02  0.45594000000E+02  0.51100000000E-03 0.  1.
    9900012    2    1    2    0    0 -0.11347490712E+01  0.18133272703E+00 -0.26989743718E+00  0.90007584125E+02  0.89999843435E+02 0.  0.
         12    1    1    2    0    0  0.11347490712E+01 -0.18133272703E+00  0.26989743718E+00  0.11804158755E+01  0.00000000000E+00 0. -1.
         11    1    3    3    0    0 -0.17487916060E+02  0.31957310748E+02 -0.55196821986E+01  0.36845132788E+02  0.51100000000E-03 0. -1.
        -11    1    3    3    0    0  0.60983141644E+01  0.89310422212E+01 -0.29812660407E+00  0.10818587271E+02  0.51100000000E-03 0.  1.
        -12    1    3    3    0    0  0.10254852824E+02 -0.40707020242E+02  0.55479113655E+01  0.42343864065E+02  0.00000000000E+00 0.  1.
</event>
<event>
 7    1  0.2000468E-015  0.9000778E+02  0.7816164E-02  0.1186339E+00
        -11   -1    0    0    0    0  0.00000000000E+00  0.00000000000E+00  0.45593999997E+02  0.45594000000E+02  0.51100000000E-03 0.  1.
         11   -1    0    0    0    0 -0.00000000000E+00 -0.00000000000E+00 -0.45593999997E+02  0.45594000000E+02  0.51100000000E-03 0. -1.
    9900012    2    1    2    0    0 -0.34550814920E-01  0.58328701987E+00  0.10254282810E+01  0.90007779400E+02  0.90000041288E+02 0.  0.
         12    1    1    2    0    0  0.34550814920E-01 -0.58328701987E+00 -0.10254282810E+01  0.11802206005E+01  0.00000000000E+00 0. -1.
         11    1    3    3    0    0  0.46123670163E+01  0.36466937784E+01 -0.97712056438E+01  0.11403892537E+02  0.51100000000E-03 0. -1.
        -11    1    3    3    0    0  0.95876115507E+01  0.29142428925E+02  0.26034555808E+02  0.40236818404E+02  0.51100000000E-03 0.  1.
         12    1    3    3    0    0 -0.14234529382E+02 -0.32205835684E+02 -0.15237921883E+02  0.38367068459E+02  0.00000000000E+00 0. -1.
</event>
<event>
 7    1  0.2000468E-015  0.9000778E+02  0.7816164E-02  0.1186339E+00
        -11   -1    0    0    0    0  0.00000000000E+00  0.00000000000E+00  0.45593999997E+02  0.45594000000E+02  0.51100000000E-03 0.  1.
         11   -1    0    0    0    0 -0.00000000000E+00 -0.00000000000E+00 -0.45593999997E+02  0.45594000000E+02  0.51100000000E-03 0. -1.
    9900012    2    1    2    0    0  0.59279465382E+00 -0.70220989190E+00  0.74054658597E+00  0.90007782444E+02  0.90000044372E+02 0.  0.
         12    1    1    2    0    0 -0.59279465382E+00  0.70220989190E+00 -0.74054658597E+00  0.11802175562E+01  0.00000000000E+00 0. -1.
         11    1    3    3    0    0  0.18534827631E+02 -0.22837788301E+02 -0.27606596135E+02  0.40338921158E+02  0.51100000000E-03 0. -1.
        -11    1    3    3    0    0 -0.95870317264E+01 -0.44050060220E+01  0.90648280725E+00  0.10589474336E+02  0.51100000000E-03 0.  1.
        -12    1    3    3    0    0 -0.83550012512E+01  0.26540584431E+02  0.27440659914E+02  0.39079386949E+02  0.00000000000E+00 0.  1.
</event>
<event>
 7    1  0.2000468E-015  0.9000779E+02  0.7816164E-02  0.1186339E+00
        -11   -1    0    0    0    0  0.00000000000E+00  0.00000000000E+00  0.45593999997E+02  0.45594000000E+02  0.51100000000E-03 0.  1.
         11   -1    0    0    0    0 -0.00000000000E+00 -0.00000000000E+00 -0.45593999997E+02  0.45594000000E+02  0.51100000000E-03 0. -1.
    9900012    2    1    2    0    0 -0.10329932056E+01  0.42550780429E+00  0.38046342629E+00  0.90007794817E+02  0.90000056909E+02 0.  0.
         12    1    1    2    0    0  0.10329932056E+01 -0.42550780429E+00 -0.38046342629E+00  0.11802051826E+01  0.00000000000E+00 0. -1.
         11    1    3    3    0    0  0.52783900386E+01  0.39207004010E+02  0.12595074338E+02  0.41517303172E+02  0.51100000000E-03 0. -1.
        -11    1    3    3    0    0  0.78561793958E+00 -0.10600407339E+02  0.78171194787E+01  0.13194437787E+02  0.51100000000E-03 0.  1.
        -12    1    3    3    0    0 -0.70970011837E+01 -0.28181088867E+02 -0.20031730391E+02  0.35296053858E+02  0.00000000000E+00 0.  1.
</event>
<event>
 7    1  0.2000468E-015  0.9000760E+02  0.7816164E-02  0.1186339E+00
        -11   -1    0    0    0    0  0.00000000000E+00  0.00000000000E+00  0.45593999997E+02  0.45594000000E+02  0.51100000000E-03 0. -1.
         11   -1    0    0    0    0 -0.00000000000E+00 -0.00000000000E+00 -0.45593999997E+02  0.45594000000E+02  0.51100000000E-03 0.  1.
    9900012    2    1    2    0    0 -0.91192418810E+00 -0.79816205022E-01 -0.74522276763E+00  0.90007604590E+02  0.89999864170E+02 0.  0.
         12    1    1    2    0    0  0.91192418810E+00  0.79816205022E-01  0.74522276763E+00  0.11803954104E+01  0.00000000000E+00 0. -1.
         11    1    3    3    0    0 -0.94951108373E+01  0.27628007032E+02 -0.26234560993E+02  0.39264692704E+02  0.51100000000E-03 0. -1.
        -11    1    3    3    0    0  0.65910736672E+01  0.66601605651E+01  0.42187879935E+01  0.10276096693E+02  0.51100000000E-03 0.  1.
        -12    1    3    3    0    0  0.19921129820E+01 -0.34367983802E+02  0.21270550232E+02  0.40466815193E+02  0.00000000000E+00 0.  1.
</event>
<event>
 7    1  0.2000468E-015  0.9000776E+02  0.7816164E-02  0.1186339E+00
        -11   -1    0    0    0    0  0.00000000000E+00  0.00000000000E+00  0.45593999997E+02  0.45594000000E+02  0.51100000000E-03 0.  1.
         11   -1    0    0    0    0 -0.00000000000E+00 -0.00000000000E+00 -0.45593999997E+02  0.45594000000E+02  0.51100000000E-03 0. -1.
    9900012    2    1    2    0    0  0.46164165863E+00 -0.10841541279E+01 -0.66803478670E-01  0.90007760237E+02  0.90000021872E+02 0.  0.
         12    1    1    2    0    0 -0.46164165863E+00  0.10841541279E+01  0.66803478670E-01  0.11802397633E+01  0.00000000000E+00 0. -1.
         11    1    3    3    0    0  0.10542743296E+02  0.71146158483E+01 -0.51790536987E+01  0.13732799873E+02  0.51100000000E-03 0. -1.
        -11    1    3    3    0    0  0.24804288114E+02 -0.26746646897E+02  0.35220730828E+00  0.36479581677E+02  0.51100000000E-03 0.  1.
         12    1    3    3    0    0 -0.34885389750E+02  0.18547876921E+02  0.47600429118E+01  0.39795378687E+02  0.00000000000E+00 0. -1.
</event>
<event>
 7    1  0.2000468E-015  0.9000777E+02  0.7816164E-02  0.1186339E+00
        -11   -1    0    0    0    0  0.00000000000E+00  0.00000000000E+00  0.45593999997E+02  0.45594000000E+02  0.51100000000E-03 0. -1.
         11   -1    0    0    0    0 -0.00000000000E+00 -0.00000000000E+00 -0.45593999997E+02  0.45594000000E+02  0.51100000000E-03 0.  1.
    9900012    2    1    2    0    0  0.46072360417E+00  0.10688459905E+01 -0.19553309641E+00  0.90007774944E+02  0.90000036773E+02 0.  0.
         12    1    1    2    0    0 -0.46072360417E+00 -0.10688459905E+01  0.19553309641E+00  0.11802250559E+01  0.00000000000E+00 0. -1.
         11    1    3    3    0    0 -0.10334702687E+02 -0.22777279580E+02  0.16125495431E+01  0.25064134954E+02  0.51100000000E-03 0. -1.
        -11    1    3    3    0    0 -0.23738354641E+02  0.15727734751E+01 -0.16828692899E+01  0.23849845843E+02  0.51100000000E-03 0.  1.
         12    1    3    3    0    0  0.34533780932E+02  0.22273352095E+02 -0.12521334962E+00  0.41093794147E+02  0.00000000000E+00 0. -1.
</event>
<event>
 7    1  0.2000468E-015  0.9000779E+02  0.7816164E-02  0.1186339E+00
        -11   -1    0    0    0    0  0.00000000000E+00  0.00000000000E+00  0.45593999997E+02  0.45594000000E+02  0.51100000000E-03 0.  1.
         11   -1    0    0    0    0 -0.00000000000E+00 -0.00000000000E+00 -0.45593999997E+02  0.45594000000E+02  0.51100000000E-03 0. -1.
    9900012    2    1    2    0    0 -0.45206212603E+00  0.10641132650E+01  0.23708399638E+00  0.90007785601E+02  0.90000047571E+02 0.  0.
         12    1    1    2    0    0  0.45206212603E+00 -0.10641132650E+01 -0.23708399638E+00  0.11802143991E+01  0.00000000000E+00 0. -1.
         11    1    3    3    0    0  0.24778337654E+02  0.31725148521E+02 -0.39097995230E+01  0.40444252968E+02  0.51100000000E-03 0. -1.
        -11    1    3    3    0    0  0.58134761272E+01 -0.56186338816E+01 -0.37364358636E+01  0.89065427974E+01  0.51100000000E-03 0.  1.
        -12    1    3    3    0    0 -0.31043875907E+02 -0.25042401375E+02  0.78833193830E+01  0.40656989835E+02  0.00000000000E+00 0.  1.
</event>
<event>
 7    1  0.2000468E-015  0.9000763E+02  0.7816164E-02  0.1186339E+00
        -11   -1    0    0    0    0  0.00000000000E+00  0.00000000000E+00  0.45593999997E+02  0.45594000000E+02  0.51100000000E-03 0.  1.
         11   -1    0    0    0    0 -0.00000000000E+00 -0.00000000000E+00 -0.45593999997E+02  0.45594000000E+02  0.51100000000E-03 0. -1.
    9900012    2    1    2    0    0 -0.87631590710E+00 -0.26505671873E+00  0.74504531996E+00  0.90007628380E+02  0.89999888274E+02 0.  0.
         12    1    1    2    0    0  0.87631590710E+00  0.26505671873E+00 -0.74504531996E+00  0.11803716203E+01  0.00000000000E+00 0. -1.
         11    1    3    3    0    0  0.32804721055E+02 -0.78019720911E+01 -0.95831972208E+01  0.35055073260E+02  0.51100000000E-03 0. -1.
        -11    1    3    3    0    0  0.28954114771E+01 -0.87990259060E+01 -0.66924349813E+01  0.11427814785E+02  0.51100000000E-03 0.  1.
        -12    1    3    3    0    0 -0.36576448440E+02  0.16335941278E+02  0.17020677522E+02  0.43524740335E+02  0.00000000000E+00 0.  1.
</event>
<event>
 7    1  0.2000468E-015  0.9000776E+02  0.7816164E-02  0.1186339E+00
        -11   -1    0    0    0    0  0.00000000000E+00  0.00000000000E+00  0.45593999997E+02  0.45594000000E+02  0.51100000000E-03 0.  1.
         11   -1    0    0    0    0 -0.00000000000E+00 -0.00000000000E+00 -0.45593999997E+02  0.45594000000E+02  0.51100000000E-03 0. -1.
    9900012    2    1    2    0    0  0.10456519087E+01 -0.35871030436E+00  0.41341608118E+00  0.90007756867E+02  0.90000018458E+02 0.  0.
         12    1    1    2    0    0 -0.10456519087E+01  0.35871030436E+00 -0.41341608118E+00  0.11802431329E+01  0.00000000000E+00 0. -1.
         11    1    3    3    0    0 -0.83888552753E+00 -0.41943936939E+01  0.93466178470E+01  0.10278907181E+02  0.51100000000E-03 0. -1.
        -11    1    3    3    0    0 -0.23685526841E+02  0.92973248987E+01  0.25811649397E+02  0.36244802066E+02  0.51100000000E-03 0.  1.
         12    1    3    3    0    0  0.25570064277E+02 -0.54616415091E+01 -0.34744851163E+02  0.43484047620E+02  0.00000000000E+00 0. -1.
</event>
<event>
 7    1  0.2000468E-015  0.9000772E+02  0.7816164E-02  0.1186339E+00
        -11   -1    0    0    0    0  0.00000000000E+00  0.00000000000E+00  0.45593999997E+02  0.45594000000E+02  0.51100000000E-03 0.  1.
         11   -1    0    0    0    0 -0.00000000000E+00 -0.00000000000E+00 -0.45593999997E+02  0.45594000000E+02  0.51100000000E-03 0. -1.
    9900012    2    1    2    0    0 -0.84328384633E+00 -0.50833841367E+00  0.65079546010E+00  0.90007716001E+02  0.89999977052E+02 0.  0.
         12    1    1    2    0    0  0.84328384633E+00  0.50833841367E+00 -0.65079546010E+00  0.11802839994E+01  0.00000000000E+00 0. -1.
         11    1    3    3    0    0  0.26692098872E+02 -0.16303642527E+02 -0.22218191450E+02  0.38365673895E+02  0.51100000000E-03 0. -1.
        -11    1    3    3    0    0  0.64458608641E+01 -0.32133379682E+01  0.52037748899E+01  0.88856027676E+01  0.51100000000E-03 0.  1.
        -12    1    3    3    0    0 -0.33981243583E+02  0.19008642081E+02  0.17665212020E+02  0.42756439338E+02  0.00000000000E+00 0.  1.
</event>
<event>
 7    1  0.2000468E-015  0.9000776E+02  0.7816164E-02  0.1186339E+00
        -11   -1    0    0    0    0  0.00000000000E+00  0.00000000000E+00  0.45593999997E+02  0.45594000000E+02  0.51100000000E-03 0. -1.
         11   -1    0    0    0    0 -0.00000000000E+00 -0.00000000000E+00 -0.45593999997E+02  0.45594000000E+02  0.51100000000E-03 0.  1.
    9900012    2    1    2    0    0 -0.10191744247E+01 -0.14619477838E+00 -0.57694915439E+00  0.90007762842E+02  0.90000024512E+02 0.  0.
         12    1    1    2    0    0  0.10191744247E+01  0.14619477838E+00  0.57694915439E+00  0.11802371575E+01  0.00000000000E+00 0. -1.
         11    1    3    3    0    0  0.17392554713E+02 -0.30289073892E+02 -0.84456964316E+01  0.35934088901E+02  0.51100000000E-03 0. -1.
        -11    1    3    3    0    0  0.60115409779E+01 -0.59928834699E+01 -0.32071073124E+01  0.90740737702E+01  0.51100000000E-03 0.  1.
        -12    1    3    3    0    0 -0.24423270116E+02  0.36135762584E+02  0.11075854590E+02  0.44999600171E+02  0.00000000000E+00 0.  1.
</event>
<event>
 7    1  0.2000468E-015  0.9000779E+02  0.7816164E-02  0.1186339E+00
        -11   -1    0    0    0    0  0.00000000000E+00  0.00000000000E+00  0.45593999997E+02  0.45594000000E+02  0.51100000000E-03 0. -1.
         11   -1    0    0    0    0 -0.00000000000E+00 -0.00000000000E+00 -0.45593999997E+02  0.45594000000E+02  0.51100000000E-03 0.  1.
    9900012    2    1    2    0    0 -0.18289843442E+00 -0.22824612754E-01 -0.11657299153E+01  0.90007788563E+02  0.90000050572E+02 0.  0.
         12    1    1    2    0    0  0.18289843442E+00  0.22824612754E-01  0.11657299153E+01  0.11802114369E+01  0.00000000000E+00 0. -1.
         11    1    3    3    0    0  0.48172417953E+01  0.13605676384E+02  0.30923916986E+02  0.34126366499E+02  0.51100000000E-03 0. -1.
        -11    1    3    3    0    0 -0.16675197023E+01  0.66404321563E+01  0.81849953343E+01  0.10670993865E+02  0.51100000000E-03 0.  1.
        -12    1    3    3    0    0 -0.33326205274E+01 -0.20268933153E+02 -0.40274642236E+02  0.45210428199E+02  0.00000000000E+00 0.  1.
</event>
<event>
 7    1  0.2000468E-015  0.9000780E+02  0.7816164E-02  0.1186339E+00
        -11   -1    0    0    0    0  0.00000000000E+00  0.00000000000E+00  0.45593999997E+02  0.45594000000E+02  0.51100000000E-03 0.  1.
         11   -1    0    0    0    0 -0.00000000000E+00 -0.00000000000E+00 -0.45593999997E+02  0.45594000000E+02  0.51100000000E-03 0. -1.
    9900012    2    1    2    0    0 -0.43754078373E+00  0.10952694139E+01 -0.42497988460E-01  0.90007803785E+02  0.90000065995E+02 0.  0.
         12    1    1    2    0    0  0.43754078373E+00 -0.10952694139E+01  0.42497988460E-01  0.11801962149E+01  0.00000000000E+00 0. -1.
         11    1    3    3    0    0 -0.14405765931E+02  0.28801480769E+02  0.10406421801E+02  0.33842946112E+02  0.51100000000E-03 0. -1.
        -11    1    3    3    0    0  0.42510251821E+01  0.11479221677E+02  0.46030640324E+01  0.13077918189E+02  0.51100000000E-03 0.  1.
        -12    1    3    3    0    0  0.97171999656E+01 -0.39185433033E+02 -0.15051983822E+02  0.43086939484E+02  0.00000000000E+00 0.  1.
</event>
<event>
 7    1  0.2000468E-015  0.9000769E+02  0.7816164E-02  0.1186339E+00
        -11   -1    0    0    0    0  0.00000000000E+00  0.00000000000E+00  0.45593999997E+02  0.45594000000E+02  0.51100000000E-03 0.  1.
         11   -1    0    0    0    0 -0.00000000000E+00 -0.00000000000E+00 -0.45593999997E+02  0.45594000000E+02  0.51100000000E-03 0. -1.
    9900012    2    1    2    0    0  0.99117183653E+00  0.14368305822E+00  0.62455822677E+00  0.90007686733E+02  0.89999947397E+02 0.  0.
         12    1    1    2    0    0 -0.99117183653E+00 -0.14368305822E+00 -0.62455822677E+00  0.11803132675E+01  0.00000000000E+00 0. -1.
         11    1    3    3    0    0  0.58615566579E+01  0.68244877308E+01  0.35565333927E+01  0.96736967740E+01  0.51100000000E-03 0. -1.
        -11    1    3    3    0    0 -0.55296045255E+01  0.36308395512E+02  0.33657276268E+01  0.36880946756E+02  0.51100000000E-03 0.  1.
         12    1    3    3    0    0  0.65921970419E+00 -0.42989200185E+02 -0.62977027927E+01  0.43453043203E+02  0.00000000000E+00 0. -1.
</event>
<event>
 7    1  0.2000468E-015  0.9000777E+02  0.7816164E-02  0.1186339E+00
        -11   -1    0    0    0    0  0.00000000000E+00  0.00000000000E+00  0.45593999997E+02  0.45594000000E+02  0.51100000000E-03 0.  1.
         11   -1    0    0    0    0 -0.00000000000E+00 -0.00000000000E+00 -0.45593999997E+02  0.45594000000E+02  0.51100000000E-03 0. -1.
    9900012    2    1    2    0    0 -0.71675963406E+00  0.60651338220E+00  0.71507584592E+00  0.90007772767E+02  0.90000034568E+02 0.  0.
         12    1    1    2    0    0  0.71675963406E+00 -0.60651338220E+00 -0.71507584592E+00  0.11802272329E+01  0.00000000000E+00 0. -1.
         11    1    3    3    0    0  0.23424580497E+00 -0.91225842569E+01 -0.25760990732E+01  0.94822308197E+01  0.51100000000E-03 0. -1.
        -11    1    3    3    0    0  0.26615188421E+01 -0.13415963438E+02  0.37016689549E+02  0.39462730049E+02  0.51100000000E-03 0.  1.
         12    1    3    3    0    0 -0.36125242812E+01  0.23145061077E+02 -0.33725514630E+02  0.41062811898E+02  0.00000000000E+00 0. -1.
</event>
<event>
 7    1  0.2000468E-015  0.9000777E+02  0.7816164E-02  0.1186339E+00
        -11   -1    0    0    0    0  0.00000000000E+00  0.00000000000E+00  0.45593999997E+02  0.45594000000E+02  0.51100000000E-03 0.  1.
         11   -1    0    0    0    0 -0.00000000000E+00 -0.00000000000E+00 -0.45593999997E+02  0.45594000000E+02  0.51100000000E-03 0. -1.
    9900012    2    1    2    0    0 -0.30121373869E+00  0.38412063469E+00 -0.10745482311E+01  0.90007774480E+02  0.90000036303E+02 0.  0.
         12    1    1    2    0    0  0.30121373869E+00 -0.38412063469E+00  0.10745482311E+01  0.11802255205E+01  0.00000000000E+00 0. -1.
         11    1    3    3    0    0 -0.95396696468E+01 -0.73003671216E+00  0.24333895573E+01  0.98721646852E+01  0.51100000000E-03 0. -1.
        -11    1    3    3    0    0  0.73746190402E+01  0.39876309526E+02  0.34913854788E+01  0.40702516387E+02  0.51100000000E-03 0.  1.
         12    1    3    3    0    0  0.18638368679E+01 -0.38762152179E+02 -0.69993232672E+01  0.39433093407E+02  0.00000000000E+00 0. -1.
</event>
<event>
 7    1  0.2000468E-015  0.9000776E+02  0.7816164E-02  0.1186339E+00
        -11   -1    0    0    0    0  0.00000000000E+00  0.00000000000E+00  0.45593999997E+02  0.45594000000E+02  0.51100000000E-03 0.  1.
         11   -1    0    0    0    0 -0.00000000000E+00 -0.00000000000E+00 -0.45593999997E+02  0.45594000000E+02  0.51100000000E-03 0. -1.
    9900012    2    1    2    0    0 -0.80189520319E+00 -0.28297089461E+00  0.81844346665E+00  0.90007763519E+02  0.90000025197E+02 0.  0.
         12    1    1    2    0    0  0.80189520319E+00  0.28297089461E+00 -0.81844346665E+00  0.11802364815E+01  0.00000000000E+00 0. -1.
         11    1    3    3    0    0  0.19238750619E+02  0.32372701986E+02 -0.34406753964E+01  0.37814806713E+02  0.51100000000E-03 0. -1.
        -11    1    3    3    0    0  0.95243892074E+01 -0.36653381173E+01 -0.17436562965E+01  0.10353213551E+02  0.51100000000E-03 0.  1.
        -12    1    3    3    0    0 -0.29565035030E+02 -0.28990334763E+02  0.60027751596E+01  0.41839743255E+02  0.00000000000E+00 0.  1.
</event>
<event>
 7    1  0.2000468E-015  0.9000785E+02  0.7816164E-02  0.1186339E+00
        -11   -1    0    0    0    0  0.00000000000E+00  0.00000000000E+00  0.45593999997E+02  0.45594000000E+02  0.51100000000E-03 0. -1.
         11   -1    0    0    0    0 -0.00000000000E+00 -0.00000000000E+00 -0.45593999997E+02  0.45594000000E+02  0.51100000000E-03 0.  1.
    9900012    2    1    2    0    0 -0.35903160761E-01 -0.11472067640E+01  0.27454530270E+00  0.90007852755E+02  0.90000115611E+02 0.  0.
         12    1    1    2    0    0  0.35903160761E-01  0.11472067640E+01 -0.27454530270E+00  0.11801472449E+01  0.00000000000E+00 0. -1.
         11    1    3    3    0    0 -0.39422002368E+01  0.80453301328E+01  0.25512945154E+01  0.93154379188E+01  0.51100000000E-03 0. -1.
        -11    1    3    3    0    0  0.34437971466E+02  0.71268751794E+01  0.19085262939E+02  0.40012666622E+02  0.51100000000E-03 0.  1.
         12    1    3    3    0    0 -0.30531674390E+02 -0.16319412076E+02 -0.21362012152E+02  0.40679748214E+02  0.00000000000E+00 0. -1.
</event>
<event>
 7    1  0.2000468E-015  0.9000776E+02  0.7816164E-02  0.1186339E+00
        -11   -1    0    0    0    0  0.00000000000E+00  0.00000000000E+00  0.45593999997E+02  0.45594000000E+02  0.51100000000E-03 0. -1.
         11   -1    0    0    0    0 -0.00000000000E+00 -0.00000000000E+00 -0.45593999997E+02  0.45594000000E+02  0.51100000000E-03 0.  1.
    9900012    2    1    2    0    0  0.10362842961E+01 -0.21100266774E+00  0.52397605396E+00  0.90007763510E+02  0.90000025188E+02 0.  0.
         12    1    1    2    0    0 -0.10362842961E+01  0.21100266774E+00 -0.52397605396E+00  0.11802364904E+01  0.00000000000E+00 0. -1.
         11    1    3    3    0    0 -0.89111872298E+01  0.25896937334E+02  0.26906604740E+02  0.38393046246E+02  0.51100000000E-03 0. -1.
        -11    1    3    3    0    0 -0.84710253255E+01 -0.84944299867E+01  0.33493656724E+01  0.12455194159E+02  0.51100000000E-03 0.  1.
        -12    1    3    3    0    0  0.18418496851E+02 -0.17613510015E+02 -0.29731994358E+02  0.39159523105E+02  0.00000000000E+00 0.  1.
</event>
<event>
 7    1  0.2000468E-015  0.9000782E+02  0.7816164E-02  0.1186339E+00
        -11   -1    0    0    0    0  0.00000000000E+00  0.00000000000E+00  0.45593999997E+02  0.45594000000E+02  0.51100000000E-03 0. -1.
         11   -1    0    0    0    0 -0.00000000000E+00 -0.00000000000E+00 -0.45593999997E+02  0.45594000000E+02  0.51100000000E-03 0.  1.
    9900012    2    1    2    0    0  0.10298854108E+01  0.46599220816E+00 -0.33914798384E+00  0.90007816094E+02  0.90000078466E+02 0.  0.
         12    1    1    2    0    0 -0.10298854108E+01 -0.46599220816E+00  0.33914798384E+00  0.11801839061E+01  0.00000000000E+00 0. -1.
         11    1    3    3    0    0  0.70425641932E+01  0.26653201839E+00  0.21806657527E+01  0.73772659650E+01  0.51100000000E-03 0. -1.
        -11    1    3    3    0    0 -0.83963733928E+01  0.23353544737E+02 -0.34855940774E+02  0.42788126220E+02  0.51100000000E-03 0.  1.
         12    1    3    3    0    0  0.23836946104E+01 -0.23154084547E+02  0.32336127037E+02  0.39842423909E+02  0.00000000000E+00 0. -1.
</event>
<event>
 7    1  0.2000468E-015  0.9000768E+02  0.7816164E-02  0.1186339E+00
        -11   -1    0    0    0    0  0.00000000000E+00  0.00000000000E+00  0.45593999997E+02  0.45594000000E+02  0.51100000000E-03 0. -1.
         11   -1    0    0    0    0 -0.00000000000E+00 -0.00000000000E+00 -0.45593999997E+02  0.45594000000E+02  0.51100000000E-03 0.  1.
    9900012    2    1    2    0    0  0.71141558892E+00  0.18947193496E+00 -0.92257121438E+00  0.90007682500E+02  0.89999943109E+02 0.  0.
         12    1    1    2    0    0 -0.71141558892E+00 -0.18947193496E+00  0.92257121438E+00  0.11803174996E+01  0.00000000000E+00 0. -1.
         11    1    3    3    0    0 -0.18797440182E+02 -0.10661874350E+02 -0.27134039771E+02  0.34688260789E+02  0.51100000000E-03 0.  1.
        -11    1    3    3    0    0 -0.58451227932E+01 -0.11991062796E+02  0.13286163376E+02  0.18827458271E+02  0.51100000000E-03 0. -1.
        -12    1    3    3    0    0  0.25353978564E+02  0.22842409081E+02  0.12925305181E+02  0.36491963440E+02  0.00000000000E+00 0.  1.
</event>
<event>
 7    1  0.2000468E-015  0.9000774E+02  0.7816164E-02  0.1186339E+00
        -11   -1    0    0    0    0  0.00000000000E+00  0.00000000000E+00  0.45593999997E+02  0.45594000000E+02  0.51100000000E-03 0.  1.
         11   -1    0    0    0    0 -0.00000000000E+00 -0.00000000000E+00 -0.45593999997E+02  0.45594000000E+02  0.51100000000E-03 0. -1.
    9900012    2    1    2    0    0  0.27481885236E+00  0.79092643895E+00  0.83181945452E+00  0.90007740012E+02  0.90000001381E+02 0.  0.
         12    1    1    2    0    0 -0.27481885236E+00 -0.79092643895E+00 -0.83181945452E+00  0.11802599876E+01  0.00000000000E+00 0. -1.
         11    1    3    3    0    0 -0.46650281517E+01  0.58770026635E+01 -0.59914202584E+01  0.96020187949E+01  0.51100000000E-03 0. -1.
        -11    1    3    3    0    0  0.33271181775E+02  0.11386638314E+02  0.24796089121E+02  0.43028747423E+02  0.51100000000E-03 0.  1.
         12    1    3    3    0    0 -0.28331334771E+02 -0.16472714539E+02 -0.17972849408E+02  0.37376973795E+02  0.00000000000E+00 0. -1.
</event>
<event>
 7    1  0.2000468E-015  0.9000806E+02  0.7816164E-02  0.1186338E+00
        -11   -1    0    0    0    0  0.00000000000E+00  0.00000000000E+00  0.45593999997E+02  0.45594000000E+02  0.51100000000E-03 0. -1.
         11   -1    0    0    0    0 -0.00000000000E+00 -0.00000000000E+00 -0.45593999997E+02  0.45594000000E+02  0.51100000000E-03 0.  1.
    9900012    2    1    2    0    0 -0.83223108905E+00  0.38837094102E+00 -0.74082486673E+00  0.90008058452E+02  0.90000324023E+02 0.  0.
         12    1    1    2    0    0  0.83223108905E+00 -0.38837094102E+00  0.74082486673E+00  0.11799415479E+01  0.00000000000E+00 0. -1.
         11    1    3    3    0    0 -0.36424443123E+02 -0.20971292655E+02  0.23380040921E+01  0.42095147415E+02  0.51100000000E-03 0. -1.
        -11    1    3    3    0    0  0.47788452049E+01  0.43191731356E+00 -0.89978153979E+01  0.10197283768E+02  0.51100000000E-03 0.  1.
        -12    1    3    3    0    0  0.30813366829E+02  0.20927746282E+02  0.59189864391E+01  0.37715627269E+02  0.00000000000E+00 0.  1.
</event>
<event>
 7    1  0.2245904E-015  0.9000775E+02  0.7816164E-02  0.1186339E+00
        -11   -1    0    0    0    0  0.00000000000E+00  0.00000000000E+00  0.45593999997E+02  0.45594000000E+02  0.51100000000E-03 0.  1.
         11   -1    0    0    0    0 -0.00000000000E+00 -0.00000000000E+00 -0.45593999997E+02  0.45594000000E+02  0.51100000000E-03 0. -1.
    9900012    2    1    2    0    0  0.11077202826E+01 -0.23811663995E+00  0.33052970367E+00  0.90007748483E+02  0.90000009963E+02 0.  0.
         12    1    1    2    0    0 -0.11077202826E+01  0.23811663995E+00 -0.33052970367E+00  0.11802515171E+01  0.00000000000E+00 0. -1.
         11    1    3    3    0    0 -0.11681696732E+02 -0.34613092897E+02 -0.15977019148E+02  0.39872213125E+02  0.51100000000E-03 0. -1.
        -11    1    3    3    0    0  0.66028220153E+01  0.14933132081E+01 -0.67041322982E+01  0.95274672939E+01  0.51100000000E-03 0.  1.
        -12    1    3    3    0    0  0.61865949990E+01  0.32881663049E+02  0.23011681149E+02  0.40608068064E+02  0.00000000000E+00 0.  1.
</event>
<event>
 7    1  0.2000468E-015  0.9000780E+02  0.7816164E-02  0.1186339E+00
        -11   -1    0    0    0    0  0.00000000000E+00  0.00000000000E+00  0.45593999997E+02  0.45594000000E+02  0.51100000000E-03 0.  1.
         11   -1    0    0    0    0 -0.00000000000E+00 -0.00000000000E+00 -0.45593999997E+02  0.45594000000E+02  0.51100000000E-03 0. -1.
    9900012    2    1    2    0    0  0.76709847588E+00 -0.70475087394E+00  0.55475941864E+00  0.90007800068E+02  0.90000062229E+02 0.  0.
         12    1    1    2    0    0 -0.76709847588E+00  0.70475087394E+00 -0.55475941864E+00  0.11801999316E+01  0.00000000000E+00 0. -1.
         11    1    3    3    0    0 -0.37442604554E+02  0.12155266764E+02 -0.34238525966E+01  0.39514831554E+02  0.51100000000E-03 0. -1.
        -11    1    3    3    0    0  0.38428883638E+01  0.65974867110E+01 -0.60561595596E+01  0.97453420028E+01  0.51100000000E-03 0.  1.
        -12    1    3    3    0    0  0.34366814666E+02 -0.19457504348E+02  0.10034771575E+02  0.40747626512E+02  0.00000000000E+00 0.  1.
</event>
<event>
 7    1  0.2000468E-015  0.9000776E+02  0.7816164E-02  0.1186339E+00
        -11   -1    0    0    0    0  0.00000000000E+00  0.00000000000E+00  0.45593999997E+02  0.45594000000E+02  0.51100000000E-03 0.  1.
         11   -1    0    0    0    0 -0.00000000000E+00 -0.00000000000E+00 -0.45593999997E+02  0.45594000000E+02  0.51100000000E-03 0. -1.
    9900012    2    1    2    0    0  0.87875321750E+00 -0.23092789746E+00  0.75328358327E+00  0.90007758047E+02  0.90000019653E+02 0.  0.
         12    1    1    2    0    0 -0.87875321750E+00  0.23092789746E+00 -0.75328358327E+00  0.11802419531E+01  0.00000000000E+00 0. -1.
         11    1    3    3    0    0 -0.32189711555E+02 -0.15360687678E+02 -0.65443719982E+01  0.36262336674E+02  0.51100000000E-03 0. -1.
        -11    1    3    3    0    0 -0.87759507201E+01  0.11596459909E+01 -0.81923476497E+00  0.88900638765E+01  0.51100000000E-03 0.  1.
        -12    1    3    3    0    0  0.41844415493E+02  0.13970113789E+02  0.81168903464E+01  0.44855357496E+02  0.00000000000E+00 0.  1.
</event>
<event>
 7    1  0.2000468E-015  0.9000776E+02  0.7816164E-02  0.1186339E+00
        -11   -1    0    0    0    0  0.00000000000E+00  0.00000000000E+00  0.45593999997E+02  0.45594000000E+02  0.51100000000E-03 0. -1.
         11   -1    0    0    0    0 -0.00000000000E+00 -0.00000000000E+00 -0.45593999997E+02  0.45594000000E+02  0.51100000000E-03 0.  1.
    9900012    2    1    2    0    0 -0.85378125952E+00  0.80601891072E+00 -0.11979627484E+00  0.90007762706E+02  0.90000024373E+02 0.  0.
         12    1    1    2    0    0  0.85378125952E+00 -0.80601891072E+00  0.11979627484E+00  0.11802372944E+01  0.00000000000E+00 0. -1.
         11    1    3    3    0    0 -0.80037965317E+01 -0.36650202615E+01  0.18802129293E+01  0.90015739379E+01  0.51100000000E-03 0. -1.
        -11    1    3    3    0    0 -0.25839156430E+02  0.29420695493E+02  0.33523956664E+01  0.39299845868E+02  0.51100000000E-03 0.  1.
         12    1    3    3    0    0  0.32989171702E+02 -0.24949656321E+02 -0.53524048705E+01  0.41706342899E+02  0.00000000000E+00 0. -1.
</event>
<event>
 7    1  0.2000468E-015  0.9000770E+02  0.7816164E-02  0.1186339E+00
        -11   -1    0    0    0    0  0.00000000000E+00  0.00000000000E+00  0.45593999997E+02  0.45594000000E+02  0.51100000000E-03 0.  1.
         11   -1    0    0    0    0 -0.00000000000E+00 -0.00000000000E+00 -0.45593999997E+02  0.45594000000E+02  0.51100000000E-03 0. -1.
    9900012    2    1    2    0    0  0.11069439267E+00 -0.43824106724E+00  0.10903233259E+01  0.90007697735E+02  0.89999958545E+02 0.  0.
         12    1    1    2    0    0 -0.11069439267E+00  0.43824106724E+00 -0.10903233259E+01  0.11803022649E+01  0.00000000000E+00 0. -1.
         11    1    3    3    0    0 -0.70820869125E+01 -0.11710692802E+01  0.60580626516E+01  0.93929485066E+01  0.51100000000E-03 0. -1.
        -11    1    3    3    0    0  0.40737579736E+02 -0.40357598246E+01  0.12084773806E+02  0.42683480626E+02  0.51100000000E-03 0.  1.
         12    1    3    3    0    0 -0.33544798431E+02  0.47685880375E+01 -0.17052513132E+02  0.37931268602E+02  0.00000000000E+00 0. -1.
</event>
<event>
 7    1  0.2000468E-015  0.9000762E+02  0.7816164E-02  0.1186339E+00
        -11   -1    0    0    0    0  0.00000000000E+00  0.00000000000E+00  0.45593999997E+02  0.45594000000E+02  0.51100000000E-03 0.  1.
         11   -1    0    0    0    0 -0.00000000000E+00 -0.00000000000E+00 -0.45593999997E+02  0.45594000000E+02  0.51100000000E-03 0. -1.
    9900012    2    1    2    0    0 -0.18053643784E-01 -0.11500999085E+01  0.26504551424E+00  0.90007616648E+02  0.89999876387E+02 0.  0.
         12    1    1    2    0    0  0.18053643784E-01  0.11500999085E+01 -0.26504551424E+00  0.11803833522E+01  0.00000000000E+00 0. -1.
         11    1    3    3    0    0 -0.18936852859E+02  0.10846588756E+02  0.10238036354E+02  0.24105399240E+02  0.51100000000E-03 0. -1.
        -11    1    3    3    0    0 -0.86880356263E+01  0.11656071452E+01  0.20765877365E+02  0.22540236601E+02  0.51100000000E-03 0.  1.
         12    1    3    3    0    0  0.27606834842E+02 -0.13162295809E+02 -0.30738868205E+02  0.43361980807E+02  0.00000000000E+00 0. -1.
</event>
<event>
 7    1  0.2000468E-015  0.9000763E+02  0.7816164E-02  0.1186339E+00
        -11   -1    0    0    0    0  0.00000000000E+00  0.00000000000E+00  0.45593999997E+02  0.45594000000E+02  0.51100000000E-03 0.  1.
         11   -1    0    0    0    0 -0.00000000000E+00 -0.00000000000E+00 -0.45593999997E+02  0.45594000000E+02  0.51100000000E-03 0. -1.
    9900012    2    1    2    0    0  0.92969007242E+00 -0.72696180508E+00 -0.21557949039E-01  0.90007634869E+02  0.89999894849E+02 0.  0.
         12    1    1    2    0    0 -0.92969007242E+00  0.72696180508E+00  0.21557949039E-01  0.11803651308E+01  0.00000000000E+00 0. -1.
         11    1    3    3    0    0  0.85170280551E+01  0.20361239990E+01 -0.60877602651E+01  0.10665195410E+02  0.51100000000E-03 0. -1.
        -11    1    3    3    0    0  0.94102141795E+01 -0.14132424443E+01  0.40133538670E+02  0.41246215724E+02  0.51100000000E-03 0.  1.
         12    1    3    3    0    0 -0.16997552162E+02 -0.13498433597E+01 -0.34067336354E+02  0.38096223735E+02  0.00000000000E+00 0. -1.
</event>
<event>
 7    1  0.2000468E-015  0.9000777E+02  0.7816164E-02  0.1186339E+00
        -11   -1    0    0    0    0  0.00000000000E+00  0.00000000000E+00  0.45593999997E+02  0.45594000000E+02  0.51100000000E-03 0.  1.
         11   -1    0    0    0    0 -0.00000000000E+00 -0.00000000000E+00 -0.45593999997E+02  0.45594000000E+02  0.51100000000E-03 0. -1.
    9900012    2    1    2    0    0  0.37452341660E+00 -0.10605957738E+01  0.35750149977E+00  0.90007771841E+02  0.90000033629E+02 0.  0.
         12    1    1    2    0    0 -0.37452341660E+00  0.10605957738E+01 -0.35750149977E+00  0.11802281590E+01  0.00000000000E+00 0. -1.
         11    1    3    3    0    0 -0.29743405220E+01  0.38617462635E+01 -0.84715723197E+01  0.97738080385E+01  0.51100000000E-03 0. -1.
        -11    1    3    3    0    0 -0.21419555754E+02  0.20761599687E+02  0.26962313644E+02  0.40209547965E+02  0.51100000000E-03 0.  1.
         12    1    3    3    0    0  0.24768419693E+02 -0.25683941724E+02 -0.18133239824E+02  0.40024415837E+02  0.00000000000E+00 0. -1.
</event>
<event>
 7    1  0.2000468E-015  0.9000755E+02  0.7816164E-02  0.1186339E+00
        -11   -1    0    0    0    0  0.00000000000E+00  0.00000000000E+00  0.45593999997E+02  0.45594000000E+02  0.51100000000E-03 0.  1.
         11   -1    0    0    0    0 -0.00000000000E+00 -0.00000000000E+00 -0.45593999997E+02  0.45594000000E+02  0.51100000000E-03 0. -1.
    9900012    2    1    2    0    0 -0.82211453895E+00  0.50352901735E+00  0.68121407608E+00  0.90007548220E+02  0.89999807057E+02 0.  0.
         12    1    1    2    0    0  0.82211453895E+00 -0.50352901735E+00 -0.68121407608E+00  0.11804517796E+01  0.00000000000E+00 0. -1.
         11    1    3    3    0    0 -0.27060134805E+02  0.45457918388E+01 -0.26252854471E+02  0.37975353682E+02  0.51100000000E-03 0. -1.
        -11    1    3    3    0    0 -0.39567716975E+01  0.56742512582E+01 -0.37767415646E+01  0.78814304992E+01  0.51100000000E-03 0.  1.
        -12    1    3    3    0    0  0.30194791963E+02 -0.97165140797E+01  0.30710810112E+02  0.44150764040E+02  0.00000000000E+00 0.  1.
</event>
<event>
 7    1  0.2000468E-015  0.9000775E+02  0.7816164E-02  0.1186339E+00
        -11   -1    0    0    0    0  0.00000000000E+00  0.00000000000E+00  0.45593999997E+02  0.45594000000E+02  0.51100000000E-03 0.  1.
         11   -1    0    0    0    0 -0.00000000000E+00 -0.00000000000E+00 -0.45593999997E+02  0.45594000000E+02  0.51100000000E-03 0. -1.
    9900012    2    1    2    0    0  0.36675126554E+00  0.80403725382E+00  0.78230588236E+00  0.90007752191E+02  0.90000013720E+02 0.  0.
         12    1    1    2    0    0 -0.36675126554E+00 -0.80403725382E+00 -0.78230588236E+00  0.11802478087E+01  0.00000000000E+00 0. -1.
         11    1    3    3    0    0  0.20012049965E+02  0.28227685088E+02 -0.11456273050E+02  0.36449012904E+02  0.51100000000E-03 0. -1.
        -11    1    3    3    0    0  0.37351926004E+01  0.68078358605E+01 -0.43594447704E+01  0.89052260967E+01  0.51100000000E-03 0.  1.
        -12    1    3    3    0    0 -0.23380491300E+02 -0.34231483695E+02  0.16598023703E+02  0.44653513190E+02  0.00000000000E+00 0.  1.
</event>
<event>
 7    1  0.2000468E-015  0.9000762E+02  0.7816164E-02  0.1186339E+00
        -11   -1    0    0    0    0  0.00000000000E+00  0.00000000000E+00  0.45593999997E+02  0.45594000000E+02  0.51100000000E-03 0. -1.
         11   -1    0    0    0    0 -0.00000000000E+00 -0.00000000000E+00 -0.45593999997E+02  0.45594000000E+02  0.51100000000E-03 0.  1.
    9900012    2    1    2    0    0 -0.11342295235E+01  0.23722299320E+00 -0.22483153088E+00  0.90007618461E+02  0.89999878225E+02 0.  0.
         12    1    1    2    0    0  0.11342295235E+01 -0.23722299320E+00  0.22483153088E+00  0.11803815390E+01  0.00000000000E+00 0. -1.
         11    1    3    3    0    0  0.73389725030E+01 -0.75202781958E+01 -0.11348035760E+02  0.15465866203E+02  0.51100000000E-03 0. -1.
        -11    1    3    3    0    0 -0.99228098123E+01 -0.25192413091E+02 -0.16338549584E+02  0.31623852306E+02  0.51100000000E-03 0.  1.
         12    1    3    3    0    0  0.14496077858E+01  0.32949914280E+02  0.27461753812E+02  0.42917899952E+02  0.00000000000E+00 0. -1.
</event>
<event>
 7    1  0.2000468E-015  0.9000789E+02  0.7816164E-02  0.1186339E+00
        -11   -1    0    0    0    0  0.00000000000E+00  0.00000000000E+00  0.45593999997E+02  0.45594000000E+02  0.51100000000E-03 0. -1.
         11   -1    0    0    0    0 -0.00000000000E+00 -0.00000000000E+00 -0.45593999997E+02  0.45594000000E+02  0.51100000000E-03 0.  1.
    9900012    2    1    2    0    0  0.56188072736E-01  0.56911794289E+00 -0.10322807504E+01  0.90007891581E+02  0.90000154950E+02 0.  0.
         12    1    1    2    0    0 -0.56188072736E-01 -0.56911794289E+00  0.10322807504E+01  0.11801084188E+01  0.00000000000E+00 0. -1.
         11    1    3    3    0    0 -0.13502054093E+02 -0.13317170292E+02  0.14098697535E+02  0.23631033870E+02  0.51100000000E-03 0. -1.
        -11    1    3    3    0    0  0.14333444837E+02  0.29550488852E+00  0.22320503823E+02  0.26528095582E+02  0.51100000000E-03 0.  1.
        -12    1    3    3    0    0 -0.77520267069E+00  0.13590783346E+02 -0.37451482108E+02  0.39848762130E+02  0.00000000000E+00 0.  1.
</event>
<event>
 7    1  0.2000468E-015  0.9000770E+02  0.7816164E-02  0.1186339E+00
        -11   -1    0    0    0    0  0.00000000000E+00  0.00000000000E+00  0.45593999997E+02  0.45594000000E+02  0.51100000000E-03 0. -1.
         11   -1    0    0    0    0 -0.00000000000E+00 -0.00000000000E+00 -0.45593999997E+02  0.45594000000E+02  0.51100000000E-03 0.  1.
    9900012    2    1    2    0    0 -0.37006668599E+00  0.10928706526E+01 -0.24858089339E+00  0.90007700006E+02  0.89999960846E+02 0.  0.
         12    1    1    2    0    0  0.37006668599E+00 -0.10928706526E+01  0.24858089339E+00  0.11802999940E+01  0.00000000000E+00 0. -1.
         11    1    3    3    0    0  0.26098155730E+02  0.10888447476E+02  0.27195720634E+02  0.39233649359E+02  0.51100000000E-03 0. -1.
        -11    1    3    3    0    0  0.24521259006E+01  0.51006645748E+01  0.28366621143E+01  0.63305886574E+01  0.51100000000E-03 0.  1.
        -12    1    3    3    0    0 -0.28920348317E+02 -0.14896241398E+02 -0.30280963642E+02  0.44443461990E+02  0.00000000000E+00 0.  1.
</event>
<event>
 7    1  0.2000468E-015  0.9000769E+02  0.7816164E-02  0.1186339E+00
        -11   -1    0    0    0    0  0.00000000000E+00  0.00000000000E+00  0.45593999997E+02  0.45594000000E+02  0.51100000000E-03 0.  1.
         11   -1    0    0    0    0 -0.00000000000E+00 -0.00000000000E+00 -0.45593999997E+02  0.45594000000E+02  0.51100000000E-03 0. -1.
    9900012    2    1    2    0    0 -0.10932679274E+01  0.24456429253E+00  0.37158281028E+00  0.90007694853E+02  0.89999955625E+02 0.  0.
         12    1    1    2    0    0  0.10932679274E+01 -0.24456429253E+00 -0.37158281028E+00  0.11803051466E+01  0.00000000000E+00 0. -1.
         11    1    3    3    0    0  0.31999335439E+01 -0.81408891591E+01 -0.90696365485E+01  0.12600474530E+02  0.51100000000E-03 0. -1.
        -11    1    3    3    0    0  0.13847867988E+02  0.36498033659E+02 -0.77387998519E+01  0.39796468841E+02  0.51100000000E-03 0.  1.
         12    1    3    3    0    0 -0.18141069459E+02 -0.28112580207E+02  0.17180019211E+02  0.37610751483E+02  0.00000000000E+00 0. -1.
</event>
<event>
 7    1  0.2000468E-015  0.9000869E+02  0.7816164E-02  0.1186337E+00
        -11   -1    0    0    0    0  0.00000000000E+00  0.00000000000E+00  0.45593999997E+02  0.45594000000E+02  0.51100000000E-03 0. -1.
         11   -1    0    0    0    0 -0.00000000000E+00 -0.00000000000E+00 -0.45593999997E+02  0.45594000000E+02  0.51100000000E-03 0.  1.
    9900012    2    1    2    0    0 -0.13523457760E+00  0.10747601180E+01  0.46622771462E+00  0.90008692583E+02  0.90000966520E+02 0.  0.
         12    1    1    2    0    0  0.13523457760E+00 -0.10747601180E+01 -0.46622771462E+00  0.11793074171E+01  0.00000000000E+00 0. -1.
         11    1    3    3    0    0 -0.13538043030E+02  0.29949865321E+02 -0.21860716549E+02  0.39473585726E+02  0.51100000000E-03 0. -1.
        -11    1    3    3    0    0 -0.56694693385E+01  0.81731553103E-01 -0.40510197402E+01  0.69685237908E+01  0.51100000000E-03 0.  1.
        -12    1    3    3    0    0  0.19072277791E+02 -0.28956836756E+02  0.26377964004E+02  0.43566583066E+02  0.00000000000E+00 0.  1.
</event>
<event>
 7    1  0.2000468E-015  0.9000770E+02  0.7816164E-02  0.1186339E+00
        -11   -1    0    0    0    0  0.00000000000E+00  0.00000000000E+00  0.45593999997E+02  0.45594000000E+02  0.51100000000E-03 0. -1.
         11   -1    0    0    0    0 -0.00000000000E+00 -0.00000000000E+00 -0.45593999997E+02  0.45594000000E+02  0.51100000000E-03 0.  1.
    9900012    2    1    2    0    0  0.61404079646E+00  0.80041344163E+00  0.61269342848E+00  0.90007702997E+02  0.89999963877E+02 0.  0.
         12    1    1    2    0    0 -0.61404079646E+00 -0.80041344163E+00 -0.61269342848E+00  0.11802970027E+01  0.00000000000E+00 0. -1.
         11    1    3    3    0    0 -0.23118748428E+01  0.86668577024E+01  0.31994485380E+01  0.95234268481E+01  0.51100000000E-03 0. -1.
        -11    1    3    3    0    0 -0.78648800392E-01  0.67330267089E+01 -0.39816363352E+02  0.40381711518E+02  0.51100000000E-03 0.  1.
         12    1    3    3    0    0  0.30045644397E+01 -0.14599470970E+02  0.37229608243E+02  0.40102564631E+02  0.00000000000E+00 0. -1.
</event>
<event>
 7    1  0.2000468E-015  0.9000779E+02  0.7816164E-02  0.1186339E+00
        -11   -1    0    0    0    0  0.00000000000E+00  0.00000000000E+00  0.45593999997E+02  0.45594000000E+02  0.51100000000E-03 0. -1.
         11   -1    0    0    0    0 -0.00000000000E+00 -0.00000000000E+00 -0.45593999997E+02  0.45594000000E+02  0.51100000000E-03 0.  1.
    9900012    2    1    2    0    0 -0.37638952223E+00  0.14781629758E+00 -0.11087702744E+01  0.90007792285E+02  0.90000054343E+02 0.  0.
         12    1    1    2    0    0  0.37638952223E+00 -0.14781629758E+00  0.11087702744E+01  0.11802077154E+01  0.00000000000E+00 0. -1.
         11    1    3    3    0    0  0.45062707112E+01 -0.17753399900E+01 -0.77371444547E+01  0.91280727635E+01  0.51100000000E-03 0. -1.
        -11    1    3    3    0    0  0.22766163360E+01 -0.15148061521E+02 -0.33418134618E+02  0.36761644025E+02  0.51100000000E-03 0.  1.
         12    1    3    3    0    0 -0.71592765695E+01  0.17071217809E+02  0.40046508799E+02  0.44118075496E+02  0.00000000000E+00 0. -1.
</event>
<event>
 7    1  0.2000468E-015  0.9000779E+02  0.7816164E-02  0.1186339E+00
        -11   -1    0    0    0    0  0.00000000000E+00  0.00000000000E+00  0.45593999997E+02  0.45594000000E+02  0.51100000000E-03 0.  1.
         11   -1    0    0    0    0 -0.00000000000E+00 -0.00000000000E+00 -0.45593999997E+02  0.45594000000E+02  0.51100000000E-03 0. -1.
    9900012    2    1    2    0    0  0.10335503314E+01  0.56721632539E+00  0.54150182927E-01  0.90007791167E+02  0.90000053210E+02 0.  0.
         12    1    1    2    0    0 -0.10335503314E+01 -0.56721632539E+00 -0.54150182927E-01  0.11802088331E+01  0.00000000000E+00 0. -1.
         11    1    3    3    0    0 -0.33159625247E+02  0.15297523192E+02 -0.30296568056E+01  0.36643604940E+02  0.51100000000E-03 0. -1.
        -11    1    3    3    0    0 -0.10841308412E+01  0.20799610383E+01 -0.11437520824E+02  0.11675549685E+02  0.51100000000E-03 0.  1.
        -12    1    3    3    0    0  0.35277306420E+02 -0.16810267905E+02  0.14521327812E+02  0.41688636542E+02  0.00000000000E+00 0.  1.
</event>
<event>
 7    1  0.2000468E-015  0.9000848E+02  0.7816164E-02  0.1186338E+00
        -11   -1    0    0    0    0  0.00000000000E+00  0.00000000000E+00  0.45593999997E+02  0.45594000000E+02  0.51100000000E-03 0.  1.
         11   -1    0    0    0    0 -0.00000000000E+00 -0.00000000000E+00 -0.45593999997E+02  0.45594000000E+02  0.51100000000E-03 0. -1.
    9900012    2    1    2    0    0 -0.35047716673E+00  0.89828225143E+00  0.67936039330E+00  0.90008476456E+02  0.90000747542E+02 0.  0.
         12    1    1    2    0    0  0.35047716673E+00 -0.89828225143E+00 -0.67936039330E+00  0.11795235443E+01  0.00000000000E+00 0. -1.
         11    1    3    3    0    0  0.88558034395E+01 -0.17455683917E+01  0.12113645357E+01  0.91071218213E+01  0.51100000000E-03 0. -1.
        -11    1    3    3    0    0  0.69970302524E+00  0.41135754634E+02 -0.96036005122E+00  0.41152912233E+02  0.51100000000E-03 0.  1.
         12    1    3    3    0    0 -0.99059836314E+01 -0.38491903990E+02  0.42835590885E+00  0.39748442401E+02  0.00000000000E+00 0. -1.
</event>
<event>
 7    1  0.2000468E-015  0.9000774E+02  0.7816164E-02  0.1186339E+00
        -11   -1    0    0    0    0  0.00000000000E+00  0.00000000000E+00  0.45593999997E+02  0.45594000000E+02  0.51100000000E-03 0. -1.
         11   -1    0    0    0    0 -0.00000000000E+00 -0.00000000000E+00 -0.45593999997E+02  0.45594000000E+02  0.51100000000E-03 0.  1.
    9900012    2    1    2    0    0 -0.46302842138E+00 -0.10627695359E+01 -0.22169128733E+00  0.90007736711E+02  0.89999998035E+02 0.  0.
         12    1    1    2    0    0  0.46302842138E+00  0.10627695359E+01  0.22169128733E+00  0.11802632894E+01  0.00000000000E+00 0. -1.
         11    1    3    3    0    0 -0.77302249230E+01  0.30486563329E+01  0.53663099544E+01  0.98918130585E+01  0.51100000000E-03 0. -1.
        -11    1    3    3    0    0 -0.42377842329E+01 -0.40963778073E+02 -0.58439030325E+00  0.41186544423E+02  0.51100000000E-03 0.  1.
         12    1    3    3    0    0  0.11504980735E+02  0.36852352205E+02 -0.50036109385E+01  0.38929379229E+02  0.00000000000E+00 0. -1.
</event>
<event>
 7    1  0.2000468E-015  0.9000777E+02  0.7816164E-02  0.1186339E+00
        -11   -1    0    0    0    0  0.00000000000E+00  0.00000000000E+00  0.45593999997E+02  0.45594000000E+02  0.51100000000E-03 0. -1.
         11   -1    0    0    0    0 -0.00000000000E+00 -0.00000000000E+00 -0.45593999997E+02  0.45594000000E+02  0.51100000000E-03 0.  1.
    9900012    2    1    2    0    0 -0.68108347594E+00  0.35092563460E+00 -0.89772745890E+00  0.90007772017E+02  0.90000033807E+02 0.  0.
         12    1    1    2    0    0  0.68108347594E+00 -0.35092563460E+00  0.89772745890E+00  0.11802279833E+01  0.00000000000E+00 0. -1.
         11    1    3    3    0    0  0.13634800513E+02 -0.95755544948E+01  0.32785412966E+02  0.36776110895E+02  0.51100000000E-03 0. -1.
        -11    1    3    3    0    0  0.48882071869E+01 -0.40999252821E+01  0.48065697478E+01  0.79879327628E+01  0.51100000000E-03 0.  1.
        -12    1    3    3    0    0 -0.19204091176E+02  0.14026405411E+02 -0.38489710173E+02  0.45243728359E+02  0.00000000000E+00 0.  1.
</event>
<event>
 7    1  0.2000468E-015  0.9000774E+02  0.7816164E-02  0.1186339E+00
        -11   -1    0    0    0    0  0.00000000000E+00  0.00000000000E+00  0.45593999997E+02  0.45594000000E+02  0.51100000000E-03 0.  1.
         11   -1    0    0    0    0 -0.00000000000E+00 -0.00000000000E+00 -0.45593999997E+02  0.45594000000E+02  0.51100000000E-03 0. -1.
    9900012    2    1    2    0    0 -0.83545059455E+00 -0.21622069296E+00  0.80516167873E+00  0.90007739684E+02  0.90000001048E+02 0.  0.
         12    1    1    2    0    0  0.83545059455E+00  0.21622069296E+00 -0.80516167873E+00  0.11802603157E+01  0.00000000000E+00 0. -1.
         11    1    3    3    0    0 -0.33844484236E+01  0.14051613639E+01  0.78446049458E+01  0.86583368268E+01  0.51100000000E-03 0. -1.
        -11    1    3    3    0    0  0.18555753928E+02  0.32667458600E+02  0.11391290981E+02  0.39258634282E+02  0.51100000000E-03 0.  1.
         12    1    3    3    0    0 -0.16006756099E+02 -0.34288840656E+02 -0.18430734248E+02  0.42090768576E+02  0.00000000000E+00 0. -1.
</event>
<event>
 7    1  0.2000468E-015  0.9000758E+02  0.7816164E-02  0.1186339E+00
        -11   -1    0    0    0    0  0.00000000000E+00  0.00000000000E+00  0.45593999997E+02  0.45594000000E+02  0.51100000000E-03 0.  1.
         11   -1    0    0    0    0 -0.00000000000E+00 -0.00000000000E+00 -0.45593999997E+02  0.45594000000E+02  0.51100000000E-03 0. -1.
    9900012    2    1    2    0    0  0.40250851586E+00 -0.10269681502E+01  0.42038287884E+00  0.90007577003E+02  0.89999836219E+02 0.  0.
         12    1    1    2    0    0 -0.40250851586E+00  0.10269681502E+01 -0.42038287884E+00  0.11804229969E+01  0.00000000000E+00 0. -1.
         11    1    3    3    0    0  0.14367633590E+01  0.10799098494E+02 -0.57054208562E+01  0.12297830891E+02  0.51100000000E-03 0. -1.
        -11    1    3    3    0    0  0.29225512927E+02 -0.28777598690E+02 -0.49183492475E+01  0.41309453540E+02  0.51100000000E-03 0.  1.
         12    1    3    3    0    0 -0.30259767770E+02  0.16951532046E+02  0.11044152983E+02  0.36400292572E+02  0.00000000000E+00 0. -1.
</event>
<event>
 7    1  0.2000468E-015  0.9000780E+02  0.7816164E-02  0.1186339E+00
        -11   -1    0    0    0    0  0.00000000000E+00  0.00000000000E+00  0.45593999997E+02  0.45594000000E+02  0.51100000000E-03 0.  1.
         11   -1    0    0    0    0 -0.00000000000E+00 -0.00000000000E+00 -0.45593999997E+02  0.45594000000E+02  0.51100000000E-03 0. -1.
    9900012    2    1    2    0    0  0.37736110401E+00 -0.59815333308E+00  0.94481314525E+00  0.90007804808E+02  0.90000067031E+02 0.  0.
         12    1    1    2    0    0 -0.37736110401E+00  0.59815333308E+00 -0.94481314525E+00  0.11801951924E+01  0.00000000000E+00 0. -1.
         11    1    3    3    0    0  0.38515246314E+01  0.26852139765E+01  0.87857906936E+01  0.99616632376E+01  0.51100000000E-03 0. -1.
        -11    1    3    3    0    0  0.12411198692E+02 -0.80467300637E+01  0.32892907033E+02  0.36065649183E+02  0.51100000000E-03 0.  1.
         12    1    3    3    0    0 -0.15885362219E+02  0.47633627541E+01 -0.40733884581E+02  0.43980492387E+02  0.00000000000E+00 0. -1.
</event>
<event>
 7    1  0.2000468E-015  0.9000775E+02  0.7816164E-02  0.1186339E+00
        -11   -1    0    0    0    0  0.00000000000E+00  0.00000000000E+00  0.45593999997E+02  0.45594000000E+02  0.51100000000E-03 0.  1.
         11   -1    0    0    0    0 -0.00000000000E+00 -0.00000000000E+00 -0.45593999997E+02  0.45594000000E+02  0.51100000000E-03 0. -1.
    9900012    2    1    2    0    0  0.36335643315E+00 -0.11161938425E+01  0.12275276049E+00  0.90007752216E+02  0.90000013745E+02 0.  0.
         12    1    1    2    0    0 -0.36335643315E+00  0.11161938425E+01 -0.12275276049E+00  0.11802477841E+01  0.00000000000E+00 0. -1.
         11    1    3    3    0    0 -0.21455014958E+02 -0.21443732617E+02 -0.20085346533E+02  0.36380935681E+02  0.51100000000E-03 0. -1.
        -11    1    3    3    0    0 -0.36277105445E+01 -0.44208878958E+01 -0.69010047767E+01  0.89626112697E+01  0.51100000000E-03 0.  1.
        -12    1    3    3    0    0  0.25446081936E+02  0.24748426670E+02  0.27109104070E+02  0.44664205266E+02  0.00000000000E+00 0.  1.
</event>
<event>
 7    1  0.2000468E-015  0.9000768E+02  0.7816164E-02  0.1186339E+00
        -11   -1    0    0    0    0  0.00000000000E+00  0.00000000000E+00  0.45593999997E+02  0.45594000000E+02  0.51100000000E-03 0.  1.
         11   -1    0    0    0    0 -0.00000000000E+00 -0.00000000000E+00 -0.45593999997E+02  0.45594000000E+02  0.51100000000E-03 0. -1.
    9900012    2    1    2    0    0  0.36591509083E-01 -0.49638689308E+00  0.10702456889E+01  0.90007676010E+02  0.89999936534E+02 0.  0.
         12    1    1    2    0    0 -0.36591509083E-01  0.49638689308E+00 -0.10702456889E+01  0.11803239897E+01  0.00000000000E+00 0. -1.
         11    1    3    3    0    0  0.10469723456E+02  0.36654740460E+02  0.65797983590E+01  0.38684348956E+02  0.51100000000E-03 0. -1.
        -11    1    3    3    0    0  0.55173387908E+01  0.28616014916E+00  0.68442865427E+01  0.87958611576E+01  0.51100000000E-03 0.  1.
        -12    1    3    3    0    0 -0.15950470738E+02 -0.37437287502E+02 -0.12353839213E+02  0.42527465897E+02  0.00000000000E+00 0.  1.
</event>
<event>
 7    1  0.2000468E-015  0.9000769E+02  0.7816164E-02  0.1186339E+00
        -11   -1    0    0    0    0  0.00000000000E+00  0.00000000000E+00  0.45593999997E+02  0.45594000000E+02  0.51100000000E-03 0.  1.
         11   -1    0    0    0    0 -0.00000000000E+00 -0.00000000000E+00 -0.45593999997E+02  0.45594000000E+02  0.51100000000E-03 0. -1.
    9900012    2    1    2    0    0  0.11475542632E+01  0.24296205469E-02  0.27611284216E+00  0.90007692840E+02  0.89999953586E+02 0.  0.
         12    1    1    2    0    0 -0.11475542632E+01 -0.24296205469E-02 -0.27611284216E+00  0.11803071599E+01  0.00000000000E+00 0. -1.
         11    1    3    3    0    0 -0.27008637457E+02  0.83611252462E+01 -0.27820299594E+02  0.39665400318E+02  0.51100000000E-03 0. -1.
        -11    1    3    3    0    0  0.19880613996E+01 -0.10139305336E+02 -0.18897070614E+01  0.10503756179E+02  0.51100000000E-03 0.  1.
        -12    1    3    3    0    0  0.26168130321E+02  0.17806097107E+01  0.29986119497E+02  0.39838536343E+02  0.00000000000E+00 0.  1.
</event>
<event>
 7    1  0.2000468E-015  0.9000770E+02  0.7816164E-02  0.1186339E+00
        -11   -1    0    0    0    0  0.00000000000E+00  0.00000000000E+00  0.45593999997E+02  0.45594000000E+02  0.51100000000E-03 0.  1.
         11   -1    0    0    0    0 -0.00000000000E+00 -0.00000000000E+00 -0.45593999997E+02  0.45594000000E+02  0.51100000000E-03 0. -1.
    9900012    2    1    2    0    0  0.76957707897E+00  0.34204508505E+00  0.82696803781E+00  0.90007695016E+02  0.89999955790E+02 0.  0.
         12    1    1    2    0    0 -0.76957707897E+00 -0.34204508505E+00 -0.82696803781E+00  0.11803049844E+01  0.00000000000E+00 0. -1.
         11    1    3    3    0    0 -0.14930094804E+02  0.18087163594E+02  0.10873506332E+02  0.25851235134E+02  0.51100000000E-03 0. -1.
        -11    1    3    3    0    0 -0.17098192869E+02  0.95210508791E+01 -0.88756471337E+01  0.21488967438E+02  0.51100000000E-03 0.  1.
        -12    1    3    3    0    0  0.32797864752E+02 -0.27266169388E+02 -0.11708911603E+01  0.42667492444E+02  0.00000000000E+00 0.  1.
</event>
<event>
 7    1  0.2000468E-015  0.9000779E+02  0.7816164E-02  0.1186339E+00
        -11   -1    0    0    0    0  0.00000000000E+00  0.00000000000E+00  0.45593999997E+02  0.45594000000E+02  0.51100000000E-03 0. -1.
         11   -1    0    0    0    0 -0.00000000000E+00 -0.00000000000E+00 -0.45593999997E+02  0.45594000000E+02  0.51100000000E-03 0.  1.
    9900012    2    1    2    0    0  0.76363212701E+00  0.82110181118E+00  0.36817884989E+00  0.90007789055E+02  0.90000051070E+02 0.  0.
         12    1    1    2    0    0 -0.76363212701E+00 -0.82110181118E+00 -0.36817884989E+00  0.11802109452E+01  0.00000000000E+00 0. -1.
         11    1    3    3    0    0  0.43112319723E+01  0.37477791667E+01  0.81166574699E+01  0.99253563435E+01  0.51100000000E-03 0. -1.
        -11    1    3    3    0    0  0.69499556296E+00  0.34094302026E+02  0.14082934902E+02  0.36894898092E+02  0.51100000000E-03 0.  1.
         12    1    3    3    0    0 -0.42425954083E+01 -0.37020979381E+02 -0.21831413522E+02  0.43187534620E+02  0.00000000000E+00 0. -1.
</event>
<event>
 7    1  0.2000468E-015  0.9000782E+02  0.7816164E-02  0.1186339E+00
        -11   -1    0    0    0    0  0.00000000000E+00  0.00000000000E+00  0.45593999997E+02  0.45594000000E+02  0.51100000000E-03 0.  1.
         11   -1    0    0    0    0 -0.00000000000E+00 -0.00000000000E+00 -0.45593999997E+02  0.45594000000E+02  0.51100000000E-03 0. -1.
    9900012    2    1    2    0    0 -0.12544184008E-01 -0.33400797612E+00  0.11318623504E+01  0.90007817360E+02  0.90000079749E+02 0.  0.
         12    1    1    2    0    0  0.12544184008E-01  0.33400797612E+00 -0.11318623504E+01  0.11801826405E+01  0.00000000000E+00 0. -1.
         11    1    3    3    0    0  0.18574005442E+02  0.26552329190E+02 -0.18522225352E+02  0.37324157000E+02  0.51100000000E-03 0. -1.
        -11    1    3    3    0    0  0.94780725494E+01  0.61458960240E+00  0.25846060709E+01  0.98433616429E+01  0.51100000000E-03 0.  1.
        -12    1    3    3    0    0 -0.28064622175E+02 -0.27500926768E+02  0.17069481631E+02  0.42840298716E+02  0.00000000000E+00 0.  1.
</event>
<event>
 7    1  0.2000468E-015  0.9000780E+02  0.7816164E-02  0.1186339E+00
        -11   -1    0    0    0    0  0.00000000000E+00  0.00000000000E+00  0.45593999997E+02  0.45594000000E+02  0.51100000000E-03 0.  1.
         11   -1    0    0    0    0 -0.00000000000E+00 -0.00000000000E+00 -0.45593999997E+02  0.45594000000E+02  0.51100000000E-03 0. -1.
    9900012    2    1    2    0    0 -0.12033027905E+00  0.51419959431E+00 -0.10554591157E+01  0.90007798939E+02  0.90000061085E+02 0.  0.
         12    1    1    2    0    0  0.12033027905E+00 -0.51419959431E+00  0.10554591157E+01  0.11802010607E+01  0.00000000000E+00 0. -1.
         11    1    3    3    0    0  0.31527599728E+02  0.62344113870E+01 -0.18378854596E+02  0.37022151834E+02  0.51100000000E-03 0. -1.
        -11    1    3    3    0    0  0.56461566935E+01  0.83069034737E+01  0.16982297401E+01  0.10186643964E+02  0.51100000000E-03 0.  1.
        -12    1    3    3    0    0 -0.37294086700E+02 -0.14027115266E+02  0.15625165740E+02  0.42799003141E+02  0.00000000000E+00 0.  1.
</event>
<event>
 7    1  0.2000468E-015  0.9000777E+02  0.7816164E-02  0.1186339E+00
        -11   -1    0    0    0    0  0.00000000000E+00  0.00000000000E+00  0.45593999997E+02  0.45594000000E+02  0.51100000000E-03 0. -1.
         11   -1    0    0    0    0 -0.00000000000E+00 -0.00000000000E+00 -0.45593999997E+02  0.45594000000E+02  0.51100000000E-03 0.  1.
    9900012    2    1    2    0    0 -0.98972063208E+00  0.64272734935E+00  0.17339217701E-01  0.90007768657E+02  0.90000030403E+02 0.  0.
         12    1    1    2    0    0  0.98972063208E+00 -0.64272734935E+00 -0.17339217701E-01  0.11802313433E+01  0.00000000000E+00 0. -1.
         11    1    3    3    0    0  0.44020747035E+01 -0.23175618902E+02  0.26746861808E+02  0.35663457348E+02  0.51100000000E-03 0. -1.
        -11    1    3    3    0    0  0.34188688364E+01 -0.74939356074E+01  0.43845921158E+01  0.93312583981E+01  0.51100000000E-03 0.  1.
        -12    1    3    3    0    0 -0.88106641720E+01  0.31312281859E+02 -0.31114114706E+02  0.45013052910E+02  0.00000000000E+00 0.  1.
</event>
<event>
 7    1  0.2000468E-015  0.9000842E+02  0.7816164E-02  0.1186338E+00
        -11   -1    0    0    0    0  0.00000000000E+00  0.00000000000E+00  0.45593999997E+02  0.45594000000E+02  0.51100000000E-03 0.  1.
         11   -1    0    0    0    0 -0.00000000000E+00 -0.00000000000E+00 -0.45593999997E+02  0.45594000000E+02  0.51100000000E-03 0. -1.
    9900012    2    1    2    0    0 -0.10757532068E+01  0.35968625947E+00  0.32371855409E+00  0.90008418350E+02  0.90000688669E+02 0.  0.
         12    1    1    2    0    0  0.10757532068E+01 -0.35968625947E+00 -0.32371855409E+00  0.11795816502E+01  0.00000000000E+00 0. -1.
         11    1    3    3    0    0  0.94802638402E+01 -0.38536922754E+02  0.14999289426E+02  0.42425799950E+02  0.51100000000E-03 0. -1.
        -11    1    3    3    0    0  0.57148195222E+01  0.72141096796E+01 -0.40059904884E+00  0.92121127056E+01  0.51100000000E-03 0.  1.
        -12    1    3    3    0    0 -0.16270836569E+02  0.31682499334E+02 -0.14274971823E+02  0.38370505695E+02  0.00000000000E+00 0.  1.
</event>
<event>
 7    1  0.2000468E-015  0.9000773E+02  0.7816164E-02  0.1186339E+00
        -11   -1    0    0    0    0  0.00000000000E+00  0.00000000000E+00  0.45593999997E+02  0.45594000000E+02  0.51100000000E-03 0.  1.
         11   -1    0    0    0    0 -0.00000000000E+00 -0.00000000000E+00 -0.45593999997E+02  0.45594000000E+02  0.51100000000E-03 0. -1.
    9900012    2    1    2    0    0  0.24252544550E+00 -0.77111263109E+00  0.86000016529E+00  0.90007731570E+02  0.89999992827E+02 0.  0.
         12    1    1    2    0    0 -0.24252544550E+00  0.77111263109E+00 -0.86000016529E+00  0.11802684296E+01  0.00000000000E+00 0. -1.
         11    1    3    3    0    0 -0.22293227090E+02 -0.14852599303E-01  0.15126734813E+02  0.26940792510E+02  0.51100000000E-03 0.  1.
        -11    1    3    3    0    0 -0.27359718404E+01 -0.24090494109E+02 -0.15273798782E+02  0.28655302787E+02  0.51100000000E-03 0. -1.
        -12    1    3    3    0    0  0.25271724376E+02  0.23334234077E+02  0.10070641342E+01  0.34411636274E+02  0.00000000000E+00 0.  1.
</event>
<event>
 7    1  0.2000468E-015  0.9000773E+02  0.7816164E-02  0.1186339E+00
        -11   -1    0    0    0    0  0.00000000000E+00  0.00000000000E+00  0.45593999997E+02  0.45594000000E+02  0.51100000000E-03 0. -1.
         11   -1    0    0    0    0 -0.00000000000E+00 -0.00000000000E+00 -0.45593999997E+02  0.45594000000E+02  0.51100000000E-03 0.  1.
    9900012    2    1    2    0    0 -0.95198282097E+00 -0.68557376148E+00  0.12940323697E+00  0.90007733983E+02  0.89999995271E+02 0.  0.
         12    1    1    2    0    0  0.95198282097E+00  0.68557376148E+00 -0.12940323697E+00  0.11802660173E+01  0.00000000000E+00 0. -1.
         11    1    3    3    0    0 -0.25176959218E+01 -0.72525688224E+01 -0.42877506634E+01  0.87933698484E+01  0.51100000000E-03 0. -1.
        -11    1    3    3    0    0 -0.23423369401E+02  0.35707853112E+02  0.21032772896E+01  0.42756622687E+02  0.51100000000E-03 0.  1.
         12    1    3    3    0    0  0.24989082502E+02 -0.29140858051E+02  0.23138766107E+01  0.38457741447E+02  0.00000000000E+00 0. -1.
</event>
<event>
 7    1  0.2000468E-015  0.9000788E+02  0.7816164E-02  0.1186339E+00
        -11   -1    0    0    0    0  0.00000000000E+00  0.00000000000E+00  0.45593999997E+02  0.45594000000E+02  0.51100000000E-03 0.  1.
         11   -1    0    0    0    0 -0.00000000000E+00 -0.00000000000E+00 -0.45593999997E+02  0.45594000000E+02  0.51100000000E-03 0. -1.
    9900012    2    1    2    0    0 -0.22799220526E+00 -0.52357938503E-01  0.11567001489E+01  0.90007882619E+02  0.90000145869E+02 0.  0.
         12    1    1    2    0    0  0.22799220526E+00  0.52357938503E-01 -0.11567001489E+01  0.11801173814E+01  0.00000000000E+00 0. -1.
         11    1    3    3    0    0 -0.90053478332E+01  0.53046937161E+00 -0.10132849763E+02  0.13566588809E+02  0.51100000000E-03 0. -1.
        -11    1    3    3    0    0 -0.24139045073E+02  0.72578197726E+01  0.28856755908E+02  0.38315555675E+02  0.51100000000E-03 0.  1.
         12    1    3    3    0    0  0.32916400701E+02 -0.78406470827E+01 -0.17567205996E+02  0.38125738134E+02  0.00000000000E+00 0. -1.
</event>
<event>
 7    1  0.2000468E-015  0.9000775E+02  0.7816164E-02  0.1186339E+00
        -11   -1    0    0    0    0  0.00000000000E+00  0.00000000000E+00  0.45593999997E+02  0.45594000000E+02  0.51100000000E-03 0. -1.
         11   -1    0    0    0    0 -0.00000000000E+00 -0.00000000000E+00 -0.45593999997E+02  0.45594000000E+02  0.51100000000E-03 0.  1.
    9900012    2    1    2    0    0  0.10310837034E+01 -0.22827737244E+00 -0.52702527431E+00  0.90007745874E+02  0.90000007320E+02 0.  0.
         12    1    1    2    0    0 -0.10310837034E+01  0.22827737244E+00  0.52702527431E+00  0.11802541260E+01  0.00000000000E+00 0. -1.
         11    1    3    3    0    0 -0.33642230815E+01  0.88112950337E+01 -0.58165512062E+00  0.94496158681E+01  0.51100000000E-03 0. -1.
        -11    1    3    3    0    0 -0.29253940824E+02 -0.89105794999E+01 -0.24266705625E+02  0.39039268473E+02  0.51100000000E-03 0.  1.
         12    1    3    3    0    0  0.33649247609E+02 -0.12899290632E+00  0.24321335471E+02  0.41518861533E+02  0.00000000000E+00 0. -1.
</event>
<event>
 7    1  0.2000468E-015  0.9000792E+02  0.7816164E-02  0.1186339E+00
        -11   -1    0    0    0    0  0.00000000000E+00  0.00000000000E+00  0.45593999997E+02  0.45594000000E+02  0.51100000000E-03 0. -1.
         11   -1    0    0    0    0 -0.00000000000E+00 -0.00000000000E+00 -0.45593999997E+02  0.45594000000E+02  0.51100000000E-03 0.  1.
    9900012    2    1    2    0    0 -0.11827465927E+00 -0.24645182599E+00 -0.11479784270E+01  0.90007922940E+02  0.90000186723E+02 0.  0.
         12    1    1    2    0    0  0.11827465927E+00  0.24645182599E+00  0.11479784270E+01  0.11800770595E+01  0.00000000000E+00 0. -1.
         11    1    3    3    0    0 -0.24027580271E+01 -0.70169094811E+01 -0.50481084657E+01  0.89718261321E+01  0.51100000000E-03 0. -1.
        -11    1    3    3    0    0 -0.28095748941E+01 -0.14280132693E+02 -0.34223692887E+02  0.37189743961E+02  0.51100000000E-03 0.  1.
         12    1    3    3    0    0  0.50940582619E+01  0.21050590348E+02  0.38123822925E+02  0.43846352847E+02  0.00000000000E+00 0. -1.
</event>
<event>
 7    1  0.2000468E-015  0.9000770E+02  0.7816164E-02  0.1186339E+00
        -11   -1    0    0    0    0  0.00000000000E+00  0.00000000000E+00  0.45593999997E+02  0.45594000000E+02  0.51100000000E-03 0.  1.
         11   -1    0    0    0    0 -0.00000000000E+00 -0.00000000000E+00 -0.45593999997E+02  0.45594000000E+02  0.51100000000E-03 0. -1.
    9900012    2    1    2    0    0 -0.78840056143E-01 -0.11651909769E+01  0.17091624244E+00  0.90007704220E+02  0.89999965115E+02 0.  0.
         12    1    1    2    0    0  0.78840056143E-01  0.11651909769E+01 -0.17091624244E+00  0.11802957803E+01  0.00000000000E+00 0. -1.
         11    1    3    3    0    0  0.86527689979E+01 -0.37117955043E+01  0.19664529415E+01  0.96184600965E+01  0.51100000000E-03 0. -1.
        -11    1    3    3    0    0  0.29980656516E+02  0.20509612581E+02  0.65326189689E+01  0.36907439415E+02  0.51100000000E-03 0.  1.
         12    1    3    3    0    0 -0.38712265570E+02 -0.17963008053E+02 -0.83281556679E+01  0.43481804708E+02  0.00000000000E+00 0. -1.
</event>
<event>
 7    1  0.2000468E-015  0.9000774E+02  0.7816164E-02  0.1186339E+00
        -11   -1    0    0    0    0  0.00000000000E+00  0.00000000000E+00  0.45593999997E+02  0.45594000000E+02  0.51100000000E-03 0.  1.
         11   -1    0    0    0    0 -0.00000000000E+00 -0.00000000000E+00 -0.45593999997E+02  0.45594000000E+02  0.51100000000E-03 0. -1.
    9900012    2    1    2    0    0  0.61792091693E+00  0.48566669004E+00  0.88051472387E+00  0.90007743853E+02  0.90000005272E+02 0.  0.
         12    1    1    2    0    0 -0.61792091693E+00 -0.48566669004E+00 -0.88051472387E+00  0.11802561469E+01  0.00000000000E+00 0. -1.
         11    1    3    3    0    0 -0.30969676905E+02  0.27450844725E+02  0.18220709899E+01  0.41424506113E+02  0.51100000000E-03 0. -1.
        -11    1    3    3    0    0  0.29905560693E+01 -0.19173998988E+01  0.86716136822E+01  0.93710582161E+01  0.51100000000E-03 0.  1.
        -12    1    3    3    0    0  0.28597041753E+02 -0.25047778136E+02 -0.96131699481E+01  0.39212179524E+02  0.00000000000E+00 0.  1.
</event>
<event>
 7    1  0.2000468E-015  0.9000769E+02  0.7816164E-02  0.1186339E+00
        -11   -1    0    0    0    0  0.00000000000E+00  0.00000000000E+00  0.45593999997E+02  0.45594000000E+02  0.51100000000E-03 0.  1.
         11   -1    0    0    0    0 -0.00000000000E+00 -0.00000000000E+00 -0.45593999997E+02  0.45594000000E+02  0.51100000000E-03 0. -1.
    9900012    2    1    2    0    0  0.81777622150E+00 -0.34050865383E+00  0.78001217302E+00  0.90007693649E+02  0.89999954405E+02 0.  0.
         12    1    1    2    0    0 -0.81777622150E+00  0.34050865383E+00 -0.78001217302E+00  0.11803063508E+01  0.00000000000E+00 0. -1.
         11    1    3    3    0    0 -0.12667654480E+02 -0.18070066329E+02  0.24963205095E+01  0.22208745654E+02  0.51100000000E-03 0. -1.
        -11    1    3    3    0    0 -0.10145130657E+02  0.11346330735E+02  0.26429168530E+02  0.30498587617E+02  0.51100000000E-03 0.  1.
         12    1    3    3    0    0  0.23630561359E+02  0.63832269404E+01 -0.28145476867E+02  0.37300360378E+02  0.00000000000E+00 0. -1.
</event>
<event>
 7    1  0.2000468E-015  0.9000769E+02  0.7816164E-02  0.1186339E+00
        -11   -1    0    0    0    0  0.00000000000E+00  0.00000000000E+00  0.45593999997E+02  0.45594000000E+02  0.51100000000E-03 0.  1.
         11   -1    0    0    0    0 -0.00000000000E+00 -0.00000000000E+00 -0.45593999997E+02  0.45594000000E+02  0.51100000000E-03 0. -1.
    9900012    2    1    2    0    0 -0.74798363320E+00  0.77935837234E+00 -0.47564998404E+00  0.90007694152E+02  0.89999954915E+02 0.  0.
         12    1    1    2    0    0  0.74798363320E+00 -0.77935837234E+00  0.47564998404E+00  0.11803058482E+01  0.00000000000E+00 0. -1.
         11    1    3    3    0    0 -0.64592274610E+01  0.61920838672E+01  0.25217775589E+01  0.92963909303E+01  0.51100000000E-03 0. -1.
        -11    1    3    3    0    0  0.37586199868E+02  0.17278835604E+02 -0.40880848852E+01  0.41569135409E+02  0.51100000000E-03 0.  1.
         12    1    3    3    0    0 -0.31874956040E+02 -0.22691561099E+02  0.10906573422E+01  0.39142167813E+02  0.00000000000E+00 0. -1.
</event>
<event>
 7    1  0.2000468E-015  0.9000767E+02  0.7816164E-02  0.1186339E+00
        -11   -1    0    0    0    0  0.00000000000E+00  0.00000000000E+00  0.45593999997E+02  0.45594000000E+02  0.51100000000E-03 0. -1.
         11   -1    0    0    0    0 -0.00000000000E+00 -0.00000000000E+00 -0.45593999997E+02  0.45594000000E+02  0.51100000000E-03 0.  1.
    9900012    2    1    2    0    0 -0.10597729047E+01  0.49540237026E+00 -0.15694120952E+00  0.90007672647E+02  0.89999933125E+02 0.  0.
         12    1    1    2    0    0  0.10597729047E+01 -0.49540237026E+00  0.15694120952E+00  0.11803273535E+01  0.00000000000E+00 0. -1.
         11    1    3    3    0    0 -0.97886380172E+01 -0.39308316032E+02 -0.71113903616E+01  0.41128250833E+02  0.51100000000E-03 0. -1.
        -11    1    3    3    0    0  0.89368327271E+01  0.23618888131E+01  0.67338654590E+01  0.11436364905E+02  0.51100000000E-03 0.  1.
        -12    1    3    3    0    0 -0.20796761460E+00  0.37441829589E+02  0.22058369309E+00  0.37443056908E+02  0.00000000000E+00 0.  1.
</event>
<event>
 7    1  0.2000468E-015  0.9000773E+02  0.7816164E-02  0.1186339E+00
        -11   -1    0    0    0    0  0.00000000000E+00  0.00000000000E+00  0.45593999997E+02  0.45594000000E+02  0.51100000000E-03 0.  1.
         11   -1    0    0    0    0 -0.00000000000E+00 -0.00000000000E+00 -0.45593999997E+02  0.45594000000E+02  0.51100000000E-03 0. -1.
    9900012    2    1    2    0    0 -0.52028111557E+00  0.29816467211E+00  0.10165794979E+01  0.90007733722E+02  0.89999995007E+02 0.  0.
         12    1    1    2    0    0  0.52028111557E+00 -0.29816467211E+00 -0.10165794979E+01  0.11802662778E+01  0.00000000000E+00 0. -1.
         11    1    3    3    0    0 -0.26968376993E+02  0.10261412447E+02 -0.18209326877E+02  0.34119928614E+02  0.51100000000E-03 0. -1.
        -11    1    3    3    0    0  0.19398087909E+00 -0.46068908995E+01 -0.13107414266E+02  0.13894796916E+02  0.51100000000E-03 0.  1.
        -12    1    3    3    0    0  0.26254114998E+02 -0.53563568754E+01  0.32333320641E+02  0.41993008192E+02  0.00000000000E+00 0.  1.
</event>
<event>
 7    1  0.2000468E-015  0.9000663E+02  0.7816164E-02  0.1186341E+00
        -11   -1    0    0    0    0  0.00000000000E+00  0.00000000000E+00  0.45593999997E+02  0.45594000000E+02  0.51100000000E-03 0.  1.
         11   -1    0    0    0    0 -0.00000000000E+00 -0.00000000000E+00 -0.45593999997E+02  0.45594000000E+02  0.51100000000E-03 0. -1.
    9900012    2    1    2    0    0  0.34800757701E+00 -0.94028015854E+00  0.62482208675E+00  0.90006628471E+02  0.89998875159E+02 0.  0.
         12    1    1    2    0    0 -0.34800757701E+00  0.94028015854E+00 -0.62482208675E+00  0.11813715293E+01  0.00000000000E+00 0. -1.
         11    1    3    3    0    0  0.60153183940E+01 -0.35760702444E+01  0.66508240876E+01  0.96543148426E+01  0.51100000000E-03 0. -1.
        -11    1    3    3    0    0 -0.85923026436E+01 -0.28993146964E+02  0.22474356641E+02  0.37676610016E+02  0.51100000000E-03 0.  1.
         12    1    3    3    0    0  0.29249918265E+01  0.31628937050E+02 -0.28500358642E+02  0.42675703612E+02  0.00000000000E+00 0. -1.
</event>
<event>
 7    1  0.2000468E-015  0.9000774E+02  0.7816164E-02  0.1186339E+00
        -11   -1    0    0    0    0  0.00000000000E+00  0.00000000000E+00  0.45593999997E+02  0.45594000000E+02  0.51100000000E-03 0.  1.
         11   -1    0    0    0    0 -0.00000000000E+00 -0.00000000000E+00 -0.45593999997E+02  0.45594000000E+02  0.51100000000E-03 0. -1.
    9900012    2    1    2    0    0  0.10299799749E+00  0.11718324676E+01 -0.96005198410E-01  0.90007738623E+02  0.89999999973E+02 0.  0.
         12    1    1    2    0    0 -0.10299799749E+00 -0.11718324676E+01  0.96005198410E-01  0.11802613769E+01  0.00000000000E+00 0. -1.
         11    1    3    3    0    0 -0.86739495737E+01 -0.15742632842E+01  0.63342836039E+01  0.10855360663E+02  0.51100000000E-03 0. -1.
        -11    1    3    3    0    0 -0.33618167128E+02  0.10083371548E+01 -0.13303117897E+02  0.36168644582E+02  0.51100000000E-03 0.  1.
         12    1    3    3    0    0  0.42395114699E+02  0.17377585969E+01  0.68728290943E+01  0.42983733378E+02  0.00000000000E+00 0. -1.
</event>
<event>
 7    1  0.2000468E-015  0.9000805E+02  0.7816164E-02  0.1186338E+00
        -11   -1    0    0    0    0  0.00000000000E+00  0.00000000000E+00  0.45593999997E+02  0.45594000000E+02  0.51100000000E-03 0.  1.
         11   -1    0    0    0    0 -0.00000000000E+00 -0.00000000000E+00 -0.45593999997E+02  0.45594000000E+02  0.51100000000E-03 0. -1.
    9900012    2    1    2    0    0  0.82991856735E+00  0.77134523826E+00  0.32946092002E+00  0.90008049661E+02  0.90000315116E+02 0.  0.
         12    1    1    2    0    0 -0.82991856735E+00 -0.77134523826E+00 -0.32946092002E+00  0.11799503391E+01  0.00000000000E+00 0. -1.
         11    1    3    3    0    0 -0.27472996024E+02  0.25595661108E+02  0.56213462543E+01  0.37967129363E+02  0.51100000000E-03 0. -1.
        -11    1    3    3    0    0 -0.83816207925E+01 -0.44066483000E+01  0.12463520771E+01  0.95510999424E+01  0.51100000000E-03 0.  1.
        -12    1    3    3    0    0  0.36684535384E+02 -0.20417667570E+02 -0.65382374114E+01  0.42489820355E+02  0.00000000000E+00 0.  1.
</event>
<event>
 7    1  0.2000468E-015  0.9000775E+02  0.7816164E-02  0.1186339E+00
        -11   -1    0    0    0    0  0.00000000000E+00  0.00000000000E+00  0.45593999997E+02  0.45594000000E+02  0.51100000000E-03 0.  1.
         11   -1    0    0    0    0 -0.00000000000E+00 -0.00000000000E+00 -0.45593999997E+02  0.45594000000E+02  0.51100000000E-03 0. -1.
    9900012    2    1    2    0    0  0.10234543795E+01  0.52679130607E+00 -0.26082841344E+00  0.90007746041E+02  0.90000007489E+02 0.  0.
         12    1    1    2    0    0 -0.10234543795E+01 -0.52679130607E+00  0.26082841344E+00  0.11802539592E+01  0.00000000000E+00 0. -1.
         11    1    3    3    0    0 -0.62960837671E+00  0.76476669729E+01  0.29531949516E+01  0.82222002846E+01  0.51100000000E-03 0. -1.
        -11    1    3    3    0    0 -0.19870112239E+02 -0.23903742132E+02  0.26925935581E+02  0.41124399758E+02  0.51100000000E-03 0.  1.
         12    1    3    3    0    0  0.21523174995E+02  0.16782866465E+02 -0.30139958946E+02  0.40661145998E+02  0.00000000000E+00 0. -1.
</event>
<event>
 7    1  0.2000468E-015  0.9000762E+02  0.7816164E-02  0.1186339E+00
        -11   -1    0    0    0    0  0.00000000000E+00  0.00000000000E+00  0.45593999997E+02  0.45594000000E+02  0.51100000000E-03 0. -1.
         11   -1    0    0    0    0 -0.00000000000E+00 -0.00000000000E+00 -0.45593999997E+02  0.45594000000E+02  0.51100000000E-03 0.  1.
    9900012    2    1    2    0    0  0.13405352197E+00 -0.10594678181E+01  0.50285477601E+00  0.90007616448E+02  0.89999876185E+02 0.  0.
         12    1    1    2    0    0 -0.13405352197E+00  0.10594678181E+01 -0.50285477601E+00  0.11803835521E+01  0.00000000000E+00 0. -1.
         11    1    3    3    0    0  0.89100704518E+01  0.38744880452E+02 -0.37529437411E+00  0.39757967287E+02  0.51100000000E-03 0. -1.
        -11    1    3    3    0    0 -0.12214492718E+02 -0.26547999463E+01 -0.26412564465E+01  0.12775681234E+02  0.51100000000E-03 0.  1.
        -12    1    3    3    0    0  0.34384757881E+01 -0.37149548324E+02  0.35194055966E+01  0.37473967927E+02  0.00000000000E+00 0.  1.
</event>
<event>
 7    1  0.2000468E-015  0.9000811E+02  0.7816164E-02  0.1186338E+00
        -11   -1    0    0    0    0  0.00000000000E+00  0.00000000000E+00  0.45593999997E+02  0.45594000000E+02  0.51100000000E-03 0.  1.
         11   -1    0    0    0    0 -0.00000000000E+00 -0.00000000000E+00 -0.45593999997E+02  0.45594000000E+02  0.51100000000E-03 0. -1.
    9900012    2    1    2    0    0 -0.76400293949E+00  0.88580606085E+00  0.15420691566E+00  0.90008113293E+02  0.90000379587E+02 0.  0.
         12    1    1    2    0    0  0.76400293949E+00 -0.88580606085E+00 -0.15420691566E+00  0.11798867072E+01  0.00000000000E+00 0. -1.
         11    1    3    3    0    0 -0.83875619028E+01 -0.44746277862E+01 -0.59096473335E+01  0.11193633028E+02  0.51100000000E-03 0. -1.
        -11    1    3    3    0    0  0.18504437105E+02 -0.33436765609E+02  0.12758270128E+01  0.38236883003E+02  0.51100000000E-03 0.  1.
         12    1    3    3    0    0 -0.10880878142E+02  0.38797199456E+02  0.47880272363E+01  0.40577597262E+02  0.00000000000E+00 0. -1.
</event>
<event>
 7    1  0.2000468E-015  0.9000798E+02  0.7816164E-02  0.1186339E+00
        -11   -1    0    0    0    0  0.00000000000E+00  0.00000000000E+00  0.45593999997E+02  0.45594000000E+02  0.51100000000E-03 0. -1.
         11   -1    0    0    0    0 -0.00000000000E+00 -0.00000000000E+00 -0.45593999997E+02  0.45594000000E+02  0.51100000000E-03 0.  1.
    9900012    2    1    2    0    0 -0.37396727168E+00  0.52093169190E+00 -0.99057382934E+00  0.90007975484E+02  0.90000239960E+02 0.  0.
         12    1    1    2    0    0  0.37396727168E+00 -0.52093169190E+00  0.99057382934E+00  0.11800245164E+01  0.00000000000E+00 0. -1.
         11    1    3    3    0    0 -0.21490765488E+02 -0.29765957054E+02  0.10255481108E+02  0.38118763013E+02  0.51100000000E-03 0. -1.
        -11    1    3    3    0    0 -0.41201196503E+01  0.36992538189E+01  0.85813551875E+01  0.10212713736E+02  0.51100000000E-03 0.  1.
        -12    1    3    3    0    0  0.25236917867E+02  0.26587634927E+02 -0.19827410125E+02  0.41676498734E+02  0.00000000000E+00 0.  1.
</event>
<event>
 7    1  0.2000468E-015  0.9000785E+02  0.7816164E-02  0.1186339E+00
        -11   -1    0    0    0    0  0.00000000000E+00  0.00000000000E+00  0.45593999997E+02  0.45594000000E+02  0.51100000000E-03 0. -1.
         11   -1    0    0    0    0 -0.00000000000E+00 -0.00000000000E+00 -0.45593999997E+02  0.45594000000E+02  0.51100000000E-03 0.  1.
    9900012    2    1    2    0    0 -0.99542699927E+00 -0.47758621624E+00  0.41688204293E+00  0.90007849949E+02  0.90000112768E+02 0.  0.
         12    1    1    2    0    0  0.99542699927E+00  0.47758621624E+00 -0.41688204293E+00  0.11801500509E+01  0.00000000000E+00 0. -1.
         11    1    3    3    0    0  0.30283376858E+02 -0.11070406136E+02 -0.85105712069E+01  0.33347663013E+02  0.51100000000E-03 0. -1.
        -11    1    3    3    0    0 -0.21782239432E+01 -0.62322513350E+01 -0.14334513995E+02  0.15781758710E+02  0.51100000000E-03 0.  1.
        -12    1    3    3    0    0 -0.29100579914E+02  0.16825071255E+02  0.23261967245E+02  0.40878428225E+02  0.00000000000E+00 0.  1.
</event>
<event>
 7    1  0.2000468E-015  0.9000773E+02  0.7816164E-02  0.1186339E+00
        -11   -1    0    0    0    0  0.00000000000E+00  0.00000000000E+00  0.45593999997E+02  0.45594000000E+02  0.51100000000E-03 0.  1.
         11   -1    0    0    0    0 -0.00000000000E+00 -0.00000000000E+00 -0.45593999997E+02  0.45594000000E+02  0.51100000000E-03 0. -1.
    9900012    2    1    2    0    0  0.49817062694E+00 -0.33529153771E+00  0.10160901121E+01  0.90007731596E+02  0.89999992853E+02 0.  0.
         12    1    1    2    0    0 -0.49817062694E+00  0.33529153771E+00 -0.10160901121E+01  0.11802684037E+01  0.00000000000E+00 0. -1.
         11    1    3    3    0    0 -0.30710142401E+02  0.10222039173E+02 -0.52664033707E+01  0.32792345690E+02  0.51100000000E-03 0. -1.
        -11    1    3    3    0    0 -0.89751031622E+01  0.77500512150E+01 -0.26811698469E+01  0.12157485045E+02  0.51100000000E-03 0.  1.
        -12    1    3    3    0    0  0.40183416190E+02 -0.18307381926E+02  0.89636633298E+01  0.45057900861E+02  0.00000000000E+00 0.  1.
</event>
<event>
 7    1  0.2000468E-015  0.9000775E+02  0.7816164E-02  0.1186339E+00
        -11   -1    0    0    0    0  0.00000000000E+00  0.00000000000E+00  0.45593999997E+02  0.45594000000E+02  0.51100000000E-03 0.  1.
         11   -1    0    0    0    0 -0.00000000000E+00 -0.00000000000E+00 -0.45593999997E+02  0.45594000000E+02  0.51100000000E-03 0. -1.
    9900012    2    1    2    0    0 -0.28518506618E+00 -0.11451366990E+01 -0.17951112133E-01  0.90007749677E+02  0.90000011173E+02 0.  0.
         12    1    1    2    0    0  0.28518506618E+00  0.11451366990E+01  0.17951112133E-01  0.11802503225E+01  0.00000000000E+00 0. -1.
         11    1    3    3    0    0  0.11917267574E+02  0.97312473523E+01 -0.34710054367E+02  0.37967174189E+02  0.51100000000E-03 0. -1.
        -11    1    3    3    0    0 -0.85951703039E+01  0.45879255291E+01 -0.37563249347E+01  0.10442029999E+02  0.51100000000E-03 0.  1.
        -12    1    3    3    0    0 -0.36072823361E+01 -0.15464309580E+02  0.38448428190E+02  0.41598545490E+02  0.00000000000E+00 0.  1.
</event>
<event>
 7    1  0.2000468E-015  0.9000773E+02  0.7816164E-02  0.1186339E+00
        -11   -1    0    0    0    0  0.00000000000E+00  0.00000000000E+00  0.45593999997E+02  0.45594000000E+02  0.51100000000E-03 0.  1.
         11   -1    0    0    0    0 -0.00000000000E+00 -0.00000000000E+00 -0.45593999997E+02  0.45594000000E+02  0.51100000000E-03 0. -1.
    9900012    2    1    2    0    0  0.79317879126E+00  0.87340365677E+00 -0.32839282377E-01  0.90007726743E+02  0.89999987936E+02 0.  0.
         12    1    1    2    0    0 -0.79317879126E+00 -0.87340365677E+00  0.32839282377E-01  0.11802732569E+01  0.00000000000E+00 0. -1.
         11    1    3    3    0    0  0.20075121346E+02  0.48712779423E+00 -0.35302686952E+02  0.40614375495E+02  0.51100000000E-03 0. -1.
        -11    1    3    3    0    0 -0.42768156987E+01  0.92467159107E+01  0.15119526873E+00  0.10189002303E+02  0.51100000000E-03 0.  1.
        -12    1    3    3    0    0 -0.15005126856E+02 -0.88604400482E+01  0.35118652401E+02  0.39204348946E+02  0.00000000000E+00 0.  1.
</event>
<event>
 7    1  0.2000468E-015  0.9000773E+02  0.7816164E-02  0.1186339E+00
        -11   -1    0    0    0    0  0.00000000000E+00  0.00000000000E+00  0.45593999997E+02  0.45594000000E+02  0.51100000000E-03 0. -1.
         11   -1    0    0    0    0 -0.00000000000E+00 -0.00000000000E+00 -0.45593999997E+02  0.45594000000E+02  0.51100000000E-03 0.  1.
    9900012    2    1    2    0    0 -0.11668923560E+00 -0.11722238166E+01  0.72927253582E-01  0.90007727388E+02  0.89999988590E+02 0.  0.
         12    1    1    2    0    0  0.11668923560E+00  0.11722238166E+01 -0.72927253582E-01  0.11802726118E+01  0.00000000000E+00 0. -1.
         11    1    3    3    0    0 -0.15337382516E+02 -0.39951151479E+02 -0.10992786473E+02  0.44183381057E+02  0.51100000000E-03 0. -1.
        -11    1    3    3    0    0  0.28653707699E+01  0.27305873327E+01  0.62728360156E+01  0.74172049163E+01  0.51100000000E-03 0.  1.
        -12    1    3    3    0    0  0.12355322511E+02  0.36048340330E+02  0.47928777110E+01  0.38407141414E+02  0.00000000000E+00 0.  1.
</event>
<event>
 7    1  0.2000468E-015  0.9000769E+02  0.7816164E-02  0.1186339E+00
        -11   -1    0    0    0    0  0.00000000000E+00  0.00000000000E+00  0.45593999997E+02  0.45594000000E+02  0.51100000000E-03 0. -1.
         11   -1    0    0    0    0 -0.00000000000E+00 -0.00000000000E+00 -0.45593999997E+02  0.45594000000E+02  0.51100000000E-03 0.  1.
    9900012    2    1    2    0    0  0.90712430683E+00 -0.68322539398E+00 -0.32164601528E+00  0.90007691733E+02  0.89999952463E+02 0.  0.
         12    1    1    2    0    0 -0.90712430683E+00  0.68322539398E+00  0.32164601528E+00  0.11803082674E+01  0.00000000000E+00 0. -1.
         11    1    3    3    0    0  0.14446651495E+02  0.27183526079E+01  0.31404043792E+02  0.34674329800E+02  0.51100000000E-03 0. -1.
        -11    1    3    3    0    0  0.64443111794E+01  0.10691326301E+01  0.81871475037E+01  0.10473851998E+02  0.51100000000E-03 0.  1.
        -12    1    3    3    0    0 -0.19983838368E+02 -0.44707106320E+01 -0.39912837311E+02  0.44859509935E+02  0.00000000000E+00 0.  1.
</event>
<event>
 7    1  0.2000468E-015  0.9000860E+02  0.7816164E-02  0.1186337E+00
        -11   -1    0    0    0    0  0.00000000000E+00  0.00000000000E+00  0.45593999997E+02  0.45594000000E+02  0.51100000000E-03 0.  1.
         11   -1    0    0    0    0 -0.00000000000E+00 -0.00000000000E+00 -0.45593999997E+02  0.45594000000E+02  0.51100000000E-03 0. -1.
    9900012    2    1    2    0    0 -0.60103460199E+00 -0.10037075267E+01 -0.14935913852E+00  0.90008602042E+02  0.90000874784E+02 0.  0.
         12    1    1    2    0    0  0.60103460199E+00  0.10037075267E+01  0.14935913852E+00  0.11793979584E+01  0.00000000000E+00 0. -1.
         11    1    3    3    0    0 -0.19327935472E+00  0.24799913850E+02  0.26814488001E+02  0.36525194741E+02  0.51100000000E-03 0. -1.
        -11    1    3    3    0    0  0.11515058044E+01  0.21097808542E+01  0.82087774608E+01  0.85534302202E+01  0.51100000000E-03 0.  1.
        -12    1    3    3    0    0 -0.15592610516E+01 -0.27913402231E+02 -0.35172624601E+02  0.44929977080E+02  0.00000000000E+00 0.  1.
</event>
<event>
 7    1  0.2000468E-015  0.9000764E+02  0.7816164E-02  0.1186339E+00
        -11   -1    0    0    0    0  0.00000000000E+00  0.00000000000E+00  0.45593999997E+02  0.45594000000E+02  0.51100000000E-03 0.  1.
         11   -1    0    0    0    0 -0.00000000000E+00 -0.00000000000E+00 -0.45593999997E+02  0.45594000000E+02  0.51100000000E-03 0. -1.
    9900012    2    1    2    0    0  0.10004840809E+01  0.48411158500E+00  0.39737772646E+00  0.90007643494E+02  0.89999903588E+02 0.  0.
         12    1    1    2    0    0 -0.10004840809E+01 -0.48411158500E+00 -0.39737772646E+00  0.11803565056E+01  0.00000000000E+00 0. -1.
         11    1    3    3    0    0 -0.36602417271E+01 -0.84172438938E+01 -0.19828717965E+00  0.91807778720E+01  0.51100000000E-03 0. -1.
        -11    1    3    3    0    0  0.34070353521E+02 -0.17242738546E+02  0.11704489456E+02  0.39938654149E+02  0.51100000000E-03 0.  1.
         12    1    3    3    0    0 -0.29409627713E+02  0.26144094025E+02 -0.11108824550E+02  0.40888211473E+02  0.00000000000E+00 0. -1.
</event>
<event>
 7    1  0.2000468E-015  0.9000776E+02  0.7816164E-02  0.1186339E+00
        -11   -1    0    0    0    0  0.00000000000E+00  0.00000000000E+00  0.45593999997E+02  0.45594000000E+02  0.51100000000E-03 0.  1.
         11   -1    0    0    0    0 -0.00000000000E+00 -0.00000000000E+00 -0.45593999997E+02  0.45594000000E+02  0.51100000000E-03 0. -1.
    9900012    2    1    2    0    0  0.11601074748E+00  0.71521309576E+00  0.93165724574E+00  0.90007757021E+02  0.90000018614E+02 0.  0.
         12    1    1    2    0    0 -0.11601074748E+00 -0.71521309576E+00 -0.93165724574E+00  0.11802429790E+01  0.00000000000E+00 0. -1.
         11    1    3    3    0    0 -0.12700025691E+01 -0.87875779005E+01  0.17767317824E+01  0.90548996665E+01  0.51100000000E-03 0. -1.
        -11    1    3    3    0    0 -0.32923579440E+02 -0.15476726195E+02 -0.95878259343E+01  0.37622035342E+02  0.51100000000E-03 0.  1.
         12    1    3    3    0    0  0.34309592757E+02  0.24979517192E+02  0.87427513977E+01  0.43330822012E+02  0.00000000000E+00 0. -1.
</event>
<event>
 7    1  0.2000468E-015  0.9000772E+02  0.7816164E-02  0.1186339E+00
        -11   -1    0    0    0    0  0.00000000000E+00  0.00000000000E+00  0.45593999997E+02  0.45594000000E+02  0.51100000000E-03 0. -1.
         11   -1    0    0    0    0 -0.00000000000E+00 -0.00000000000E+00 -0.45593999997E+02  0.45594000000E+02  0.51100000000E-03 0.  1.
    9900012    2    1    2    0    0 -0.37267859571E+00 -0.11103473836E+01  0.14595982307E+00  0.90007718289E+02  0.89999979370E+02 0.  0.
         12    1    1    2    0    0  0.37267859571E+00  0.11103473836E+01 -0.14595982307E+00  0.11802817113E+01  0.00000000000E+00 0. -1.
         11    1    3    3    0    0  0.85890338062E+01 -0.22475502429E+01 -0.25195185076E+01  0.92288112772E+01  0.51100000000E-03 0. -1.
        -11    1    3    3    0    0 -0.53623146191E+01  0.20642252742E+02 -0.33394598106E+02  0.39623934676E+02  0.51100000000E-03 0.  1.
         12    1    3    3    0    0 -0.35993977827E+01 -0.19505049882E+02  0.36060076437E+02  0.41154972335E+02  0.00000000000E+00 0. -1.
</event>
<event>
 7    1  0.2000468E-015  0.9000788E+02  0.7816164E-02  0.1186339E+00
        -11   -1    0    0    0    0  0.00000000000E+00  0.00000000000E+00  0.45593999997E+02  0.45594000000E+02  0.51100000000E-03 0. -1.
         11   -1    0    0    0    0 -0.00000000000E+00 -0.00000000000E+00 -0.45593999997E+02  0.45594000000E+02  0.51100000000E-03 0.  1.
    9900012    2    1    2    0    0  0.74541875670E+00  0.75288967445E+00  0.51980567810E+00  0.90007877156E+02  0.90000140334E+02 0.  0.
         12    1    1    2    0    0 -0.74541875670E+00 -0.75288967445E+00 -0.51980567810E+00  0.11801228443E+01  0.00000000000E+00 0. -1.
         11    1    3    3    0    0 -0.11450700958E+00  0.79656364407E+01  0.53233417234E+01  0.95813591482E+01  0.51100000000E-03 0. -1.
        -11    1    3    3    0    0 -0.31560921144E+02 -0.98351848213E+01  0.20777879645E+02  0.39045395205E+02  0.51100000000E-03 0.  1.
         12    1    3    3    0    0  0.32420846910E+02  0.26224380550E+01 -0.25581415690E+02  0.41381122803E+02  0.00000000000E+00 0. -1.
</event>
<event>
 7    1  0.2000468E-015  0.9000778E+02  0.7816164E-02  0.1186339E+00
        -11   -1    0    0    0    0  0.00000000000E+00  0.00000000000E+00  0.45593999997E+02  0.45594000000E+02  0.51100000000E-03 0.  1.
         11   -1    0    0    0    0 -0.00000000000E+00 -0.00000000000E+00 -0.45593999997E+02  0.45594000000E+02  0.51100000000E-03 0. -1.
    9900012    2    1    2    0    0 -0.14397706915E+00  0.11657057736E+01 -0.11541153988E+00  0.90007780033E+02  0.90000041929E+02 0.  0.
         12    1    1    2    0    0  0.14397706915E+00 -0.11657057736E+01  0.11541153988E+00  0.11802199670E+01  0.00000000000E+00 0. -1.
         11    1    3    3    0    0  0.47867054277E+01  0.71632727655E+01  0.21731114714E+01  0.88852371546E+01  0.51100000000E-03 0. -1.
        -11    1    3    3    0    0  0.37174486005E+02 -0.61743314840E+01  0.61428384156E+01  0.38181137268E+02  0.51100000000E-03 0.  1.
         12    1    3    3    0    0 -0.42105168502E+02  0.17676449210E+00 -0.84313614269E+01  0.42941405610E+02  0.00000000000E+00 0. -1.
</event>
<event>
 7    1  0.2000468E-015  0.9000707E+02  0.7816164E-02  0.1186340E+00
        -11   -1    0    0    0    0  0.00000000000E+00  0.00000000000E+00  0.45593999997E+02  0.45594000000E+02  0.51100000000E-03 0. -1.
         11   -1    0    0    0    0 -0.00000000000E+00 -0.00000000000E+00 -0.45593999997E+02  0.45594000000E+02  0.51100000000E-03 0.  1.
    9900012    2    1    2    0    0  0.24622567820E-02 -0.10864022347E+01 -0.46294865026E+00  0.90007069295E+02  0.89999321807E+02 0.  0.
         12    1    1    2    0    0 -0.24622567819E-02  0.10864022347E+01  0.46294865026E+00  0.11809307055E+01  0.00000000000E+00 0. -1.
         11    1    3    3    0    0  0.16412199217E+02 -0.25935360591E+01 -0.20158267245E+01  0.16737690106E+02  0.51100000000E-03 0. -1.
        -11    1    3    3    0    0  0.25609956856E+02  0.97538594103E+00  0.14309540976E+02  0.29352755086E+02  0.51100000000E-03 0.  1.
         12    1    3    3    0    0 -0.42019693817E+02  0.53174788338E+00 -0.12756662902E+02  0.43916624103E+02  0.00000000000E+00 0. -1.
</event>
<event>
 7    1  0.2188447E-015  0.9000772E+02  0.7816164E-02  0.1186339E+00
        -11   -1    0    0    0    0  0.00000000000E+00  0.00000000000E+00  0.45593999997E+02  0.45594000000E+02  0.51100000000E-03 0.  1.
         11   -1    0    0    0    0 -0.00000000000E+00 -0.00000000000E+00 -0.45593999997E+02  0.45594000000E+02  0.51100000000E-03 0. -1.
    9900012    2    1    2    0    0  0.69946974748E+00  0.48781800514E+00  0.81599434185E+00  0.90007715670E+02  0.89999976717E+02 0.  0.
         12    1    1    2    0    0 -0.69946974748E+00 -0.48781800514E+00 -0.81599434185E+00  0.11802843300E+01  0.00000000000E+00 0. -1.
         11    1    3    3    0    0  0.21883560215E+01  0.14947630810E+02 -0.35290375255E+02  0.38387903757E+02  0.51100000000E-03 0. -1.
        -11    1    3    3    0    0 -0.56904752887E+01  0.79538866881E+01  0.11008046039E+01  0.98416255514E+01  0.51100000000E-03 0.  1.
        -12    1    3    3    0    0  0.42015890147E+01 -0.22413699492E+02  0.35005564993E+02  0.41778186362E+02  0.00000000000E+00 0.  1.
</event>
<event>
 7    1  0.2000468E-015  0.9000778E+02  0.7816164E-02  0.1186339E+00
        -11   -1    0    0    0    0  0.00000000000E+00  0.00000000000E+00  0.45593999997E+02  0.45594000000E+02  0.51100000000E-03 0. -1.
         11   -1    0    0    0    0 -0.00000000000E+00 -0.00000000000E+00 -0.45593999997E+02  0.45594000000E+02  0.51100000000E-03 0.  1.
    9900012    2    1    2    0    0 -0.65209911845E+00 -0.73075731075E+00 -0.65855049087E+00  0.90007776184E+02  0.90000038029E+02 0.  0.
         12    1    1    2    0    0  0.65209911845E+00  0.73075731075E+00  0.65855049087E+00  0.11802238163E+01  0.00000000000E+00 0. -1.
         11    1    3    3    0    0 -0.37230625188E+02  0.13765099332E+02  0.76701443383E+01  0.40428066067E+02  0.51100000000E-03 0. -1.
        -11    1    3    3    0    0  0.39232698247E+01  0.70672831170E+00  0.88246813242E+01  0.96833109915E+01  0.51100000000E-03 0.  1.
        -12    1    3    3    0    0  0.32655256244E+02 -0.15202584955E+02 -0.17153376153E+02  0.39896399125E+02  0.00000000000E+00 0.  1.
</event>
<event>
 7    1  0.2000468E-015  0.9000774E+02  0.7816164E-02  0.1186339E+00
        -11   -1    0    0    0    0  0.00000000000E+00  0.00000000000E+00  0.45593999997E+02  0.45594000000E+02  0.51100000000E-03 0.  1.
         11   -1    0    0    0    0 -0.00000000000E+00 -0.00000000000E+00 -0.45593999997E+02  0.45594000000E+02  0.51100000000E-03 0. -1.
    9900012    2    1    2    0    0 -0.53678977063E+00 -0.20666153795E+00  0.10306176194E+01  0.90007735230E+02  0.89999996535E+02 0.  0.
         12    1    1    2    0    0  0.53678977063E+00  0.20666153795E+00 -0.10306176194E+01  0.11802647697E+01  0.00000000000E+00 0. -1.
         11    1    3    3    0    0 -0.34049968009E+02 -0.14186610471E+02 -0.88927823315E+01  0.37943929895E+02  0.51100000000E-03 0. -1.
        -11    1    3    3    0    0 -0.59725091208E+01 -0.44026907431E+01  0.12849316619E+00  0.74209879216E+01  0.51100000000E-03 0.  1.
        -12    1    3    3    0    0  0.39485687359E+02  0.18382639676E+02  0.97949067847E+01  0.44642817413E+02  0.00000000000E+00 0.  1.
</event>
<event>
 7    1  0.2000468E-015  0.9000775E+02  0.7816164E-02  0.1186339E+00
        -11   -1    0    0    0    0  0.00000000000E+00  0.00000000000E+00  0.45593999997E+02  0.45594000000E+02  0.51100000000E-03 0.  1.
         11   -1    0    0    0    0 -0.00000000000E+00 -0.00000000000E+00 -0.45593999997E+02  0.45594000000E+02  0.51100000000E-03 0. -1.
    9900012    2    1    2    0    0  0.37498819142E+00  0.67111348399E+00 -0.89553594254E+00  0.90007748300E+02  0.90000009777E+02 0.  0.
         12    1    1    2    0    0 -0.37498819142E+00 -0.67111348399E+00  0.89553594254E+00  0.11802517005E+01  0.00000000000E+00 0. -1.
         11    1    3    3    0    0  0.15945630347E+02  0.29419284248E+02  0.18678222651E+02  0.38322753222E+02  0.51100000000E-03 0. -1.
        -11    1    3    3    0    0 -0.83993601491E+01  0.66188543690E+01 -0.13275940117E+00  0.10694676685E+02  0.51100000000E-03 0.  1.
        -12    1    3    3    0    0 -0.71712820068E+01 -0.35367025133E+02 -0.19440999193E+02  0.40990318393E+02  0.00000000000E+00 0.  1.
</event>
<event>
 7    1  0.2000468E-015  0.9000778E+02  0.7816164E-02  0.1186339E+00
        -11   -1    0    0    0    0  0.00000000000E+00  0.00000000000E+00  0.45593999997E+02  0.45594000000E+02  0.51100000000E-03 0. -1.
         11   -1    0    0    0    0 -0.00000000000E+00 -0.00000000000E+00 -0.45593999997E+02  0.45594000000E+02  0.51100000000E-03 0.  1.
    9900012    2    1    2    0    0  0.87611227196E+00 -0.16402715294E+00 -0.77359254865E+00  0.90007778389E+02  0.90000040264E+02 0.  0.
         12    1    1    2    0    0 -0.87611227196E+00  0.16402715294E+00  0.77359254865E+00  0.11802216111E+01  0.00000000000E+00 0. -1.
         11    1    3    3    0    0 -0.79519235385E+01  0.25976649315E+02  0.24150312924E+02  0.36349099193E+02  0.51100000000E-03 0. -1.
        -11    1    3    3    0    0 -0.72285138102E+01  0.25453033437E+01  0.50446095676E+01  0.91748605966E+01  0.51100000000E-03 0.  1.
        -12    1    3    3    0    0  0.16056549621E+02 -0.28685979811E+02 -0.29968515040E+02  0.44483818599E+02  0.00000000000E+00 0.  1.
</event>
<event>
 7    1  0.2000468E-015  0.9000769E+02  0.7816164E-02  0.1186339E+00
        -11   -1    0    0    0    0  0.00000000000E+00  0.00000000000E+00  0.45593999997E+02  0.45594000000E+02  0.51100000000E-03 0.  1.
         11   -1    0    0    0    0 -0.00000000000E+00 -0.00000000000E+00 -0.45593999997E+02  0.45594000000E+02  0.51100000000E-03 0. -1.
    9900012    2    1    2    0    0  0.39281400536E+00 -0.10680274812E+01 -0.31329275268E+00  0.90007687375E+02  0.89999948049E+02 0.  0.
         12    1    1    2    0    0 -0.39281400536E+00  0.10680274812E+01  0.31329275268E+00  0.11803126248E+01  0.00000000000E+00 0. -1.
         11    1    3    3    0    0 -0.53073775493E+01  0.12323696724E+02 -0.39918250818E+02  0.42113044369E+02  0.51100000000E-03 0. -1.
        -11    1    3    3    0    0  0.92688363056E+01 -0.43630206949E+00  0.45142802328E+01  0.10318934646E+02  0.51100000000E-03 0.  1.
        -12    1    3    3    0    0 -0.35686447509E+01 -0.12955422135E+02  0.35090677832E+02  0.37575708360E+02  0.00000000000E+00 0.  1.
</event>
<event>
 7    1  0.2000468E-015  0.9000778E+02  0.7816164E-02  0.1186339E+00
        -11   -1    0    0    0    0  0.00000000000E+00  0.00000000000E+00  0.45593999997E+02  0.45594000000E+02  0.51100000000E-03 0. -1.
         11   -1    0    0    0    0 -0.00000000000E+00 -0.00000000000E+00 -0.45593999997E+02  0.45594000000E+02  0.51100000000E-03 0.  1.
    9900012    2    1    2    0    0  0.60528204450E+00  0.36008970475E-01 -0.10125520346E+01  0.90007777723E+02  0.90000039589E+02 0.  0.
         12    1    1    2    0    0 -0.60528204450E+00 -0.36008970475E-01  0.10125520346E+01  0.11802222766E+01  0.00000000000E+00 0. -1.
         11    1    3    3    0    0 -0.42694210735E-01 -0.41346268516E+01 -0.12915590387E+02  0.13561321370E+02  0.51100000000E-03 0. -1.
        -11    1    3    3    0    0  0.22961462937E+02 -0.18884211355E+02 -0.16145092663E+02  0.33830551814E+02  0.51100000000E-03 0.  1.
         12    1    3    3    0    0 -0.22313486681E+02  0.23054847177E+02  0.28048131015E+02  0.42615904539E+02  0.00000000000E+00 0. -1.
</event>
<event>
 7    1  0.2000468E-015  0.9000762E+02  0.7816164E-02  0.1186339E+00
        -11   -1    0    0    0    0  0.00000000000E+00  0.00000000000E+00  0.45593999997E+02  0.45594000000E+02  0.51100000000E-03 0.  1.
         11   -1    0    0    0    0 -0.00000000000E+00 -0.00000000000E+00 -0.45593999997E+02  0.45594000000E+02  0.51100000000E-03 0. -1.
    9900012    2    1    2    0    0 -0.77908321412E+00  0.62088421285E+00  0.63311448394E+00  0.90007617939E+02  0.89999877696E+02 0.  0.
         12    1    1    2    0    0  0.77908321412E+00 -0.62088421285E+00 -0.63311448394E+00  0.11803820611E+01  0.00000000000E+00 0. -1.
         11    1    3    3    0    0 -0.28883118564E+02 -0.19306853081E+02 -0.83605378792E+01  0.35733565562E+02  0.51100000000E-03 0. -1.
        -11    1    3    3    0    0 -0.70347103556E+01 -0.64824464317E+01  0.16998075109E+01  0.97158945734E+01  0.51100000000E-03 0.  1.
        -12    1    3    3    0    0  0.35138745705E+02  0.26410183725E+02  0.72938448523E+01  0.44558157804E+02  0.00000000000E+00 0.  1.
</event>
<event>
 7    1  0.2000468E-015  0.9000774E+02  0.7816164E-02  0.1186339E+00
        -11   -1    0    0    0    0  0.00000000000E+00  0.00000000000E+00  0.45593999997E+02  0.45594000000E+02  0.51100000000E-03 0. -1.
         11   -1    0    0    0    0 -0.00000000000E+00 -0.00000000000E+00 -0.45593999997E+02  0.45594000000E+02  0.51100000000E-03 0.  1.
    9900012    2    1    2    0    0  0.11107064792E+01  0.39886551895E+00  0.16182819166E-01  0.90007735424E+02  0.89999996732E+02 0.  0.
         12    1    1    2    0    0 -0.11107064792E+01 -0.39886551895E+00 -0.16182819166E-01  0.11802645757E+01  0.00000000000E+00 0. -1.
         11    1    3    3    0    0 -0.81601740109E+01  0.29045348492E+02  0.21568746526E+02  0.37086810807E+02  0.51100000000E-03 0. -1.
        -11    1    3    3    0    0 -0.13421164543E+01  0.90521932351E+01 -0.46547307278E+01  0.10266937097E+02  0.51100000000E-03 0.  1.
        -12    1    3    3    0    0  0.10612996944E+02 -0.37698676208E+02 -0.16897832979E+02  0.42653987520E+02  0.00000000000E+00 0.  1.
</event>
<event>
 7    1  0.2000468E-015  0.9000772E+02  0.7816164E-02  0.1186339E+00
        -11   -1    0    0    0    0  0.00000000000E+00  0.00000000000E+00  0.45593999997E+02  0.45594000000E+02  0.51100000000E-03 0. -1.
         11   -1    0    0    0    0 -0.00000000000E+00 -0.00000000000E+00 -0.45593999997E+02  0.45594000000E+02  0.51100000000E-03 0.  1.
    9900012    2    1    2    0    0  0.11584670214E+01 -0.21946318713E+00  0.53303164449E-01  0.90007724118E+02  0.89999985276E+02 0.  0.
         12    1    1    2    0    0 -0.11584670214E+01  0.21946318713E+00 -0.53303164449E-01  0.11802758819E+01  0.00000000000E+00 0. -1.
         11    1    3    3    0    0 -0.13240499880E+02 -0.44409469735E+00 -0.48148186219E+01  0.14095763044E+02  0.51100000000E-03 0. -1.
        -11    1    3    3    0    0 -0.15093712872E+02  0.62561539779E+01 -0.27324850338E+02  0.31837196439E+02  0.51100000000E-03 0.  1.
         12    1    3    3    0    0  0.29492679773E+02 -0.60315224677E+01  0.32192972124E+02  0.44074764635E+02  0.00000000000E+00 0. -1.
</event>
<event>
 7    1  0.2000468E-015  0.9000773E+02  0.7816164E-02  0.1186339E+00
        -11   -1    0    0    0    0  0.00000000000E+00  0.00000000000E+00  0.45593999997E+02  0.45594000000E+02  0.51100000000E-03 0.  1.
         11   -1    0    0    0    0 -0.00000000000E+00 -0.00000000000E+00 -0.45593999997E+02  0.45594000000E+02  0.51100000000E-03 0. -1.
    9900012    2    1    2    0    0 -0.23336305889E+00 -0.71054880325E+00  0.91307737563E+00  0.90007725365E+02  0.89999986540E+02 0.  0.
         12    1    1    2    0    0  0.23336305889E+00  0.71054880325E+00 -0.91307737563E+00  0.11802746345E+01  0.00000000000E+00 0. -1.
         11    1    3    3    0    0  0.75084151419E+01  0.38864887274E+01  0.37667332404E+01  0.92557750694E+01  0.51100000000E-03 0. -1.
        -11    1    3    3    0    0 -0.23560941171E+02  0.12419581434E+02  0.30252831012E+02  0.40306298967E+02  0.51100000000E-03 0.  1.
         12    1    3    3    0    0  0.15819162971E+02 -0.17016618965E+02 -0.33106486877E+02  0.40445651329E+02  0.00000000000E+00 0. -1.
</event>
<event>
 7    1  0.2000468E-015  0.9000771E+02  0.7816164E-02  0.1186339E+00
        -11   -1    0    0    0    0  0.00000000000E+00  0.00000000000E+00  0.45593999997E+02  0.45594000000E+02  0.51100000000E-03 0. -1.
         11   -1    0    0    0    0 -0.00000000000E+00 -0.00000000000E+00 -0.45593999997E+02  0.45594000000E+02  0.51100000000E-03 0.  1.
    9900012    2    1    2    0    0 -0.11251589463E+00  0.86784881920E+00 -0.79199867913E+00  0.90007710499E+02  0.89999971477E+02 0.  0.
         12    1    1    2    0    0  0.11251589463E+00 -0.86784881920E+00  0.79199867913E+00  0.11802895015E+01  0.00000000000E+00 0. -1.
         11    1    3    3    0    0 -0.92795614916E+01  0.63706095000E+01  0.17692413851E+00  0.11257274505E+02  0.51100000000E-03 0. -1.
        -11    1    3    3    0    0  0.64943649144E+01  0.17850290768E+02 -0.33562709155E+02  0.38565076199E+02  0.51100000000E-03 0.  1.
         12    1    3    3    0    0  0.26726806826E+01 -0.23353051449E+02  0.32593786337E+02  0.40185359794E+02  0.00000000000E+00 0. -1.
</event>
<event>
 7    1  0.2000468E-015  0.9000780E+02  0.7816164E-02  0.1186339E+00
        -11   -1    0    0    0    0  0.00000000000E+00  0.00000000000E+00  0.45593999997E+02  0.45594000000E+02  0.51100000000E-03 0. -1.
         11   -1    0    0    0    0 -0.00000000000E+00 -0.00000000000E+00 -0.45593999997E+02  0.45594000000E+02  0.51100000000E-03 0.  1.
    9900012    2    1    2    0    0  0.86588443829E+00  0.78486863381E+00 -0.16459064899E+00  0.90007803103E+02  0.90000065304E+02 0.  0.
         12    1    1    2    0    0 -0.86588443829E+00 -0.78486863381E+00  0.16459064899E+00  0.11801968965E+01  0.00000000000E+00 0. -1.
         11    1    3    3    0    0 -0.63825000077E+01  0.28683665725E+02  0.26439580727E+02  0.39528981963E+02  0.51100000000E-03 0. -1.
        -11    1    3    3    0    0 -0.88995834554E+01 -0.60357253334E+01  0.20909268732E+01  0.10954658435E+02  0.51100000000E-03 0.  1.
        -12    1    3    3    0    0  0.16147967901E+02 -0.21863071757E+02 -0.28695098249E+02  0.39524162705E+02  0.00000000000E+00 0.  1.
</event>
<event>
 7    1  0.2000468E-015  0.9000758E+02  0.7816164E-02  0.1186339E+00
        -11   -1    0    0    0    0  0.00000000000E+00  0.00000000000E+00  0.45593999997E+02  0.45594000000E+02  0.51100000000E-03 0.  1.
         11   -1    0    0    0    0 -0.00000000000E+00 -0.00000000000E+00 -0.45593999997E+02  0.45594000000E+02  0.51100000000E-03 0. -1.
    9900012    2    1    2    0    0  0.70866277442E+00  0.93152367609E+00  0.15314402047E+00  0.90007579576E+02  0.89999838826E+02 0.  0.
         12    1    1    2    0    0 -0.70866277442E+00 -0.93152367609E+00 -0.15314402047E+00  0.11804204242E+01  0.00000000000E+00 0. -1.
         11    1    3    3    0    0 -0.22049104975E+01 -0.10482896803E+02 -0.90514722009E+01  0.14024332603E+02  0.51100000000E-03 0. -1.
        -11    1    3    3    0    0 -0.20464646712E+02 -0.16037039437E+02  0.25497505969E+02  0.36415809889E+02  0.51100000000E-03 0.  1.
         12    1    3    3    0    0  0.23378219984E+02  0.27451459916E+02 -0.16292889748E+02  0.39567437085E+02  0.00000000000E+00 0. -1.
</event>
<event>
 7    1  0.2000468E-015  0.9000777E+02  0.7816164E-02  0.1186339E+00
        -11   -1    0    0    0    0  0.00000000000E+00  0.00000000000E+00  0.45593999997E+02  0.45594000000E+02  0.51100000000E-03 0. -1.
         11   -1    0    0    0    0 -0.00000000000E+00 -0.00000000000E+00 -0.45593999997E+02  0.45594000000E+02  0.51100000000E-03 0.  1.
    9900012    2    1    2    0    0 -0.50397458657E+00  0.72122825004E+00 -0.78663457249E+00  0.90007765056E+02  0.90000026755E+02 0.  0.
         12    1    1    2    0    0  0.50397458657E+00 -0.72122825004E+00  0.78663457249E+00  0.11802349441E+01  0.00000000000E+00 0. -1.
         11    1    3    3    0    0  0.19196087189E+02  0.27184292057E+02  0.28515682501E+02  0.43824874749E+02  0.51100000000E-03 0. -1.
        -11    1    3    3    0    0 -0.23256246679E+01 -0.21686382210E+01 -0.10307047938E+02  0.10786415498E+02  0.51100000000E-03 0.  1.
        -12    1    3    3    0    0 -0.17374437108E+02 -0.24294425586E+02 -0.18995269136E+02  0.35396474809E+02  0.00000000000E+00 0.  1.
</event>
<event>
 7    1  0.2000468E-015  0.9000774E+02  0.7816164E-02  0.1186339E+00
        -11   -1    0    0    0    0  0.00000000000E+00  0.00000000000E+00  0.45593999997E+02  0.45594000000E+02  0.51100000000E-03 0. -1.
         11   -1    0    0    0    0 -0.00000000000E+00 -0.00000000000E+00 -0.45593999997E+02  0.45594000000E+02  0.51100000000E-03 0.  1.
    9900012    2    1    2    0    0  0.66698503584E+00 -0.41983065002E+00 -0.87857332817E+00  0.90007738205E+02  0.89999999549E+02 0.  0.
         12    1    1    2    0    0 -0.66698503584E+00  0.41983065002E+00  0.87857332817E+00  0.11802617954E+01  0.00000000000E+00 0. -1.
         11    1    3    3    0    0 -0.32418327354E+02 -0.22659962586E+02 -0.10949132488E+02  0.41040289416E+02  0.51100000000E-03 0. -1.
        -11    1    3    3    0    0 -0.27333995725E+01  0.26057721374E+01  0.70636563351E+01  0.80097916787E+01  0.51100000000E-03 0.  1.
        -12    1    3    3    0    0  0.35818711962E+02  0.19634359799E+02  0.30069028251E+01  0.40957657110E+02  0.00000000000E+00 0.  1.
</event>
<event>
 7    1  0.2000468E-015  0.9000770E+02  0.7816164E-02  0.1186339E+00
        -11   -1    0    0    0    0  0.00000000000E+00  0.00000000000E+00  0.45593999997E+02  0.45594000000E+02  0.51100000000E-03 0.  1.
         11   -1    0    0    0    0 -0.00000000000E+00 -0.00000000000E+00 -0.45593999997E+02  0.45594000000E+02  0.51100000000E-03 0. -1.
    9900012    2    1    2    0    0 -0.11606151787E+01  0.13148935121E+00  0.16964953729E+00  0.90007704271E+02  0.89999965167E+02 0.  0.
         12    1    1    2    0    0  0.11606151787E+01 -0.13148935121E+00 -0.16964953729E+00  0.11802957291E+01  0.00000000000E+00 0. -1.
         11    1    3    3    0    0  0.65069541739E+01 -0.21918640649E+01  0.37224306035E+01  0.78103271736E+01  0.51100000000E-03 0. -1.
        -11    1    3    3    0    0  0.14642653165E+02  0.32222376130E+02  0.17369175463E+02  0.39425589047E+02  0.51100000000E-03 0.  1.
         12    1    3    3    0    0 -0.22310222518E+02 -0.29899022714E+02 -0.20921956529E+02  0.42771788050E+02  0.00000000000E+00 0. -1.
</event>
<event>
 7    1  0.2000468E-015  0.9000775E+02  0.7816164E-02  0.1186339E+00
        -11   -1    0    0    0    0  0.00000000000E+00  0.00000000000E+00  0.45593999997E+02  0.45594000000E+02  0.51100000000E-03 0.  1.
         11   -1    0    0    0    0 -0.00000000000E+00 -0.00000000000E+00 -0.45593999997E+02  0.45594000000E+02  0.51100000000E-03 0. -1.
    9900012    2    1    2    0    0  0.11321304734E+01 -0.47739615553E-01 -0.33012564481E+00  0.90007753661E+02  0.90000015209E+02 0.  0.
         12    1    1    2    0    0 -0.11321304734E+01  0.47739615553E-01  0.33012564481E+00  0.11802463392E+01  0.00000000000E+00 0. -1.
         11    1    3    3    0    0 -0.36456866412E+01  0.31090135245E+01  0.72267617972E+01  0.86708178689E+01  0.51100000000E-03 0. -1.
        -11    1    3    3    0    0  0.23200602951E+02 -0.36221098499E+02 -0.18068109749E+01  0.43052299822E+02  0.51100000000E-03 0.  1.
         12    1    3    3    0    0 -0.18422785836E+02  0.33064345359E+02 -0.57500764671E+01  0.38284635970E+02  0.00000000000E+00 0. -1.
</event>
<event>
 7    1  0.2000468E-015  0.9000766E+02  0.7816164E-02  0.1186339E+00
        -11   -1    0    0    0    0  0.00000000000E+00  0.00000000000E+00  0.45593999997E+02  0.45594000000E+02  0.51100000000E-03 0. -1.
         11   -1    0    0    0    0 -0.00000000000E+00 -0.00000000000E+00 -0.45593999997E+02  0.45594000000E+02  0.51100000000E-03 0.  1.
    9900012    2    1    2    0    0 -0.22583699961E+00  0.19370876591E+00 -0.11422273008E+01  0.90007657404E+02  0.89999917682E+02 0.  0.
         12    1    1    2    0    0  0.22583699961E+00 -0.19370876591E+00  0.11422273008E+01  0.11803425957E+01  0.00000000000E+00 0. -1.
         11    1    3    3    0    0 -0.30010464326E+02 -0.17089518322E+02  0.23140451660E+02  0.41571145147E+02  0.51100000000E-03 0. -1.
        -11    1    3    3    0    0  0.33096745016E+01 -0.54931516162E+01 -0.10698755196E+01  0.65017915895E+01  0.51100000000E-03 0.  1.
        -12    1    3    3    0    0  0.26474952825E+02  0.22776378704E+02 -0.23212803441E+02  0.41934720668E+02  0.00000000000E+00 0.  1.
</event>
<event>
 7    1  0.2000468E-015  0.9000773E+02  0.7816164E-02  0.1186339E+00
        -11   -1    0    0    0    0  0.00000000000E+00  0.00000000000E+00  0.45593999997E+02  0.45594000000E+02  0.51100000000E-03 0.  1.
         11   -1    0    0    0    0 -0.00000000000E+00 -0.00000000000E+00 -0.45593999997E+02  0.45594000000E+02  0.51100000000E-03 0. -1.
    9900012    2    1    2    0    0  0.53542675531E+00  0.96840649733E+00  0.41054935278E+00  0.90007727267E+02  0.89999988466E+02 0.  0.
         12    1    1    2    0    0 -0.53542675531E+00 -0.96840649733E+00 -0.41054935278E+00  0.11802727335E+01  0.00000000000E+00 0. -1.
         11    1    3    3    0    0  0.79951668214E+01 -0.13300724421E+01  0.71296676951E+01  0.10794625834E+02  0.51100000000E-03 0. -1.
        -11    1    3    3    0    0  0.16481213997E+02  0.31772004371E+02 -0.17357690460E+02  0.39779141455E+02  0.51100000000E-03 0.  1.
         12    1    3    3    0    0 -0.23940954063E+02 -0.29473525431E+02  0.10638572117E+02  0.39433959977E+02  0.00000000000E+00 0. -1.
</event>
<event>
 7    1  0.2000468E-015  0.9000774E+02  0.7816164E-02  0.1186339E+00
        -11   -1    0    0    0    0  0.00000000000E+00  0.00000000000E+00  0.45593999997E+02  0.45594000000E+02  0.51100000000E-03 0.  1.
         11   -1    0    0    0    0 -0.00000000000E+00 -0.00000000000E+00 -0.45593999997E+02  0.45594000000E+02  0.51100000000E-03 0. -1.
    9900012    2    1    2    0    0  0.86452121226E+00  0.45190233852E+00 -0.66437444887E+00  0.90007743224E+02  0.90000004634E+02 0.  0.
         12    1    1    2    0    0 -0.86452121226E+00 -0.45190233852E+00  0.66437444887E+00  0.11802567764E+01  0.00000000000E+00 0. -1.
         11    1    3    3    0    0  0.30128081806E+01  0.10218592503E+02  0.84832713117E+01  0.13618463140E+02  0.51100000000E-03 0. -1.
        -11    1    3    3    0    0  0.97987039865E+01  0.13738475996E+02  0.26883591645E+02  0.31740948670E+02  0.51100000000E-03 0.  1.
         12    1    3    3    0    0 -0.11946990955E+02 -0.23505166160E+02 -0.36031237405E+02  0.44648331414E+02  0.00000000000E+00 0. -1.
</event>
<event>
 7    1  0.2000468E-015  0.9000777E+02  0.7816164E-02  0.1186339E+00
        -11   -1    0    0    0    0  0.00000000000E+00  0.00000000000E+00  0.45593999997E+02  0.45594000000E+02  0.51100000000E-03 0.  1.
         11   -1    0    0    0    0 -0.00000000000E+00 -0.00000000000E+00 -0.45593999997E+02  0.45594000000E+02  0.51100000000E-03 0. -1.
    9900012    2    1    2    0    0 -0.10066124274E+01  0.59159436288E+00  0.17227750923E+00  0.90007774594E+02  0.90000036418E+02 0.  0.
         12    1    1    2    0    0  0.10066124274E+01 -0.59159436288E+00 -0.17227750923E+00  0.11802254062E+01  0.00000000000E+00 0. -1.
         11    1    3    3    0    0 -0.85237335666E+00 -0.61613818544E+01  0.68591851276E+01  0.92594593563E+01  0.51100000000E-03 0. -1.
        -11    1    3    3    0    0  0.11742638492E+01  0.33413386291E+01  0.36869043916E+02  0.37038761304E+02  0.51100000000E-03 0.  1.
         12    1    3    3    0    0 -0.13285029200E+01  0.34116375882E+01 -0.43555951534E+02  0.43709553934E+02  0.00000000000E+00 0. -1.
</event>
<event>
 7    1  0.2000468E-015  0.9000774E+02  0.7816164E-02  0.1186339E+00
        -11   -1    0    0    0    0  0.00000000000E+00  0.00000000000E+00  0.45593999997E+02  0.45594000000E+02  0.51100000000E-03 0. -1.
         11   -1    0    0    0    0 -0.00000000000E+00 -0.00000000000E+00 -0.45593999997E+02  0.45594000000E+02  0.51100000000E-03 0.  1.
    9900012    2    1    2    0    0  0.33331466146E+00 -0.67661417606E+00 -0.90780228842E+00  0.90007741384E+02  0.90000002770E+02 0.  0.
         12    1    1    2    0    0 -0.33331466146E+00  0.67661417606E+00  0.90780228842E+00  0.11802586164E+01  0.00000000000E+00 0. -1.
         11    1    3    3    0    0  0.50432118739E+01 -0.73749423657E+01  0.18866967559E+01  0.91314503674E+01  0.51100000000E-03 0. -1.
        -11    1    3    3    0    0  0.12776878125E+02  0.18300650210E+02 -0.35549443178E+02  0.41975294201E+02  0.51100000000E-03 0.  1.
         12    1    3    3    0    0 -0.17486775338E+02 -0.11602322021E+02  0.32754944134E+02  0.38900996815E+02  0.00000000000E+00 0. -1.
</event>
<event>
 7    1  0.2000468E-015  0.9000770E+02  0.7816164E-02  0.1186339E+00
        -11   -1    0    0    0    0  0.00000000000E+00  0.00000000000E+00  0.45593999997E+02  0.45594000000E+02  0.51100000000E-03 0. -1.
         11   -1    0    0    0    0 -0.00000000000E+00 -0.00000000000E+00 -0.45593999997E+02  0.45594000000E+02  0.51100000000E-03 0.  1.
    9900012    2    1    2    0    0  0.91859487162E+00  0.16862555295E-01  0.74095184896E+00  0.90007698968E+02  0.89999959794E+02 0.  0.
         12    1    1    2    0    0 -0.91859487162E+00 -0.16862555295E-01 -0.74095184896E+00  0.11803010321E+01  0.00000000000E+00 0. -1.
         11    1    3    3    0    0 -0.28709387101E+02 -0.12053223611E+02  0.23003804010E+02  0.38712841621E+02  0.51100000000E-03 0. -1.
        -11    1    3    3    0    0  0.48037505237E+01 -0.94013543774E+01  0.16502435026E+01  0.10685728197E+02  0.51100000000E-03 0.  1.
        -12    1    3    3    0    0  0.24824231449E+02  0.21471440544E+02 -0.23913095664E+02  0.40609129150E+02  0.00000000000E+00 0.  1.
</event>
<event>
 7    1  0.2000468E-015  0.9000760E+02  0.7816164E-02  0.1186339E+00
        -11   -1    0    0    0    0  0.00000000000E+00  0.00000000000E+00  0.45593999997E+02  0.45594000000E+02  0.51100000000E-03 0.  1.
         11   -1    0    0    0    0 -0.00000000000E+00 -0.00000000000E+00 -0.45593999997E+02  0.45594000000E+02  0.51100000000E-03 0. -1.
    9900012    2    1    2    0    0 -0.10194983316E+01  0.58167857212E+00  0.12496196797E+00  0.90007600787E+02  0.89999860317E+02 0.  0.
         12    1    1    2    0    0  0.10194983316E+01 -0.58167857212E+00 -0.12496196797E+00  0.11803992133E+01  0.00000000000E+00 0. -1.
         11    1    3    3    0    0 -0.97046733461E+01 -0.43760556415E+01 -0.32626816189E+01  0.11134434846E+02  0.51100000000E-03 0. -1.
        -11    1    3    3    0    0 -0.11214737640E+02  0.12390336646E+02  0.36150411402E+02  0.39826411178E+02  0.51100000000E-03 0.  1.
         12    1    3    3    0    0  0.19899912655E+02 -0.74326024327E+01 -0.32762767815E+02  0.39046754763E+02  0.00000000000E+00 0. -1.
</event>
<event>
 7    1  0.2000468E-015  0.9000767E+02  0.7816164E-02  0.1186339E+00
        -11   -1    0    0    0    0  0.00000000000E+00  0.00000000000E+00  0.45593999997E+02  0.45594000000E+02  0.51100000000E-03 0.  1.
         11   -1    0    0    0    0 -0.00000000000E+00 -0.00000000000E+00 -0.45593999997E+02  0.45594000000E+02  0.51100000000E-03 0. -1.
    9900012    2    1    2    0    0 -0.27313948724E+00 -0.46930114984E+00  0.10480139109E+01  0.90007668730E+02  0.89999929158E+02 0.  0.
         12    1    1    2    0    0  0.27313948724E+00  0.46930114984E+00 -0.10480139109E+01  0.11803312697E+01  0.00000000000E+00 0. -1.
         11    1    3    3    0    0 -0.48712224299E+01 -0.37158328304E+02  0.39344193717E+01  0.37682221622E+02  0.51100000000E-03 0. -1.
        -11    1    3    3    0    0 -0.66454487341E+01 -0.54092360062E+01 -0.16986889996E+01  0.87354088414E+01  0.51100000000E-03 0.  1.
        -12    1    3    3    0    0  0.11243531677E+02  0.42098263161E+02 -0.11877164612E+01  0.43590038267E+02  0.00000000000E+00 0.  1.
</event>
<event>
 7    1  0.2000468E-015  0.9000775E+02  0.7816164E-02  0.1186339E+00
        -11   -1    0    0    0    0  0.00000000000E+00  0.00000000000E+00  0.45593999997E+02  0.45594000000E+02  0.51100000000E-03 0.  1.
         11   -1    0    0    0    0 -0.00000000000E+00 -0.00000000000E+00 -0.45593999997E+02  0.45594000000E+02  0.51100000000E-03 0. -1.
    9900012    2    1    2    0    0 -0.43566216599E+00  0.10518179688E+01 -0.31124573921E+00  0.90007747284E+02  0.90000008749E+02 0.  0.
         12    1    1    2    0    0  0.43566216599E+00 -0.10518179688E+01  0.31124573921E+00  0.11802527155E+01  0.00000000000E+00 0. -1.
         11    1    3    3    0    0 -0.36642389872E+02  0.10662422063E+02 -0.18953074177E+01  0.38209215777E+02  0.51100000000E-03 0. -1.
        -11    1    3    3    0    0 -0.61748751914E+01  0.36240056082E+01 -0.14117226872E+01  0.72976339648E+01  0.51100000000E-03 0.  1.
        -12    1    3    3    0    0  0.42381602898E+02 -0.13234609703E+02  0.29957843657E+01  0.44500897543E+02  0.00000000000E+00 0.  1.
</event>
<event>
 7    1  0.2870696E-015  0.9000780E+02  0.7816164E-02  0.1186339E+00
        -11   -1    0    0    0    0  0.00000000000E+00  0.00000000000E+00  0.45593999997E+02  0.45594000000E+02  0.51100000000E-03 0.  1.
         11   -1    0    0    0    0 -0.00000000000E+00 -0.00000000000E+00 -0.45593999997E+02  0.45594000000E+02  0.51100000000E-03 0. -1.
    9900012    2    1    2    0    0  0.79143296014E+00  0.44041415569E+00  0.75666160040E+00  0.90007801908E+02  0.90000064093E+02 0.  0.
         12    1    1    2    0    0 -0.79143296014E+00 -0.44041415569E+00 -0.75666160040E+00  0.11801980920E+01  0.00000000000E+00 0. -1.
         11    1    3    3    0    0 -0.28121933410E+02 -0.58871975618E+01 -0.25829023779E+02  0.38634708533E+02  0.51100000000E-03 0. -1.
        -11    1    3    3    0    0 -0.21679197261E+01  0.84774443447E+01 -0.21265351411E+01  0.90049481134E+01  0.51100000000E-03 0.  1.
        -12    1    3    3    0    0  0.31081286096E+02 -0.21498326272E+01  0.28712220520E+02  0.42368145261E+02  0.00000000000E+00 0.  1.
</event>
<event>
 7    1  0.2000468E-015  0.9000778E+02  0.7816164E-02  0.1186339E+00
        -11   -1    0    0    0    0  0.00000000000E+00  0.00000000000E+00  0.45593999997E+02  0.45594000000E+02  0.51100000000E-03 0.  1.
         11   -1    0    0    0    0 -0.00000000000E+00 -0.00000000000E+00 -0.45593999997E+02  0.45594000000E+02  0.51100000000E-03 0. -1.
    9900012    2    1    2    0    0 -0.83121219229E+00  0.81971754700E+00 -0.17339075610E+00  0.90007781834E+02  0.90000043754E+02 0.  0.
         12    1    1    2    0    0  0.83121219229E+00 -0.81971754700E+00  0.17339075610E+00  0.11802181662E+01  0.00000000000E+00 0. -1.
         11    1    3    3    0    0  0.28911600682E+02 -0.90914058144E+01 -0.28584144530E+02  0.41660384450E+02  0.51100000000E-03 0. -1.
        -11    1    3    3    0    0  0.19938955254E+01  0.69557805832E+01  0.56659441554E+01  0.91902897843E+01  0.51100000000E-03 0.  1.
        -12    1    3    3    0    0 -0.31736708400E+02  0.29553427782E+01  0.22744809619E+02  0.39157107600E+02  0.00000000000E+00 0.  1.
</event>
<event>
 7    1  0.2000468E-015  0.9000770E+02  0.7816164E-02  0.1186339E+00
        -11   -1    0    0    0    0  0.00000000000E+00  0.00000000000E+00  0.45593999997E+02  0.45594000000E+02  0.51100000000E-03 0. -1.
         11   -1    0    0    0    0 -0.00000000000E+00 -0.00000000000E+00 -0.45593999997E+02  0.45594000000E+02  0.51100000000E-03 0.  1.
    9900012    2    1    2    0    0 -0.54545784821E+00  0.48597364716E+00 -0.92704417486E+00  0.90007701075E+02  0.89999961929E+02 0.  0.
         12    1    1    2    0    0  0.54545784821E+00 -0.48597364716E+00  0.92704417486E+00  0.11802989249E+01  0.00000000000E+00 0. -1.
         11    1    3    3    0    0  0.33505970583E+00  0.64715346551E+01  0.51252643817E+01  0.82620433939E+01  0.51100000000E-03 0. -1.
        -11    1    3    3    0    0 -0.37254854316E+02 -0.13191467759E+02 -0.17087586791E+02  0.43057224879E+02  0.51100000000E-03 0.  1.
         12    1    3    3    0    0  0.36374336762E+02  0.72059067510E+01  0.11035278234E+02  0.38688432802E+02  0.00000000000E+00 0. -1.
</event>
<event>
 7    1  0.2000468E-015  0.9000767E+02  0.7816164E-02  0.1186339E+00
        -11   -1    0    0    0    0  0.00000000000E+00  0.00000000000E+00  0.45593999997E+02  0.45594000000E+02  0.51100000000E-03 0. -1.
         11   -1    0    0    0    0 -0.00000000000E+00 -0.00000000000E+00 -0.45593999997E+02  0.45594000000E+02  0.51100000000E-03 0.  1.
    9900012    2    1    2    0    0  0.44011278506E+00 -0.39730977221E+00 -0.10206025276E+01  0.90007667912E+02  0.89999928328E+02 0.  0.
         12    1    1    2    0    0 -0.44011278506E+00  0.39730977221E+00  0.10206025276E+01  0.11803320880E+01  0.00000000000E+00 0. -1.
         11    1    3    3    0    0 -0.72276629253E+01  0.37436006601E+02 -0.85467934155E+01  0.39073538098E+02  0.51100000000E-03 0. -1.
        -11    1    3    3    0    0  0.81781988352E+01  0.34252022627E+00 -0.62993529298E+01  0.10328702914E+02  0.51100000000E-03 0.  1.
        -12    1    3    3    0    0 -0.51042312484E+00 -0.38175836599E+02  0.13825543818E+02  0.40605426899E+02  0.00000000000E+00 0.  1.
</event>
<event>
 7    1  0.2000468E-015  0.9000774E+02  0.7816164E-02  0.1186339E+00
        -11   -1    0    0    0    0  0.00000000000E+00  0.00000000000E+00  0.45593999997E+02  0.45594000000E+02  0.51100000000E-03 0.  1.
         11   -1    0    0    0    0 -0.00000000000E+00 -0.00000000000E+00 -0.45593999997E+02  0.45594000000E+02  0.51100000000E-03 0. -1.
    9900012    2    1    2    0    0 -0.51223352033E+00  0.10611111343E+01  0.68305326750E-01  0.90007743402E+02  0.90000004815E+02 0.  0.
         12    1    1    2    0    0  0.51223352033E+00 -0.10611111343E+01 -0.68305326750E-01  0.11802565977E+01  0.00000000000E+00 0. -1.
         11    1    3    3    0    0  0.30077741031E+02  0.61346624751E+01  0.21951645131E+02  0.37738300351E+02  0.51100000000E-03 0. -1.
        -11    1    3    3    0    0  0.81679890159E+01 -0.28034569066E+01 -0.43530125549E+01  0.96707876492E+01  0.51100000000E-03 0.  1.
        -12    1    3    3    0    0 -0.38757963567E+02 -0.22700944342E+01 -0.17530327249E+02  0.42598655402E+02  0.00000000000E+00 0.  1.
</event>
<event>
 7    1  0.2000468E-015  0.9000774E+02  0.7816164E-02  0.1186339E+00
        -11   -1    0    0    0    0  0.00000000000E+00  0.00000000000E+00  0.45593999997E+02  0.45594000000E+02  0.51100000000E-03 0.  1.
         11   -1    0    0    0    0 -0.00000000000E+00 -0.00000000000E+00 -0.45593999997E+02  0.45594000000E+02  0.51100000000E-03 0. -1.
    9900012    2    1    2    0    0  0.10117444513E+01  0.58004008742E+00  0.18146501473E+00  0.90007744566E+02  0.90000005994E+02 0.  0.
         12    1    1    2    0    0 -0.10117444513E+01 -0.58004008742E+00 -0.18146501473E+00  0.11802554340E+01  0.00000000000E+00 0. -1.
         11    1    3    3    0    0  0.12193567142E+02  0.84935007819E+01 -0.32565971157E+02  0.35796160588E+02  0.51100000000E-03 0. -1.
        -11    1    3    3    0    0  0.34013806121E+01  0.40982733434E+01 -0.78194369619E+01  0.94609105866E+01  0.51100000000E-03 0.  1.
        -12    1    3    3    0    0 -0.14583203302E+02 -0.12011734038E+02  0.40566873134E+02  0.44750673392E+02  0.00000000000E+00 0.  1.
</event>
<event>
 7    1  0.2000468E-015  0.9000776E+02  0.7816164E-02  0.1186339E+00
        -11   -1    0    0    0    0  0.00000000000E+00  0.00000000000E+00  0.45593999997E+02  0.45594000000E+02  0.51100000000E-03 0.  1.
         11   -1    0    0    0    0 -0.00000000000E+00 -0.00000000000E+00 -0.45593999997E+02  0.45594000000E+02  0.51100000000E-03 0. -1.
    9900012    2    1    2    0    0  0.67224045714E+00 -0.91668030511E+00  0.31741867498E+00  0.90007760775E+02  0.90000022417E+02 0.  0.
         12    1    1    2    0    0 -0.67224045714E+00  0.91668030511E+00 -0.31741867498E+00  0.11802392254E+01  0.00000000000E+00 0. -1.
         11    1    3    3    0    0 -0.94825747922E+01  0.19854827234E+02 -0.32001798434E+02  0.38836175049E+02  0.51100000000E-03 0. -1.
        -11    1    3    3    0    0  0.86298798709E+01  0.52493527593E+01  0.60324167531E+00  0.10119013379E+02  0.51100000000E-03 0.  1.
        -12    1    3    3    0    0  0.15249353785E+01 -0.26020860298E+02  0.31715975434E+02  0.41052572347E+02  0.00000000000E+00 0.  1.
</event>
<event>
 7    1  0.2000468E-015  0.9000765E+02  0.7816164E-02  0.1186339E+00
        -11   -1    0    0    0    0  0.00000000000E+00  0.00000000000E+00  0.45593999997E+02  0.45594000000E+02  0.51100000000E-03 0.  1.
         11   -1    0    0    0    0 -0.00000000000E+00 -0.00000000000E+00 -0.45593999997E+02  0.45594000000E+02  0.51100000000E-03 0. -1.
    9900012    2    1    2    0    0  0.83213159964E+00 -0.61402427450E+00 -0.56899910499E+00  0.90007648870E+02  0.89999909035E+02 0.  0.
         12    1    1    2    0    0 -0.83213159964E+00  0.61402427450E+00  0.56899910499E+00  0.11803511301E+01  0.00000000000E+00 0. -1.
         11    1    3    3    0    0 -0.18882413983E+00 -0.47501010362E+01  0.33755357016E+01  0.58303821439E+01  0.51100000000E-03 0. -1.
        -11    1    3    3    0    0  0.13512134672E+02  0.41392855484E+02  0.51429877980E+01  0.43845143314E+02  0.51100000000E-03 0.  1.
         12    1    3    3    0    0 -0.12491178932E+02 -0.37256778722E+02 -0.90875226045E+01  0.40332123412E+02  0.00000000000E+00 0. -1.
</event>
<event>
 7    1  0.2000468E-015  0.9000778E+02  0.7816164E-02  0.1186339E+00
        -11   -1    0    0    0    0  0.00000000000E+00  0.00000000000E+00  0.45593999997E+02  0.45594000000E+02  0.51100000000E-03 0. -1.
         11   -1    0    0    0    0 -0.00000000000E+00 -0.00000000000E+00 -0.45593999997E+02  0.45594000000E+02  0.51100000000E-03 0.  1.
    9900012    2    1    2    0    0 -0.22341629403E+00 -0.11375860470E+01 -0.22114794491E+00  0.90007778297E+02  0.90000040171E+02 0.  0.
         12    1    1    2    0    0  0.22341629403E+00  0.11375860470E+01  0.22114794491E+00  0.11802217030E+01  0.00000000000E+00 0. -1.
         11    1    3    3    0    0 -0.14461675020E+02 -0.15669247104E+02  0.19517002868E+02  0.28906379061E+02  0.51100000000E-03 0. -1.
        -11    1    3    3    0    0 -0.50018835572E+01  0.75945447964E+01  0.16871413093E+02  0.19166129755E+02  0.51100000000E-03 0.  1.
        -12    1    3    3    0    0  0.19240142283E+02  0.69371162609E+01 -0.36609563906E+02  0.41935269481E+02  0.00000000000E+00 0.  1.
</event>
<event>
 7    1  0.2000468E-015  0.9000770E+02  0.7816164E-02  0.1186339E+00
        -11   -1    0    0    0    0  0.00000000000E+00  0.00000000000E+00  0.45593999997E+02  0.45594000000E+02  0.51100000000E-03 0.  1.
         11   -1    0    0    0    0 -0.00000000000E+00 -0.00000000000E+00 -0.45593999997E+02  0.45594000000E+02  0.51100000000E-03 0. -1.
    9900012    2    1    2    0    0  0.10086788426E+01 -0.48647303895E+00  0.37286813343E+00  0.90007695094E+02  0.89999955870E+02 0.  0.
         12    1    1    2    0    0 -0.10086788426E+01  0.48647303895E+00 -0.37286813343E+00  0.11803049056E+01  0.00000000000E+00 0. -1.
         11    1    3    3    0    0  0.55065553798E+01  0.14965587799E+01 -0.66670525786E+01  0.87756156866E+01  0.51100000000E-03 0. -1.
        -11    1    3    3    0    0  0.33122017320E+02 -0.17034611021E+02 -0.78492944549E+01  0.38063859864E+02  0.51100000000E-03 0.  1.
         12    1    3    3    0    0 -0.37619893858E+02  0.15051579202E+02  0.14889215167E+02  0.43168219544E+02  0.00000000000E+00 0. -1.
</event>
<event>
 7    1  0.2579898E-015  0.9000774E+02  0.7816164E-02  0.1186339E+00
        -11   -1    0    0    0    0  0.00000000000E+00  0.00000000000E+00  0.45593999997E+02  0.45594000000E+02  0.51100000000E-03 0.  1.
         11   -1    0    0    0    0 -0.00000000000E+00 -0.00000000000E+00 -0.45593999997E+02  0.45594000000E+02  0.51100000000E-03 0. -1.
    9900012    2    1    2    0    0  0.57677527262E+00  0.35216068627E+00  0.96763678612E+00  0.90007742480E+02  0.90000003881E+02 0.  0.
         12    1    1    2    0    0 -0.57677527262E+00 -0.35216068627E+00 -0.96763678612E+00  0.11802575202E+01  0.00000000000E+00 0. -1.
         11    1    3    3    0    0  0.18247764441E+02  0.56572853826E+01 -0.32983920659E+02  0.38117250784E+02  0.51100000000E-03 0. -1.
        -11    1    3    3    0    0 -0.58868334356E+01  0.12051606401E+01 -0.67399836079E+01  0.90296511208E+01  0.51100000000E-03 0.  1.
        -12    1    3    3    0    0 -0.11784155733E+02 -0.65102853365E+01  0.40691541053E+02  0.42860840575E+02  0.00000000000E+00 0.  1.
</event>
<event>
 7    1  0.2000468E-015  0.9000769E+02  0.7816164E-02  0.1186339E+00
        -11   -1    0    0    0    0  0.00000000000E+00  0.00000000000E+00  0.45593999997E+02  0.45594000000E+02  0.51100000000E-03 0. -1.
         11   -1    0    0    0    0 -0.00000000000E+00 -0.00000000000E+00 -0.45593999997E+02  0.45594000000E+02  0.51100000000E-03 0.  1.
    9900012    2    1    2    0    0 -0.56333299507E+00  0.68788365189E+00 -0.77627266647E+00  0.90007691890E+02  0.89999952623E+02 0.  0.
         12    1    1    2    0    0  0.56333299507E+00 -0.68788365189E+00  0.77627266647E+00  0.11803081100E+01  0.00000000000E+00 0. -1.
         11    1    3    3    0    0 -0.74745639931E+00 -0.47957902435E+01  0.94961763802E+01  0.10664692271E+02  0.51100000000E-03 0. -1.
        -11    1    3    3    0    0  0.21624464117E+02 -0.26591011043E+02 -0.19828612609E+02  0.39596378558E+02  0.51100000000E-03 0.  1.
         12    1    3    3    0    0 -0.21440340713E+02  0.32074684938E+02  0.95561635625E+01  0.39746621061E+02  0.00000000000E+00 0. -1.
</event>
<event>
 7    1  0.2000468E-015  0.9000755E+02  0.7816164E-02  0.1186339E+00
        -11   -1    0    0    0    0  0.00000000000E+00  0.00000000000E+00  0.45593999997E+02  0.45594000000E+02  0.51100000000E-03 0.  1.
         11   -1    0    0    0    0 -0.00000000000E+00 -0.00000000000E+00 -0.45593999997E+02  0.45594000000E+02  0.51100000000E-03 0. -1.
    9900012    2    1    2    0    0 -0.96186376770E+00 -0.64874675831E+00  0.21771063906E+00  0.90007554243E+02  0.89999813158E+02 0.  0.
         12    1    1    2    0    0  0.96186376770E+00  0.64874675831E+00 -0.21771063906E+00  0.11804457575E+01  0.00000000000E+00 0. -1.
         11    1    3    3    0    0  0.23513205128E+01 -0.72853682131E+01  0.47889561550E+01  0.90299169139E+01  0.51100000000E-03 0. -1.
        -11    1    3    3    0    0  0.53316354326E+01 -0.30588550672E+02  0.18688326898E+02  0.36240023885E+02  0.51100000000E-03 0.  1.
         12    1    3    3    0    0 -0.86448197131E+01  0.37225172127E+02 -0.23259572414E+02  0.44737613444E+02  0.00000000000E+00 0. -1.
</event>
<event>
 7    1  0.2000468E-015  0.9000766E+02  0.7816164E-02  0.1186339E+00
        -11   -1    0    0    0    0  0.00000000000E+00  0.00000000000E+00  0.45593999997E+02  0.45594000000E+02  0.51100000000E-03 0. -1.
         11   -1    0    0    0    0 -0.00000000000E+00 -0.00000000000E+00 -0.45593999997E+02  0.45594000000E+02  0.51100000000E-03 0.  1.
    9900012    2    1    2    0    0 -0.54975974862E+00 -0.65665984169E+00 -0.81226315645E+00  0.90007657099E+02  0.89999917373E+02 0.  0.
         12    1    1    2    0    0  0.54975974862E+00  0.65665984169E+00  0.81226315645E+00  0.11803429011E+01  0.00000000000E+00 0. -1.
         11    1    3    3    0    0 -0.13033789590E+02 -0.17081304593E+02 -0.12315595475E+02  0.24765389758E+02  0.51100000000E-03 0. -1.
        -11    1    3    3    0    0 -0.93139947562E+01  0.28021163308E+01  0.31313753341E+02  0.32789533434E+02  0.51100000000E-03 0.  1.
        -12    1    3    3    0    0  0.21798024598E+02  0.13622528420E+02 -0.19810421023E+02  0.32452733907E+02  0.00000000000E+00 0.  1.
</event>
<event>
 7    1  0.2000468E-015  0.9000778E+02  0.7816164E-02  0.1186339E+00
        -11   -1    0    0    0    0  0.00000000000E+00  0.00000000000E+00  0.45593999997E+02  0.45594000000E+02  0.51100000000E-03 0.  1.
         11   -1    0    0    0    0 -0.00000000000E+00 -0.00000000000E+00 -0.45593999997E+02  0.45594000000E+02  0.51100000000E-03 0. -1.
    9900012    2    1    2    0    0  0.11532095076E+01 -0.12191626976E+00  0.21945682439E+00  0.90007780934E+02  0.90000042843E+02 0.  0.
         12    1    1    2    0    0 -0.11532095076E+01  0.12191626976E+00 -0.21945682439E+00  0.11802190657E+01  0.00000000000E+00 0. -1.
         11    1    3    3    0    0 -0.76177010631E+01  0.27960566917E+01 -0.53672449561E+01  0.97290606530E+01  0.51100000000E-03 0. -1.
        -11    1    3    3    0    0 -0.18319727106E+02 -0.29346185117E+02 -0.14407833068E+02  0.37475280334E+02  0.51100000000E-03 0.  1.
         12    1    3    3    0    0  0.27090637677E+02  0.26428212156E+02  0.19994534848E+02  0.42803439947E+02  0.00000000000E+00 0. -1.
</event>
<event>
 7    1  0.2000468E-015  0.9000773E+02  0.7816164E-02  0.1186339E+00
        -11   -1    0    0    0    0  0.00000000000E+00  0.00000000000E+00  0.45593999997E+02  0.45594000000E+02  0.51100000000E-03 0.  1.
         11   -1    0    0    0    0 -0.00000000000E+00 -0.00000000000E+00 -0.45593999997E+02  0.45594000000E+02  0.51100000000E-03 0. -1.
    9900012    2    1    2    0    0  0.15086746169E+00  0.11471513979E+01  0.23305557068E+00  0.90007732141E+02  0.89999993405E+02 0.  0.
         12    1    1    2    0    0 -0.15086746169E+00 -0.11471513979E+01 -0.23305557068E+00  0.11802678593E+01  0.00000000000E+00 0. -1.
         11    1    3    3    0    0 -0.98854927434E+01  0.10486309679E+02  0.20938195951E+02  0.25418373422E+02  0.51100000000E-03 0. -1.
        -11    1    3    3    0    0  0.83758520665E+00  0.22581071911E+02  0.43110526602E+01  0.23004163382E+02  0.51100000000E-03 0.  1.
         12    1    3    3    0    0  0.91987749985E+01 -0.31920230192E+02 -0.25016193040E+02  0.41585195337E+02  0.00000000000E+00 0. -1.
</event>
<event>
 7    1  0.2000468E-015  0.9000772E+02  0.7816164E-02  0.1186339E+00
        -11   -1    0    0    0    0  0.00000000000E+00  0.00000000000E+00  0.45593999997E+02  0.45594000000E+02  0.51100000000E-03 0.  1.
         11   -1    0    0    0    0 -0.00000000000E+00 -0.00000000000E+00 -0.45593999997E+02  0.45594000000E+02  0.51100000000E-03 0. -1.
    9900012    2    1    2    0    0  0.10949142788E+01  0.38099206629E+00 -0.22149320829E+00  0.90007723984E+02  0.89999985141E+02 0.  0.
         12    1    1    2    0    0 -0.10949142788E+01 -0.38099206629E+00  0.22149320829E+00  0.11802760160E+01  0.00000000000E+00 0. -1.
         11    1    3    3    0    0  0.33932150333E+02  0.28562792367E+02 -0.23830310946E+00  0.44354038403E+02  0.51100000000E-03 0. -1.
        -11    1    3    3    0    0 -0.30351063078E+01 -0.83488469599E+01 -0.37809626276E+01  0.96545737613E+01  0.51100000000E-03 0.  1.
        -12    1    3    3    0    0 -0.29802129746E+02 -0.19832953341E+02  0.37977725288E+01  0.35999111820E+02  0.00000000000E+00 0.  1.
</event>
<event>
 7    1  0.2000468E-015  0.9000775E+02  0.7816164E-02  0.1186339E+00
        -11   -1    0    0    0    0  0.00000000000E+00  0.00000000000E+00  0.45593999997E+02  0.45594000000E+02  0.51100000000E-03 0.  1.
         11   -1    0    0    0    0 -0.00000000000E+00 -0.00000000000E+00 -0.45593999997E+02  0.45594000000E+02  0.51100000000E-03 0. -1.
    9900012    2    1    2    0    0 -0.13303138973E+00  0.11518681939E+01 -0.22018515361E+00  0.90007754607E+02  0.90000016167E+02 0.  0.
         12    1    1    2    0    0  0.13303138973E+00 -0.11518681939E+01  0.22018515361E+00  0.11802453934E+01  0.00000000000E+00 0. -1.
         11    1    3    3    0    0  0.46402295425E+01  0.46218331975E+01  0.96050156965E+01  0.11625377375E+02  0.51100000000E-03 0. -1.
        -11    1    3    3    0    0  0.23496071633E+02  0.26972231539E+02 -0.87455815548E+01  0.36824609344E+02  0.51100000000E-03 0.  1.
         12    1    3    3    0    0 -0.28269332565E+02 -0.30442196543E+02 -0.10796192953E+01  0.41557767888E+02  0.00000000000E+00 0. -1.
</event>
<event>
 7    1  0.2000468E-015  0.9000773E+02  0.7816164E-02  0.1186339E+00
        -11   -1    0    0    0    0  0.00000000000E+00  0.00000000000E+00  0.45593999997E+02  0.45594000000E+02  0.51100000000E-03 0. -1.
         11   -1    0    0    0    0 -0.00000000000E+00 -0.00000000000E+00 -0.45593999997E+02  0.45594000000E+02  0.51100000000E-03 0.  1.
    9900012    2    1    2    0    0 -0.76374444734E+00  0.81967521331E+00 -0.37129284831E+00  0.90007732481E+02  0.89999993750E+02 0.  0.
         12    1    1    2    0    0  0.76374444734E+00 -0.81967521331E+00  0.37129284831E+00  0.11802675186E+01  0.00000000000E+00 0. -1.
         11    1    3    3    0    0  0.26944823957E+02  0.20119640432E+02 -0.17391394067E+02  0.37858738186E+02  0.51100000000E-03 0. -1.
        -11    1    3    3    0    0  0.86512238885E+01 -0.36952788646E+01  0.99420552580E+00  0.94597677321E+01  0.51100000000E-03 0.  1.
        -12    1    3    3    0    0 -0.36359792293E+02 -0.15604686354E+02  0.16025895693E+02  0.42689226563E+02  0.00000000000E+00 0.  1.
</event>
<event>
 7    1  0.2000468E-015  0.9000766E+02  0.7816164E-02  0.1186339E+00
        -11   -1    0    0    0    0  0.00000000000E+00  0.00000000000E+00  0.45593999997E+02  0.45594000000E+02  0.51100000000E-03 0.  1.
         11   -1    0    0    0    0 -0.00000000000E+00 -0.00000000000E+00 -0.45593999997E+02  0.45594000000E+02  0.51100000000E-03 0. -1.
    9900012    2    1    2    0    0 -0.26323672152E+00 -0.34394153257E+00  0.10980090023E+01  0.90007655508E+02  0.89999915761E+02 0.  0.
         12    1    1    2    0    0  0.26323672152E+00  0.34394153257E+00 -0.10980090023E+01  0.11803444915E+01  0.00000000000E+00 0. -1.
         11    1    3    3    0    0 -0.22361542967E+01 -0.70617813307E+00  0.97808675484E+01  0.10058053681E+02  0.51100000000E-03 0. -1.
        -11    1    3    3    0    0 -0.18438493652E+02  0.34023865540E+02  0.31938258996E+01  0.38830426196E+02  0.51100000000E-03 0.  1.
         12    1    3    3    0    0  0.20411411227E+02 -0.33661628940E+02 -0.11876684446E+02  0.41119175631E+02  0.00000000000E+00 0. -1.
</event>
<event>
 7    1  0.2000468E-015  0.9000769E+02  0.7816164E-02  0.1186339E+00
        -11   -1    0    0    0    0  0.00000000000E+00  0.00000000000E+00  0.45593999997E+02  0.45594000000E+02  0.51100000000E-03 0.  1.
         11   -1    0    0    0    0 -0.00000000000E+00 -0.00000000000E+00 -0.45593999997E+02  0.45594000000E+02  0.51100000000E-03 0. -1.
    9900012    2    1    2    0    0 -0.15279570426E+00 -0.11294428420E+01  0.30682370647E+00  0.90007691376E+02  0.89999952102E+02 0.  0.
         12    1    1    2    0    0  0.15279570426E+00  0.11294428420E+01 -0.30682370647E+00  0.11803086238E+01  0.00000000000E+00 0. -1.
         11    1    3    3    0    0 -0.14310444799E+01 -0.14559907961E+01 -0.12446301913E+02  0.12612621816E+02  0.51100000000E-03 0. -1.
        -11    1    3    3    0    0  0.33811809031E+02  0.19018724520E+02  0.55463778976E+01  0.39188169393E+02  0.51100000000E-03 0.  1.
         12    1    3    3    0    0 -0.32533560255E+02 -0.18692176566E+02  0.72067477222E+01  0.38206900167E+02  0.00000000000E+00 0. -1.
</event>
<event>
 7    1  0.2000468E-015  0.9000768E+02  0.7816164E-02  0.1186339E+00
        -11   -1    0    0    0    0  0.00000000000E+00  0.00000000000E+00  0.45593999997E+02  0.45594000000E+02  0.51100000000E-03 0. -1.
         11   -1    0    0    0    0 -0.00000000000E+00 -0.00000000000E+00 -0.45593999997E+02  0.45594000000E+02  0.51100000000E-03 0.  1.
    9900012    2    1    2    0    0  0.14702135284E+00  0.97812875182E+00 -0.64404638255E+00  0.90007683569E+02  0.89999944193E+02 0.  0.
         12    1    1    2    0    0 -0.14702135284E+00 -0.97812875182E+00  0.64404638255E+00  0.11803164305E+01  0.00000000000E+00 0. -1.
         11    1    3    3    0    0 -0.10103039872E+02 -0.36718193751E+01  0.17490786434E+01  0.10890957191E+02  0.51100000000E-03 0. -1.
        -11    1    3    3    0    0 -0.26722647170E+02 -0.20077087086E+02 -0.77642106939E+01  0.34314315753E+02  0.51100000000E-03 0.  1.
         12    1    3    3    0    0  0.36972708396E+02  0.24727035213E+02  0.53710856679E+01  0.44802410625E+02  0.00000000000E+00 0. -1.
</event>
<event>
 7    1  0.2000468E-015  0.9000772E+02  0.7816164E-02  0.1186339E+00
        -11   -1    0    0    0    0  0.00000000000E+00  0.00000000000E+00  0.45593999997E+02  0.45594000000E+02  0.51100000000E-03 0. -1.
         11   -1    0    0    0    0 -0.00000000000E+00 -0.00000000000E+00 -0.45593999997E+02  0.45594000000E+02  0.51100000000E-03 0.  1.
    9900012    2    1    2    0    0 -0.69480011002E+00  0.93494921240E+00  0.19019501057E+00  0.90007724030E+02  0.89999985187E+02 0.  0.
         12    1    1    2    0    0  0.69480011002E+00 -0.93494921240E+00 -0.19019501057E+00  0.11802759697E+01  0.00000000000E+00 0. -1.
         11    1    3    3    0    0  0.90451948388E+01  0.17649449319E+01  0.85197214895E+01  0.12550547191E+02  0.51100000000E-03 0. -1.
        -11    1    3    3    0    0 -0.10737830815E+02  0.29858727934E+02  0.18458614329E+02  0.36709196228E+02  0.51100000000E-03 0.  1.
         12    1    3    3    0    0  0.99783586607E+00 -0.30688723654E+02 -0.26788140808E+02  0.40747980611E+02  0.00000000000E+00 0. -1.
</event>
<event>
 7    1  0.2000468E-015  0.9000813E+02  0.7816164E-02  0.1186338E+00
        -11   -1    0    0    0    0  0.00000000000E+00  0.00000000000E+00  0.45593999997E+02  0.45594000000E+02  0.51100000000E-03 0.  1.
         11   -1    0    0    0    0 -0.00000000000E+00 -0.00000000000E+00 -0.45593999997E+02  0.45594000000E+02  0.51100000000E-03 0. -1.
    9900012    2    1    2    0    0 -0.59949004936E+00 -0.76633240290E+00 -0.66740759618E+00  0.90008132817E+02  0.90000399369E+02 0.  0.
         12    1    1    2    0    0  0.59949004936E+00  0.76633240290E+00  0.66740759618E+00  0.11798671834E+01  0.00000000000E+00 0. -1.
         11    1    3    3    0    0 -0.26932005184E+02 -0.18775997224E+02 -0.46210006036E+01  0.33154556577E+02  0.51100000000E-03 0. -1.
        -11    1    3    3    0    0 -0.10044653030E+02 -0.55743697925E+01 -0.50936135386E+01  0.12566365911E+02  0.51100000000E-03 0.  1.
        -12    1    3    3    0    0  0.36377168165E+02  0.23584034613E+02  0.90472065461E+01  0.44287210328E+02  0.00000000000E+00 0.  1.
</event>
<event>
 7    1  0.2000468E-015  0.9000776E+02  0.7816164E-02  0.1186339E+00
        -11   -1    0    0    0    0  0.00000000000E+00  0.00000000000E+00  0.45593999997E+02  0.45594000000E+02  0.51100000000E-03 0.  1.
         11   -1    0    0    0    0 -0.00000000000E+00 -0.00000000000E+00 -0.45593999997E+02  0.45594000000E+02  0.51100000000E-03 0. -1.
    9900012    2    1    2    0    0 -0.10770298069E+01  0.47649433907E+00  0.76920852856E-01  0.90007764058E+02  0.90000025744E+02 0.  0.
         12    1    1    2    0    0  0.10770298069E+01 -0.47649433907E+00 -0.76920852856E-01  0.11802359415E+01  0.00000000000E+00 0. -1.
         11    1    3    3    0    0  0.18355165266E+01  0.35353058173E+02  0.14052502957E+02  0.38087802282E+02  0.51100000000E-03 0. -1.
        -11    1    3    3    0    0 -0.31400979703E+01  0.70279229792E+01  0.14748486007E+00  0.76989394536E+01  0.51100000000E-03 0.  1.
        -12    1    3    3    0    0  0.22755163686E+00 -0.41904486813E+02 -0.14123066964E+02  0.44221022323E+02  0.00000000000E+00 0.  1.
</event>
<event>
 7    1  0.2000468E-015  0.9000772E+02  0.7816164E-02  0.1186339E+00
        -11   -1    0    0    0    0  0.00000000000E+00  0.00000000000E+00  0.45593999997E+02  0.45594000000E+02  0.51100000000E-03 0. -1.
         11   -1    0    0    0    0 -0.00000000000E+00 -0.00000000000E+00 -0.45593999997E+02  0.45594000000E+02  0.51100000000E-03 0.  1.
    9900012    2    1    2    0    0  0.10057167018E+01  0.61685937555E+00  0.32741827311E-01  0.90007723083E+02  0.89999984228E+02 0.  0.
         12    1    1    2    0    0 -0.10057167018E+01 -0.61685937555E+00 -0.32741827311E-01  0.11802769169E+01  0.00000000000E+00 0. -1.
         11    1    3    3    0    0  0.56874301098E+01 -0.33339038773E+00  0.68451504035E+01  0.89058460975E+01  0.51100000000E-03 0. -1.
        -11    1    3    3    0    0  0.25087801634E+02 -0.19484975211E+02  0.18726338173E+02  0.36874622593E+02  0.51100000000E-03 0.  1.
         12    1    3    3    0    0 -0.29769515042E+02  0.20435224974E+02 -0.25538746749E+02  0.44227254392E+02  0.00000000000E+00 0. -1.
</event>
<event>
 7    1  0.2000468E-015  0.9000773E+02  0.7816164E-02  0.1186339E+00
        -11   -1    0    0    0    0  0.00000000000E+00  0.00000000000E+00  0.45593999997E+02  0.45594000000E+02  0.51100000000E-03 0.  1.
         11   -1    0    0    0    0 -0.00000000000E+00 -0.00000000000E+00 -0.45593999997E+02  0.45594000000E+02  0.51100000000E-03 0. -1.
    9900012    2    1    2    0    0  0.37330068437E+00 -0.98351806691E+00  0.53514800727E+00  0.90007726905E+02  0.89999988100E+02 0.  0.
         12    1    1    2    0    0 -0.37330068437E+00  0.98351806691E+00 -0.53514800727E+00  0.11802730949E+01  0.00000000000E+00 0. -1.
         11    1    3    3    0    0  0.32253939542E+02 -0.45659121189E+01  0.21209330191E+02  0.38871581610E+02  0.51100000000E-03 0. -1.
        -11    1    3    3    0    0 -0.18272201414E+01 -0.10298532050E+02  0.24659372430E+01  0.10746131517E+02  0.51100000000E-03 0.  1.
        -12    1    3    3    0    0 -0.30053418716E+02  0.13880926102E+02 -0.23140119427E+02  0.40390013779E+02  0.00000000000E+00 0.  1.
</event>
<event>
 7    1  0.2000468E-015  0.9000773E+02  0.7816164E-02  0.1186339E+00
        -11   -1    0    0    0    0  0.00000000000E+00  0.00000000000E+00  0.45593999997E+02  0.45594000000E+02  0.51100000000E-03 0. -1.
         11   -1    0    0    0    0 -0.00000000000E+00 -0.00000000000E+00 -0.45593999997E+02  0.45594000000E+02  0.51100000000E-03 0.  1.
    9900012    2    1    2    0    0 -0.18838145560E+00 -0.10214787772E+01 -0.56047708811E+00  0.90007728408E+02  0.89999989623E+02 0.  0.
         12    1    1    2    0    0  0.18838145560E+00  0.10214787772E+01  0.56047708811E+00  0.11802715922E+01  0.00000000000E+00 0. -1.
         11    1    3    3    0    0  0.21513877134E+01  0.28238074443E+02  0.19839223676E+02  0.34577624465E+02  0.51100000000E-03 0. -1.
        -11    1    3    3    0    0  0.16139917931E+02 -0.58170012999E+01  0.31068671120E+01  0.17435225220E+02  0.51100000000E-03 0.  1.
        -12    1    3    3    0    0 -0.18479687100E+02 -0.23442551920E+02 -0.23506567876E+02  0.37994878723E+02  0.00000000000E+00 0.  1.
</event>
<event>
 7    1  0.2000468E-015  0.9000774E+02  0.7816164E-02  0.1186339E+00
        -11   -1    0    0    0    0  0.00000000000E+00  0.00000000000E+00  0.45593999997E+02  0.45594000000E+02  0.51100000000E-03 0.  1.
         11   -1    0    0    0    0 -0.00000000000E+00 -0.00000000000E+00 -0.45593999997E+02  0.45594000000E+02  0.51100000000E-03 0. -1.
    9900012    2    1    2    0    0  0.21500988445E+00 -0.57529189909E+00  0.10078826743E+01  0.90007738374E+02  0.89999999721E+02 0.  0.
         12    1    1    2    0    0 -0.21500988445E+00  0.57529189909E+00 -0.10078826743E+01  0.11802616255E+01  0.00000000000E+00 0. -1.
         11    1    3    3    0    0 -0.43260159078E+01  0.10163585180E+02 -0.41402524028E+00  0.11053700490E+02  0.51100000000E-03 0. -1.
        -11    1    3    3    0    0  0.10291382050E+02  0.20516509093E+02  0.28925074585E+02  0.36925595863E+02  0.51100000000E-03 0.  1.
         12    1    3    3    0    0 -0.57503562580E+01 -0.31255386172E+02 -0.27503166670E+02  0.42028442022E+02  0.00000000000E+00 0. -1.
</event>
<event>
 7    1  0.2000468E-015  0.9000773E+02  0.7816164E-02  0.1186339E+00
        -11   -1    0    0    0    0  0.00000000000E+00  0.00000000000E+00  0.45593999997E+02  0.45594000000E+02  0.51100000000E-03 0.  1.
         11   -1    0    0    0    0 -0.00000000000E+00 -0.00000000000E+00 -0.45593999997E+02  0.45594000000E+02  0.51100000000E-03 0. -1.
    9900012    2    1    2    0    0 -0.93811804550E+00 -0.24693168263E+00 -0.67230717351E+00  0.90007729837E+02  0.89999991070E+02 0.  0.
         12    1    1    2    0    0  0.93811804550E+00  0.24693168263E+00  0.67230717351E+00  0.11802701634E+01  0.00000000000E+00 0. -1.
         11    1    3    3    0    0  0.27099319431E+02  0.58681204593E+01 -0.21823604845E+02  0.35285658277E+02  0.51100000000E-03 0. -1.
        -11    1    3    3    0    0 -0.22676371151E+01  0.72805833213E+01 -0.97080808431E+01  0.12344873653E+02  0.51100000000E-03 0.  1.
        -12    1    3    3    0    0 -0.25769800362E+02 -0.13395635463E+02  0.30859378514E+02  0.42377197907E+02  0.00000000000E+00 0.  1.
</event>
<event>
 7    1  0.2069751E-015  0.9000779E+02  0.7816164E-02  0.1186339E+00
        -11   -1    0    0    0    0  0.00000000000E+00  0.00000000000E+00  0.45593999997E+02  0.45594000000E+02  0.51100000000E-03 0.  1.
         11   -1    0    0    0    0 -0.00000000000E+00 -0.00000000000E+00 -0.45593999997E+02  0.45594000000E+02  0.51100000000E-03 0. -1.
    9900012    2    1    2    0    0 -0.76444700224E+00 -0.89636294363E+00  0.71059488239E-01  0.90007790189E+02  0.90000052220E+02 0.  0.
         12    1    1    2    0    0  0.76444700224E+00  0.89636294363E+00 -0.71059488239E-01  0.11802098105E+01  0.00000000000E+00 0. -1.
         11    1    3    3    0    0  0.55556974106E+01 -0.11441326476E+02 -0.35013455912E+02  0.37252004247E+02  0.51100000000E-03 0. -1.
        -11    1    3    3    0    0  0.60849848067E+01  0.26319168820E+01 -0.61077945841E+01  0.90143874730E+01  0.51100000000E-03 0.  1.
        -12    1    3    3    0    0 -0.12405129220E+02  0.79130466499E+01  0.41192309984E+02  0.43741398470E+02  0.00000000000E+00 0.  1.
</event>
<event>
 7    1  0.2000468E-015  0.9000770E+02  0.7816164E-02  0.1186339E+00
        -11   -1    0    0    0    0  0.00000000000E+00  0.00000000000E+00  0.45593999997E+02  0.45594000000E+02  0.51100000000E-03 0.  1.
         11   -1    0    0    0    0 -0.00000000000E+00 -0.00000000000E+00 -0.45593999997E+02  0.45594000000E+02  0.51100000000E-03 0. -1.
    9900012    2    1    2    0    0  0.73510125910E+00 -0.68656849156E+00  0.61753350937E+00  0.90007704363E+02  0.89999965261E+02 0.  0.
         12    1    1    2    0    0 -0.73510125910E+00  0.68656849156E+00 -0.61753350937E+00  0.11802956367E+01  0.00000000000E+00 0. -1.
         11    1    3    3    0    0  0.38297502067E+02  0.73947904786E+01  0.42487275398E+01  0.39235612354E+02  0.51100000000E-03 0. -1.
        -11    1    3    3    0    0  0.33811741189E+01 -0.25110288914E+01  0.69423416818E+01  0.81199576849E+01  0.51100000000E-03 0.  1.
        -12    1    3    3    0    0 -0.40943574927E+02 -0.55703300788E+01 -0.10573535712E+02  0.42652134325E+02  0.00000000000E+00 0.  1.
</event>
<event>
 7    1  0.2000468E-015  0.9000777E+02  0.7816164E-02  0.1186339E+00
        -11   -1    0    0    0    0  0.00000000000E+00  0.00000000000E+00  0.45593999997E+02  0.45594000000E+02  0.51100000000E-03 0.  1.
         11   -1    0    0    0    0 -0.00000000000E+00 -0.00000000000E+00 -0.45593999997E+02  0.45594000000E+02  0.51100000000E-03 0. -1.
    9900012    2    1    2    0    0  0.98556614081E+00  0.61083030332E+00  0.22021773432E+00  0.90007766918E+02  0.90000028641E+02 0.  0.
         12    1    1    2    0    0 -0.98556614081E+00 -0.61083030332E+00 -0.22021773432E+00  0.11802330820E+01  0.00000000000E+00 0. -1.
         11    1    3    3    0    0 -0.23898827715E+01  0.33826084304E+02 -0.16180938283E+02  0.37573105847E+02  0.51100000000E-03 0. -1.
        -11    1    3    3    0    0  0.79400549561E+01  0.60490958129E+01  0.56499872494E+01  0.11469890542E+02  0.51100000000E-03 0.  1.
        -12    1    3    3    0    0 -0.45646060438E+01 -0.39264349814E+02  0.10751168768E+02  0.40964770529E+02  0.00000000000E+00 0.  1.
</event>
<event>
 7    1  0.2000468E-015  0.9000763E+02  0.7816164E-02  0.1186339E+00
        -11   -1    0    0    0    0  0.00000000000E+00  0.00000000000E+00  0.45593999997E+02  0.45594000000E+02  0.51100000000E-03 0. -1.
         11   -1    0    0    0    0 -0.00000000000E+00 -0.00000000000E+00 -0.45593999997E+02  0.45594000000E+02  0.51100000000E-03 0.  1.
    9900012    2    1    2    0    0 -0.77112893901E+00  0.65340144324E+00 -0.60967939657E+00  0.90007626223E+02  0.89999886089E+02 0.  0.
         12    1    1    2    0    0  0.77112893901E+00 -0.65340144324E+00  0.60967939657E+00  0.11803737769E+01  0.00000000000E+00 0. -1.
         11    1    3    3    0    0  0.28634089124E+02  0.29919810751E+02  0.51698464044E+00  0.41417066636E+02  0.51100000000E-03 0. -1.
        -11    1    3    3    0    0 -0.43029159752E+01  0.23765177333E+01 -0.61673493987E+01  0.78866419529E+01  0.51100000000E-03 0.  1.
        -12    1    3    3    0    0 -0.25102302088E+02 -0.31642927041E+02  0.50406853617E+01  0.40703917634E+02  0.00000000000E+00 0.  1.
</event>
<event>
 7    1  0.2000468E-015  0.9000770E+02  0.7816164E-02  0.1186339E+00
        -11   -1    0    0    0    0  0.00000000000E+00  0.00000000000E+00  0.45593999997E+02  0.45594000000E+02  0.51100000000E-03 0.  1.
         11   -1    0    0    0    0 -0.00000000000E+00 -0.00000000000E+00 -0.45593999997E+02  0.45594000000E+02  0.51100000000E-03 0. -1.
    9900012    2    1    2    0    0  0.15420673784E+00  0.84148115755E+00  0.81316692885E+00  0.90007698890E+02  0.89999959715E+02 0.  0.
         12    1    1    2    0    0 -0.15420673784E+00 -0.84148115755E+00 -0.81316692885E+00  0.11803011102E+01  0.00000000000E+00 0. -1.
         11    1    3    3    0    0 -0.89575657052E+00  0.66452850493E+01 -0.47825668902E+01  0.82362090515E+01  0.51100000000E-03 0. -1.
        -11    1    3    3    0    0 -0.26559275080E+02  0.84862709011E+01  0.30948629244E+02  0.41656086457E+02  0.51100000000E-03 0.  1.
         12    1    3    3    0    0  0.27609238388E+02 -0.14290074793E+02 -0.25352895425E+02  0.40115403381E+02  0.00000000000E+00 0. -1.
</event>
<event>
 7    1  0.2000468E-015  0.9000730E+02  0.7816164E-02  0.1186340E+00
        -11   -1    0    0    0    0  0.00000000000E+00  0.00000000000E+00  0.45593999997E+02  0.45594000000E+02  0.51100000000E-03 0.  1.
         11   -1    0    0    0    0 -0.00000000000E+00 -0.00000000000E+00 -0.45593999997E+02  0.45594000000E+02  0.51100000000E-03 0. -1.
    9900012    2    1    2    0    0 -0.92899741786E+00 -0.31277397310E+00  0.65816740541E+00  0.90007301862E+02  0.89999557445E+02 0.  0.
         12    1    1    2    0    0  0.92899741786E+00  0.31277397310E+00 -0.65816740541E+00  0.11806981385E+01  0.00000000000E+00 0. -1.
         11    1    3    3    0    0  0.57813239463E+01 -0.51481829795E+01  0.79080925015E+01  0.11066409618E+02  0.51100000000E-03 0. -1.
        -11    1    3    3    0    0  0.28290083263E+02  0.53037150878E+01  0.19602434031E+02  0.34824038034E+02  0.51100000000E-03 0.  1.
         12    1    3    3    0    0 -0.35000404627E+02 -0.46830608135E+00 -0.26852359127E+02  0.44116854210E+02  0.00000000000E+00 0. -1.
</event>
<event>
 7    1  0.2000468E-015  0.9000767E+02  0.7816164E-02  0.1186339E+00
        -11   -1    0    0    0    0  0.00000000000E+00  0.00000000000E+00  0.45593999997E+02  0.45594000000E+02  0.51100000000E-03 0.  1.
         11   -1    0    0    0    0 -0.00000000000E+00 -0.00000000000E+00 -0.45593999997E+02  0.45594000000E+02  0.51100000000E-03 0. -1.
    9900012    2    1    2    0    0  0.11266316297E+01  0.32362417088E+00  0.13833839466E+00  0.90007674221E+02  0.89999934721E+02 0.  0.
         12    1    1    2    0    0 -0.11266316297E+01 -0.32362417088E+00 -0.13833839466E+00  0.11803257789E+01  0.00000000000E+00 0. -1.
         11    1    3    3    0    0  0.78817822603E+01  0.61651673551E+00  0.23053375714E+01  0.82351178537E+01  0.51100000000E-03 0. -1.
        -11    1    3    3    0    0 -0.37624192192E+02  0.16462089447E+02  0.13615980757E+02  0.43266328239E+02  0.51100000000E-03 0.  1.
         12    1    3    3    0    0  0.30869041561E+02 -0.16754982011E+02 -0.15782979933E+02  0.38506228129E+02  0.00000000000E+00 0. -1.
</event>
<event>
 7    1  0.2000468E-015  0.9000762E+02  0.7816164E-02  0.1186339E+00
        -11   -1    0    0    0    0  0.00000000000E+00  0.00000000000E+00  0.45593999997E+02  0.45594000000E+02  0.51100000000E-03 0.  1.
         11   -1    0    0    0    0 -0.00000000000E+00 -0.00000000000E+00 -0.45593999997E+02  0.45594000000E+02  0.51100000000E-03 0. -1.
    9900012    2    1    2    0    0 -0.50001036606E+00 -0.49598281041E+00  0.94725071356E+00  0.90007621574E+02  0.89999881379E+02 0.  0.
         12    1    1    2    0    0  0.50001036606E+00  0.49598281041E+00 -0.94725071356E+00  0.11803784261E+01  0.00000000000E+00 0. -1.
         11    1    3    3    0    0  0.25962183643E+01  0.47511660223E+01 -0.11849574802E+02  0.13027906648E+02  0.51100000000E-03 0. -1.
        -11    1    3    3    0    0 -0.78237185355E+01  0.34736669103E+02  0.47677388805E+01  0.35924616719E+02  0.51100000000E-03 0.  1.
         12    1    3    3    0    0  0.47274898051E+01 -0.39983817936E+02  0.80290866352E+01  0.41055098207E+02  0.00000000000E+00 0. -1.
</event>
<event>
 7    1  0.2000468E-015  0.9000773E+02  0.7816164E-02  0.1186339E+00
        -11   -1    0    0    0    0  0.00000000000E+00  0.00000000000E+00  0.45593999997E+02  0.45594000000E+02  0.51100000000E-03 0. -1.
         11   -1    0    0    0    0 -0.00000000000E+00 -0.00000000000E+00 -0.45593999997E+02  0.45594000000E+02  0.51100000000E-03 0.  1.
    9900012    2    1    2    0    0 -0.99408582583E+00 -0.21774384614E+00  0.59785009172E+00  0.90007727259E+02  0.89999988459E+02 0.  0.
         12    1    1    2    0    0  0.99408582583E+00  0.21774384614E+00 -0.59785009172E+00  0.11802727413E+01  0.00000000000E+00 0. -1.
         11    1    3    3    0    0 -0.18175031372E+02  0.18890999823E+02  0.30025899487E+02  0.39859205711E+02  0.51100000000E-03 0. -1.
        -11    1    3    3    0    0  0.90745335827E+01  0.47967168508E+01  0.13393588827E+01  0.10351305945E+02  0.51100000000E-03 0.  1.
        -12    1    3    3    0    0  0.81064119630E+01 -0.23905460520E+02 -0.30767408278E+02  0.39797215603E+02  0.00000000000E+00 0.  1.
</event>
<event>
 7    1  0.2000468E-015  0.9000774E+02  0.7816164E-02  0.1186339E+00
        -11   -1    0    0    0    0  0.00000000000E+00  0.00000000000E+00  0.45593999997E+02  0.45594000000E+02  0.51100000000E-03 0.  1.
         11   -1    0    0    0    0 -0.00000000000E+00 -0.00000000000E+00 -0.45593999997E+02  0.45594000000E+02  0.51100000000E-03 0. -1.
    9900012    2    1    2    0    0 -0.42951453795E+00  0.54754714250E+00  0.95327580564E+00  0.90007735041E+02  0.89999996344E+02 0.  0.
         12    1    1    2    0    0  0.42951453795E+00 -0.54754714250E+00 -0.95327580564E+00  0.11802649589E+01  0.00000000000E+00 0. -1.
         11    1    3    3    0    0 -0.49114324503E+01 -0.60081773609E+01  0.61607423165E+01  0.99083353832E+01  0.51100000000E-03 0. -1.
        -11    1    3    3    0    0  0.10918735118E+02 -0.26385997148E+02  0.22675546084E+02  0.36463954977E+02  0.51100000000E-03 0.  1.
         12    1    3    3    0    0 -0.64368172058E+01  0.32941721652E+02 -0.27883012595E+02  0.43635444681E+02  0.00000000000E+00 0. -1.
</event>
<event>
 7    1  0.2000468E-015  0.9000829E+02  0.7816164E-02  0.1186338E+00
        -11   -1    0    0    0    0  0.00000000000E+00  0.00000000000E+00  0.45593999997E+02  0.45594000000E+02  0.51100000000E-03 0. -1.
         11   -1    0    0    0    0 -0.00000000000E+00 -0.00000000000E+00 -0.45593999997E+02  0.45594000000E+02  0.51100000000E-03 0.  1.
    9900012    2    1    2    0    0 -0.51851785554E+00 -0.96242945354E+00  0.44336683306E+00  0.90008294372E+02  0.90000563056E+02 0.  0.
         12    1    1    2    0    0  0.51851785554E+00  0.96242945354E+00 -0.44336683306E+00  0.11797056278E+01  0.00000000000E+00 0. -1.
         11    1    3    3    0    0  0.15043933764E+02  0.19879324950E+02  0.26259847232E+02  0.36208936472E+02  0.51100000000E-03 0. -1.
        -11    1    3    3    0    0  0.17919878228E+01  0.73392759723E+01  0.46034752376E+01  0.88469303534E+01  0.51100000000E-03 0.  1.
        -12    1    3    3    0    0 -0.17354439442E+02 -0.28181030376E+02 -0.30419955636E+02  0.44952427546E+02  0.00000000000E+00 0.  1.
</event>
<event>
 7    1  0.2000468E-015  0.9000767E+02  0.7816164E-02  0.1186339E+00
        -11   -1    0    0    0    0  0.00000000000E+00  0.00000000000E+00  0.45593999997E+02  0.45594000000E+02  0.51100000000E-03 0. -1.
         11   -1    0    0    0    0 -0.00000000000E+00 -0.00000000000E+00 -0.45593999997E+02  0.45594000000E+02  0.51100000000E-03 0.  1.
    9900012    2    1    2    0    0  0.89009499808E+00  0.88082489408E-01 -0.77015762111E+00  0.90007673608E+02  0.89999934099E+02 0.  0.
         12    1    1    2    0    0 -0.89009499808E+00 -0.88082489408E-01  0.77015762111E+00  0.11803263921E+01  0.00000000000E+00 0. -1.
         11    1    3    3    0    0 -0.43013118723E+01  0.13650316609E+01 -0.73136357371E+01  0.85938270412E+01  0.51100000000E-03 0. -1.
        -11    1    3    3    0    0  0.66728134388E+00  0.39465016901E+02  0.84971938265E+01  0.40374931908E+02  0.51100000000E-03 0.  1.
         12    1    3    3    0    0  0.45241255265E+01 -0.40741966073E+02 -0.19537157106E+01  0.41038914658E+02  0.00000000000E+00 0. -1.
</event>
<event>
 7    1  0.2000468E-015  0.9000780E+02  0.7816164E-02  0.1186339E+00
        -11   -1    0    0    0    0  0.00000000000E+00  0.00000000000E+00  0.45593999997E+02  0.45594000000E+02  0.51100000000E-03 0. -1.
         11   -1    0    0    0    0 -0.00000000000E+00 -0.00000000000E+00 -0.45593999997E+02  0.45594000000E+02  0.51100000000E-03 0.  1.
    9900012    2    1    2    0    0 -0.74689922750E+00 -0.31855894869E+00 -0.85646049388E+00  0.90007803899E+02  0.90000066110E+02 0.  0.
         12    1    1    2    0    0  0.74689922750E+00  0.31855894869E+00  0.85646049388E+00  0.11801961013E+01  0.00000000000E+00 0. -1.
         11    1    3    3    0    0 -0.33440425633E+01  0.54706802222E+01  0.33311432187E+02  0.33922890169E+02  0.51100000000E-03 0. -1.
        -11    1    3    3    0    0  0.94666677044E+01  0.12124190786E+02  0.16316537041E+01  0.15468551765E+02  0.51100000000E-03 0.  1.
        -12    1    3    3    0    0 -0.68695243687E+01 -0.17913429957E+02 -0.35799546385E+02  0.40616361965E+02  0.00000000000E+00 0.  1.
</event>
<event>
 7    1  0.2000468E-015  0.9000770E+02  0.7816164E-02  0.1186339E+00
        -11   -1    0    0    0    0  0.00000000000E+00  0.00000000000E+00  0.45593999997E+02  0.45594000000E+02  0.51100000000E-03 0. -1.
         11   -1    0    0    0    0 -0.00000000000E+00 -0.00000000000E+00 -0.45593999997E+02  0.45594000000E+02  0.51100000000E-03 0.  1.
    9900012    2    1    2    0    0 -0.18463710819E+00 -0.10300127635E+01  0.54596694558E+00  0.90007704672E+02  0.89999965574E+02 0.  0.
         12    1    1    2    0    0  0.18463710819E+00  0.10300127635E+01 -0.54596694558E+00  0.11802953276E+01  0.00000000000E+00 0. -1.
         11    1    3    3    0    0 -0.32069934094E+01  0.35571441603E+01  0.41511468775E+02  0.41786841486E+02  0.51100000000E-03 0. -1.
        -11    1    3    3    0    0  0.74999272298E+01  0.64104604630E+01 -0.66218466333E+01  0.11882414102E+02  0.51100000000E-03 0.  1.
        -12    1    3    3    0    0 -0.44775709286E+01 -0.10997617387E+02 -0.34343655196E+02  0.36338449084E+02  0.00000000000E+00 0.  1.
</event>
<event>
 7    1  0.2000468E-015  0.9000776E+02  0.7816164E-02  0.1186339E+00
        -11   -1    0    0    0    0  0.00000000000E+00  0.00000000000E+00  0.45593999997E+02  0.45594000000E+02  0.51100000000E-03 0.  1.
         11   -1    0    0    0    0 -0.00000000000E+00 -0.00000000000E+00 -0.45593999997E+02  0.45594000000E+02  0.51100000000E-03 0. -1.
    9900012    2    1    2    0    0 -0.10052856878E+01 -0.56140365353E+00  0.25921925768E+00  0.90007759347E+02  0.90000020970E+02 0.  0.
         12    1    1    2    0    0  0.10052856878E+01  0.56140365353E+00 -0.25921925768E+00  0.11802406534E+01  0.00000000000E+00 0. -1.
         11    1    3    3    0    0  0.42594360430E+01  0.82680692868E+01 -0.68807354865E+01  0.11569282010E+02  0.51100000000E-03 0. -1.
        -11    1    3    3    0    0  0.24635080890E+02 -0.31908364449E+02  0.25931663317E+01  0.40394992810E+02  0.51100000000E-03 0.  1.
         12    1    3    3    0    0 -0.29899802621E+02  0.23078891508E+02  0.45467884124E+01  0.38043484526E+02  0.00000000000E+00 0. -1.
</event>
<event>
 7    1  0.2000468E-015  0.9000770E+02  0.7816164E-02  0.1186339E+00
        -11   -1    0    0    0    0  0.00000000000E+00  0.00000000000E+00  0.45593999997E+02  0.45594000000E+02  0.51100000000E-03 0.  1.
         11   -1    0    0    0    0 -0.00000000000E+00 -0.00000000000E+00 -0.45593999997E+02  0.45594000000E+02  0.51100000000E-03 0. -1.
    9900012    2    1    2    0    0  0.39125792840E+00 -0.57262306881E+00  0.95505716771E+00  0.90007697437E+02  0.89999958244E+02 0.  0.
         12    1    1    2    0    0 -0.39125792840E+00  0.57262306881E+00 -0.95505716771E+00  0.11803025625E+01  0.00000000000E+00 0. -1.
         11    1    3    3    0    0 -0.23915048158E+01 -0.57174232123E+01  0.77914604700E+01  0.99556556786E+01  0.51100000000E-03 0. -1.
        -11    1    3    3    0    0 -0.18563937709E+02  0.25009915669E+02  0.22704318321E+02  0.38543504455E+02  0.51100000000E-03 0.  1.
         12    1    3    3    0    0  0.21346700454E+02 -0.19865115525E+02 -0.29540721623E+02  0.41508537304E+02  0.00000000000E+00 0. -1.
</event>
<event>
 7    1  0.2000468E-015  0.9000773E+02  0.7816164E-02  0.1186339E+00
        -11   -1    0    0    0    0  0.00000000000E+00  0.00000000000E+00  0.45593999997E+02  0.45594000000E+02  0.51100000000E-03 0. -1.
         11   -1    0    0    0    0 -0.00000000000E+00 -0.00000000000E+00 -0.45593999997E+02  0.45594000000E+02  0.51100000000E-03 0.  1.
    9900012    2    1    2    0    0  0.36193637367E+00  0.43050792529E+00 -0.10376463692E+01  0.90007726727E+02  0.89999987919E+02 0.  0.
         12    1    1    2    0    0 -0.36193637367E+00 -0.43050792529E+00  0.10376463692E+01  0.11802732734E+01  0.00000000000E+00 0. -1.
         11    1    3    3    0    0 -0.10852789810E+02 -0.12028382769E+02 -0.13832540087E+00  0.16201363303E+02  0.51100000000E-03 0. -1.
        -11    1    3    3    0    0 -0.20990288003E+02  0.95453680892E+01  0.23783155387E+02  0.33126193908E+02  0.51100000000E-03 0.  1.
         12    1    3    3    0    0  0.32205014187E+02  0.29135226054E+01 -0.24682476355E+02  0.40680169515E+02  0.00000000000E+00 0. -1.
</event>
<event>
 7    1  0.2000468E-015  0.9000781E+02  0.7816164E-02  0.1186339E+00
        -11   -1    0    0    0    0  0.00000000000E+00  0.00000000000E+00  0.45593999997E+02  0.45594000000E+02  0.51100000000E-03 0. -1.
         11   -1    0    0    0    0 -0.00000000000E+00 -0.00000000000E+00 -0.45593999997E+02  0.45594000000E+02  0.51100000000E-03 0.  1.
    9900012    2    1    2    0    0  0.25176353788E+00 -0.21515947089E+00 -0.11327741193E+01  0.90007806930E+02  0.90000069181E+02 0.  0.
         12    1    1    2    0    0 -0.25176353788E+00  0.21515947089E+00  0.11327741193E+01  0.11801930700E+01  0.00000000000E+00 0. -1.
         11    1    3    3    0    0 -0.35683369878E+01 -0.85532901992E+01 -0.27810943177E+01  0.96760677940E+01  0.51100000000E-03 0. -1.
        -11    1    3    3    0    0 -0.74063284463E+01 -0.28842597587E+02 -0.19996154647E+02  0.35869141857E+02  0.51100000000E-03 0.  1.
         12    1    3    3    0    0  0.11226428972E+02  0.37180728315E+02  0.21644474845E+02  0.44462597279E+02  0.00000000000E+00 0. -1.
</event>
<event>
 7    1  0.2000468E-015  0.9000778E+02  0.7816164E-02  0.1186339E+00
        -11   -1    0    0    0    0  0.00000000000E+00  0.00000000000E+00  0.45593999997E+02  0.45594000000E+02  0.51100000000E-03 0. -1.
         11   -1    0    0    0    0 -0.00000000000E+00 -0.00000000000E+00 -0.45593999997E+02  0.45594000000E+02  0.51100000000E-03 0.  1.
    9900012    2    1    2    0    0  0.92413711119E+00  0.51759812245E+00 -0.52055626581E+00  0.90007781358E+02  0.90000043272E+02 0.  0.
         12    1    1    2    0    0 -0.92413711119E+00 -0.51759812245E+00  0.52055626581E+00  0.11802186418E+01  0.00000000000E+00 0. -1.
         11    1    3    3    0    0  0.65364860588E+00 -0.13161119606E+01  0.78579346504E+01  0.79941568926E+01  0.51100000000E-03 0. -1.
        -11    1    3    3    0    0  0.39498360714E+02  0.11515146461E+02 -0.54612451313E+01  0.41503545580E+02  0.51100000000E-03 0.  1.
         12    1    3    3    0    0 -0.39227872208E+02 -0.96814363775E+01 -0.29172457849E+01  0.40510078885E+02  0.00000000000E+00 0. -1.
</event>
<event>
 7    1  0.2000468E-015  0.9000774E+02  0.7816164E-02  0.1186339E+00
        -11   -1    0    0    0    0  0.00000000000E+00  0.00000000000E+00  0.45593999997E+02  0.45594000000E+02  0.51100000000E-03 0.  1.
         11   -1    0    0    0    0 -0.00000000000E+00 -0.00000000000E+00 -0.45593999997E+02  0.45594000000E+02  0.51100000000E-03 0. -1.
    9900012    2    1    2    0    0  0.95484940297E+00  0.49507114225E+00 -0.48599136250E+00  0.90007737138E+02  0.89999998469E+02 0.  0.
         12    1    1    2    0    0 -0.95484940297E+00 -0.49507114225E+00  0.48599136250E+00  0.11802628617E+01  0.00000000000E+00 0. -1.
         11    1    3    3    0    0  0.62464432056E+01 -0.58292737967E+01 -0.13955300530E+00  0.85450547699E+01  0.51100000000E-03 0. -1.
        -11    1    3    3    0    0 -0.96648256197E+01 -0.20472243686E+02 -0.32355557251E+02  0.39489285903E+02  0.51100000000E-03 0.  1.
         12    1    3    3    0    0  0.43732318171E+01  0.26796588625E+02  0.32009118894E+02  0.41973396466E+02  0.00000000000E+00 0. -1.
</event>
<event>
 7    1  0.2000468E-015  0.9000791E+02  0.7816164E-02  0.1186339E+00
        -11   -1    0    0    0    0  0.00000000000E+00  0.00000000000E+00  0.45593999997E+02  0.45594000000E+02  0.51100000000E-03 0. -1.
         11   -1    0    0    0    0 -0.00000000000E+00 -0.00000000000E+00 -0.45593999997E+02  0.45594000000E+02  0.51100000000E-03 0.  1.
    9900012    2    1    2    0    0  0.20505809793E+00 -0.65964621041E+00 -0.95678354932E+00  0.90007908179E+02  0.90000171766E+02 0.  0.
         12    1    1    2    0    0 -0.20505809793E+00  0.65964621041E+00  0.95678354932E+00  0.11800918213E+01  0.00000000000E+00 0. -1.
         11    1    3    3    0    0 -0.14549469447E+02 -0.17982909022E+02 -0.23126078289E+02  0.32709135962E+02  0.51100000000E-03 0. -1.
        -11    1    3    3    0    0 -0.11893823830E+02  0.80567641451E+01 -0.76265948366E+01  0.16264668544E+02  0.51100000000E-03 0.  1.
        -12    1    3    3    0    0  0.26648351375E+02  0.92664986665E+01  0.29795889577E+02  0.41034103672E+02  0.00000000000E+00 0.  1.
</event>
<event>
 7    1  0.2000468E-015  0.9000773E+02  0.7816164E-02  0.1186339E+00
        -11   -1    0    0    0    0  0.00000000000E+00  0.00000000000E+00  0.45593999997E+02  0.45594000000E+02  0.51100000000E-03 0.  1.
         11   -1    0    0    0    0 -0.00000000000E+00 -0.00000000000E+00 -0.45593999997E+02  0.45594000000E+02  0.51100000000E-03 0. -1.
    9900012    2    1    2    0    0  0.65941929657E+00 -0.95926515572E+00 -0.19494992479E+00  0.90007733538E+02  0.89999994821E+02 0.  0.
         12    1    1    2    0    0 -0.65941929657E+00  0.95926515572E+00  0.19494992479E+00  0.11802664618E+01  0.00000000000E+00 0. -1.
         11    1    3    3    0    0 -0.41514256917E+01 -0.67454968140E+01  0.21718288416E+01  0.82129716498E+01  0.51100000000E-03 0. -1.
        -11    1    3    3    0    0 -0.34872061685E+02  0.95775472581E+01  0.13896233359E+02  0.38741391295E+02  0.51100000000E-03 0.  1.
         12    1    3    3    0    0  0.39682906674E+02 -0.37913155999E+01 -0.16263012126E+02  0.43053370593E+02  0.00000000000E+00 0. -1.
</event>
<event>
 7    1  0.2000468E-015  0.9000783E+02  0.7816164E-02  0.1186339E+00
        -11   -1    0    0    0    0  0.00000000000E+00  0.00000000000E+00  0.45593999997E+02  0.45594000000E+02  0.51100000000E-03 0.  1.
         11   -1    0    0    0    0 -0.00000000000E+00 -0.00000000000E+00 -0.45593999997E+02  0.45594000000E+02  0.51100000000E-03 0. -1.
    9900012    2    1    2    0    0  0.11140219208E+01 -0.27614792112E+00  0.27475304254E+00  0.90007834016E+02  0.90000096625E+02 0.  0.
         12    1    1    2    0    0 -0.11140219208E+01  0.27614792112E+00 -0.27475304254E+00  0.11801659835E+01  0.00000000000E+00 0. -1.
         11    1    3    3    0    0 -0.22285393460E+01 -0.72871403781E+01 -0.62775240066E+01  0.98729990592E+01  0.51100000000E-03 0. -1.
        -11    1    3    3    0    0 -0.21779288223E+02 -0.26545100736E+02  0.14839053701E+02  0.37405578242E+02  0.51100000000E-03 0.  1.
         12    1    3    3    0    0  0.25121849490E+02  0.33556093193E+02 -0.82867766520E+01  0.42729256716E+02  0.00000000000E+00 0. -1.
</event>
<event>
 7    1  0.2000468E-015  0.9000783E+02  0.7816164E-02  0.1186339E+00
        -11   -1    0    0    0    0  0.00000000000E+00  0.00000000000E+00  0.45593999997E+02  0.45594000000E+02  0.51100000000E-03 0. -1.
         11   -1    0    0    0    0 -0.00000000000E+00 -0.00000000000E+00 -0.45593999997E+02  0.45594000000E+02  0.51100000000E-03 0.  1.
    9900012    2    1    2    0    0 -0.37445189839E+00 -0.37297870732E+00 -0.10552139849E+01  0.90007828871E+02  0.90000091412E+02 0.  0.
         12    1    1    2    0    0  0.37445189839E+00  0.37297870732E+00  0.10552139849E+01  0.11801711293E+01  0.00000000000E+00 0. -1.
         11    1    3    3    0    0 -0.16398358812E+02  0.10156938628E+02 -0.16290207758E+02  0.25247582916E+02  0.51100000000E-03 0. -1.
        -11    1    3    3    0    0 -0.29195109725E+01  0.10845450393E+02 -0.17826812043E+02  0.21069944623E+02  0.51100000000E-03 0.  1.
         12    1    3    3    0    0  0.18943417886E+02 -0.21375367728E+02  0.33061805816E+02  0.43690301332E+02  0.00000000000E+00 0. -1.
</event>
<event>
 7    1  0.2000468E-015  0.9000778E+02  0.7816164E-02  0.1186339E+00
        -11   -1    0    0    0    0  0.00000000000E+00  0.00000000000E+00  0.45593999997E+02  0.45594000000E+02  0.51100000000E-03 0.  1.
         11   -1    0    0    0    0 -0.00000000000E+00 -0.00000000000E+00 -0.45593999997E+02  0.45594000000E+02  0.51100000000E-03 0. -1.
    9900012    2    1    2    0    0  0.72495824364E+00 -0.92998935208E+00 -0.49734275315E-01  0.90007780466E+02  0.90000042368E+02 0.  0.
         12    1    1    2    0    0 -0.72495824364E+00  0.92998935208E+00  0.49734275315E-01  0.11802195339E+01  0.00000000000E+00 0. -1.
         11    1    3    3    0    0 -0.80397915443E+01 -0.12043860616E+02 -0.38940272842E+02  0.41545609586E+02  0.51100000000E-03 0. -1.
        -11    1    3    3    0    0  0.87122545721E+01  0.16963453483E+01  0.45266718443E+00  0.88873997947E+01  0.51100000000E-03 0.  1.
        -12    1    3    3    0    0  0.52495215803E-01  0.94175259156E+01  0.38437871382E+02  0.39574771086E+02  0.00000000000E+00 0.  1.
</event>
<event>
 7    1  0.2000468E-015  0.9000769E+02  0.7816164E-02  0.1186339E+00
        -11   -1    0    0    0    0  0.00000000000E+00  0.00000000000E+00  0.45593999997E+02  0.45594000000E+02  0.51100000000E-03 0.  1.
         11   -1    0    0    0    0 -0.00000000000E+00 -0.00000000000E+00 -0.45593999997E+02  0.45594000000E+02  0.51100000000E-03 0. -1.
    9900012    2    1    2    0    0 -0.83565915230E-01  0.48237384455E+00  0.10739984668E+01  0.90007686273E+02  0.89999946932E+02 0.  0.
         12    1    1    2    0    0  0.83565915230E-01 -0.48237384455E+00 -0.10739984668E+01  0.11803137273E+01  0.00000000000E+00 0. -1.
         11    1    3    3    0    0  0.18100514631E+02 -0.68860783760E+01 -0.17379862849E+01  0.19443952837E+02  0.51100000000E-03 0. -1.
        -11    1    3    3    0    0 -0.29519566477E+02 -0.13793199103E+02  0.22433195070E+02  0.39558885068E+02  0.51100000000E-03 0.  1.
         12    1    3    3    0    0  0.11335485931E+02  0.21161651324E+02 -0.19621210318E+02  0.31004848369E+02  0.00000000000E+00 0. -1.
</event>
<event>
 7    1  0.2000468E-015  0.9000773E+02  0.7816164E-02  0.1186339E+00
        -11   -1    0    0    0    0  0.00000000000E+00  0.00000000000E+00  0.45593999997E+02  0.45594000000E+02  0.51100000000E-03 0.  1.
         11   -1    0    0    0    0 -0.00000000000E+00 -0.00000000000E+00 -0.45593999997E+02  0.45594000000E+02  0.51100000000E-03 0. -1.
    9900012    2    1    2    0    0  0.40274948183E+00 -0.95942289156E+00  0.55707189142E+00  0.90007733707E+02  0.89999994992E+02 0.  0.
         12    1    1    2    0    0 -0.40274948183E+00  0.95942289156E+00 -0.55707189142E+00  0.11802662929E+01  0.00000000000E+00 0. -1.
         11    1    3    3    0    0 -0.13630672231E+01  0.11362545858E+01  0.10373710411E+02  0.10524395217E+02  0.51100000000E-03 0. -1.
        -11    1    3    3    0    0 -0.30846401668E+02 -0.13897111421E+02 -0.24550649117E+02  0.41801490093E+02  0.51100000000E-03 0.  1.
         12    1    3    3    0    0  0.32612218373E+02  0.11801433944E+02  0.14734010597E+02  0.37681848397E+02  0.00000000000E+00 0. -1.
</event>
<event>
 7    1  0.2077318E-015  0.9000771E+02  0.7816164E-02  0.1186339E+00
        -11   -1    0    0    0    0  0.00000000000E+00  0.00000000000E+00  0.45593999997E+02  0.45594000000E+02  0.51100000000E-03 0.  1.
         11   -1    0    0    0    0 -0.00000000000E+00 -0.00000000000E+00 -0.45593999997E+02  0.45594000000E+02  0.51100000000E-03 0. -1.
    9900012    2    1    2    0    0  0.78837634315E+00  0.88021389739E-01  0.87395703656E+00  0.90007709389E+02  0.89999970353E+02 0.  0.
         12    1    1    2    0    0 -0.78837634315E+00 -0.88021389739E-01 -0.87395703656E+00  0.11802906105E+01  0.00000000000E+00 0. -1.
         11    1    3    3    0    0 -0.76917574173E+01  0.55501725799E+00 -0.35372310788E+02  0.36203198023E+02  0.51100000000E-03 0. -1.
        -11    1    3    3    0    0  0.13725552135E+01 -0.57825119759E+01 -0.72712880405E+01  0.93911118934E+01  0.51100000000E-03 0.  1.
        -12    1    3    3    0    0  0.71075785469E+01  0.53155161076E+01  0.43517555865E+02  0.44413399473E+02  0.00000000000E+00 0.  1.
</event>
<event>
 7    1  0.2000468E-015  0.9000779E+02  0.7816164E-02  0.1186339E+00
        -11   -1    0    0    0    0  0.00000000000E+00  0.00000000000E+00  0.45593999997E+02  0.45594000000E+02  0.51100000000E-03 0.  1.
         11   -1    0    0    0    0 -0.00000000000E+00 -0.00000000000E+00 -0.45593999997E+02  0.45594000000E+02  0.51100000000E-03 0. -1.
    9900012    2    1    2    0    0 -0.44505489077E+00 -0.37161479291E+00  0.10279657446E+01  0.90007794517E+02  0.90000056605E+02 0.  0.
         12    1    1    2    0    0  0.44505489077E+00  0.37161479291E+00 -0.10279657446E+01  0.11802054830E+01  0.00000000000E+00 0. -1.
         11    1    3    3    0    0  0.33805566526E+02 -0.45954152554E+01 -0.16906622863E+02  0.38075819970E+02  0.51100000000E-03 0. -1.
        -11    1    3    3    0    0  0.10006665724E+01 -0.96573971234E+01 -0.65486261415E+00  0.97311611894E+01  0.51100000000E-03 0.  1.
        -12    1    3    3    0    0 -0.35251287989E+02  0.13881197586E+02  0.18589451222E+02  0.42200813357E+02  0.00000000000E+00 0.  1.
</event>
<event>
 7    1  0.2000468E-015  0.9000775E+02  0.7816164E-02  0.1186339E+00
        -11   -1    0    0    0    0  0.00000000000E+00  0.00000000000E+00  0.45593999997E+02  0.45594000000E+02  0.51100000000E-03 0. -1.
         11   -1    0    0    0    0 -0.00000000000E+00 -0.00000000000E+00 -0.45593999997E+02  0.45594000000E+02  0.51100000000E-03 0.  1.
    9900012    2    1    2    0    0 -0.29413623018E+00  0.51802734159E+00  0.10188845318E+01  0.90007748274E+02  0.90000009751E+02 0.  0.
         12    1    1    2    0    0  0.29413623018E+00 -0.51802734159E+00 -0.10188845318E+01  0.11802517264E+01  0.00000000000E+00 0. -1.
         11    1    3    3    0    0  0.13568813048E+02  0.36007259548E+02  0.12835826959E+01  0.38500428731E+02  0.51100000000E-03 0. -1.
        -11    1    3    3    0    0 -0.76843200109E+01  0.42881321254E+01  0.61625354307E+01  0.10743076578E+02  0.51100000000E-03 0.  1.
        -12    1    3    3    0    0 -0.61786292674E+01 -0.39777364332E+02 -0.64272335948E+01  0.40764242965E+02  0.00000000000E+00 0.  1.
</event>
<event>
 7    1  0.2000468E-015  0.9000795E+02  0.7816164E-02  0.1186339E+00
        -11   -1    0    0    0    0  0.00000000000E+00  0.00000000000E+00  0.45593999997E+02  0.45594000000E+02  0.51100000000E-03 0. -1.
         11   -1    0    0    0    0 -0.00000000000E+00 -0.00000000000E+00 -0.45593999997E+02  0.45594000000E+02  0.51100000000E-03 0.  1.
    9900012    2    1    2    0    0  0.89769418183E+00 -0.71527553511E+00 -0.27393294925E+00  0.90007952037E+02  0.90000216203E+02 0.  0.
         12    1    1    2    0    0 -0.89769418183E+00  0.71527553511E+00  0.27393294925E+00  0.11800479634E+01  0.00000000000E+00 0. -1.
         11    1    3    3    0    0  0.59585739584E+01 -0.31716051921E+01 -0.30091996250E+01  0.73904645156E+01  0.51100000000E-03 0. -1.
        -11    1    3    3    0    0  0.31021878975E+02 -0.11674967228E+02 -0.18981074927E+02  0.38196112898E+02  0.51100000000E-03 0.  1.
         12    1    3    3    0    0 -0.36082758751E+02  0.14131296885E+02  0.21716341603E+02  0.44421374623E+02  0.00000000000E+00 0. -1.
</event>
<event>
 7    1  0.2000468E-015  0.9000846E+02  0.7816164E-02  0.1186338E+00
        -11   -1    0    0    0    0  0.00000000000E+00  0.00000000000E+00  0.45593999997E+02  0.45594000000E+02  0.51100000000E-03 0.  1.
         11   -1    0    0    0    0 -0.00000000000E+00 -0.00000000000E+00 -0.45593999997E+02  0.45594000000E+02  0.51100000000E-03 0. -1.
    9900012    2    1    2    0    0  0.20488554031E+00  0.20647639190E+00  0.11431126058E+01  0.90008458981E+02  0.90000729837E+02 0.  0.
         12    1    1    2    0    0 -0.20488554031E+00 -0.20647639190E+00 -0.11431126058E+01  0.11795410187E+01  0.00000000000E+00 0. -1.
         11    1    3    3    0    0  0.31310412010E+01 -0.91988354857E+01  0.61342627568E+01  0.11491352102E+02  0.51100000000E-03 0. -1.
        -11    1    3    3    0    0  0.28405827655E+02  0.12842406248E+02  0.21063266055E+02  0.37622860340E+02  0.51100000000E-03 0.  1.
         12    1    3    3    0    0 -0.31331983315E+02 -0.34370943705E+01 -0.26054416206E+02  0.40894246540E+02  0.00000000000E+00 0. -1.
</event>
<event>
 7    1  0.2000468E-015  0.9000771E+02  0.7816164E-02  0.1186339E+00
        -11   -1    0    0    0    0  0.00000000000E+00  0.00000000000E+00  0.45593999997E+02  0.45594000000E+02  0.51100000000E-03 0. -1.
         11   -1    0    0    0    0 -0.00000000000E+00 -0.00000000000E+00 -0.45593999997E+02  0.45594000000E+02  0.51100000000E-03 0.  1.
    9900012    2    1    2    0    0  0.62510877902E+00  0.99611054396E+00  0.10042531519E+00  0.90007710864E+02  0.89999971847E+02 0.  0.
         12    1    1    2    0    0 -0.62510877902E+00 -0.99611054396E+00 -0.10042531519E+00  0.11802891363E+01  0.00000000000E+00 0. -1.
         11    1    3    3    0    0 -0.17585281482E+01 -0.25509320782E+02  0.25643639823E+02  0.36213452358E+02  0.51100000000E-03 0. -1.
        -11    1    3    3    0    0  0.17112399572E+02  0.40386546195E+00 -0.66373629657E+01  0.18358973660E+02  0.51100000000E-03 0.  1.
        -12    1    3    3    0    0 -0.14728762645E+02  0.26101565864E+02 -0.18905851542E+02  0.35435284847E+02  0.00000000000E+00 0.  1.
</event>
<event>
 7    1  0.2533338E-015  0.9000771E+02  0.7816164E-02  0.1186339E+00
        -11   -1    0    0    0    0  0.00000000000E+00  0.00000000000E+00  0.45593999997E+02  0.45594000000E+02  0.51100000000E-03 0. -1.
         11   -1    0    0    0    0 -0.00000000000E+00 -0.00000000000E+00 -0.45593999997E+02  0.45594000000E+02  0.51100000000E-03 0.  1.
    9900012    2    1    2    0    0  0.29408903670E-01  0.10143555653E+01 -0.60273891471E+00  0.90007713469E+02  0.89999974487E+02 0.  0.
         12    1    1    2    0    0 -0.29408903670E-01 -0.10143555653E+01  0.60273891471E+00  0.11802865312E+01  0.00000000000E+00 0. -1.
         11    1    3    3    0    0  0.27624575281E+02  0.10405621008E+02  0.26052444834E+02  0.39371614014E+02  0.51100000000E-03 0. -1.
        -11    1    3    3    0    0  0.66745759876E+01 -0.51335927217E+01 -0.38994114779E+01  0.92795015481E+01  0.51100000000E-03 0.  1.
        -12    1    3    3    0    0 -0.34269742365E+02 -0.42576727213E+01 -0.22755772271E+02  0.41356597906E+02  0.00000000000E+00 0.  1.
</event>
<event>
 7    1  0.2000468E-015  0.9000769E+02  0.7816164E-02  0.1186339E+00
        -11   -1    0    0    0    0  0.00000000000E+00  0.00000000000E+00  0.45593999997E+02  0.45594000000E+02  0.51100000000E-03 0. -1.
         11   -1    0    0    0    0 -0.00000000000E+00 -0.00000000000E+00 -0.45593999997E+02  0.45594000000E+02  0.51100000000E-03 0.  1.
    9900012    2    1    2    0    0  0.89998016010E+00 -0.74491101043E+00 -0.16812479008E+00  0.90007693833E+02  0.89999954592E+02 0.  0.
         12    1    1    2    0    0 -0.89998016010E+00  0.74491101043E+00  0.16812479008E+00  0.11803061667E+01  0.00000000000E+00 0. -1.
         11    1    3    3    0    0  0.97396925203E+01  0.69916313781E+00  0.61090100901E+00  0.97838458588E+01  0.51100000000E-03 0. -1.
        -11    1    3    3    0    0  0.29766638590E+02  0.15295327967E+02  0.13064397796E+02  0.35926011755E+02  0.51100000000E-03 0.  1.
         12    1    3    3    0    0 -0.38606350951E+02 -0.16739402115E+02 -0.13843423596E+02  0.44297836220E+02  0.00000000000E+00 0. -1.
</event>
<event>
 7    1  0.2000468E-015  0.9000761E+02  0.7816164E-02  0.1186339E+00
        -11   -1    0    0    0    0  0.00000000000E+00  0.00000000000E+00  0.45593999997E+02  0.45594000000E+02  0.51100000000E-03 0.  1.
         11   -1    0    0    0    0 -0.00000000000E+00 -0.00000000000E+00 -0.45593999997E+02  0.45594000000E+02  0.51100000000E-03 0. -1.
    9900012    2    1    2    0    0 -0.10181398483E+01  0.42630741480E+00  0.41830849095E+00  0.90007606525E+02  0.89999866131E+02 0.  0.
         12    1    1    2    0    0  0.10181398483E+01 -0.42630741480E+00 -0.41830849095E+00  0.11803934752E+01  0.00000000000E+00 0. -1.
         11    1    3    3    0    0  0.68984485843E+01 -0.39106324638E+01 -0.72723965605E+01  0.10759618540E+02  0.51100000000E-03 0. -1.
        -11    1    3    3    0    0  0.19169308532E+02  0.18979384024E+02  0.30657271525E+02  0.40835618095E+02  0.51100000000E-03 0.  1.
         12    1    3    3    0    0 -0.27085896965E+02 -0.14642444146E+02 -0.22966566474E+02  0.38412369890E+02  0.00000000000E+00 0. -1.
</event>
<event>
 7    1  0.2000468E-015  0.9000775E+02  0.7816164E-02  0.1186339E+00
        -11   -1    0    0    0    0  0.00000000000E+00  0.00000000000E+00  0.45593999997E+02  0.45594000000E+02  0.51100000000E-03 0. -1.
         11   -1    0    0    0    0 -0.00000000000E+00 -0.00000000000E+00 -0.45593999997E+02  0.45594000000E+02  0.51100000000E-03 0.  1.
    9900012    2    1    2    0    0  0.31012389907E+00 -0.11350170542E+01 -0.92466770641E-01  0.90007749751E+02  0.90000011248E+02 0.  0.
         12    1    1    2    0    0 -0.31012389907E+00  0.11350170542E+01  0.92466770641E-01  0.11802502488E+01  0.00000000000E+00 0. -1.
         11    1    3    3    0    0 -0.70968110527E+01  0.70434579175E+00  0.46906870893E+01  0.85360046710E+01  0.51100000000E-03 0. -1.
        -11    1    3    3    0    0  0.11331141477E+01  0.61393297187E+01 -0.42222197474E+02  0.42681252054E+02  0.51100000000E-03 0.  1.
         12    1    3    3    0    0  0.62738208040E+01 -0.79786925646E+01  0.37439043614E+02  0.38790493027E+02  0.00000000000E+00 0. -1.
</event>
<event>
 7    1  0.2000468E-015  0.9000790E+02  0.7816164E-02  0.1186339E+00
        -11   -1    0    0    0    0  0.00000000000E+00  0.00000000000E+00  0.45593999997E+02  0.45594000000E+02  0.51100000000E-03 0.  1.
         11   -1    0    0    0    0 -0.00000000000E+00 -0.00000000000E+00 -0.45593999997E+02  0.45594000000E+02  0.51100000000E-03 0. -1.
    9900012    2    1    2    0    0  0.28531141271E-01  0.62100385676E+00  0.10030845118E+01  0.90007899007E+02  0.90000162474E+02 0.  0.
         12    1    1    2    0    0 -0.28531141271E-01 -0.62100385676E+00 -0.10030845118E+01  0.11801009931E+01  0.00000000000E+00 0. -1.
         11    1    3    3    0    0 -0.21090386940E+01  0.33502056212E+01 -0.45594208908E+01  0.60382316151E+01  0.51100000000E-03 0. -1.
        -11    1    3    3    0    0 -0.30773004190E+02 -0.56583920180E+01 -0.24157194665E+02  0.39529295990E+02  0.51100000000E-03 0.  1.
        -12    1    3    3    0    0  0.32910574025E+02  0.29291902536E+01  0.29719700068E+02  0.44440371402E+02  0.00000000000E+00 0.  1.
</event>
<event>
 8    1  0.2000468E-015  0.9000777E+02  0.7816164E-02  0.1186339E+00
        -11   -1    0    0    0    0  0.00000000000E+00  0.00000000000E+00  0.45593999997E+02  0.45594000000E+02  0.51100000000E-03 0.  1.
         11   -1    0    0    0    0 -0.00000000000E+00 -0.00000000000E+00 -0.45593999997E+02  0.45594000000E+02  0.51100000000E-03 0. -1.
    9900012    2    1    2    0    0 -0.15020962906E+00 -0.11635687080E+01  0.12837353884E+00  0.90007773396E+02  0.90000035205E+02 0.  0.
         23    2    3    3    0    0  0.14390343009E+02  0.16564300069E+02  0.17214472753E+02  0.61413372043E+02  0.54715684998E+02 0.  0.
         12    1    1    2    0    0  0.15020962906E+00  0.11635687080E+01 -0.12837353884E+00  0.11802266039E+01  0.00000000000E+00 0. -1.
         11    1    4    4    0    0 -0.99096028928E+01 -0.10280281646E+02  0.20579514025E+02  0.25047970337E+02  0.51100000000E-03 0. -1.
        -11    1    4    4    0    0  0.24299945902E+02  0.26844581714E+02 -0.33650412720E+01  0.36365401706E+02  0.51100000000E-03 0.  1.
         12    1    3    3    0    0 -0.14540552638E+02 -0.17727868777E+02 -0.17086099215E+02  0.28594401353E+02  0.00000000000E+00 0. -1.
</event>
<event>
 7    1  0.2000468E-015  0.9000787E+02  0.7816164E-02  0.1186339E+00
        -11   -1    0    0    0    0  0.00000000000E+00  0.00000000000E+00  0.45593999997E+02  0.45594000000E+02  0.51100000000E-03 0. -1.
         11   -1    0    0    0    0 -0.00000000000E+00 -0.00000000000E+00 -0.45593999997E+02  0.45594000000E+02  0.51100000000E-03 0.  1.
    9900012    2    1    2    0    0 -0.32195283365E-01  0.10438614037E+01 -0.54956201794E+00  0.90007872220E+02  0.90000135333E+02 0.  0.
         12    1    1    2    0    0  0.32195283365E-01 -0.10438614037E+01  0.54956201794E+00  0.11801277803E+01  0.00000000000E+00 0. -1.
         11    1    3    3    0    0  0.39638479337E+01 -0.34397434456E+02  0.79423817039E+01  0.35524315827E+02  0.51100000000E-03 0. -1.
        -11    1    3    3    0    0  0.28466624115E+01 -0.83993028323E+01  0.15167588906E+01  0.89973514295E+01  0.51100000000E-03 0.  1.
        -12    1    3    3    0    0 -0.68427056285E+01  0.43840598692E+02 -0.10008702612E+02  0.45486204963E+02  0.00000000000E+00 0.  1.
</event>
<event>
 7    1  0.2000468E-015  0.9000764E+02  0.7816164E-02  0.1186339E+00
        -11   -1    0    0    0    0  0.00000000000E+00  0.00000000000E+00  0.45593999997E+02  0.45594000000E+02  0.51100000000E-03 0. -1.
         11   -1    0    0    0    0 -0.00000000000E+00 -0.00000000000E+00 -0.45593999997E+02  0.45594000000E+02  0.51100000000E-03 0.  1.
    9900012    2    1    2    0    0  0.95164094423E+00  0.20164918703E+00 -0.66855706095E+00  0.90007639282E+02  0.89999899320E+02 0.  0.
         12    1    1    2    0    0 -0.95164094423E+00 -0.20164918703E+00  0.66855706095E+00  0.11803607182E+01  0.00000000000E+00 0. -1.
         11    1    3    3    0    0 -0.64964470225E+01 -0.51501138905E+01 -0.55685258795E+01  0.99867901617E+01  0.51100000000E-03 0. -1.
        -11    1    3    3    0    0 -0.21315894675E+02  0.13238514422E+02 -0.26650477109E+02  0.36604283360E+02  0.51100000000E-03 0.  1.
         12    1    3    3    0    0  0.28763982641E+02 -0.78867513445E+01  0.31550445928E+02  0.43416565760E+02  0.00000000000E+00 0. -1.
</event>
<event>
 7    1  0.2000468E-015  0.9000777E+02  0.7816164E-02  0.1186339E+00
        -11   -1    0    0    0    0  0.00000000000E+00  0.00000000000E+00  0.45593999997E+02  0.45594000000E+02  0.51100000000E-03 0.  1.
         11   -1    0    0    0    0 -0.00000000000E+00 -0.00000000000E+00 -0.45593999997E+02  0.45594000000E+02  0.51100000000E-03 0. -1.
    9900012    2    1    2    0    0 -0.54065076700E+00 -0.79649122963E+00  0.68282471917E+00  0.90007766494E+02  0.90000028212E+02 0.  0.
         12    1    1    2    0    0  0.54065076700E+00  0.79649122963E+00 -0.68282471917E+00  0.11802335056E+01  0.00000000000E+00 0. -1.
         11    1    3    3    0    0  0.28625962338E+01 -0.88354559186E+01  0.33496132593E+01  0.98731781983E+01  0.51100000000E-03 0. -1.
        -11    1    3    3    0    0  0.14700670410E+01 -0.29408280952E+02 -0.22891688332E+02  0.37296614868E+02  0.51100000000E-03 0.  1.
         12    1    3    3    0    0 -0.48733140418E+01  0.37447245641E+02  0.20224899791E+02  0.42837973428E+02  0.00000000000E+00 0. -1.
</event>
<event>
 7    1  0.2000468E-015  0.9000773E+02  0.7816164E-02  0.1186339E+00
        -11   -1    0    0    0    0  0.00000000000E+00  0.00000000000E+00  0.45593999997E+02  0.45594000000E+02  0.51100000000E-03 0. -1.
         11   -1    0    0    0    0 -0.00000000000E+00 -0.00000000000E+00 -0.45593999997E+02  0.45594000000E+02  0.51100000000E-03 0.  1.
    9900012    2    1    2    0    0  0.37570623001E+00 -0.10317736976E+01 -0.43280608185E+00  0.90007731709E+02  0.89999992968E+02 0.  0.
         12    1    1    2    0    0 -0.37570623001E+00  0.10317736976E+01  0.43280608185E+00  0.11802682911E+01  0.00000000000E+00 0. -1.
         11    1    3    3    0    0  0.10640051751E+02  0.26462546868E+02  0.23687835020E+02  0.37075471895E+02  0.51100000000E-03 0. -1.
        -11    1    3    3    0    0  0.85082777714E+01  0.45657414516E+01 -0.26098814763E+01  0.10002413070E+02  0.51100000000E-03 0.  1.
        -12    1    3    3    0    0 -0.18772623292E+02 -0.32060062018E+02 -0.21510759625E+02  0.42929846745E+02  0.00000000000E+00 0.  1.
</event>
<event>
 7    1  0.2000468E-015  0.9000778E+02  0.7816164E-02  0.1186339E+00
        -11   -1    0    0    0    0  0.00000000000E+00  0.00000000000E+00  0.45593999997E+02  0.45594000000E+02  0.51100000000E-03 0. -1.
         11   -1    0    0    0    0 -0.00000000000E+00 -0.00000000000E+00 -0.45593999997E+02  0.45594000000E+02  0.51100000000E-03 0.  1.
    9900012    2    1    2    0    0  0.21889111672E-03  0.30303862262E+00 -0.11406549537E+01  0.90007777064E+02  0.90000038922E+02 0.  0.
         12    1    1    2    0    0 -0.21889111672E-03 -0.30303862262E+00  0.11406549537E+01  0.11802229357E+01  0.00000000000E+00 0. -1.
         11    1    3    3    0    0 -0.31448648277E+00  0.85893264748E+01 -0.17687138422E+02  0.19664950975E+02  0.51100000000E-03 0. -1.
        -11    1    3    3    0    0  0.33684934996E+02 -0.23243716121E+01  0.32179852722E+01  0.33918033235E+02  0.51100000000E-03 0.  1.
         12    1    3    3    0    0 -0.33370229622E+02 -0.59619162401E+01  0.13328498196E+02  0.36424792854E+02  0.00000000000E+00 0. -1.
</event>
<event>
 7    1  0.2000468E-015  0.9000767E+02  0.7816164E-02  0.1186339E+00
        -11   -1    0    0    0    0  0.00000000000E+00  0.00000000000E+00  0.45593999997E+02  0.45594000000E+02  0.51100000000E-03 0. -1.
         11   -1    0    0    0    0 -0.00000000000E+00 -0.00000000000E+00 -0.45593999997E+02  0.45594000000E+02  0.51100000000E-03 0.  1.
    9900012    2    1    2    0    0 -0.11758984987E+01  0.24833109052E-01  0.99164799279E-01  0.90007666310E+02  0.89999926705E+02 0.  0.
         12    1    1    2    0    0  0.11758984987E+01 -0.24833109052E-01 -0.99164799279E-01  0.11803336901E+01  0.00000000000E+00 0. -1.
         11    1    3    3    0    0  0.30554352994E+01  0.25000232170E+02  0.25584144792E+02  0.35901194387E+02  0.51100000000E-03 0. -1.
        -11    1    3    3    0    0 -0.31072577223E+01  0.57540426694E+01  0.68598623294E+01  0.94774347285E+01  0.51100000000E-03 0.  1.
        -12    1    3    3    0    0 -0.11240760759E+01 -0.30729441730E+02 -0.32344842322E+02  0.44629037194E+02  0.00000000000E+00 0.  1.
</event>
<event>
 7    1  0.2000468E-015  0.9000757E+02  0.7816164E-02  0.1186339E+00
        -11   -1    0    0    0    0  0.00000000000E+00  0.00000000000E+00  0.45593999997E+02  0.45594000000E+02  0.51100000000E-03 0.  1.
         11   -1    0    0    0    0 -0.00000000000E+00 -0.00000000000E+00 -0.45593999997E+02  0.45594000000E+02  0.51100000000E-03 0. -1.
    9900012    2    1    2    0    0 -0.11443960697E+01  0.27045949566E+00  0.10307000581E+00  0.90007570362E+02  0.89999829491E+02 0.  0.
         12    1    1    2    0    0  0.11443960697E+01 -0.27045949566E+00 -0.10307000581E+00  0.11804296376E+01  0.00000000000E+00 0. -1.
         11    1    3    3    0    0 -0.22276037540E+02 -0.19372731914E+02 -0.15381854318E+02  0.33288527045E+02  0.51100000000E-03 0. -1.
        -11    1    3    3    0    0  0.53789674601E+01 -0.13139590810E+02 -0.49063304371E+01  0.15021791379E+02  0.51100000000E-03 0.  1.
        -12    1    3    3    0    0  0.15752674010E+02  0.32782782220E+02  0.20391254761E+02  0.41697251939E+02  0.00000000000E+00 0.  1.
</event>
<event>
 7    1  0.2000468E-015  0.9000777E+02  0.7816164E-02  0.1186339E+00
        -11   -1    0    0    0    0  0.00000000000E+00  0.00000000000E+00  0.45593999997E+02  0.45594000000E+02  0.51100000000E-03 0. -1.
         11   -1    0    0    0    0 -0.00000000000E+00 -0.00000000000E+00 -0.45593999997E+02  0.45594000000E+02  0.51100000000E-03 0.  1.
    9900012    2    1    2    0    0 -0.65240591902E+00 -0.85068788233E+00 -0.49359718346E+00  0.90007770558E+02  0.90000032329E+02 0.  0.
         12    1    1    2    0    0  0.65240591902E+00  0.85068788233E+00  0.49359718346E+00  0.11802294420E+01  0.00000000000E+00 0. -1.
         11    1    3    3    0    0 -0.18733190151E+02  0.81847495392E+01  0.29545946266E+02  0.35928894768E+02  0.51100000000E-03 0. -1.
        -11    1    3    3    0    0  0.34393203995E+01  0.10062561208E+01  0.98149875654E+01  0.10448706014E+02  0.51100000000E-03 0.  1.
        -12    1    3    3    0    0  0.14641463832E+02 -0.10041693542E+02 -0.39854531014E+02  0.43630169777E+02  0.00000000000E+00 0.  1.
</event>
<event>
 7    1  0.2000468E-015  0.9000775E+02  0.7816164E-02  0.1186339E+00
        -11   -1    0    0    0    0  0.00000000000E+00  0.00000000000E+00  0.45593999997E+02  0.45594000000E+02  0.51100000000E-03 0.  1.
         11   -1    0    0    0    0 -0.00000000000E+00 -0.00000000000E+00 -0.45593999997E+02  0.45594000000E+02  0.51100000000E-03 0. -1.
    9900012    2    1    2    0    0  0.10151578220E+01 -0.44039952160E-01 -0.60042286255E+00  0.90007748953E+02  0.90000010439E+02 0.  0.
         12    1    1    2    0    0 -0.10151578220E+01  0.44039952160E-01  0.60042286255E+00  0.11802510473E+01  0.00000000000E+00 0. -1.
         11    1    3    3    0    0 -0.74350369633E+01 -0.33469197779E+02 -0.16427859780E+02  0.38017647900E+02  0.51100000000E-03 0. -1.
        -11    1    3    3    0    0  0.34660424806E+01 -0.70235957902E+01  0.65085211841E+01  0.10183574842E+02  0.51100000000E-03 0.  1.
        -12    1    3    3    0    0  0.49841523047E+01  0.40448753617E+02  0.93189157330E+01  0.41806526211E+02  0.00000000000E+00 0.  1.
</event>
<event>
 7    1  0.2000468E-015  0.9000775E+02  0.7816164E-02  0.1186339E+00
        -11   -1    0    0    0    0  0.00000000000E+00  0.00000000000E+00  0.45593999997E+02  0.45594000000E+02  0.51100000000E-03 0.  1.
         11   -1    0    0    0    0 -0.00000000000E+00 -0.00000000000E+00 -0.45593999997E+02  0.45594000000E+02  0.51100000000E-03 0. -1.
    9900012    2    1    2    0    0  0.95833520267E-01 -0.68669355806E+00  0.95511911661E+00  0.90007752300E+02  0.90000013830E+02 0.  0.
         12    1    1    2    0    0 -0.95833520267E-01  0.68669355806E+00 -0.95511911661E+00  0.11802476999E+01  0.00000000000E+00 0. -1.
         11    1    3    3    0    0 -0.83666522019E+01 -0.34288280670E+02  0.25419497670E+01  0.35385711371E+02  0.51100000000E-03 0. -1.
        -11    1    3    3    0    0 -0.22719086620E+01 -0.97121919734E+01 -0.19930919258E+00  0.99763703977E+01  0.51100000000E-03 0.  1.
        -12    1    3    3    0    0  0.10734394384E+02  0.43313779085E+02 -0.13875214578E+01  0.44645670532E+02  0.00000000000E+00 0.  1.
</event>
<event>
 7    1  0.2000468E-015  0.9000812E+02  0.7816164E-02  0.1186338E+00
        -11   -1    0    0    0    0  0.00000000000E+00  0.00000000000E+00  0.45593999997E+02  0.45594000000E+02  0.51100000000E-03 0.  1.
         11   -1    0    0    0    0 -0.00000000000E+00 -0.00000000000E+00 -0.45593999997E+02  0.45594000000E+02  0.51100000000E-03 0. -1.
    9900012    2    1    2    0    0  0.10825583498E+01  0.41766495875E+00 -0.21385032198E+00  0.90008123499E+02  0.90000389928E+02 0.  0.
         12    1    1    2    0    0 -0.10825583498E+01 -0.41766495875E+00  0.21385032198E+00  0.11798765015E+01  0.00000000000E+00 0. -1.
         11    1    3    3    0    0 -0.63535266933E+01 -0.51507145810E+01  0.54192010167E+01  0.98114678850E+01  0.51100000000E-03 0. -1.
        -11    1    3    3    0    0  0.11907773151E+02 -0.17466699945E+01  0.35860713035E+02  0.37826401589E+02  0.51100000000E-03 0.  1.
         12    1    3    3    0    0 -0.44716881075E+01  0.73150495342E+01 -0.41493764374E+02  0.42370254025E+02  0.00000000000E+00 0. -1.
</event>
<event>
 7    1  0.2000468E-015  0.9000775E+02  0.7816164E-02  0.1186339E+00
        -11   -1    0    0    0    0  0.00000000000E+00  0.00000000000E+00  0.45593999997E+02  0.45594000000E+02  0.51100000000E-03 0. -1.
         11   -1    0    0    0    0 -0.00000000000E+00 -0.00000000000E+00 -0.45593999997E+02  0.45594000000E+02  0.51100000000E-03 0.  1.
    9900012    2    1    2    0    0 -0.22905938657E+00 -0.11037605697E+01  0.34961061701E+00  0.90007752915E+02  0.90000014454E+02 0.  0.
         12    1    1    2    0    0  0.22905938657E+00  0.11037605697E+01 -0.34961061701E+00  0.11802470849E+01  0.00000000000E+00 0. -1.
         11    1    3    3    0    0 -0.45684763570E+01 -0.10916345528E+02 -0.43494919421E+01  0.12607761749E+02  0.51100000000E-03 0. -1.
        -11    1    3    3    0    0  0.40235636835E+02  0.73328296407E+01 -0.13128062044E+01  0.40919436976E+02  0.51100000000E-03 0.  1.
         12    1    3    3    0    0 -0.35896219865E+02  0.24797553177E+01  0.60119087636E+01  0.36480554190E+02  0.00000000000E+00 0. -1.
</event>
<event>
 7    1  0.2000468E-015  0.9000778E+02  0.7816164E-02  0.1186339E+00
        -11   -1    0    0    0    0  0.00000000000E+00  0.00000000000E+00  0.45593999997E+02  0.45594000000E+02  0.51100000000E-03 0. -1.
         11   -1    0    0    0    0 -0.00000000000E+00 -0.00000000000E+00 -0.45593999997E+02  0.45594000000E+02  0.51100000000E-03 0.  1.
    9900012    2    1    2    0    0 -0.47693157392E+00  0.98779016699E+00 -0.43558336184E+00  0.90007777137E+02  0.90000038996E+02 0.  0.
         12    1    1    2    0    0  0.47693157392E+00 -0.98779016699E+00  0.43558336184E+00  0.11802228626E+01  0.00000000000E+00 0. -1.
         11    1    3    3    0    0 -0.77265830566E+01 -0.32519713481E+00  0.10487867833E+00  0.77341346449E+01  0.51100000000E-03 0. -1.
        -11    1    3    3    0    0 -0.47133073386E+01  0.39612355434E+02 -0.98365041119E+01  0.41086625348E+02  0.51100000000E-03 0.  1.
         12    1    3    3    0    0  0.11962958821E+02 -0.38299368132E+02  0.92960420717E+01  0.41187017145E+02  0.00000000000E+00 0. -1.
</event>
<event>
 7    1  0.2000468E-015  0.9000775E+02  0.7816164E-02  0.1186339E+00
        -11   -1    0    0    0    0  0.00000000000E+00  0.00000000000E+00  0.45593999997E+02  0.45594000000E+02  0.51100000000E-03 0. -1.
         11   -1    0    0    0    0 -0.00000000000E+00 -0.00000000000E+00 -0.45593999997E+02  0.45594000000E+02  0.51100000000E-03 0.  1.
    9900012    2    1    2    0    0 -0.35957790059E+00 -0.93001015868E+00 -0.63147776146E+00  0.90007754549E+02  0.90000016109E+02 0.  0.
         12    1    1    2    0    0  0.35957790059E+00  0.93001015868E+00  0.63147776146E+00  0.11802454512E+01  0.00000000000E+00 0. -1.
         11    1    3    3    0    0  0.32835463732E+02 -0.30485614072E+01  0.14038297759E+02  0.35840413075E+02  0.51100000000E-03 0. -1.
        -11    1    3    3    0    0  0.40836466652E+01 -0.10369222294E+02 -0.92455324037E+01  0.14480221364E+02  0.51100000000E-03 0.  1.
        -12    1    3    3    0    0 -0.37278688298E+02  0.12487773542E+02 -0.54242431168E+01  0.39687120110E+02  0.00000000000E+00 0.  1.
</event>
<event>
 7    1  0.2000468E-015  0.9000765E+02  0.7816164E-02  0.1186339E+00
        -11   -1    0    0    0    0  0.00000000000E+00  0.00000000000E+00  0.45593999997E+02  0.45594000000E+02  0.51100000000E-03 0.  1.
         11   -1    0    0    0    0 -0.00000000000E+00 -0.00000000000E+00 -0.45593999997E+02  0.45594000000E+02  0.51100000000E-03 0. -1.
    9900012    2    1    2    0    0 -0.10417437822E+01 -0.40238134508E+00  0.38221086441E+00  0.90007650052E+02  0.89999910233E+02 0.  0.
         12    1    1    2    0    0  0.10417437822E+01  0.40238134508E+00 -0.38221086441E+00  0.11803499479E+01  0.00000000000E+00 0. -1.
         11    1    3    3    0    0  0.73568191944E+01 -0.76020913131E+00 -0.59560169325E+01  0.94960436258E+01  0.51100000000E-03 0. -1.
        -11    1    3    3    0    0 -0.49503787848E+01 -0.13429460369E+02  0.40798225230E+02  0.43236001643E+02  0.51100000000E-03 0.  1.
         12    1    3    3    0    0 -0.34481841919E+01  0.13787288155E+02 -0.34459997433E+02  0.37275604783E+02  0.00000000000E+00 0. -1.
</event>
<event>
 7    1  0.2000468E-015  0.9000775E+02  0.7816164E-02  0.1186339E+00
        -11   -1    0    0    0    0  0.00000000000E+00  0.00000000000E+00  0.45593999997E+02  0.45594000000E+02  0.51100000000E-03 0.  1.
         11   -1    0    0    0    0 -0.00000000000E+00 -0.00000000000E+00 -0.45593999997E+02  0.45594000000E+02  0.51100000000E-03 0. -1.
    9900012    2    1    2    0    0 -0.13032942768E-01 -0.10509565208E+01  0.53695002416E+00  0.90007747995E+02  0.90000009469E+02 0.  0.
         12    1    1    2    0    0  0.13032942768E-01  0.10509565208E+01 -0.53695002416E+00  0.11802520048E+01  0.00000000000E+00 0. -1.
         11    1    3    3    0    0 -0.39404973940E+02  0.86046929679E+01  0.38708636938E+01  0.40518838808E+02  0.51100000000E-03 0. -1.
        -11    1    3    3    0    0  0.12863936418E+01  0.17375535309E-01 -0.95936774256E+01  0.96795535702E+01  0.51100000000E-03 0.  1.
        -12    1    3    3    0    0  0.38105547356E+02 -0.96730250241E+01  0.62597637560E+01  0.39809355617E+02  0.00000000000E+00 0.  1.
</event>
<event>
 7    1  0.2000468E-015  0.9000767E+02  0.7816164E-02  0.1186339E+00
        -11   -1    0    0    0    0  0.00000000000E+00  0.00000000000E+00  0.45593999997E+02  0.45594000000E+02  0.51100000000E-03 0.  1.
         11   -1    0    0    0    0 -0.00000000000E+00 -0.00000000000E+00 -0.45593999997E+02  0.45594000000E+02  0.51100000000E-03 0. -1.
    9900012    2    1    2    0    0 -0.10708634116E+00  0.99826466376E+00  0.62063383463E+00  0.90007666920E+02  0.89999927323E+02 0.  0.
         12    1    1    2    0    0  0.10708634116E+00 -0.99826466376E+00 -0.62063383463E+00  0.11803330801E+01  0.00000000000E+00 0. -1.
         11    1    3    3    0    0  0.11110065145E+02  0.24610545514E+01 -0.33180044384E+02  0.35077139031E+02  0.51100000000E-03 0. -1.
        -11    1    3    3    0    0  0.46410456583E+01 -0.31110377364E+01 -0.82470621398E+01  0.99615207071E+01  0.51100000000E-03 0.  1.
        -12    1    3    3    0    0 -0.15858197144E+02  0.16482478488E+01  0.42047740358E+02  0.44969007182E+02  0.00000000000E+00 0.  1.
</event>
<event>
 7    1  0.2000468E-015  0.9000786E+02  0.7816164E-02  0.1186339E+00
        -11   -1    0    0    0    0  0.00000000000E+00  0.00000000000E+00  0.45593999997E+02  0.45594000000E+02  0.51100000000E-03 0. -1.
         11   -1    0    0    0    0 -0.00000000000E+00 -0.00000000000E+00 -0.45593999997E+02  0.45594000000E+02  0.51100000000E-03 0.  1.
    9900012    2    1    2    0    0  0.74719810068E+00  0.86399387865E+00  0.29654930311E+00  0.90007859367E+02  0.90000122311E+02 0.  0.
         12    1    1    2    0    0 -0.74719810068E+00 -0.86399387865E+00 -0.29654930311E+00  0.11801406328E+01  0.00000000000E+00 0. -1.
         11    1    3    3    0    0  0.65039210791E+00 -0.73686857714E+01 -0.76645542219E+01  0.10652038846E+02  0.51100000000E-03 0. -1.
        -11    1    3    3    0    0 -0.59452618399E+01  0.11829760909E+02 -0.34168247771E+02  0.36643669815E+02  0.51100000000E-03 0.  1.
         12    1    3    3    0    0  0.60420678327E+01 -0.35970812585E+01  0.42129351296E+02  0.42712150706E+02  0.00000000000E+00 0. -1.
</event>
<event>
 7    1  0.2000468E-015  0.9000807E+02  0.7816164E-02  0.1186338E+00
        -11   -1    0    0    0    0  0.00000000000E+00  0.00000000000E+00  0.45593999997E+02  0.45594000000E+02  0.51100000000E-03 0.  1.
         11   -1    0    0    0    0 -0.00000000000E+00 -0.00000000000E+00 -0.45593999997E+02  0.45594000000E+02  0.51100000000E-03 0. -1.
    9900012    2    1    2    0    0 -0.10870597317E+00  0.11470268998E+01 -0.25443596849E+00  0.90008074003E+02  0.90000339779E+02 0.  0.
         12    1    1    2    0    0  0.10870597317E+00 -0.11470268998E+01  0.25443596849E+00  0.11799259975E+01  0.00000000000E+00 0. -1.
         11    1    3    3    0    0  0.12195537346E+02  0.31567089552E+02  0.45819980566E-01  0.33841016144E+02  0.51100000000E-03 0. -1.
        -11    1    3    3    0    0  0.58747992630E+01  0.97212405220E+01 -0.37622830711E+01  0.11965389999E+02  0.51100000000E-03 0.  1.
        -12    1    3    3    0    0 -0.18179042582E+02 -0.40141303174E+02  0.34620271220E+01  0.44201667859E+02  0.00000000000E+00 0.  1.
</event>
<event>
 7    1  0.2000468E-015  0.9000779E+02  0.7816164E-02  0.1186339E+00
        -11   -1    0    0    0    0  0.00000000000E+00  0.00000000000E+00  0.45593999997E+02  0.45594000000E+02  0.51100000000E-03 0. -1.
         11   -1    0    0    0    0 -0.00000000000E+00 -0.00000000000E+00 -0.45593999997E+02  0.45594000000E+02  0.51100000000E-03 0.  1.
    9900012    2    1    2    0    0 -0.21057212823E+00 -0.73828483924E+00 -0.89637581789E+00  0.90007790386E+02  0.90000052420E+02 0.  0.
         12    1    1    2    0    0  0.21057212823E+00  0.73828483924E+00  0.89637581789E+00  0.11802096136E+01  0.00000000000E+00 0. -1.
         11    1    3    3    0    0  0.38760489725E+01 -0.82179069336E+01 -0.33028884969E+01  0.96678240929E+01  0.51100000000E-03 0. -1.
        -11    1    3    3    0    0  0.20153100260E+02 -0.22181337920E+02 -0.19935965559E+02  0.35994470756E+02  0.51100000000E-03 0.  1.
         12    1    3    3    0    0 -0.24239721361E+02  0.29660960015E+02  0.22342478238E+02  0.44345495537E+02  0.00000000000E+00 0. -1.
</event>
<event>
 7    1  0.2000468E-015  0.9000777E+02  0.7816164E-02  0.1186339E+00
        -11   -1    0    0    0    0  0.00000000000E+00  0.00000000000E+00  0.45593999997E+02  0.45594000000E+02  0.51100000000E-03 0.  1.
         11   -1    0    0    0    0 -0.00000000000E+00 -0.00000000000E+00 -0.45593999997E+02  0.45594000000E+02  0.51100000000E-03 0. -1.
    9900012    2    1    2    0    0 -0.30277290778E+00  0.10410501664E+01  0.46634250052E+00  0.90007774509E+02  0.90000036332E+02 0.  0.
         12    1    1    2    0    0  0.30277290778E+00 -0.10410501664E+01 -0.46634250052E+00  0.11802254913E+01  0.00000000000E+00 0. -1.
         11    1    3    3    0    0 -0.24920885966E+02 -0.25523046395E+02 -0.95840647427E+01  0.36936848158E+02  0.51100000000E-03 0. -1.
        -11    1    3    3    0    0 -0.58662162171E+01 -0.53189476691E+01  0.26013418936E+01  0.83349071334E+01  0.51100000000E-03 0.  1.
        -12    1    3    3    0    0  0.30484329275E+02  0.31883044231E+02  0.74490653496E+01  0.44736019217E+02  0.00000000000E+00 0.  1.
</event>
<event>
 7    1  0.2000468E-015  0.9000765E+02  0.7816164E-02  0.1186339E+00
        -11   -1    0    0    0    0  0.00000000000E+00  0.00000000000E+00  0.45593999997E+02  0.45594000000E+02  0.51100000000E-03 0. -1.
         11   -1    0    0    0    0 -0.00000000000E+00 -0.00000000000E+00 -0.45593999997E+02  0.45594000000E+02  0.51100000000E-03 0.  1.
    9900012    2    1    2    0    0 -0.25021429543E+00 -0.11402056023E+01 -0.17477866936E+00  0.90007651072E+02  0.89999911266E+02 0.  0.
         12    1    1    2    0    0  0.25021429543E+00  0.11402056023E+01  0.17477866936E+00  0.11803489282E+01  0.00000000000E+00 0. -1.
         11    1    3    3    0    0 -0.31347803169E+02 -0.49872946670E+01  0.19952508953E+02  0.37492138981E+02  0.51100000000E-03 0. -1.
        -11    1    3    3    0    0  0.28152580425E+01 -0.10610676395E+02  0.49536102935E+01  0.12043686587E+02  0.51100000000E-03 0.  1.
        -12    1    3    3    0    0  0.28282330831E+02  0.14457765460E+02 -0.25080897915E+02  0.40471825503E+02  0.00000000000E+00 0.  1.
</event>
<event>
 7    1  0.2000468E-015  0.9000780E+02  0.7816164E-02  0.1186339E+00
        -11   -1    0    0    0    0  0.00000000000E+00  0.00000000000E+00  0.45593999997E+02  0.45594000000E+02  0.51100000000E-03 0.  1.
         11   -1    0    0    0    0 -0.00000000000E+00 -0.00000000000E+00 -0.45593999997E+02  0.45594000000E+02  0.51100000000E-03 0. -1.
    9900012    2    1    2    0    0  0.29616205705E+00 -0.88540046897E+00  0.72196737674E+00  0.90007795421E+02  0.90000057521E+02 0.  0.
         12    1    1    2    0    0 -0.29616205705E+00  0.88540046897E+00 -0.72196737674E+00  0.11802045787E+01  0.00000000000E+00 0. -1.
         11    1    3    3    0    0  0.58479181640E+01  0.18375576401E+02 -0.22229598373E+02  0.29428132782E+02  0.51100000000E-03 0. -1.
        -11    1    3    3    0    0 -0.15632612534E+02  0.14185540191E+02  0.94586944240E+01  0.23131688776E+02  0.51100000000E-03 0.  1.
         12    1    3    3    0    0  0.10080856427E+02 -0.33446517062E+02  0.13492871326E+02  0.37447973863E+02  0.00000000000E+00 0. -1.
</event>
<event>
 7    1  0.2000468E-015  0.9000777E+02  0.7816164E-02  0.1186339E+00
        -11   -1    0    0    0    0  0.00000000000E+00  0.00000000000E+00  0.45593999997E+02  0.45594000000E+02  0.51100000000E-03 0. -1.
         11   -1    0    0    0    0 -0.00000000000E+00 -0.00000000000E+00 -0.45593999997E+02  0.45594000000E+02  0.51100000000E-03 0.  1.
    9900012    2    1    2    0    0  0.96236361556E+00 -0.55971480685E+00 -0.39181704629E+00  0.90007769094E+02  0.90000030846E+02 0.  0.
         12    1    1    2    0    0 -0.96236361556E+00  0.55971480685E+00  0.39181704629E+00  0.11802309059E+01  0.00000000000E+00 0. -1.
         11    1    3    3    0    0  0.26827117087E+01 -0.30302222811E+02  0.25017407839E+02  0.39386448744E+02  0.51100000000E-03 0. -1.
        -11    1    3    3    0    0 -0.82450873719E+01  0.31531030734E+01  0.46378792668E+01  0.99716322193E+01  0.51100000000E-03 0.  1.
        -12    1    3    3    0    0  0.65247392787E+01  0.26589404931E+02 -0.30047104152E+02  0.40649688131E+02  0.00000000000E+00 0.  1.
</event>
<event>
 7    1  0.2000468E-015  0.9000747E+02  0.7816164E-02  0.1186340E+00
        -11   -1    0    0    0    0  0.00000000000E+00  0.00000000000E+00  0.45593999997E+02  0.45594000000E+02  0.51100000000E-03 0.  1.
         11   -1    0    0    0    0 -0.00000000000E+00 -0.00000000000E+00 -0.45593999997E+02  0.45594000000E+02  0.51100000000E-03 0. -1.
    9900012    2    1    2    0    0 -0.23717552458E+00 -0.49721047611E+00  0.10441137093E+01  0.90007473031E+02  0.89999730874E+02 0.  0.
         12    1    1    2    0    0  0.23717552458E+00  0.49721047611E+00 -0.10441137093E+01  0.11805269692E+01  0.00000000000E+00 0. -1.
         11    1    3    3    0    0  0.41541128756E+01  0.48268207038E+01 -0.73578287845E+01  0.97310069660E+01  0.51100000000E-03 0. -1.
        -11    1    3    3    0    0  0.26265015178E+02 -0.12612683671E+02  0.30197592228E+02  0.41962189985E+02  0.51100000000E-03 0.  1.
         12    1    3    3    0    0 -0.30656303578E+02  0.72886524914E+01 -0.21795649734E+02  0.38314276080E+02  0.00000000000E+00 0. -1.
</event>
<event>
 7    1  0.2000468E-015  0.9000768E+02  0.7816164E-02  0.1186339E+00
        -11   -1    0    0    0    0  0.00000000000E+00  0.00000000000E+00  0.45593999997E+02  0.45594000000E+02  0.51100000000E-03 0.  1.
         11   -1    0    0    0    0 -0.00000000000E+00 -0.00000000000E+00 -0.45593999997E+02  0.45594000000E+02  0.51100000000E-03 0. -1.
    9900012    2    1    2    0    0 -0.65810485085E+00 -0.97618177988E+00 -0.84424096560E-01  0.90007677887E+02  0.89999938435E+02 0.  0.
         12    1    1    2    0    0  0.65810485085E+00  0.97618177988E+00  0.84424096560E-01  0.11803221129E+01  0.00000000000E+00 0. -1.
         11    1    3    3    0    0 -0.12839806111E+02 -0.36350801043E+02 -0.20372846071E+01  0.38605593977E+02  0.51100000000E-03 0. -1.
        -11    1    3    3    0    0 -0.12458144696E+02  0.13731969862E+02 -0.11906999990E+00  0.18541481696E+02  0.51100000000E-03 0.  1.
        -12    1    3    3    0    0  0.24639845956E+02  0.21642649401E+02  0.20719305104E+01  0.32860602214E+02  0.00000000000E+00 0.  1.
</event>
<event>
 7    1  0.2000468E-015  0.9000772E+02  0.7816164E-02  0.1186339E+00
        -11   -1    0    0    0    0  0.00000000000E+00  0.00000000000E+00  0.45593999997E+02  0.45594000000E+02  0.51100000000E-03 0.  1.
         11   -1    0    0    0    0 -0.00000000000E+00 -0.00000000000E+00 -0.45593999997E+02  0.45594000000E+02  0.51100000000E-03 0. -1.
    9900012    2    1    2    0    0  0.18181136236E+00 -0.63026756611E+00  0.98120525563E+00  0.90007721927E+02  0.89999983056E+02 0.  0.
         12    1    1    2    0    0 -0.18181136236E+00  0.63026756611E+00 -0.98120525563E+00  0.11802780732E+01  0.00000000000E+00 0. -1.
         11    1    3    3    0    0  0.65954215429E+01 -0.67813412767E+01 -0.27500989632E+01  0.98513562217E+01  0.51100000000E-03 0. -1.
        -11    1    3    3    0    0  0.22373282791E+01 -0.32786053457E+02  0.18394197120E+02  0.37660024257E+02  0.51100000000E-03 0.  1.
         12    1    3    3    0    0 -0.86509384596E+01  0.38937127167E+02 -0.14662892901E+02  0.42496341448E+02  0.00000000000E+00 0. -1.
</event>
<event>
 7    1  0.2000468E-015  0.9000776E+02  0.7816164E-02  0.1186339E+00
        -11   -1    0    0    0    0  0.00000000000E+00  0.00000000000E+00  0.45593999997E+02  0.45594000000E+02  0.51100000000E-03 0. -1.
         11   -1    0    0    0    0 -0.00000000000E+00 -0.00000000000E+00 -0.45593999997E+02  0.45594000000E+02  0.51100000000E-03 0.  1.
    9900012    2    1    2    0    0  0.36874977052E+00 -0.10032416624E+01 -0.50050273769E+00  0.90007757136E+02  0.90000018731E+02 0.  0.
         12    1    1    2    0    0 -0.36874977052E+00  0.10032416624E+01  0.50050273769E+00  0.11802428635E+01  0.00000000000E+00 0. -1.
         11    1    3    3    0    0  0.38687503081E+02 -0.14471097624E+02  0.14985122547E+02  0.43939611504E+02  0.51100000000E-03 0. -1.
        -11    1    3    3    0    0 -0.84917745630E+01 -0.18021783655E+01  0.97385370125E+00  0.87353576562E+01  0.51100000000E-03 0.  1.
        -12    1    3    3    0    0 -0.29826978748E+02  0.15270034328E+02 -0.16459478986E+02  0.37332787976E+02  0.00000000000E+00 0.  1.
</event>
<event>
 7    1  0.2000468E-015  0.9000780E+02  0.7816164E-02  0.1186339E+00
        -11   -1    0    0    0    0  0.00000000000E+00  0.00000000000E+00  0.45593999997E+02  0.45594000000E+02  0.51100000000E-03 0.  1.
         11   -1    0    0    0    0 -0.00000000000E+00 -0.00000000000E+00 -0.45593999997E+02  0.45594000000E+02  0.51100000000E-03 0. -1.
    9900012    2    1    2    0    0 -0.99388299567E+00  0.61720601491E+00  0.15532225223E+00  0.90007800154E+02  0.90000062316E+02 0.  0.
         12    1    1    2    0    0  0.99388299567E+00 -0.61720601491E+00 -0.15532225223E+00  0.11801998458E+01  0.00000000000E+00 0. -1.
         11    1    3    3    0    0  0.38127916683E+01 -0.90405505641E+01  0.48494852032E-01  0.98117932520E+01  0.51100000000E-03 0. -1.
        -11    1    3    3    0    0  0.38064724638E+01 -0.18932904204E+02  0.31450185852E+02  0.36906073817E+02  0.51100000000E-03 0.  1.
         12    1    3    3    0    0 -0.86131471278E+01  0.28590660783E+02 -0.31343358452E+02  0.43289933085E+02  0.00000000000E+00 0. -1.
</event>
<event>
 7    1  0.2000468E-015  0.9000781E+02  0.7816164E-02  0.1186339E+00
        -11   -1    0    0    0    0  0.00000000000E+00  0.00000000000E+00  0.45593999997E+02  0.45594000000E+02  0.51100000000E-03 0.  1.
         11   -1    0    0    0    0 -0.00000000000E+00 -0.00000000000E+00 -0.45593999997E+02  0.45594000000E+02  0.51100000000E-03 0. -1.
    9900012    2    1    2    0    0 -0.50408087696E+00  0.19345499982E-01  0.10669434562E+01  0.90007813524E+02  0.90000075863E+02 0.  0.
         12    1    1    2    0    0  0.50408087696E+00 -0.19345499982E-01 -0.10669434562E+01  0.11801864758E+01  0.00000000000E+00 0. -1.
         11    1    3    3    0    0  0.36689749216E+01 -0.33072157700E+02 -0.13881108216E+02  0.36054322314E+02  0.51100000000E-03 0. -1.
        -11    1    3    3    0    0 -0.62868480368E+00 -0.91456945107E+01  0.52956210640E+00  0.91825600434E+01  0.51100000000E-03 0.  1.
        -12    1    3    3    0    0 -0.35443709948E+01  0.42237197711E+02  0.14418489566E+02  0.44770931167E+02  0.00000000000E+00 0.  1.
</event>
<event>
 7    1  0.2000468E-015  0.9000771E+02  0.7816164E-02  0.1186339E+00
        -11   -1    0    0    0    0  0.00000000000E+00  0.00000000000E+00  0.45593999997E+02  0.45594000000E+02  0.51100000000E-03 0.  1.
         11   -1    0    0    0    0 -0.00000000000E+00 -0.00000000000E+00 -0.45593999997E+02  0.45594000000E+02  0.51100000000E-03 0. -1.
    9900012    2    1    2    0    0 -0.86571980136E+00  0.57688300268E+00  0.55751976712E+00  0.90007706365E+02  0.89999967289E+02 0.  0.
         12    1    1    2    0    0  0.86571980136E+00 -0.57688300268E+00 -0.55751976712E+00  0.11802936346E+01  0.00000000000E+00 0. -1.
         11    1    3    3    0    0  0.69793019905E+01  0.44816162123E+01  0.33641560304E+01  0.89505913887E+01  0.51100000000E-03 0. -1.
        -11    1    3    3    0    0  0.11553088145E+02 -0.34301901001E+02  0.16919881219E+02  0.39954682313E+02  0.51100000000E-03 0.  1.
         12    1    3    3    0    0 -0.19398109937E+02  0.30397167792E+02 -0.19726517482E+02  0.41102432664E+02  0.00000000000E+00 0. -1.
</event>
<event>
 7    1  0.2000468E-015  0.9000721E+02  0.7816164E-02  0.1186340E+00
        -11   -1    0    0    0    0  0.00000000000E+00  0.00000000000E+00  0.45593999997E+02  0.45594000000E+02  0.51100000000E-03 0. -1.
         11   -1    0    0    0    0 -0.00000000000E+00 -0.00000000000E+00 -0.45593999997E+02  0.45594000000E+02  0.51100000000E-03 0.  1.
    9900012    2    1    2    0    0 -0.44657889181E+00 -0.80180435286E+00 -0.74292161802E+00  0.90007214051E+02  0.89999468475E+02 0.  0.
         12    1    1    2    0    0  0.44657889181E+00  0.80180435286E+00  0.74292161802E+00  0.11807859490E+01  0.00000000000E+00 0. -1.
         11    1    3    3    0    0 -0.98582010675E+01  0.11834136397E+01  0.16246014369E+01  0.10061010199E+02  0.51100000000E-03 0. -1.
        -11    1    3    3    0    0  0.19368642776E+02 -0.13181622024E+02 -0.36099775661E+02  0.43035953402E+02  0.51100000000E-03 0.  1.
         12    1    3    3    0    0 -0.99570206003E+01  0.11196404031E+02  0.33732252606E+02  0.36910250451E+02  0.00000000000E+00 0. -1.
</event>
<event>
 7    1  0.2000468E-015  0.9000772E+02  0.7816164E-02  0.1186339E+00
        -11   -1    0    0    0    0  0.00000000000E+00  0.00000000000E+00  0.45593999997E+02  0.45594000000E+02  0.51100000000E-03 0. -1.
         11   -1    0    0    0    0 -0.00000000000E+00 -0.00000000000E+00 -0.45593999997E+02  0.45594000000E+02  0.51100000000E-03 0.  1.
    9900012    2    1    2    0    0  0.17336075569E+00  0.81730644718E+00 -0.83367320126E+00  0.90007722581E+02  0.89999983719E+02 0.  0.
         12    1    1    2    0    0 -0.17336075569E+00 -0.81730644718E+00  0.83367320126E+00  0.11802774194E+01  0.00000000000E+00 0. -1.
         11    1    3    3    0    0  0.15452685283E+01 -0.49400924121E+01  0.11887454608E+02  0.12965490550E+02  0.51100000000E-03 0. -1.
        -11    1    3    3    0    0  0.70460723784E+01 -0.34276141626E+02 -0.40729845916E+01  0.35229110469E+02  0.51100000000E-03 0.  1.
         12    1    3    3    0    0 -0.84179801511E+01  0.40033540485E+02 -0.86481432181E+01  0.41813121562E+02  0.00000000000E+00 0. -1.
</event>
<event>
 7    1  0.2000468E-015  0.9000773E+02  0.7816164E-02  0.1186339E+00
        -11   -1    0    0    0    0  0.00000000000E+00  0.00000000000E+00  0.45593999997E+02  0.45594000000E+02  0.51100000000E-03 0.  1.
         11   -1    0    0    0    0 -0.00000000000E+00 -0.00000000000E+00 -0.45593999997E+02  0.45594000000E+02  0.51100000000E-03 0. -1.
    9900012    2    1    2    0    0 -0.74352578736E+00  0.91288437997E+00  0.82691472048E-01  0.90007734620E+02  0.89999995917E+02 0.  0.
         12    1    1    2    0    0  0.74352578736E+00 -0.91288437997E+00 -0.82691472048E-01  0.11802653800E+01  0.00000000000E+00 0. -1.
         11    1    3    3    0    0 -0.29041000497E+01 -0.69590838675E+01 -0.24119843303E+01  0.79170899985E+01  0.51100000000E-03 0. -1.
        -11    1    3    3    0    0  0.15609143385E+02 -0.31672674198E+02  0.15184511414E+02  0.38436610610E+02  0.51100000000E-03 0.  1.
         12    1    3    3    0    0 -0.13448569123E+02  0.39544642445E+02 -0.12689835612E+02  0.43654034011E+02  0.00000000000E+00 0. -1.
</event>
<event>
 7    1  0.2000468E-015  0.9000763E+02  0.7816164E-02  0.1186339E+00
        -11   -1    0    0    0    0  0.00000000000E+00  0.00000000000E+00  0.45593999997E+02  0.45594000000E+02  0.51100000000E-03 0.  1.
         11   -1    0    0    0    0 -0.00000000000E+00 -0.00000000000E+00 -0.45593999997E+02  0.45594000000E+02  0.51100000000E-03 0. -1.
    9900012    2    1    2    0    0 -0.57775196399E+00 -0.15130996623E+00 -0.10181320099E+01  0.90007625133E+02  0.89999884984E+02 0.  0.
         12    1    1    2    0    0  0.57775196399E+00  0.15130996623E+00  0.10181320099E+01  0.11803748673E+01  0.00000000000E+00 0. -1.
         11    1    3    3    0    0 -0.30083695525E+01 -0.38690297740E+01  0.95814052211E+01  0.10762109692E+02  0.51100000000E-03 0. -1.
        -11    1    3    3    0    0 -0.20818011243E+02 -0.24434283276E+02  0.14208294800E+02  0.35104122731E+02  0.51100000000E-03 0.  1.
         12    1    3    3    0    0  0.23248628832E+02  0.28152003084E+02 -0.24807832031E+02  0.44141392709E+02  0.00000000000E+00 0. -1.
</event>
<event>
 7    1  0.2000468E-015  0.9000770E+02  0.7816164E-02  0.1186339E+00
        -11   -1    0    0    0    0  0.00000000000E+00  0.00000000000E+00  0.45593999997E+02  0.45594000000E+02  0.51100000000E-03 0.  1.
         11   -1    0    0    0    0 -0.00000000000E+00 -0.00000000000E+00 -0.45593999997E+02  0.45594000000E+02  0.51100000000E-03 0. -1.
    9900012    2    1    2    0    0  0.65297702010E+00  0.23252796144E+00  0.95533811542E+00  0.90007695312E+02  0.89999956090E+02 0.  0.
         12    1    1    2    0    0 -0.65297702010E+00 -0.23252796144E+00 -0.95533811542E+00  0.11803046880E+01  0.00000000000E+00 0. -1.
         11    1    3    3    0    0 -0.91693693384E+01 -0.81361081047E+01 -0.32717394658E+01  0.12687705409E+02  0.51100000000E-03 0. -1.
        -11    1    3    3    0    0 -0.43386167713E+01  0.41179548175E+02  0.74254783892E+00  0.41414129967E+02  0.51100000000E-03 0.  1.
         12    1    3    3    0    0  0.14160963130E+02 -0.32810912109E+02  0.34845297423E+01  0.35905859936E+02  0.00000000000E+00 0. -1.
</event>
<event>
 7    1  0.2000468E-015  0.9000785E+02  0.7816164E-02  0.1186339E+00
        -11   -1    0    0    0    0  0.00000000000E+00  0.00000000000E+00  0.45593999997E+02  0.45594000000E+02  0.51100000000E-03 0.  1.
         11   -1    0    0    0    0 -0.00000000000E+00 -0.00000000000E+00 -0.45593999997E+02  0.45594000000E+02  0.51100000000E-03 0. -1.
    9900012    2    1    2    0    0 -0.25492452242E+00 -0.20854846822E+00  0.11332600400E+01  0.90007848614E+02  0.90000111416E+02 0.  0.
         12    1    1    2    0    0  0.25492452242E+00  0.20854846822E+00 -0.11332600400E+01  0.11801513860E+01  0.00000000000E+00 0. -1.
         11    1    3    3    0    0  0.20312999404E+01  0.28888124518E+01 -0.82049500472E+01  0.89326716255E+01  0.51100000000E-03 0. -1.
        -11    1    3    3    0    0  0.30795376862E+02 -0.25747513931E+02  0.11642413073E+01  0.40157753520E+02  0.51100000000E-03 0.  1.
         12    1    3    3    0    0 -0.33081601325E+02  0.22650153011E+02  0.81739687799E+01  0.40917423468E+02  0.00000000000E+00 0. -1.
</event>
<event>
 7    1  0.2000468E-015  0.9000776E+02  0.7816164E-02  0.1186339E+00
        -11   -1    0    0    0    0  0.00000000000E+00  0.00000000000E+00  0.45593999997E+02  0.45594000000E+02  0.51100000000E-03 0.  1.
         11   -1    0    0    0    0 -0.00000000000E+00 -0.00000000000E+00 -0.45593999997E+02  0.45594000000E+02  0.51100000000E-03 0. -1.
    9900012    2    1    2    0    0  0.10143191426E+01  0.14898492306E+00  0.58475481971E+00  0.90007755098E+02  0.90000016665E+02 0.  0.
         12    1    1    2    0    0 -0.10143191426E+01 -0.14898492306E+00 -0.58475481971E+00  0.11802449023E+01  0.00000000000E+00 0. -1.
         11    1    3    3    0    0 -0.16275667512E+02  0.25389945710E+01 -0.33128480142E+02  0.36997838358E+02  0.51100000000E-03 0. -1.
        -11    1    3    3    0    0  0.13166695505E+02 -0.16052818958E+02  0.56350964853E+01  0.21513000248E+02  0.51100000000E-03 0.  1.
        -12    1    3    3    0    0  0.41232911500E+01  0.13662809311E+02  0.28078138476E+02  0.31496916491E+02  0.00000000000E+00 0.  1.
</event>
<event>
 7    1  0.2000468E-015  0.9000766E+02  0.7816164E-02  0.1186339E+00
        -11   -1    0    0    0    0  0.00000000000E+00  0.00000000000E+00  0.45593999997E+02  0.45594000000E+02  0.51100000000E-03 0. -1.
         11   -1    0    0    0    0 -0.00000000000E+00 -0.00000000000E+00 -0.45593999997E+02  0.45594000000E+02  0.51100000000E-03 0.  1.
    9900012    2    1    2    0    0  0.90505739292E-01  0.11685820908E+01  0.13937268697E+00  0.90007661007E+02  0.89999921333E+02 0.  0.
         12    1    1    2    0    0 -0.90505739292E-01 -0.11685820908E+01 -0.13937268697E+00  0.11803389927E+01  0.00000000000E+00 0. -1.
         11    1    3    3    0    0 -0.57098072072E+01  0.10522419566E+01  0.78049482083E+01  0.97276065028E+01  0.51100000000E-03 0. -1.
        -11    1    3    3    0    0  0.24630507502E+02  0.31807046001E+02  0.65741933111E+01  0.40762361230E+02  0.51100000000E-03 0.  1.
         12    1    3    3    0    0 -0.18830194556E+02 -0.31690705866E+02 -0.14239768832E+02  0.39517693274E+02  0.00000000000E+00 0. -1.
</event>
<event>
 7    1  0.2000468E-015  0.9000775E+02  0.7816164E-02  0.1186339E+00
        -11   -1    0    0    0    0  0.00000000000E+00  0.00000000000E+00  0.45593999997E+02  0.45594000000E+02  0.51100000000E-03 0. -1.
         11   -1    0    0    0    0 -0.00000000000E+00 -0.00000000000E+00 -0.45593999997E+02  0.45594000000E+02  0.51100000000E-03 0.  1.
    9900012    2    1    2    0    0 -0.85773494184E+00 -0.60805103491E+00 -0.53624959573E+00  0.90007746247E+02  0.90000007698E+02 0.  0.
         12    1    1    2    0    0  0.85773494184E+00  0.60805103491E+00  0.53624959573E+00  0.11802537526E+01  0.00000000000E+00 0. -1.
         11    1    3    3    0    0  0.86608506859E+01  0.33203716400E+01 -0.47239085856E+01  0.10409155346E+02  0.51100000000E-03 0. -1.
        -11    1    3    3    0    0  0.32494902864E+02 -0.11587586933E+02  0.11303858030E+02  0.36303830235E+02  0.51100000000E-03 0.  1.
         12    1    3    3    0    0 -0.42013488492E+02  0.76591642584E+01 -0.71161990401E+01  0.43294760667E+02  0.00000000000E+00 0. -1.
</event>
<event>
 7    1  0.2000468E-015  0.9000784E+02  0.7816164E-02  0.1186339E+00
        -11   -1    0    0    0    0  0.00000000000E+00  0.00000000000E+00  0.45593999997E+02  0.45594000000E+02  0.51100000000E-03 0. -1.
         11   -1    0    0    0    0 -0.00000000000E+00 -0.00000000000E+00 -0.45593999997E+02  0.45594000000E+02  0.51100000000E-03 0.  1.
    9900012    2    1    2    0    0 -0.54063624942E+00  0.11006669621E+00 -0.10432470584E+01  0.90007844647E+02  0.90000107397E+02 0.  0.
         12    1    1    2    0    0  0.54063624942E+00 -0.11006669621E+00  0.10432470584E+01  0.11801553528E+01  0.00000000000E+00 0. -1.
         11    1    3    3    0    0 -0.33003317544E+02 -0.58347583718E+00 -0.14652833335E+02  0.36114608373E+02  0.51100000000E-03 0. -1.
        -11    1    3    3    0    0 -0.38874617547E+01  0.96694057209E+01 -0.55786911435E+01  0.11820810506E+02  0.51100000000E-03 0.  1.
        -12    1    3    3    0    0  0.36350143049E+02 -0.89758631875E+01  0.19188277420E+02  0.42072425768E+02  0.00000000000E+00 0.  1.
</event>
<event>
 7    1  0.2000468E-015  0.9000769E+02  0.7816164E-02  0.1186339E+00
        -11   -1    0    0    0    0  0.00000000000E+00  0.00000000000E+00  0.45593999997E+02  0.45594000000E+02  0.51100000000E-03 0.  1.
         11   -1    0    0    0    0 -0.00000000000E+00 -0.00000000000E+00 -0.45593999997E+02  0.45594000000E+02  0.51100000000E-03 0. -1.
    9900012    2    1    2    0    0 -0.13582049126E+00  0.88702320906E-02  0.11724381968E+01  0.90007687663E+02  0.89999948340E+02 0.  0.
         12    1    1    2    0    0  0.13582049126E+00 -0.88702320906E-02 -0.11724381968E+01  0.11803123367E+01  0.00000000000E+00 0. -1.
         11    1    3    3    0    0  0.34528390015E+00 -0.30997960416E+02  0.35059943603E+01  0.31197512202E+02  0.51100000000E-03 0. -1.
        -11    1    3    3    0    0 -0.18967874110E+02 -0.14165183673E+01  0.71175567745E+01  0.20308776113E+02  0.51100000000E-03 0.  1.
        -12    1    3    3    0    0  0.18486769718E+02  0.32423349015E+02 -0.94511129379E+01  0.38501399348E+02  0.00000000000E+00 0.  1.
</event>
<event>
 7    1  0.2000468E-015  0.9000790E+02  0.7816164E-02  0.1186339E+00
        -11   -1    0    0    0    0  0.00000000000E+00  0.00000000000E+00  0.45593999997E+02  0.45594000000E+02  0.51100000000E-03 0. -1.
         11   -1    0    0    0    0 -0.00000000000E+00 -0.00000000000E+00 -0.45593999997E+02  0.45594000000E+02  0.51100000000E-03 0.  1.
    9900012    2    1    2    0    0  0.89124299205E+00 -0.77319056318E+00  0.22580775832E-01  0.90007895085E+02  0.90000158500E+02 0.  0.
         12    1    1    2    0    0 -0.89124299205E+00  0.77319056318E+00 -0.22580775832E-01  0.11801049145E+01  0.00000000000E+00 0. -1.
         11    1    3    3    0    0  0.40904582973E+02 -0.11653085980E+02 -0.50612228691E+01  0.42832175969E+02  0.51100000000E-03 0. -1.
        -11    1    3    3    0    0 -0.43804510747E+01 -0.10207343706E+01  0.83313947604E+01  0.94679664759E+01  0.51100000000E-03 0.  1.
        -12    1    3    3    0    0 -0.35632888906E+02  0.11900629788E+02 -0.32475911155E+01  0.37707752641E+02  0.00000000000E+00 0.  1.
</event>
<event>
 7    1  0.2000468E-015  0.9000772E+02  0.7816164E-02  0.1186339E+00
        -11   -1    0    0    0    0  0.00000000000E+00  0.00000000000E+00  0.45593999997E+02  0.45594000000E+02  0.51100000000E-03 0.  1.
         11   -1    0    0    0    0 -0.00000000000E+00 -0.00000000000E+00 -0.45593999997E+02  0.45594000000E+02  0.51100000000E-03 0. -1.
    9900012    2    1    2    0    0 -0.78813246508E+00 -0.86706622649E+00 -0.14174879511E+00  0.90007724886E+02  0.89999986055E+02 0.  0.
         12    1    1    2    0    0  0.78813246508E+00  0.86706622649E+00  0.14174879511E+00  0.11802751139E+01  0.00000000000E+00 0. -1.
         11    1    3    3    0    0  0.36765850482E+02  0.15514289499E+02 -0.93420796759E+00  0.39916083038E+02  0.51100000000E-03 0. -1.
        -11    1    3    3    0    0  0.24338054946E+01 -0.56423409564E+01 -0.54567428724E+01  0.82179963307E+01  0.51100000000E-03 0.  1.
        -12    1    3    3    0    0 -0.39987788442E+02 -0.10739014769E+02  0.62492020449E+01  0.41873645517E+02  0.00000000000E+00 0.  1.
</event>
<event>
 7    1  0.2000468E-015  0.9000743E+02  0.7816164E-02  0.1186340E+00
        -11   -1    0    0    0    0  0.00000000000E+00  0.00000000000E+00  0.45593999997E+02  0.45594000000E+02  0.51100000000E-03 0. -1.
         11   -1    0    0    0    0 -0.00000000000E+00 -0.00000000000E+00 -0.45593999997E+02  0.45594000000E+02  0.51100000000E-03 0.  1.
    9900012    2    1    2    0    0 -0.35250731686E-01 -0.11244716082E+01 -0.35786381740E+00  0.90007430001E+02  0.89999687276E+02 0.  0.
         12    1    1    2    0    0  0.35250731686E-01  0.11244716082E+01  0.35786381740E+00  0.11805699994E+01  0.00000000000E+00 0. -1.
         11    1    3    3    0    0  0.20465863385E+01  0.44758616352E+01 -0.80999677665E+01  0.94779391799E+01  0.51100000000E-03 0. -1.
        -11    1    3    3    0    0 -0.11951559442E+02 -0.38251066169E+02 -0.11070518110E+02  0.41575716562E+02  0.51100000000E-03 0.  1.
         12    1    3    3    0    0  0.98697223715E+01  0.32650732926E+02  0.18812622059E+02  0.38953774259E+02  0.00000000000E+00 0. -1.
</event>
<event>
 7    1  0.2000468E-015  0.9000782E+02  0.7816164E-02  0.1186339E+00
        -11   -1    0    0    0    0  0.00000000000E+00  0.00000000000E+00  0.45593999997E+02  0.45594000000E+02  0.51100000000E-03 0. -1.
         11   -1    0    0    0    0 -0.00000000000E+00 -0.00000000000E+00 -0.45593999997E+02  0.45594000000E+02  0.51100000000E-03 0.  1.
    9900012    2    1    2    0    0 -0.10868457454E+01 -0.36835327358E+00 -0.27550364976E+00  0.90007822018E+02  0.90000084469E+02 0.  0.
         12    1    1    2    0    0  0.10868457454E+01  0.36835327358E+00  0.27550364976E+00  0.11801779821E+01  0.00000000000E+00 0. -1.
         11    1    3    3    0    0  0.21451239180E+02  0.25148084543E+02 -0.19208711421E+02  0.38230307522E+02  0.51100000000E-03 0. -1.
        -11    1    3    3    0    0 -0.30007402440E+01  0.83930841492E+01  0.19943098782E+01  0.91337602169E+01  0.51100000000E-03 0.  1.
        -12    1    3    3    0    0 -0.19537344682E+02 -0.33909521966E+02  0.16938897893E+02  0.42643754279E+02  0.00000000000E+00 0.  1.
</event>
<event>
 7    1  0.2707576E-015  0.9000775E+02  0.7816164E-02  0.1186339E+00
        -11   -1    0    0    0    0  0.00000000000E+00  0.00000000000E+00  0.45593999997E+02  0.45594000000E+02  0.51100000000E-03 0.  1.
         11   -1    0    0    0    0 -0.00000000000E+00 -0.00000000000E+00 -0.45593999997E+02  0.45594000000E+02  0.51100000000E-03 0. -1.
    9900012    2    1    2    0    0  0.45070850470E+00 -0.10882948504E+01 -0.73893884221E-01  0.90007752507E+02  0.90000014041E+02 0.  0.
         12    1    1    2    0    0 -0.45070850470E+00  0.10882948504E+01  0.73893884221E-01  0.11802474926E+01  0.00000000000E+00 0. -1.
         11    1    3    3    0    0 -0.32673175262E+02 -0.16623103217E+01 -0.16433124134E+02  0.36610752879E+02  0.51100000000E-03 0. -1.
        -11    1    3    3    0    0 -0.33870944336E+01  0.42096120193E+01 -0.77834939108E+01  0.94750208325E+01  0.51100000000E-03 0.  1.
        -12    1    3    3    0    0  0.36510978201E+02 -0.36355965479E+01  0.24142724160E+02  0.43921978796E+02  0.00000000000E+00 0.  1.
</event>
<event>
 7    1  0.2000468E-015  0.9000784E+02  0.7816164E-02  0.1186339E+00
        -11   -1    0    0    0    0  0.00000000000E+00  0.00000000000E+00  0.45593999997E+02  0.45594000000E+02  0.51100000000E-03 0.  1.
         11   -1    0    0    0    0 -0.00000000000E+00 -0.00000000000E+00 -0.45593999997E+02  0.45594000000E+02  0.51100000000E-03 0. -1.
    9900012    2    1    2    0    0 -0.34715557603E+00  0.84932683838E+00  0.74223553018E+00  0.90007836175E+02  0.90000098812E+02 0.  0.
         12    1    1    2    0    0  0.34715557603E+00 -0.84932683838E+00 -0.74223553018E+00  0.11801638253E+01  0.00000000000E+00 0. -1.
         11    1    3    3    0    0 -0.19967527441E+02 -0.36872915708E+02 -0.89411643464E+01  0.42874916735E+02  0.51100000000E-03 0. -1.
        -11    1    3    3    0    0 -0.29142715883E+00  0.78430378867E+01 -0.38741276907E+01  0.87525446989E+01  0.51100000000E-03 0.  1.
        -12    1    3    3    0    0  0.19911799024E+02  0.29879204660E+02  0.13557527567E+02  0.38380374740E+02  0.00000000000E+00 0.  1.
</event>
<event>
 7    1  0.2000468E-015  0.9000778E+02  0.7816164E-02  0.1186339E+00
        -11   -1    0    0    0    0  0.00000000000E+00  0.00000000000E+00  0.45593999997E+02  0.45594000000E+02  0.51100000000E-03 0. -1.
         11   -1    0    0    0    0 -0.00000000000E+00 -0.00000000000E+00 -0.45593999997E+02  0.45594000000E+02  0.51100000000E-03 0.  1.
    9900012    2    1    2    0    0  0.11026989158E+01 -0.41447877420E+00  0.71995207606E-01  0.90007779316E+02  0.90000041203E+02 0.  0.
         12    1    1    2    0    0 -0.11026989158E+01  0.41447877420E+00 -0.71995207606E-01  0.11802206841E+01  0.00000000000E+00 0. -1.
         11    1    3    3    0    0  0.39375367905E+01  0.67697560696E+01 -0.55988926769E+01  0.96271175690E+01  0.51100000000E-03 0. -1.
        -11    1    3    3    0    0 -0.14148263325E+02 -0.11610850012E+02 -0.34151317298E+02  0.38746582643E+02  0.51100000000E-03 0.  1.
         12    1    3    3    0    0  0.11313425450E+02  0.44266151681E+01  0.39822205182E+02  0.41634079104E+02  0.00000000000E+00 0. -1.
</event>
<event>
 7    1  0.2887686E-015  0.9000775E+02  0.7816164E-02  0.1186339E+00
        -11   -1    0    0    0    0  0.00000000000E+00  0.00000000000E+00  0.45593999997E+02  0.45594000000E+02  0.51100000000E-03 0. -1.
         11   -1    0    0    0    0 -0.00000000000E+00 -0.00000000000E+00 -0.45593999997E+02  0.45594000000E+02  0.51100000000E-03 0.  1.
    9900012    2    1    2    0    0  0.10093745938E+00  0.62957658193E+00 -0.99319830063E+00  0.90007746677E+02  0.90000008133E+02 0.  0.
         12    1    1    2    0    0 -0.10093745938E+00 -0.62957658193E+00  0.99319830063E+00  0.11802533235E+01  0.00000000000E+00 0. -1.
         11    1    3    3    0    0  0.36133481032E+02  0.22120750361E+01  0.90019886230E+00  0.36212319529E+02  0.51100000000E-03 0. -1.
        -11    1    3    3    0    0  0.79215152744E+01  0.48995226757E+01 -0.86099827828E+00  0.93539855136E+01  0.51100000000E-03 0.  1.
        -12    1    3    3    0    0 -0.43954058847E+02 -0.64820211299E+01 -0.10323988847E+01  0.44441441634E+02  0.00000000000E+00 0.  1.
</event>
<event>
 7    1  0.2000468E-015  0.9000774E+02  0.7816164E-02  0.1186339E+00
        -11   -1    0    0    0    0  0.00000000000E+00  0.00000000000E+00  0.45593999997E+02  0.45594000000E+02  0.51100000000E-03 0. -1.
         11   -1    0    0    0    0 -0.00000000000E+00 -0.00000000000E+00 -0.45593999997E+02  0.45594000000E+02  0.51100000000E-03 0.  1.
    9900012    2    1    2    0    0  0.56499843012E+00  0.10358515253E+01 -0.28348348412E-01  0.90007739335E+02  0.90000000694E+02 0.  0.
         12    1    1    2    0    0 -0.56499843012E+00 -0.10358515253E+01  0.28348348412E-01  0.11802606650E+01  0.00000000000E+00 0. -1.
         11    1    3    3    0    0 -0.15965246765E+02  0.11916634666E+02  0.31728338556E+02  0.37464419838E+02  0.51100000000E-03 0. -1.
        -11    1    3    3    0    0  0.24254224503E+01  0.10466767948E+02  0.12104525446E+01  0.10812081250E+02  0.51100000000E-03 0.  1.
        -12    1    3    3    0    0  0.14104822745E+02 -0.21347551088E+02 -0.32967139449E+02  0.41731238246E+02  0.00000000000E+00 0.  1.
</event>
<event>
 7    1  0.2000468E-015  0.9000775E+02  0.7816164E-02  0.1186339E+00
        -11   -1    0    0    0    0  0.00000000000E+00  0.00000000000E+00  0.45593999997E+02  0.45594000000E+02  0.51100000000E-03 0.  1.
         11   -1    0    0    0    0 -0.00000000000E+00 -0.00000000000E+00 -0.45593999997E+02  0.45594000000E+02  0.51100000000E-03 0. -1.
    9900012    2    1    2    0    0  0.34475619750E+00  0.32742071276E+00 -0.10802439974E+01  0.90007750767E+02  0.90000012277E+02 0.  0.
         12    1    1    2    0    0 -0.34475619750E+00 -0.32742071276E+00  0.10802439974E+01  0.11802492333E+01  0.00000000000E+00 0. -1.
         11    1    3    3    0    0 -0.18291491120E+01  0.32625458347E+01  0.80981472575E+01  0.89202007299E+01  0.51100000000E-03 0. -1.
        -11    1    3    3    0    0  0.22034085339E+02  0.87788835494E+01  0.28398440627E+02  0.37000555988E+02  0.51100000000E-03 0.  1.
         12    1    3    3    0    0 -0.19860180030E+02 -0.11714008671E+02 -0.37576831882E+02  0.44086994049E+02  0.00000000000E+00 0. -1.
</event>
<event>
 7    1  0.2000468E-015  0.9000752E+02  0.7816164E-02  0.1186339E+00
        -11   -1    0    0    0    0  0.00000000000E+00  0.00000000000E+00  0.45593999997E+02  0.45594000000E+02  0.51100000000E-03 0.  1.
         11   -1    0    0    0    0 -0.00000000000E+00 -0.00000000000E+00 -0.45593999997E+02  0.45594000000E+02  0.51100000000E-03 0. -1.
    9900012    2    1    2    0    0 -0.39331199972E-01  0.66536670268E+00  0.97430758020E+00  0.90007519143E+02  0.89999777596E+02 0.  0.
         12    1    1    2    0    0  0.39331199972E-01 -0.66536670268E+00 -0.97430758020E+00  0.11804808568E+01  0.00000000000E+00 0. -1.
         11    1    3    3    0    0  0.17338422082E+02  0.24845288442E+01 -0.33063680109E+02  0.37416583308E+02  0.51100000000E-03 0. -1.
        -11    1    3    3    0    0  0.99628057950E+01  0.34631808330E+01  0.31586274392E+01  0.11010360955E+02  0.51100000000E-03 0.  1.
        -12    1    3    3    0    0 -0.27340559077E+02 -0.52823429745E+01  0.30879360250E+02  0.41580574880E+02  0.00000000000E+00 0.  1.
</event>
<event>
 7    1  0.2000468E-015  0.9000775E+02  0.7816164E-02  0.1186339E+00
        -11   -1    0    0    0    0  0.00000000000E+00  0.00000000000E+00  0.45593999997E+02  0.45594000000E+02  0.51100000000E-03 0.  1.
         11   -1    0    0    0    0 -0.00000000000E+00 -0.00000000000E+00 -0.45593999997E+02  0.45594000000E+02  0.51100000000E-03 0. -1.
    9900012    2    1    2    0    0  0.87090002603E+00 -0.63069738676E+00  0.48656556070E+00  0.90007749139E+02  0.90000010628E+02 0.  0.
         12    1    1    2    0    0 -0.87090002603E+00  0.63069738676E+00 -0.48656556070E+00  0.11802508606E+01  0.00000000000E+00 0. -1.
         11    1    3    3    0    0  0.20049722907E+02  0.18998511238E+02 -0.25720946138E+02  0.37742573950E+02  0.51100000000E-03 0. -1.
        -11    1    3    3    0    0  0.10361554013E+02 -0.19098747776E+01  0.39462540955E+01  0.11250881960E+02  0.51100000000E-03 0.  1.
        -12    1    3    3    0    0 -0.29540376894E+02 -0.17719333847E+02  0.22261257603E+02  0.41014293229E+02  0.00000000000E+00 0.  1.
</event>
<event>
 7    1  0.2000468E-015  0.9000776E+02  0.7816164E-02  0.1186339E+00
        -11   -1    0    0    0    0  0.00000000000E+00  0.00000000000E+00  0.45593999997E+02  0.45594000000E+02  0.51100000000E-03 0. -1.
         11   -1    0    0    0    0 -0.00000000000E+00 -0.00000000000E+00 -0.45593999997E+02  0.45594000000E+02  0.51100000000E-03 0.  1.
    9900012    2    1    2    0    0  0.47495176156E-01 -0.68051811301E+00 -0.96312536848E+00  0.90007758004E+02  0.90000019610E+02 0.  0.
         12    1    1    2    0    0 -0.47495176156E-01  0.68051811301E+00  0.96312536848E+00  0.11802419961E+01  0.00000000000E+00 0. -1.
         11    1    3    3    0    0 -0.12193350219E+02 -0.20486384210E+01  0.48003104117E+01  0.13263396596E+02  0.51100000000E-03 0. -1.
        -11    1    3    3    0    0  0.14852525334E+02 -0.35585732058E+02 -0.88713302893E+01  0.39568198547E+02  0.51100000000E-03 0.  1.
         12    1    3    3    0    0 -0.26116799389E+01  0.36953852366E+02  0.31078945091E+01  0.37176162861E+02  0.00000000000E+00 0. -1.
</event>
<event>
 7    1  0.2000468E-015  0.9000778E+02  0.7816164E-02  0.1186339E+00
        -11   -1    0    0    0    0  0.00000000000E+00  0.00000000000E+00  0.45593999997E+02  0.45594000000E+02  0.51100000000E-03 0.  1.
         11   -1    0    0    0    0 -0.00000000000E+00 -0.00000000000E+00 -0.45593999997E+02  0.45594000000E+02  0.51100000000E-03 0. -1.
    9900012    2    1    2    0    0  0.11722788375E+00 -0.41911559122E-01  0.11736314761E+01  0.90007784004E+02  0.90000045953E+02 0.  0.
         12    1    1    2    0    0 -0.11722788375E+00  0.41911559122E-01 -0.11736314761E+01  0.11802159960E+01  0.00000000000E+00 0. -1.
         11    1    3    3    0    0  0.40786655255E+01  0.28915156312E+01  0.76599484711E+01  0.91471955240E+01  0.51100000000E-03 0. -1.
        -11    1    3    3    0    0  0.38124113561E+02 -0.18091342024E+01 -0.67494159887E+01  0.38759200428E+02  0.51100000000E-03 0.  1.
         12    1    3    3    0    0 -0.42085551203E+02 -0.11242929879E+01  0.26309899377E+00  0.42101388052E+02  0.00000000000E+00 0. -1.
</event>
<event>
 7    1  0.2000468E-015  0.9000769E+02  0.7816164E-02  0.1186339E+00
        -11   -1    0    0    0    0  0.00000000000E+00  0.00000000000E+00  0.45593999997E+02  0.45594000000E+02  0.51100000000E-03 0. -1.
         11   -1    0    0    0    0 -0.00000000000E+00 -0.00000000000E+00 -0.45593999997E+02  0.45594000000E+02  0.51100000000E-03 0.  1.
    9900012    2    1    2    0    0  0.50905445694E+00  0.42668472165E+00 -0.97566972086E+00  0.90007691695E+02  0.89999952425E+02 0.  0.
         12    1    1    2    0    0 -0.50905445694E+00 -0.42668472165E+00  0.97566972086E+00  0.11803083055E+01  0.00000000000E+00 0. -1.
         11    1    3    3    0    0  0.71558373960E+01  0.53399361974E+01 -0.80960834841E+01  0.12052696606E+02  0.51100000000E-03 0. -1.
        -11    1    3    3    0    0 -0.13869260808E+02  0.27673429656E+02 -0.18336224559E+02  0.35977663010E+02  0.51100000000E-03 0.  1.
         12    1    3    3    0    0  0.72224778690E+01 -0.32586681132E+02  0.25456638322E+02  0.41977332079E+02  0.00000000000E+00 0. -1.
</event>
<event>
 7    1  0.2000468E-015  0.9000774E+02  0.7816164E-02  0.1186339E+00
        -11   -1    0    0    0    0  0.00000000000E+00  0.00000000000E+00  0.45593999997E+02  0.45594000000E+02  0.51100000000E-03 0.  1.
         11   -1    0    0    0    0 -0.00000000000E+00 -0.00000000000E+00 -0.45593999997E+02  0.45594000000E+02  0.51100000000E-03 0. -1.
    9900012    2    1    2    0    0  0.10763100545E+01 -0.32674169210E+00  0.35750275388E+00  0.90007740840E+02  0.90000002219E+02 0.  0.
         12    1    1    2    0    0 -0.10763100545E+01  0.32674169210E+00 -0.35750275388E+00  0.11802591605E+01  0.00000000000E+00 0. -1.
         11    1    3    3    0    0  0.23315864503E+01 -0.33925263788E+02 -0.19755337055E+02  0.39327257226E+02  0.51100000000E-03 0. -1.
        -11    1    3    3    0    0  0.50559458136E+01 -0.45762037141E+01  0.71334389748E+01  0.98686463292E+01  0.51100000000E-03 0.  1.
        -12    1    3    3    0    0 -0.63112222093E+01  0.38174725811E+02  0.12979400835E+02  0.40811837284E+02  0.00000000000E+00 0.  1.
</event>
<event>
 7    1  0.2000468E-015  0.9000775E+02  0.7816164E-02  0.1186339E+00
        -11   -1    0    0    0    0  0.00000000000E+00  0.00000000000E+00  0.45593999997E+02  0.45594000000E+02  0.51100000000E-03 0. -1.
         11   -1    0    0    0    0 -0.00000000000E+00 -0.00000000000E+00 -0.45593999997E+02  0.45594000000E+02  0.51100000000E-03 0.  1.
    9900012    2    1    2    0    0 -0.80062015436E+00  0.19831043886E+00 -0.84419763940E+00  0.90007750316E+02  0.90000011820E+02 0.  0.
         12    1    1    2    0    0  0.80062015436E+00 -0.19831043886E+00  0.84419763940E+00  0.11802496838E+01  0.00000000000E+00 0. -1.
         11    1    3    3    0    0  0.26203259565E+02 -0.39989533083E+01  0.20386577668E+02  0.33439721719E+02  0.51100000000E-03 0. -1.
        -11    1    3    3    0    0  0.14536872958E+01  0.14525042306E+02  0.60635134218E+01  0.15806842063E+02  0.51100000000E-03 0.  1.
        -12    1    3    3    0    0 -0.28457567015E+02 -0.10327778559E+02 -0.27294288729E+02  0.40761186534E+02  0.00000000000E+00 0.  1.
</event>
<event>
 7    1  0.2000468E-015  0.9000769E+02  0.7816164E-02  0.1186339E+00
        -11   -1    0    0    0    0  0.00000000000E+00  0.00000000000E+00  0.45593999997E+02  0.45594000000E+02  0.51100000000E-03 0.  1.
         11   -1    0    0    0    0 -0.00000000000E+00 -0.00000000000E+00 -0.45593999997E+02  0.45594000000E+02  0.51100000000E-03 0. -1.
    9900012    2    1    2    0    0 -0.89655987323E-01  0.56589390227E+00  0.10319239327E+01  0.90007686013E+02  0.89999946668E+02 0.  0.
         12    1    1    2    0    0  0.89655987323E-01 -0.56589390227E+00 -0.10319239327E+01  0.11803139869E+01  0.00000000000E+00 0. -1.
         11    1    3    3    0    0 -0.10484808794E+02  0.33454999098E+02  0.94773365983E+01  0.36317875618E+02  0.51100000000E-03 0. -1.
        -11    1    3    3    0    0  0.29716164411E-01  0.87363156169E+01  0.30943026020E+01  0.92681606839E+01  0.51100000000E-03 0.  1.
        -12    1    3    3    0    0  0.10365436642E+02 -0.41625420813E+02 -0.11539715268E+02  0.44421649712E+02  0.00000000000E+00 0.  1.
</event>
<event>
 7    1  0.2000468E-015  0.9000770E+02  0.7816164E-02  0.1186339E+00
        -11   -1    0    0    0    0  0.00000000000E+00  0.00000000000E+00  0.45593999997E+02  0.45594000000E+02  0.51100000000E-03 0. -1.
         11   -1    0    0    0    0 -0.00000000000E+00 -0.00000000000E+00 -0.45593999997E+02  0.45594000000E+02  0.51100000000E-03 0.  1.
    9900012    2    1    2    0    0 -0.41097212454E+00 -0.10819632136E+01 -0.23145783099E+00  0.90007696984E+02  0.89999957784E+02 0.  0.
         12    1    1    2    0    0  0.41097212454E+00  0.10819632136E+01  0.23145783099E+00  0.11803030163E+01  0.00000000000E+00 0. -1.
         11    1    3    3    0    0  0.28521862190E+02 -0.23047384289E+02  0.12895795339E+02  0.38871327261E+02  0.51100000000E-03 0. -1.
        -11    1    3    3    0    0 -0.10697750371E+01  0.18350458620E+01  0.96628394510E+01  0.98935473145E+01  0.51100000000E-03 0.  1.
        -12    1    3    3    0    0 -0.27863059277E+02  0.20130375214E+02 -0.22790092621E+02  0.41242822408E+02  0.00000000000E+00 0.  1.
</event>
<event>
 7    1  0.2000468E-015  0.9000778E+02  0.7816164E-02  0.1186339E+00
        -11   -1    0    0    0    0  0.00000000000E+00  0.00000000000E+00  0.45593999997E+02  0.45594000000E+02  0.51100000000E-03 0. -1.
         11   -1    0    0    0    0 -0.00000000000E+00 -0.00000000000E+00 -0.45593999997E+02  0.45594000000E+02  0.51100000000E-03 0.  1.
    9900012    2    1    2    0    0 -0.81690958152E+00 -0.67911447479E+00 -0.51418821995E+00  0.90007776606E+02  0.90000038457E+02 0.  0.
         12    1    1    2    0    0  0.81690958152E+00  0.67911447479E+00  0.51418821995E+00  0.11802233940E+01  0.00000000000E+00 0. -1.
         11    1    3    3    0    0  0.26006681189E+02  0.21358358220E+02 -0.19218714381E+02  0.38754172873E+02  0.51100000000E-03 0. -1.
        -11    1    3    3    0    0 -0.70040579498E+01  0.85849032233E+01  0.61805044406E+01  0.12686844624E+02  0.51100000000E-03 0.  1.
        -12    1    3    3    0    0 -0.19819532821E+02 -0.30622375918E+02  0.12524021721E+02  0.38566759109E+02  0.00000000000E+00 0.  1.
</event>
<event>
 7    1  0.2000468E-015  0.9000784E+02  0.7816164E-02  0.1186339E+00
        -11   -1    0    0    0    0  0.00000000000E+00  0.00000000000E+00  0.45593999997E+02  0.45594000000E+02  0.51100000000E-03 0. -1.
         11   -1    0    0    0    0 -0.00000000000E+00 -0.00000000000E+00 -0.45593999997E+02  0.45594000000E+02  0.51100000000E-03 0.  1.
    9900012    2    1    2    0    0  0.95282278276E+00  0.26155115390E+00  0.64536229412E+00  0.90007842065E+02  0.90000104780E+02 0.  0.
         12    1    1    2    0    0 -0.95282278276E+00 -0.26155115390E+00 -0.64536229412E+00  0.11801579352E+01  0.00000000000E+00 0. -1.
         11    1    3    3    0    0  0.23925153925E+02  0.24307904403E+02  0.27095519180E+02  0.43559779231E+02  0.51100000000E-03 0. -1.
        -11    1    3    3    0    0 -0.58859571658E+01  0.19570922830E+01 -0.85139336327E+01  0.10533839192E+02  0.51100000000E-03 0.  1.
        -12    1    3    3    0    0 -0.17086373977E+02 -0.26003445532E+02 -0.17936223253E+02  0.35914223641E+02  0.00000000000E+00 0.  1.
</event>
<event>
 7    1  0.2000468E-015  0.9000773E+02  0.7816164E-02  0.1186339E+00
        -11   -1    0    0    0    0  0.00000000000E+00  0.00000000000E+00  0.45593999997E+02  0.45594000000E+02  0.51100000000E-03 0.  1.
         11   -1    0    0    0    0 -0.00000000000E+00 -0.00000000000E+00 -0.45593999997E+02  0.45594000000E+02  0.51100000000E-03 0. -1.
    9900012    2    1    2    0    0  0.10963690369E+01 -0.37655724682E+00 -0.22186678017E+00  0.90007726602E+02  0.89999987793E+02 0.  0.
         12    1    1    2    0    0 -0.10963690369E+01  0.37655724682E+00  0.22186678017E+00  0.11802733977E+01  0.00000000000E+00 0. -1.
         11    1    3    3    0    0 -0.72519297839E+01 -0.55606373067E+01  0.22839927053E+01  0.94195432897E+01  0.51100000000E-03 0. -1.
        -11    1    3    3    0    0  0.77521704318E+01 -0.36917638084E+02  0.41840204545E+01  0.37954106175E+02  0.51100000000E-03 0.  1.
         12    1    3    3    0    0  0.59612838890E+00  0.42101718144E+02 -0.66898799400E+01  0.42634077137E+02  0.00000000000E+00 0. -1.
</event>
<event>
 7    1  0.2000468E-015  0.9000782E+02  0.7816164E-02  0.1186339E+00
        -11   -1    0    0    0    0  0.00000000000E+00  0.00000000000E+00  0.45593999997E+02  0.45594000000E+02  0.51100000000E-03 0.  1.
         11   -1    0    0    0    0 -0.00000000000E+00 -0.00000000000E+00 -0.45593999997E+02  0.45594000000E+02  0.51100000000E-03 0. -1.
    9900012    2    1    2    0    0 -0.45899055938E+00  0.55504427633E+00  0.93492310746E+00  0.90007818785E+02  0.90000081193E+02 0.  0.
         12    1    1    2    0    0  0.45899055938E+00 -0.55504427633E+00 -0.93492310746E+00  0.11801812145E+01  0.00000000000E+00 0. -1.
         11    1    3    3    0    0 -0.24131187984E+01  0.21602479520E+02 -0.24835857721E+02  0.33004698041E+02  0.51100000000E-03 0. -1.
        -11    1    3    3    0    0  0.16437956732E+01  0.14852377484E+02  0.74226344474E+01  0.16685043709E+02  0.51100000000E-03 0.  1.
        -12    1    3    3    0    0  0.31033256583E+00 -0.35899812729E+02  0.18348146381E+02  0.40318077036E+02  0.00000000000E+00 0.  1.
</event>
<event>
 7    1  0.2000468E-015  0.9000775E+02  0.7816164E-02  0.1186339E+00
        -11   -1    0    0    0    0  0.00000000000E+00  0.00000000000E+00  0.45593999997E+02  0.45594000000E+02  0.51100000000E-03 0.  1.
         11   -1    0    0    0    0 -0.00000000000E+00 -0.00000000000E+00 -0.45593999997E+02  0.45594000000E+02  0.51100000000E-03 0. -1.
    9900012    2    1    2    0    0 -0.66079992761E+00 -0.95964017618E+00  0.18822904486E+00  0.90007747491E+02  0.90000008958E+02 0.  0.
         12    1    1    2    0    0  0.66079992761E+00  0.95964017618E+00 -0.18822904486E+00  0.11802525092E+01  0.00000000000E+00 0. -1.
         11    1    3    3    0    0 -0.20301722434E+01  0.88680962368E+01  0.15820118222E+01  0.92340398456E+01  0.51100000000E-03 0. -1.
        -11    1    3    3    0    0 -0.34640441111E+02  0.14057444450E+02  0.19374502984E+01  0.37434284002E+02  0.51100000000E-03 0.  1.
         12    1    3    3    0    0  0.36009813427E+02 -0.23885180863E+02 -0.33312330758E+01  0.43339423643E+02  0.00000000000E+00 0. -1.
</event>
<event>
 7    1  0.2000468E-015  0.9000776E+02  0.7816164E-02  0.1186339E+00
        -11   -1    0    0    0    0  0.00000000000E+00  0.00000000000E+00  0.45593999997E+02  0.45594000000E+02  0.51100000000E-03 0. -1.
         11   -1    0    0    0    0 -0.00000000000E+00 -0.00000000000E+00 -0.45593999997E+02  0.45594000000E+02  0.51100000000E-03 0.  1.
    9900012    2    1    2    0    0  0.53648462041E+00 -0.38635328545E+00 -0.97769019078E+00  0.90007761584E+02  0.90000023237E+02 0.  0.
         12    1    1    2    0    0 -0.53648462041E+00  0.38635328545E+00  0.97769019078E+00  0.11802384159E+01  0.00000000000E+00 0. -1.
         11    1    3    3    0    0  0.32328935551E+02 -0.15343150236E+02  0.14626839655E+02  0.38658980477E+02  0.51100000000E-03 0. -1.
        -11    1    3    3    0    0  0.14977129818E+00  0.47267754771E-01  0.85916110098E+01  0.85930463567E+01  0.51100000000E-03 0.  1.
        -12    1    3    3    0    0 -0.31942222228E+02  0.14909529196E+02 -0.24196140855E+02  0.42755734750E+02  0.00000000000E+00 0.  1.
</event>
<event>
 7    1  0.5067684E-015  0.9000779E+02  0.7816164E-02  0.1186339E+00
        -11   -1    0    0    0    0  0.00000000000E+00  0.00000000000E+00  0.45593999997E+02  0.45594000000E+02  0.51100000000E-03 0. -1.
         11   -1    0    0    0    0 -0.00000000000E+00 -0.00000000000E+00 -0.45593999997E+02  0.45594000000E+02  0.51100000000E-03 0.  1.
    9900012    2    1    2    0    0  0.46072332217E+00  0.21836982370E+00 -0.10643979482E+01  0.90007790548E+02  0.90000052583E+02 0.  0.
         12    1    1    2    0    0 -0.46072332217E+00 -0.21836982370E+00  0.10643979482E+01  0.11802094525E+01  0.00000000000E+00 0. -1.
         11    1    3    3    0    0 -0.15279998103E+02  0.22081710667E+01  0.37554765179E+02  0.40604368600E+02  0.51100000000E-03 0. -1.
        -11    1    3    3    0    0  0.10381673194E+02  0.95777982092E+00 -0.12511233219E+00  0.10426511107E+02  0.51100000000E-03 0.  1.
        -12    1    3    3    0    0  0.53590482307E+01 -0.29475810639E+01 -0.38494050795E+02  0.38976910841E+02  0.00000000000E+00 0.  1.
</event>
<event>
 7    1  0.2000468E-015  0.9000769E+02  0.7816164E-02  0.1186339E+00
        -11   -1    0    0    0    0  0.00000000000E+00  0.00000000000E+00  0.45593999997E+02  0.45594000000E+02  0.51100000000E-03 0.  1.
         11   -1    0    0    0    0 -0.00000000000E+00 -0.00000000000E+00 -0.45593999997E+02  0.45594000000E+02  0.51100000000E-03 0. -1.
    9900012    2    1    2    0    0  0.29907512757E-01  0.10063367075E+01  0.61606287821E+00  0.90007685848E+02  0.89999946501E+02 0.  0.
         12    1    1    2    0    0 -0.29907512757E-01 -0.10063367075E+01 -0.61606287821E+00  0.11803141523E+01  0.00000000000E+00 0. -1.
         11    1    3    3    0    0  0.13454678596E+02  0.53343463059E+01  0.34215598990E+01  0.14872481267E+02  0.51100000000E-03 0. -1.
        -11    1    3    3    0    0 -0.34670300787E+02  0.22136015951E+02 -0.21922695741E+01  0.41192705725E+02  0.51100000000E-03 0.  1.
         12    1    3    3    0    0  0.21245529704E+02 -0.26464025549E+02 -0.61322744668E+00  0.33942498856E+02  0.00000000000E+00 0. -1.
</event>
<event>
 7    1  0.2000468E-015  0.9000766E+02  0.7816164E-02  0.1186339E+00
        -11   -1    0    0    0    0  0.00000000000E+00  0.00000000000E+00  0.45593999997E+02  0.45594000000E+02  0.51100000000E-03 0.  1.
         11   -1    0    0    0    0 -0.00000000000E+00 -0.00000000000E+00 -0.45593999997E+02  0.45594000000E+02  0.51100000000E-03 0. -1.
    9900012    2    1    2    0    0  0.33621073623E+00  0.78680912853E+00  0.81307101545E+00  0.90007664988E+02  0.89999925366E+02 0.  0.
         12    1    1    2    0    0 -0.33621073623E+00 -0.78680912853E+00 -0.81307101545E+00  0.11803350118E+01  0.00000000000E+00 0. -1.
         11    1    3    3    0    0  0.11692290277E+02  0.46923322625E+01 -0.38080083391E+01  0.13161632184E+02  0.51100000000E-03 0. -1.
        -11    1    3    3    0    0  0.30289267426E+02  0.11034707624E+02  0.48616037471E+01  0.32601222136E+02  0.51100000000E-03 0.  1.
         12    1    3    3    0    0 -0.41645346966E+02 -0.14940230758E+02 -0.24052439249E+00  0.44244810668E+02  0.00000000000E+00 0. -1.
</event>
<event>
 7    1  0.2000468E-015  0.9000774E+02  0.7816164E-02  0.1186339E+00
        -11   -1    0    0    0    0  0.00000000000E+00  0.00000000000E+00  0.45593999997E+02  0.45594000000E+02  0.51100000000E-03 0.  1.
         11   -1    0    0    0    0 -0.00000000000E+00 -0.00000000000E+00 -0.45593999997E+02  0.45594000000E+02  0.51100000000E-03 0. -1.
    9900012    2    1    2    0    0  0.23282915425E+00  0.21562120777E+00  0.11367974710E+01  0.90007741380E+02  0.90000002766E+02 0.  0.
         12    1    1    2    0    0 -0.23282915425E+00 -0.21562120777E+00 -0.11367974710E+01  0.11802586202E+01  0.00000000000E+00 0. -1.
         11    1    3    3    0    0  0.22067027666E+02  0.13284461225E+02  0.30323865599E+02  0.39786523411E+02  0.51100000000E-03 0. -1.
        -11    1    3    3    0    0  0.53596178962E+01 -0.67725837207E+01  0.14693521321E+01  0.87608441486E+01  0.51100000000E-03 0.  1.
        -12    1    3    3    0    0 -0.27193816408E+02 -0.62962562965E+01 -0.30656420260E+02  0.41460373820E+02  0.00000000000E+00 0.  1.
</event>
<event>
 7    1  0.2000468E-015  0.9000769E+02  0.7816164E-02  0.1186339E+00
        -11   -1    0    0    0    0  0.00000000000E+00  0.00000000000E+00  0.45593999997E+02  0.45594000000E+02  0.51100000000E-03 0.  1.
         11   -1    0    0    0    0 -0.00000000000E+00 -0.00000000000E+00 -0.45593999997E+02  0.45594000000E+02  0.51100000000E-03 0. -1.
    9900012    2    1    2    0    0  0.13535456887E+00  0.11042825133E+01  0.39416604805E+00  0.90007691734E+02  0.89999952465E+02 0.  0.
         12    1    1    2    0    0 -0.13535456887E+00 -0.11042825133E+01 -0.39416604805E+00  0.11803082656E+01  0.00000000000E+00 0. -1.
         11    1    3    3    0    0  0.33313386004E+01  0.11081262681E+02  0.19890028339E+02  0.23010984922E+02  0.51100000000E-03 0. -1.
        -11    1    3    3    0    0  0.16416600278E+02 -0.17576080901E+02  0.13714585096E+02  0.27685975315E+02  0.51100000000E-03 0.  1.
         12    1    3    3    0    0 -0.19612584309E+02  0.75991007330E+01 -0.33210447387E+02  0.39310731498E+02  0.00000000000E+00 0. -1.
</event>
<event>
 7    1  0.2000468E-015  0.9000777E+02  0.7816164E-02  0.1186339E+00
        -11   -1    0    0    0    0  0.00000000000E+00  0.00000000000E+00  0.45593999997E+02  0.45594000000E+02  0.51100000000E-03 0. -1.
         11   -1    0    0    0    0 -0.00000000000E+00 -0.00000000000E+00 -0.45593999997E+02  0.45594000000E+02  0.51100000000E-03 0.  1.
    9900012    2    1    2    0    0  0.11637736204E+01 -0.17497166915E+00 -0.89229029395E-01  0.90007768690E+02  0.90000030437E+02 0.  0.
         12    1    1    2    0    0 -0.11637736204E+01  0.17497166915E+00  0.89229029395E-01  0.11802313096E+01  0.00000000000E+00 0. -1.
         11    1    3    3    0    0  0.39830890712E+01 -0.17976648900E+01 -0.74448281863E+01  0.86326163236E+01  0.51100000000E-03 0. -1.
        -11    1    3    3    0    0 -0.34629150849E+02 -0.16493976353E+02 -0.11705312318E+02  0.40102913625E+02  0.51100000000E-03 0.  1.
         12    1    3    3    0    0  0.31809835399E+02  0.18116669574E+02  0.19060911474E+02  0.41272238742E+02  0.00000000000E+00 0. -1.
</event>
<event>
 7    1  0.2000468E-015  0.9000774E+02  0.7816164E-02  0.1186339E+00
        -11   -1    0    0    0    0  0.00000000000E+00  0.00000000000E+00  0.45593999997E+02  0.45594000000E+02  0.51100000000E-03 0. -1.
         11   -1    0    0    0    0 -0.00000000000E+00 -0.00000000000E+00 -0.45593999997E+02  0.45594000000E+02  0.51100000000E-03 0.  1.
    9900012    2    1    2    0    0  0.82367017408E+00 -0.47246095188E+00 -0.70096547367E+00  0.90007743883E+02  0.90000005302E+02 0.  0.
         12    1    1    2    0    0 -0.82367017408E+00  0.47246095188E+00  0.70096547367E+00  0.11802561171E+01  0.00000000000E+00 0. -1.
         11    1    3    3    0    0  0.77232713451E+01  0.36243365356E+02 -0.71334104043E+00  0.37063989374E+02  0.51100000000E-03 0. -1.
        -11    1    3    3    0    0 -0.16905672298E+01  0.78608644924E+01 -0.56022736026E+00  0.80600907615E+01  0.51100000000E-03 0.  1.
        -12    1    3    3    0    0 -0.52090339412E+01 -0.44576690800E+02  0.57260292701E+00  0.44883663748E+02  0.00000000000E+00 0.  1.
</event>
<event>
 7    1  0.2000468E-015  0.9000774E+02  0.7816164E-02  0.1186339E+00
        -11   -1    0    0    0    0  0.00000000000E+00  0.00000000000E+00  0.45593999997E+02  0.45594000000E+02  0.51100000000E-03 0.  1.
         11   -1    0    0    0    0 -0.00000000000E+00 -0.00000000000E+00 -0.45593999997E+02  0.45594000000E+02  0.51100000000E-03 0. -1.
    9900012    2    1    2    0    0 -0.10144112788E+00  0.10621489977E+01 -0.50453776099E+00  0.90007741915E+02  0.90000003308E+02 0.  0.
         12    1    1    2    0    0  0.10144112788E+00 -0.10621489977E+01  0.50453776099E+00  0.11802580853E+01  0.00000000000E+00 0. -1.
         11    1    3    3    0    0 -0.36592547709E+02 -0.46409304371E+01  0.29643095946E+01  0.37004593158E+02  0.51100000000E-03 0. -1.
        -11    1    3    3    0    0 -0.76473008632E+01 -0.16855813554E+01  0.15079025973E+01  0.79747204027E+01  0.51100000000E-03 0.  1.
        -12    1    3    3    0    0  0.44138407444E+02  0.73886607901E+01 -0.49767499529E+01  0.45028428354E+02  0.00000000000E+00 0.  1.
</event>
<event>
 7    1  0.2000468E-015  0.9000773E+02  0.7816164E-02  0.1186339E+00
        -11   -1    0    0    0    0  0.00000000000E+00  0.00000000000E+00  0.45593999997E+02  0.45594000000E+02  0.51100000000E-03 0. -1.
         11   -1    0    0    0    0 -0.00000000000E+00 -0.00000000000E+00 -0.45593999997E+02  0.45594000000E+02  0.51100000000E-03 0.  1.
    9900012    2    1    2    0    0  0.10437006935E+01  0.49767771685E+00 -0.23671509314E+00  0.90007733809E+02  0.89999995095E+02 0.  0.
         12    1    1    2    0    0 -0.10437006935E+01 -0.49767771685E+00  0.23671509314E+00  0.11802661915E+01  0.00000000000E+00 0. -1.
         11    1    3    3    0    0 -0.16947014895E+02 -0.32566121744E+02  0.17579479454E+02  0.40703706188E+02  0.51100000000E-03 0. -1.
        -11    1    3    3    0    0  0.81965262733E+00  0.14025519861E+02  0.50709244218E+01  0.14936576333E+02  0.51100000000E-03 0.  1.
        -12    1    3    3    0    0  0.17171062961E+02  0.19038279600E+02 -0.22887118969E+02  0.34367451288E+02  0.00000000000E+00 0.  1.
</event>
<event>
 7    1  0.2366717E-015  0.9000770E+02  0.7816164E-02  0.1186339E+00
        -11   -1    0    0    0    0  0.00000000000E+00  0.00000000000E+00  0.45593999997E+02  0.45594000000E+02  0.51100000000E-03 0. -1.
         11   -1    0    0    0    0 -0.00000000000E+00 -0.00000000000E+00 -0.45593999997E+02  0.45594000000E+02  0.51100000000E-03 0.  1.
    9900012    2    1    2    0    0  0.54388168260E+00 -0.63601307417E+00 -0.83234557860E+00  0.90007695346E+02  0.89999956124E+02 0.  0.
         12    1    1    2    0    0 -0.54388168260E+00  0.63601307417E+00  0.83234557860E+00  0.11803046545E+01  0.00000000000E+00 0. -1.
         11    1    3    3    0    0 -0.36522366920E+02 -0.60236691334E+01  0.18252434875E+02  0.41271288499E+02  0.51100000000E-03 0. -1.
        -11    1    3    3    0    0  0.22658919098E+01 -0.67957692044E+01 -0.67872207267E+01  0.98682881332E+01  0.51100000000E-03 0.  1.
        -12    1    3    3    0    0  0.34800356693E+02  0.12183425264E+02 -0.12297559726E+02  0.38868118713E+02  0.00000000000E+00 0.  1.
</event>
<event>
 7    1  0.2000468E-015  0.9000791E+02  0.7816164E-02  0.1186339E+00
        -11   -1    0    0    0    0  0.00000000000E+00  0.00000000000E+00  0.45593999997E+02  0.45594000000E+02  0.51100000000E-03 0.  1.
         11   -1    0    0    0    0 -0.00000000000E+00 -0.00000000000E+00 -0.45593999997E+02  0.45594000000E+02  0.51100000000E-03 0. -1.
    9900012    2    1    2    0    0 -0.12323502627E+00  0.10841254451E+01  0.44955041945E+00  0.90007910837E+02  0.90000174460E+02 0.  0.
         12    1    1    2    0    0  0.12323502627E+00 -0.10841254451E+01 -0.44955041945E+00  0.11800891627E+01  0.00000000000E+00 0. -1.
         11    1    3    3    0    0 -0.30594735036E+02  0.90174334370E+01 -0.21411738206E+02  0.38416330525E+02  0.51100000000E-03 0. -1.
        -11    1    3    3    0    0  0.29679753563E+00 -0.15393431059E+02  0.47641446315E+01  0.16116540661E+02  0.51100000000E-03 0.  1.
        -12    1    3    3    0    0  0.30174702474E+02  0.74601230666E+01  0.17097143994E+02  0.35475039652E+02  0.00000000000E+00 0.  1.
</event>
<event>
 7    1  0.2000468E-015  0.9000777E+02  0.7816164E-02  0.1186339E+00
        -11   -1    0    0    0    0  0.00000000000E+00  0.00000000000E+00  0.45593999997E+02  0.45594000000E+02  0.51100000000E-03 0. -1.
         11   -1    0    0    0    0 -0.00000000000E+00 -0.00000000000E+00 -0.45593999997E+02  0.45594000000E+02  0.51100000000E-03 0.  1.
    9900012    2    1    2    0    0  0.30286095882E+00  0.93763323747E+00 -0.64966749633E+00  0.90007767521E+02  0.90000029252E+02 0.  0.
         12    1    1    2    0    0 -0.30286095882E+00 -0.93763323747E+00  0.64966749633E+00  0.11802324789E+01  0.00000000000E+00 0. -1.
         11    1    3    3    0    0  0.54045072783E+01  0.30503559490E+01 -0.82291040711E+01  0.10306867827E+02  0.51100000000E-03 0. -1.
        -11    1    3    3    0    0  0.20915861401E+02 -0.62854763645E-01 -0.28388789619E+02  0.35261885729E+02  0.51100000000E-03 0.  1.
         12    1    3    3    0    0 -0.26017507721E+02 -0.20498679479E+01  0.35968226194E+02  0.44439013965E+02  0.00000000000E+00 0. -1.
</event>
<event>
 7    1  0.2000468E-015  0.9000778E+02  0.7816164E-02  0.1186339E+00
        -11   -1    0    0    0    0  0.00000000000E+00  0.00000000000E+00  0.45593999997E+02  0.45594000000E+02  0.51100000000E-03 0. -1.
         11   -1    0    0    0    0 -0.00000000000E+00 -0.00000000000E+00 -0.45593999997E+02  0.45594000000E+02  0.51100000000E-03 0.  1.
    9900012    2    1    2    0    0 -0.18900123762E+00 -0.11411200535E+01  0.23460163309E+00  0.90007782066E+02  0.90000043990E+02 0.  0.
         12    1    1    2    0    0  0.18900123762E+00  0.11411200535E+01 -0.23460163309E+00  0.11802179335E+01  0.00000000000E+00 0. -1.
         11    1    3    3    0    0  0.23448582490E+02  0.51942918838E+01  0.32917322503E+02  0.40747598825E+02  0.51100000000E-03 0. -1.
        -11    1    3    3    0    0 -0.38254738535E+01  0.92642802743E+01 -0.33265517124E+01  0.10560638511E+02  0.51100000000E-03 0.  1.
        -12    1    3    3    0    0 -0.19812109874E+02 -0.15599692212E+02 -0.29356169157E+02  0.38699544731E+02  0.00000000000E+00 0.  1.
</event>
<event>
 7    1  0.2000468E-015  0.9000772E+02  0.7816164E-02  0.1186339E+00
        -11   -1    0    0    0    0  0.00000000000E+00  0.00000000000E+00  0.45593999997E+02  0.45594000000E+02  0.51100000000E-03 0. -1.
         11   -1    0    0    0    0 -0.00000000000E+00 -0.00000000000E+00 -0.45593999997E+02  0.45594000000E+02  0.51100000000E-03 0.  1.
    9900012    2    1    2    0    0 -0.57814179324E+00  0.90619432397E+00 -0.48746865233E+00  0.90007719621E+02  0.89999980720E+02 0.  0.
         12    1    1    2    0    0  0.57814179324E+00 -0.90619432397E+00  0.48746865233E+00  0.11802803789E+01  0.00000000000E+00 0. -1.
         11    1    3    3    0    0  0.86448789266E+01  0.38854780873E+02  0.55779105638E+01  0.40193793238E+02  0.51100000000E-03 0.  1.
        -11    1    3    3    0    0 -0.17079185487E+01 -0.12063544388E+02  0.12209620648E+02  0.17248794902E+02  0.51100000000E-03 0. -1.
        -12    1    3    3    0    0 -0.75151021712E+01 -0.25885042161E+02 -0.18274999864E+02  0.32565131481E+02  0.00000000000E+00 0.  1.
</event>
<event>
 7    1  0.2000468E-015  0.9000780E+02  0.7816164E-02  0.1186339E+00
        -11   -1    0    0    0    0  0.00000000000E+00  0.00000000000E+00  0.45593999997E+02  0.45594000000E+02  0.51100000000E-03 0. -1.
         11   -1    0    0    0    0 -0.00000000000E+00 -0.00000000000E+00 -0.45593999997E+02  0.45594000000E+02  0.51100000000E-03 0.  1.
    9900012    2    1    2    0    0  0.18765491161E+00  0.11627183434E+01 -0.75831506574E-01  0.90007797166E+02  0.90000059289E+02 0.  0.
         12    1    1    2    0    0 -0.18765491161E+00 -0.11627183434E+01  0.75831506574E-01  0.11802028339E+01  0.00000000000E+00 0. -1.
         11    1    3    3    0    0 -0.82386302049E+01  0.67248457538E+01 -0.17484560154E+01  0.10777554303E+02  0.51100000000E-03 0. -1.
        -11    1    3    3    0    0 -0.31343287866E+02  0.14363856932E+02 -0.24046086986E+01  0.34561600418E+02  0.51100000000E-03 0.  1.
         12    1    3    3    0    0  0.39769572982E+02 -0.19925984343E+02  0.40772332074E+01  0.44668642445E+02  0.00000000000E+00 0. -1.
</event>
<event>
 7    1  0.2000468E-015  0.9000773E+02  0.7816164E-02  0.1186339E+00
        -11   -1    0    0    0    0  0.00000000000E+00  0.00000000000E+00  0.45593999997E+02  0.45594000000E+02  0.51100000000E-03 0.  1.
         11   -1    0    0    0    0 -0.00000000000E+00 -0.00000000000E+00 -0.45593999997E+02  0.45594000000E+02  0.51100000000E-03 0. -1.
    9900012    2    1    2    0    0 -0.41131395062E+00  0.91238309498E+00  0.62562542002E+00  0.90007733401E+02  0.89999994682E+02 0.  0.
         12    1    1    2    0    0  0.41131395062E+00 -0.91238309498E+00 -0.62562542002E+00  0.11802665988E+01  0.00000000000E+00 0. -1.
         11    1    3    3    0    0  0.57453125817E-01  0.84915258078E+01  0.56033033869E+01  0.10173805606E+02  0.51100000000E-03 0. -1.
        -11    1    3    3    0    0  0.99265285902E+01  0.25743077386E+02  0.22346561723E+02  0.35505081668E+02  0.51100000000E-03 0.  1.
         12    1    3    3    0    0 -0.10395295667E+02 -0.33322220099E+02 -0.27324239690E+02  0.44328846127E+02  0.00000000000E+00 0. -1.
</event>
<event>
 7    1  0.2000468E-015  0.9000779E+02  0.7816164E-02  0.1186339E+00
        -11   -1    0    0    0    0  0.00000000000E+00  0.00000000000E+00  0.45593999997E+02  0.45594000000E+02  0.51100000000E-03 0.  1.
         11   -1    0    0    0    0 -0.00000000000E+00 -0.00000000000E+00 -0.45593999997E+02  0.45594000000E+02  0.51100000000E-03 0. -1.
    9900012    2    1    2    0    0  0.92037441779E+00 -0.37911479581E+00  0.63409033336E+00  0.90007793388E+02  0.90000055460E+02 0.  0.
         12    1    1    2    0    0 -0.92037441779E+00  0.37911479581E+00 -0.63409033336E+00  0.11802066125E+01  0.00000000000E+00 0. -1.
         11    1    3    3    0    0 -0.10393024426E+02  0.21653302839E+02 -0.26868854208E+02  0.36039087214E+02  0.51100000000E-03 0. -1.
        -11    1    3    3    0    0  0.21061201429E+01  0.92009895938E+00 -0.93270801252E+01  0.96060787044E+01  0.51100000000E-03 0.  1.
        -12    1    3    3    0    0  0.92072787005E+01 -0.22952516594E+02  0.36830024666E+02  0.44362627469E+02  0.00000000000E+00 0.  1.
</event>
<event>
 7    1  0.2000468E-015  0.9000773E+02  0.7816164E-02  0.1186339E+00
        -11   -1    0    0    0    0  0.00000000000E+00  0.00000000000E+00  0.45593999997E+02  0.45594000000E+02  0.51100000000E-03 0. -1.
         11   -1    0    0    0    0 -0.00000000000E+00 -0.00000000000E+00 -0.45593999997E+02  0.45594000000E+02  0.51100000000E-03 0.  1.
    9900012    2    1    2    0    0  0.81691899074E+00 -0.21440102536E+00  0.82445268265E+00  0.90007726022E+02  0.89999987206E+02 0.  0.
         12    1    1    2    0    0 -0.81691899074E+00  0.21440102536E+00 -0.82445268265E+00  0.11802739780E+01  0.00000000000E+00 0. -1.
         11    1    3    3    0    0  0.48708758277E+00 -0.15698537046E+02  0.38819763209E+01  0.16178722450E+02  0.51100000000E-03 0. -1.
        -11    1    3    3    0    0  0.70553771640E+01  0.23467802743E+01  0.33546994547E+02  0.34361120005E+02  0.51100000000E-03 0.  1.
        -12    1    3    3    0    0 -0.67255457560E+01  0.13137355746E+02 -0.36604518185E+02  0.39467883567E+02  0.00000000000E+00 0.  1.
</event>
<event>
 7    1  0.2000468E-015  0.9000780E+02  0.7816164E-02  0.1186339E+00
        -11   -1    0    0    0    0  0.00000000000E+00  0.00000000000E+00  0.45593999997E+02  0.45594000000E+02  0.51100000000E-03 0.  1.
         11   -1    0    0    0    0 -0.00000000000E+00 -0.00000000000E+00 -0.45593999997E+02  0.45594000000E+02  0.51100000000E-03 0. -1.
    9900012    2    1    2    0    0 -0.59953020255E+00 -0.12721661705E+00  0.10085894244E+01  0.90007799526E+02  0.90000061680E+02 0.  0.
         12    1    1    2    0    0  0.59953020255E+00  0.12721661705E+00 -0.10085894244E+01  0.11802004739E+01  0.00000000000E+00 0. -1.
         11    1    3    3    0    0 -0.27472934046E+02  0.11539543137E+02 -0.19357747158E+02  0.35533723928E+02  0.51100000000E-03 0. -1.
        -11    1    3    3    0    0 -0.93832540634E+01  0.19166026076E+01 -0.19670953986E+01  0.97769262522E+01  0.51100000000E-03 0.  1.
        -12    1    3    3    0    0  0.36256657907E+02 -0.13583362361E+02  0.22333431981E+02  0.44697149346E+02  0.00000000000E+00 0.  1.
</event>
<event>
 7    1  0.2000468E-015  0.9000778E+02  0.7816164E-02  0.1186339E+00
        -11   -1    0    0    0    0  0.00000000000E+00  0.00000000000E+00  0.45593999997E+02  0.45594000000E+02  0.51100000000E-03 0. -1.
         11   -1    0    0    0    0 -0.00000000000E+00 -0.00000000000E+00 -0.45593999997E+02  0.45594000000E+02  0.51100000000E-03 0.  1.
    9900012    2    1    2    0    0 -0.77841954497E+00 -0.38815122613E+00  0.79770114389E+00  0.90007777361E+02  0.90000039222E+02 0.  0.
         12    1    1    2    0    0  0.77841954497E+00  0.38815122613E+00 -0.79770114389E+00  0.11802226389E+01  0.00000000000E+00 0. -1.
         11    1    3    3    0    0  0.16657345858E+01  0.23179832848E+02  0.30704833321E+02  0.38508000625E+02  0.51100000000E-03 0. -1.
        -11    1    3    3    0    0  0.25589379866E+01 -0.34246686811E+01  0.75501685469E+01  0.86764949457E+01  0.51100000000E-03 0.  1.
        -12    1    3    3    0    0 -0.50030921173E+01 -0.20143315393E+02 -0.37457300725E+02  0.42823281791E+02  0.00000000000E+00 0.  1.
</event>
<event>
 7    1  0.2000468E-015  0.9000771E+02  0.7816164E-02  0.1186339E+00
        -11   -1    0    0    0    0  0.00000000000E+00  0.00000000000E+00  0.45593999997E+02  0.45594000000E+02  0.51100000000E-03 0.  1.
         11   -1    0    0    0    0 -0.00000000000E+00 -0.00000000000E+00 -0.45593999997E+02  0.45594000000E+02  0.51100000000E-03 0. -1.
    9900012    2    1    2    0    0 -0.75897336822E+00 -0.41541132098E+00  0.80279110960E+00  0.90007711601E+02  0.89999972594E+02 0.  0.
         12    1    1    2    0    0  0.75897336822E+00  0.41541132098E+00 -0.80279110960E+00  0.11802883990E+01  0.00000000000E+00 0. -1.
         11    1    3    3    0    0 -0.50103509911E+00 -0.52118542240E+01  0.87111333550E+01  0.10163577383E+02  0.51100000000E-03 0. -1.
        -11    1    3    3    0    0 -0.26699223408E+02 -0.23263486453E+02  0.10754650490E+02  0.37009469598E+02  0.51100000000E-03 0.  1.
         12    1    3    3    0    0  0.26441285139E+02  0.28059929356E+02 -0.18662992735E+02  0.42834664620E+02  0.00000000000E+00 0. -1.
</event>
<event>
 7    1  0.2000468E-015  0.9000780E+02  0.7816164E-02  0.1186339E+00
        -11   -1    0    0    0    0  0.00000000000E+00  0.00000000000E+00  0.45593999997E+02  0.45594000000E+02  0.51100000000E-03 0. -1.
         11   -1    0    0    0    0 -0.00000000000E+00 -0.00000000000E+00 -0.45593999997E+02  0.45594000000E+02  0.51100000000E-03 0.  1.
    9900012    2    1    2    0    0 -0.95963158951E+00  0.68237468361E+00 -0.79703195940E-01  0.90007796375E+02  0.90000058487E+02 0.  0.
         12    1    1    2    0    0  0.95963158951E+00 -0.68237468361E+00  0.79703195940E-01  0.11802036247E+01  0.00000000000E+00 0. -1.
         11    1    3    3    0    0  0.23088021654E+01  0.81303227493E+01 -0.43005091090E+01  0.94829897345E+01  0.51100000000E-03 0. -1.
        -11    1    3    3    0    0 -0.23188147557E+02 -0.13233742361E+02 -0.30217056675E+02  0.40322359038E+02  0.51100000000E-03 0.  1.
         12    1    3    3    0    0  0.19919713803E+02  0.57857942950E+01  0.34437862588E+02  0.40202447603E+02  0.00000000000E+00 0. -1.
</event>
<event>
 7    1  0.2000468E-015  0.9000774E+02  0.7816164E-02  0.1186339E+00
        -11   -1    0    0    0    0  0.00000000000E+00  0.00000000000E+00  0.45593999997E+02  0.45594000000E+02  0.51100000000E-03 0.  1.
         11   -1    0    0    0    0 -0.00000000000E+00 -0.00000000000E+00 -0.45593999997E+02  0.45594000000E+02  0.51100000000E-03 0. -1.
    9900012    2    1    2    0    0  0.95525309362E+00 -0.69304432138E+00  0.14213416714E-01  0.90007736925E+02  0.89999998253E+02 0.  0.
         12    1    1    2    0    0 -0.95525309362E+00  0.69304432138E+00 -0.14213416714E-01  0.11802630747E+01  0.00000000000E+00 0. -1.
         11    1    3    3    0    0 -0.43396787294E+01  0.31300693557E+02  0.23862770396E+02  0.39597954996E+02  0.51100000000E-03 0. -1.
        -11    1    3    3    0    0  0.93929683157E+01  0.24299596968E+01 -0.43143675901E+01  0.10618207281E+02  0.51100000000E-03 0.  1.
        -12    1    3    3    0    0 -0.40980364927E+01 -0.34423697575E+02 -0.19534189389E+02  0.39791574648E+02  0.00000000000E+00 0.  1.
</event>
<event>
 7    1  0.2000468E-015  0.9000788E+02  0.7816164E-02  0.1186339E+00
        -11   -1    0    0    0    0  0.00000000000E+00  0.00000000000E+00  0.45593999997E+02  0.45594000000E+02  0.51100000000E-03 0.  1.
         11   -1    0    0    0    0 -0.00000000000E+00 -0.00000000000E+00 -0.45593999997E+02  0.45594000000E+02  0.51100000000E-03 0. -1.
    9900012    2    1    2    0    0  0.57563021940E+00  0.84948564641E+00  0.58284457603E+00  0.90007879746E+02  0.90000142959E+02 0.  0.
         12    1    1    2    0    0 -0.57563021940E+00 -0.84948564641E+00 -0.58284457603E+00  0.11801202535E+01  0.00000000000E+00 0. -1.
         11    1    3    3    0    0 -0.70684763766E+01 -0.61979334411E+01  0.56368317991E+01  0.10961368994E+02  0.51100000000E-03 0. -1.
        -11    1    3    3    0    0 -0.26323072075E+01  0.38751694338E+02  0.13230075602E+02  0.41032398857E+02  0.51100000000E-03 0.  1.
         12    1    3    3    0    0  0.10276413803E+02 -0.31704275250E+02 -0.18284062825E+02  0.38014111895E+02  0.00000000000E+00 0. -1.
</event>
<event>
 7    1  0.2488235E-015  0.9000775E+02  0.7816164E-02  0.1186339E+00
        -11   -1    0    0    0    0  0.00000000000E+00  0.00000000000E+00  0.45593999997E+02  0.45594000000E+02  0.51100000000E-03 0. -1.
         11   -1    0    0    0    0 -0.00000000000E+00 -0.00000000000E+00 -0.45593999997E+02  0.45594000000E+02  0.51100000000E-03 0.  1.
    9900012    2    1    2    0    0  0.46259272789E+00  0.25260353796E+00 -0.10560269074E+01  0.90007748583E+02  0.90000010064E+02 0.  0.
         12    1    1    2    0    0 -0.46259272789E+00 -0.25260353796E+00  0.10560269074E+01  0.11802514175E+01  0.00000000000E+00 0. -1.
         11    1    3    3    0    0  0.16692148019E+02  0.37643457898E+02  0.57704010190E+01  0.41580707740E+02  0.51100000000E-03 0. -1.
        -11    1    3    3    0    0 -0.82983881152E+01 -0.88337902477E+00  0.43780707956E+01  0.94239645566E+01  0.51100000000E-03 0.  1.
        -12    1    3    3    0    0 -0.79311671759E+01 -0.36507475335E+02 -0.11204498722E+02  0.39003076286E+02  0.00000000000E+00 0.  1.
</event>
<event>
 7    1  0.2000468E-015  0.9000773E+02  0.7816164E-02  0.1186339E+00
        -11   -1    0    0    0    0  0.00000000000E+00  0.00000000000E+00  0.45593999997E+02  0.45594000000E+02  0.51100000000E-03 0.  1.
         11   -1    0    0    0    0 -0.00000000000E+00 -0.00000000000E+00 -0.45593999997E+02  0.45594000000E+02  0.51100000000E-03 0. -1.
    9900012    2    1    2    0    0 -0.95979821765E+00 -0.64876605651E+00  0.22565585193E+00  0.90007732836E+02  0.89999994110E+02 0.  0.
         12    1    1    2    0    0  0.95979821765E+00  0.64876605651E+00 -0.22565585193E+00  0.11802671639E+01  0.00000000000E+00 0. -1.
         11    1    3    3    0    0 -0.87999221827E+00  0.43436996026E+01  0.95124395556E+01  0.10494218365E+02  0.51100000000E-03 0. -1.
        -11    1    3    3    0    0  0.13664183933E+02  0.70354035972E+01  0.31375704188E+02  0.34937682234E+02  0.51100000000E-03 0.  1.
         12    1    3    3    0    0 -0.13743989932E+02 -0.12027869256E+02 -0.40662487891E+02  0.44575832237E+02  0.00000000000E+00 0. -1.
</event>
<event>
 7    1  0.2000468E-015  0.9000777E+02  0.7816164E-02  0.1186339E+00
        -11   -1    0    0    0    0  0.00000000000E+00  0.00000000000E+00  0.45593999997E+02  0.45594000000E+02  0.51100000000E-03 0.  1.
         11   -1    0    0    0    0 -0.00000000000E+00 -0.00000000000E+00 -0.45593999997E+02  0.45594000000E+02  0.51100000000E-03 0. -1.
    9900012    2    1    2    0    0 -0.64439570345E+00 -0.46284655167E+00 -0.87377188914E+00  0.90007766944E+02  0.90000028667E+02 0.  0.
         12    1    1    2    0    0  0.64439570345E+00  0.46284655167E+00  0.87377188914E+00  0.11802330563E+01  0.00000000000E+00 0. -1.
         11    1    3    3    0    0 -0.92777242028E+01  0.20931589962E+01  0.34512561255E+01  0.10117739376E+02  0.51100000000E-03 0. -1.
        -11    1    3    3    0    0  0.12535458586E+02 -0.33844860672E+02  0.18888301146E+02  0.40735491114E+02  0.51100000000E-03 0.  1.
         12    1    3    3    0    0 -0.39021300865E+01  0.31288855124E+02 -0.23213329161E+02  0.39154536454E+02  0.00000000000E+00 0. -1.
</event>
<event>
 7    1  0.2000468E-015  0.9000780E+02  0.7816164E-02  0.1186339E+00
        -11   -1    0    0    0    0  0.00000000000E+00  0.00000000000E+00  0.45593999997E+02  0.45594000000E+02  0.51100000000E-03 0. -1.
         11   -1    0    0    0    0 -0.00000000000E+00 -0.00000000000E+00 -0.45593999997E+02  0.45594000000E+02  0.51100000000E-03 0.  1.
    9900012    2    1    2    0    0 -0.44012937393E+00  0.35835112100E+00 -0.10347686843E+01  0.90007798483E+02  0.90000060623E+02 0.  0.
         12    1    1    2    0    0  0.44012937393E+00 -0.35835112100E+00  0.10347686843E+01  0.11802015174E+01  0.00000000000E+00 0. -1.
         11    1    3    3    0    0 -0.23500015665E+02  0.30459441498E+02 -0.30654005531E+01  0.38593069241E+02  0.51100000000E-03 0. -1.
        -11    1    3    3    0    0 -0.82146124761E+01 -0.28530664198E+01  0.46339841371E+01  0.98536112859E+01  0.51100000000E-03 0.  1.
        -12    1    3    3    0    0  0.31274498767E+02 -0.27248023957E+02 -0.26033522683E+01  0.41561117956E+02  0.00000000000E+00 0.  1.
</event>
<event>
 7    1  0.2000468E-015  0.9000759E+02  0.7816164E-02  0.1186339E+00
        -11   -1    0    0    0    0  0.00000000000E+00  0.00000000000E+00  0.45593999997E+02  0.45594000000E+02  0.51100000000E-03 0. -1.
         11   -1    0    0    0    0 -0.00000000000E+00 -0.00000000000E+00 -0.45593999997E+02  0.45594000000E+02  0.51100000000E-03 0.  1.
    9900012    2    1    2    0    0 -0.11267918815E+01 -0.13800128343E+00  0.32349945424E+00  0.90007594902E+02  0.89999854355E+02 0.  0.
         12    1    1    2    0    0  0.11267918815E+01  0.13800128343E+00 -0.32349945424E+00  0.11804050980E+01  0.00000000000E+00 0. -1.
         11    1    3    3    0    0  0.38143936858E+01  0.10347047765E+02 -0.15862034228E+02  0.19318776533E+02  0.51100000000E-03 0. -1.
        -11    1    3    3    0    0  0.11359301417E+02  0.59457541204E+01 -0.22332951732E+02  0.25751630125E+02  0.51100000000E-03 0.  1.
         12    1    3    3    0    0 -0.16300486984E+02 -0.16430803169E+02  0.38518485414E+02  0.44937188244E+02  0.00000000000E+00 0. -1.
</event>
<event>
 7    1  0.2000468E-015  0.9000776E+02  0.7816164E-02  0.1186339E+00
        -11   -1    0    0    0    0  0.00000000000E+00  0.00000000000E+00  0.45593999997E+02  0.45594000000E+02  0.51100000000E-03 0.  1.
         11   -1    0    0    0    0 -0.00000000000E+00 -0.00000000000E+00 -0.45593999997E+02  0.45594000000E+02  0.51100000000E-03 0. -1.
    9900012    2    1    2    0    0 -0.82083861595E+00  0.49496537926E+00  0.68862381461E+00  0.90007758703E+02  0.90000020318E+02 0.  0.
         12    1    1    2    0    0  0.82083861595E+00 -0.49496537926E+00 -0.68862381461E+00  0.11802412966E+01  0.00000000000E+00 0. -1.
         11    1    3    3    0    0 -0.47976864421E+01 -0.73218361085E+01  0.90392888931E+01  0.12583156327E+02  0.51100000000E-03 0. -1.
        -11    1    3    3    0    0 -0.21042399236E+02  0.14569374746E+02  0.24603339353E+02  0.35501740150E+02  0.51100000000E-03 0.  1.
         12    1    3    3    0    0  0.25019247062E+02 -0.67525732585E+01 -0.32954004432E+02  0.41922862226E+02  0.00000000000E+00 0. -1.
</event>
<event>
 7    1  0.2000468E-015  0.9000778E+02  0.7816164E-02  0.1186339E+00
        -11   -1    0    0    0    0  0.00000000000E+00  0.00000000000E+00  0.45593999997E+02  0.45594000000E+02  0.51100000000E-03 0. -1.
         11   -1    0    0    0    0 -0.00000000000E+00 -0.00000000000E+00 -0.45593999997E+02  0.45594000000E+02  0.51100000000E-03 0.  1.
    9900012    2    1    2    0    0  0.29245218218E+00  0.16470116449E+00 -0.11314926144E+01  0.90007775323E+02  0.90000037157E+02 0.  0.
         12    1    1    2    0    0 -0.29245218218E+00 -0.16470116449E+00  0.11314926144E+01  0.11802246773E+01  0.00000000000E+00 0. -1.
         11    1    3    3    0    0  0.34442892382E+02 -0.73501533649E+01 -0.23685948302E+02  0.42442452066E+02  0.51100000000E-03 0. -1.
        -11    1    3    3    0    0 -0.95562379668E+00 -0.46593252140E+01  0.80476862079E+01  0.93481432302E+01  0.51100000000E-03 0.  1.
        -12    1    3    3    0    0 -0.33194816403E+02  0.12174179743E+02  0.14506769480E+02  0.38217180027E+02  0.00000000000E+00 0.  1.
</event>
<event>
 7    1  0.2000468E-015  0.9000773E+02  0.7816164E-02  0.1186339E+00
        -11   -1    0    0    0    0  0.00000000000E+00  0.00000000000E+00  0.45593999997E+02  0.45594000000E+02  0.51100000000E-03 0.  1.
         11   -1    0    0    0    0 -0.00000000000E+00 -0.00000000000E+00 -0.45593999997E+02  0.45594000000E+02  0.51100000000E-03 0. -1.
    9900012    2    1    2    0    0 -0.89877650179E+00  0.35837159289E+00  0.67588340999E+00  0.90007725548E+02  0.89999986725E+02 0.  0.
         12    1    1    2    0    0  0.89877650179E+00 -0.35837159289E+00 -0.67588340999E+00  0.11802744523E+01  0.00000000000E+00 0. -1.
         11    1    3    3    0    0 -0.12523610830E+02 -0.38724397866E+02  0.44569385788E+01  0.40942448877E+02  0.51100000000E-03 0. -1.
        -11    1    3    3    0    0  0.13513537725E+01  0.26501449554E+01  0.87101471665E+01  0.92041343551E+01  0.51100000000E-03 0.  1.
        -12    1    3    3    0    0  0.10273480556E+02  0.36432624503E+02 -0.12491202335E+02  0.39861142316E+02  0.00000000000E+00 0.  1.
</event>
<event>
 7    1  0.2000468E-015  0.9000774E+02  0.7816164E-02  0.1186339E+00
        -11   -1    0    0    0    0  0.00000000000E+00  0.00000000000E+00  0.45593999997E+02  0.45594000000E+02  0.51100000000E-03 0.  1.
         11   -1    0    0    0    0 -0.00000000000E+00 -0.00000000000E+00 -0.45593999997E+02  0.45594000000E+02  0.51100000000E-03 0. -1.
    9900012    2    1    2    0    0 -0.91938697759E+00 -0.25000576982E+00  0.69658879453E+00  0.90007741025E+02  0.90000002406E+02 0.  0.
         12    1    1    2    0    0  0.91938697759E+00  0.25000576982E+00 -0.69658879453E+00  0.11802589750E+01  0.00000000000E+00 0. -1.
         11    1    3    3    0    0  0.72148728387E+01  0.20040099619E+02 -0.29779239856E+02  0.36612335482E+02  0.51100000000E-03 0. -1.
        -11    1    3    3    0    0 -0.45350590964E+01 -0.77562186799E+01 -0.84556977308E+01  0.12337929875E+02  0.51100000000E-03 0.  1.
        -12    1    3    3    0    0 -0.35992007199E+01 -0.12533886709E+02  0.38931526381E+02  0.41057475668E+02  0.00000000000E+00 0.  1.
</event>
<event>
 7    1  0.2000468E-015  0.9000774E+02  0.7816164E-02  0.1186339E+00
        -11   -1    0    0    0    0  0.00000000000E+00  0.00000000000E+00  0.45593999997E+02  0.45594000000E+02  0.51100000000E-03 0.  1.
         11   -1    0    0    0    0 -0.00000000000E+00 -0.00000000000E+00 -0.45593999997E+02  0.45594000000E+02  0.51100000000E-03 0. -1.
    9900012    2    1    2    0    0  0.58331880759E+00  0.10235638291E+01  0.71269273307E-01  0.90007736024E+02  0.89999997340E+02 0.  0.
         12    1    1    2    0    0 -0.58331880759E+00 -0.10235638291E+01 -0.71269273307E-01  0.11802639759E+01  0.00000000000E+00 0. -1.
         11    1    3    3    0    0  0.10556022607E+02 -0.18544470256E+01 -0.25226658126E+01  0.11010559936E+02  0.51100000000E-03 0. -1.
        -11    1    3    3    0    0  0.30381534597E+02  0.14555450289E+02 -0.99983792536E+01  0.35140665411E+02  0.51100000000E-03 0.  1.
         12    1    3    3    0    0 -0.40354238396E+02 -0.11677439435E+02  0.12592314339E+02  0.43856510676E+02  0.00000000000E+00 0. -1.
</event>
<event>
 7    1  0.2000468E-015  0.9000771E+02  0.7816164E-02  0.1186339E+00
        -11   -1    0    0    0    0  0.00000000000E+00  0.00000000000E+00  0.45593999997E+02  0.45594000000E+02  0.51100000000E-03 0.  1.
         11   -1    0    0    0    0 -0.00000000000E+00 -0.00000000000E+00 -0.45593999997E+02  0.45594000000E+02  0.51100000000E-03 0. -1.
    9900012    2    1    2    0    0 -0.72563884940E-01 -0.35224568493E+00  0.11241661251E+01  0.90007706809E+02  0.89999967739E+02 0.  0.
         12    1    1    2    0    0  0.72563884940E-01  0.35224568493E+00 -0.11241661251E+01  0.11802931911E+01  0.00000000000E+00 0. -1.
         11    1    3    3    0    0 -0.81368888972E+01  0.59512723242E+01  0.17375163660E+01  0.10229641567E+02  0.51100000000E-03 0. -1.
        -11    1    3    3    0    0  0.62090373539E+01  0.26054697626E+02  0.26383214247E+02  0.37596188736E+02  0.51100000000E-03 0.  1.
         12    1    3    3    0    0  0.18552876583E+01 -0.32358215635E+02 -0.26996564488E+02  0.42181876506E+02  0.00000000000E+00 0. -1.
</event>
<event>
 7    1  0.2000468E-015  0.9000766E+02  0.7816164E-02  0.1186339E+00
        -11   -1    0    0    0    0  0.00000000000E+00  0.00000000000E+00  0.45593999997E+02  0.45594000000E+02  0.51100000000E-03 0. -1.
         11   -1    0    0    0    0 -0.00000000000E+00 -0.00000000000E+00 -0.45593999997E+02  0.45594000000E+02  0.51100000000E-03 0.  1.
    9900012    2    1    2    0    0  0.37795819571E+00  0.94684700029E+00  0.59483194177E+00  0.90007662473E+02  0.89999922817E+02 0.  0.
         12    1    1    2    0    0 -0.37795819571E+00 -0.94684700029E+00 -0.59483194177E+00  0.11803375274E+01  0.00000000000E+00 0. -1.
         11    1    3    3    0    0  0.15973515015E+00 -0.56442012316E+01  0.10205516362E+02  0.11663408050E+02  0.51100000000E-03 0. -1.
        -11    1    3    3    0    0 -0.41878704802E+00 -0.31981065473E+02 -0.20829774545E+02  0.38168618513E+02  0.51100000000E-03 0.  1.
         12    1    3    3    0    0  0.63701009358E+00  0.38572113705E+02  0.11219090124E+02  0.40175635909E+02  0.00000000000E+00 0. -1.
</event>
<event>
 7    1  0.2000468E-015  0.9000771E+02  0.7816164E-02  0.1186339E+00
        -11   -1    0    0    0    0  0.00000000000E+00  0.00000000000E+00  0.45593999997E+02  0.45594000000E+02  0.51100000000E-03 0.  1.
         11   -1    0    0    0    0 -0.00000000000E+00 -0.00000000000E+00 -0.45593999997E+02  0.45594000000E+02  0.51100000000E-03 0. -1.
    9900012    2    1    2    0    0 -0.10040523163E+01  0.16437544307E-03  0.62045403830E+00  0.90007710080E+02  0.89999971053E+02 0.  0.
         12    1    1    2    0    0  0.10040523163E+01 -0.16437544307E-03 -0.62045403830E+00  0.11802899197E+01  0.00000000000E+00 0. -1.
         11    1    3    3    0    0  0.52979507772E+00 -0.59822175398E+00 -0.93252877324E+01  0.93594627861E+01  0.51100000000E-03 0. -1.
        -11    1    3    3    0    0  0.31716568847E+02 -0.19170516433E+02 -0.81437038877E+01  0.37944292759E+02  0.51100000000E-03 0.  1.
         12    1    3    3    0    0 -0.33250416241E+02  0.19768902562E+02  0.18089445658E+02  0.42703954535E+02  0.00000000000E+00 0. -1.
</event>
<event>
 7    1  0.2000468E-015  0.9000763E+02  0.7816164E-02  0.1186339E+00
        -11   -1    0    0    0    0  0.00000000000E+00  0.00000000000E+00  0.45593999997E+02  0.45594000000E+02  0.51100000000E-03 0. -1.
         11   -1    0    0    0    0 -0.00000000000E+00 -0.00000000000E+00 -0.45593999997E+02  0.45594000000E+02  0.51100000000E-03 0.  1.
    9900012    2    1    2    0    0 -0.40024525178E+00 -0.48025576967E+00 -0.10012143883E+01  0.90007630517E+02  0.89999890439E+02 0.  0.
         12    1    1    2    0    0  0.40024525178E+00  0.48025576967E+00  0.10012143883E+01  0.11803694834E+01  0.00000000000E+00 0. -1.
         11    1    3    3    0    0  0.18373762507E+00 -0.44341743080E+01 -0.79905683407E+01  0.91402868651E+01  0.51100000000E-03 0. -1.
        -11    1    3    3    0    0 -0.32983457310E+02 -0.13004209782E+02 -0.14665064415E+02  0.38367721365E+02  0.51100000000E-03 0.  1.
         12    1    3    3    0    0  0.32399474433E+02  0.16958128320E+02  0.21654418367E+02  0.42499622287E+02  0.00000000000E+00 0. -1.
</event>
<event>
 7    1  0.2000468E-015  0.9000776E+02  0.7816164E-02  0.1186339E+00
        -11   -1    0    0    0    0  0.00000000000E+00  0.00000000000E+00  0.45593999997E+02  0.45594000000E+02  0.51100000000E-03 0. -1.
         11   -1    0    0    0    0 -0.00000000000E+00 -0.00000000000E+00 -0.45593999997E+02  0.45594000000E+02  0.51100000000E-03 0.  1.
    9900012    2    1    2    0    0 -0.83742611375E+00  0.82784220667E+00 -0.79735532162E-01  0.90007761477E+02  0.90000023129E+02 0.  0.
         12    1    1    2    0    0  0.83742611375E+00 -0.82784220667E+00  0.79735532162E-01  0.11802385226E+01  0.00000000000E+00 0. -1.
         11    1    3    3    0    0 -0.25101616145E+01  0.94512331959E+01  0.34470182599E+01  0.10368638069E+02  0.51100000000E-03 0. -1.
        -11    1    3    3    0    0  0.38010634645E+01 -0.28495519668E+02 -0.33166061082E+02  0.43891119062E+02  0.51100000000E-03 0.  1.
         12    1    3    3    0    0 -0.21283279637E+01  0.19872128679E+02  0.29639307290E+02  0.35748004346E+02  0.00000000000E+00 0. -1.
</event>
<event>
 7    1  0.2000468E-015  0.9000773E+02  0.7816164E-02  0.1186339E+00
        -11   -1    0    0    0    0  0.00000000000E+00  0.00000000000E+00  0.45593999997E+02  0.45594000000E+02  0.51100000000E-03 0.  1.
         11   -1    0    0    0    0 -0.00000000000E+00 -0.00000000000E+00 -0.45593999997E+02  0.45594000000E+02  0.51100000000E-03 0. -1.
    9900012    2    1    2    0    0 -0.70232415292E+00 -0.62444135571E+00  0.71403292875E+00  0.90007733401E+02  0.89999994681E+02 0.  0.
         12    1    1    2    0    0  0.70232415292E+00  0.62444135571E+00 -0.71403292875E+00  0.11802665995E+01  0.00000000000E+00 0. -1.
         11    1    3    3    0    0 -0.21020387244E+02 -0.29625244524E+02  0.12357408144E+01  0.36346098121E+02  0.51100000000E-03 0. -1.
        -11    1    3    3    0    0 -0.10069030486E+02  0.25245030896E+01  0.71893111063E+01  0.12627140818E+02  0.51100000000E-03 0.  1.
        -12    1    3    3    0    0  0.30387093577E+02  0.26476300078E+02 -0.77110189920E+01  0.41034494462E+02  0.00000000000E+00 0.  1.
</event>
<event>
 7    1  0.2000468E-015  0.9000771E+02  0.7816164E-02  0.1186339E+00
        -11   -1    0    0    0    0  0.00000000000E+00  0.00000000000E+00  0.45593999997E+02  0.45594000000E+02  0.51100000000E-03 0.  1.
         11   -1    0    0    0    0 -0.00000000000E+00 -0.00000000000E+00 -0.45593999997E+02  0.45594000000E+02  0.51100000000E-03 0. -1.
    9900012    2    1    2    0    0  0.41898822854E+00 -0.10535179572E+01  0.32807273988E+00  0.90007710652E+02  0.89999971633E+02 0.  0.
         12    1    1    2    0    0 -0.41898822854E+00  0.10535179572E+01 -0.32807273988E+00  0.11802893478E+01  0.00000000000E+00 0. -1.
         11    1    3    3    0    0 -0.91480436913E+01 -0.55474248540E+01 -0.16685331147E+01  0.10827955897E+02  0.51100000000E-03 0. -1.
        -11    1    3    3    0    0  0.22649335130E+00 -0.30954840794E+02  0.21467483329E+02  0.37671027442E+02  0.51100000000E-03 0.  1.
         12    1    3    3    0    0  0.93405385686E+01  0.35448747690E+02 -0.19470877474E+02  0.41508727313E+02  0.00000000000E+00 0. -1.
</event>
<event>
 7    1  0.2000468E-015  0.9000764E+02  0.7816164E-02  0.1186339E+00
        -11   -1    0    0    0    0  0.00000000000E+00  0.00000000000E+00  0.45593999997E+02  0.45594000000E+02  0.51100000000E-03 0.  1.
         11   -1    0    0    0    0 -0.00000000000E+00 -0.00000000000E+00 -0.45593999997E+02  0.45594000000E+02  0.51100000000E-03 0. -1.
    9900012    2    1    2    0    0  0.99437565693E-01 -0.11543368664E+01 -0.22551755031E+00  0.90007644293E+02  0.89999904397E+02 0.  0.
         12    1    1    2    0    0 -0.99437565693E-01  0.11543368664E+01  0.22551755031E+00  0.11803557075E+01  0.00000000000E+00 0. -1.
         11    1    3    3    0    0  0.43032354383E+01 -0.57998020254E+01  0.73312436421E+01  0.10290902408E+02  0.51100000000E-03 0. -1.
        -11    1    3    3    0    0  0.36795442881E+02 -0.47684750761E+01 -0.80253877649E+00  0.37111818066E+02  0.51100000000E-03 0.  1.
         12    1    3    3    0    0 -0.40999240754E+02  0.94139402350E+01 -0.67542224159E+01  0.42604923819E+02  0.00000000000E+00 0. -1.
</event>
<event>
 7    1  0.2000468E-015  0.9000776E+02  0.7816164E-02  0.1186339E+00
        -11   -1    0    0    0    0  0.00000000000E+00  0.00000000000E+00  0.45593999997E+02  0.45594000000E+02  0.51100000000E-03 0.  1.
         11   -1    0    0    0    0 -0.00000000000E+00 -0.00000000000E+00 -0.45593999997E+02  0.45594000000E+02  0.51100000000E-03 0. -1.
    9900012    2    1    2    0    0  0.54070887413E+00 -0.10464003245E+01 -0.75217302477E-01  0.90007755378E+02  0.90000016949E+02 0.  0.
         12    1    1    2    0    0 -0.54070887413E+00  0.10464003245E+01  0.75217302477E-01  0.11802446222E+01  0.00000000000E+00 0. -1.
         11    1    3    3    0    0 -0.86483916262E+01 -0.20838658547E+01  0.40830396525E+01  0.97881759120E+01  0.51100000000E-03 0. -1.
        -11    1    3    3    0    0 -0.10821395999E+02 -0.67033080300E+01  0.34076407939E+02  0.36376345723E+02  0.51100000000E-03 0.  1.
         12    1    3    3    0    0  0.20010496500E+02  0.77407735601E+01 -0.38234664894E+02  0.43843233742E+02  0.00000000000E+00 0. -1.
</event>
<event>
 7    1  0.2000468E-015  0.9000766E+02  0.7816164E-02  0.1186339E+00
        -11   -1    0    0    0    0  0.00000000000E+00  0.00000000000E+00  0.45593999997E+02  0.45594000000E+02  0.51100000000E-03 0. -1.
         11   -1    0    0    0    0 -0.00000000000E+00 -0.00000000000E+00 -0.45593999997E+02  0.45594000000E+02  0.51100000000E-03 0.  1.
    9900012    2    1    2    0    0  0.84784846163E+00 -0.13286961453E+00 -0.81037160768E+00  0.90007659587E+02  0.89999919893E+02 0.  0.
         12    1    1    2    0    0 -0.84784846163E+00  0.13286961453E+00  0.81037160768E+00  0.11803404131E+01  0.00000000000E+00 0. -1.
         11    1    3    3    0    0 -0.43720699956E+01 -0.13745125088E+02 -0.58914446302E+00  0.14435738678E+02  0.51100000000E-03 0. -1.
        -11    1    3    3    0    0 -0.15732283488E+01 -0.27981231336E+02 -0.13873343670E+02  0.31271297052E+02  0.51100000000E-03 0.  1.
         12    1    3    3    0    0  0.67931468061E+01  0.41593486809E+02  0.13652116525E+02  0.44300623856E+02  0.00000000000E+00 0. -1.
</event>
<event>
 7    1  0.2000468E-015  0.9000789E+02  0.7816164E-02  0.1186339E+00
        -11   -1    0    0    0    0  0.00000000000E+00  0.00000000000E+00  0.45593999997E+02  0.45594000000E+02  0.51100000000E-03 0.  1.
         11   -1    0    0    0    0 -0.00000000000E+00 -0.00000000000E+00 -0.45593999997E+02  0.45594000000E+02  0.51100000000E-03 0. -1.
    9900012    2    1    2    0    0  0.27217102899E+00 -0.10827539958E+01  0.38238465483E+00  0.90007893518E+02  0.90000156912E+02 0.  0.
         12    1    1    2    0    0 -0.27217102899E+00  0.10827539958E+01 -0.38238465483E+00  0.11801064820E+01  0.00000000000E+00 0. -1.
         11    1    3    3    0    0  0.19343626849E+02  0.16142411923E+02  0.31156992595E+02  0.40068835149E+02  0.51100000000E-03 0. -1.
        -11    1    3    3    0    0 -0.69836123346E+01  0.57430057811E+01  0.78711538069E+00  0.90759301191E+01  0.51100000000E-03 0.  1.
        -12    1    3    3    0    0 -0.12087843486E+02 -0.22968171700E+02 -0.31561723321E+02  0.40863128250E+02  0.00000000000E+00 0.  1.
</event>
<event>
 7    1  0.2000468E-015  0.9000782E+02  0.7816164E-02  0.1186339E+00
        -11   -1    0    0    0    0  0.00000000000E+00  0.00000000000E+00  0.45593999997E+02  0.45594000000E+02  0.51100000000E-03 0.  1.
         11   -1    0    0    0    0 -0.00000000000E+00 -0.00000000000E+00 -0.45593999997E+02  0.45594000000E+02  0.51100000000E-03 0. -1.
    9900012    2    1    2    0    0 -0.10714311880E+01 -0.21735063889E+00  0.44453131603E+00  0.90007824512E+02  0.90000086996E+02 0.  0.
         12    1    1    2    0    0  0.10714311880E+01  0.21735063889E+00 -0.44453131603E+00  0.11801754877E+01  0.00000000000E+00 0. -1.
         11    1    3    3    0    0 -0.37605507189E+01  0.98982705187E+00 -0.86861829017E+01  0.95168940818E+01  0.51100000000E-03 0. -1.
        -11    1    3    3    0    0 -0.11199454320E+02  0.25996293299E+02  0.31711082883E+02  0.42506797341E+02  0.51100000000E-03 0.  1.
         12    1    3    3    0    0  0.13888573851E+02 -0.27203470989E+02 -0.22580368665E+02  0.37984133089E+02  0.00000000000E+00 0. -1.
</event>
<event>
 7    1  0.2000468E-015  0.9000771E+02  0.7816164E-02  0.1186339E+00
        -11   -1    0    0    0    0  0.00000000000E+00  0.00000000000E+00  0.45593999997E+02  0.45594000000E+02  0.51100000000E-03 0.  1.
         11   -1    0    0    0    0 -0.00000000000E+00 -0.00000000000E+00 -0.45593999997E+02  0.45594000000E+02  0.51100000000E-03 0. -1.
    9900012    2    1    2    0    0  0.58985825513E+00  0.98002283603E+00  0.29103276633E+00  0.90007712920E+02  0.89999973930E+02 0.  0.
         12    1    1    2    0    0 -0.58985825513E+00 -0.98002283603E+00 -0.29103276633E+00  0.11802870801E+01  0.00000000000E+00 0. -1.
         11    1    3    3    0    0 -0.35536109729E+01 -0.54181117074E+01  0.68290027374E+01  0.94137858521E+01  0.51100000000E-03 0. -1.
        -11    1    3    3    0    0 -0.28164706002E+02 -0.16092565402E+02  0.14981403219E+02  0.35730431960E+02  0.51100000000E-03 0.  1.
         12    1    3    3    0    0  0.32308175230E+02  0.22490699946E+02 -0.21519373191E+02  0.44863495107E+02  0.00000000000E+00 0. -1.
</event>
<event>
 7    1  0.2000468E-015  0.9000764E+02  0.7816164E-02  0.1186339E+00
        -11   -1    0    0    0    0  0.00000000000E+00  0.00000000000E+00  0.45593999997E+02  0.45594000000E+02  0.51100000000E-03 0.  1.
         11   -1    0    0    0    0 -0.00000000000E+00 -0.00000000000E+00 -0.45593999997E+02  0.45594000000E+02  0.51100000000E-03 0. -1.
    9900012    2    1    2    0    0 -0.22325773380E+00  0.48130249791E+00  0.10543993450E+01  0.90007638153E+02  0.89999898177E+02 0.  0.
         12    1    1    2    0    0  0.22325773380E+00 -0.48130249791E+00 -0.10543993450E+01  0.11803618466E+01  0.00000000000E+00 0. -1.
         11    1    3    3    0    0 -0.36686687667E+01  0.29350710883E+02 -0.23313994035E+02  0.37662523521E+02  0.51100000000E-03 0. -1.
        -11    1    3    3    0    0  0.16466299645E+01  0.24070526171E+01  0.20583598373E+02  0.20789175423E+02  0.51100000000E-03 0.  1.
        -12    1    3    3    0    0  0.17987810685E+01 -0.31276461002E+02  0.37847950073E+01  0.31555939209E+02  0.00000000000E+00 0.  1.
</event>
<event>
 7    1  0.2000468E-015  0.9000740E+02  0.7816164E-02  0.1186340E+00
        -11   -1    0    0    0    0  0.00000000000E+00  0.00000000000E+00  0.45593999997E+02  0.45594000000E+02  0.51100000000E-03 0.  1.
         11   -1    0    0    0    0 -0.00000000000E+00 -0.00000000000E+00 -0.45593999997E+02  0.45594000000E+02  0.51100000000E-03 0. -1.
    9900012    2    1    2    0    0  0.73319623749E+00  0.42663896293E+00 -0.82111044077E+00  0.90007398508E+02  0.89999655367E+02 0.  0.
         12    1    1    2    0    0 -0.73319623749E+00 -0.42663896293E+00  0.82111044077E+00  0.11806014922E+01  0.00000000000E+00 0. -1.
         11    1    3    3    0    0  0.56278861111E+01  0.38543282714E+01 -0.62358715214E+01  0.92420258816E+01  0.51100000000E-03 0. -1.
        -11    1    3    3    0    0  0.31869417544E+02  0.16762027662E+02  0.12723023369E+02  0.38190321678E+02  0.51100000000E-03 0.  1.
         12    1    3    3    0    0 -0.36764107418E+02 -0.20189716970E+02 -0.73082622885E+01  0.42575050948E+02  0.00000000000E+00 0. -1.
</event>
<event>
 7    1  0.2000468E-015  0.9000760E+02  0.7816164E-02  0.1186339E+00
        -11   -1    0    0    0    0  0.00000000000E+00  0.00000000000E+00  0.45593999997E+02  0.45594000000E+02  0.51100000000E-03 0.  1.
         11   -1    0    0    0    0 -0.00000000000E+00 -0.00000000000E+00 -0.45593999997E+02  0.45594000000E+02  0.51100000000E-03 0. -1.
    9900012    2    1    2    0    0 -0.87395714349E+00  0.15346141617E+00  0.77845744333E+00  0.90007598591E+02  0.89999858092E+02 0.  0.
         12    1    1    2    0    0  0.87395714349E+00 -0.15346141617E+00 -0.77845744333E+00  0.11804014088E+01  0.00000000000E+00 0. -1.
         11    1    3    3    0    0 -0.21902764834E+00  0.36300476727E+02  0.17162028855E+02  0.40153552998E+02  0.51100000000E-03 0. -1.
        -11    1    3    3    0    0 -0.56801482278E+01  0.34917264358E+01 -0.49193184769E+01  0.82858875162E+01  0.51100000000E-03 0.  1.
        -12    1    3    3    0    0  0.50252187327E+01 -0.39638741746E+02 -0.11464252935E+02  0.41568158077E+02  0.00000000000E+00 0.  1.
</event>
<event>
 7    1  0.2000468E-015  0.9000763E+02  0.7816164E-02  0.1186339E+00
        -11   -1    0    0    0    0  0.00000000000E+00  0.00000000000E+00  0.45593999997E+02  0.45594000000E+02  0.51100000000E-03 0.  1.
         11   -1    0    0    0    0 -0.00000000000E+00 -0.00000000000E+00 -0.45593999997E+02  0.45594000000E+02  0.51100000000E-03 0. -1.
    9900012    2    1    2    0    0  0.35553933336E-01 -0.29017637794E+00  0.11435955041E+01  0.90007628410E+02  0.89999888305E+02 0.  0.
         12    1    1    2    0    0 -0.35553933336E-01  0.29017637794E+00 -0.11435955041E+01  0.11803715896E+01  0.00000000000E+00 0. -1.
         11    1    3    3    0    0 -0.20397875562E+02  0.24251686365E+02 -0.19632617574E+02  0.37278107410E+02  0.51100000000E-03 0. -1.
        -11    1    3    3    0    0  0.32348938854E+01  0.53981450664E+01 -0.62594621208E+01  0.88761126013E+01  0.51100000000E-03 0.  1.
        -12    1    3    3    0    0  0.17198535610E+02 -0.29940007810E+02  0.27035675199E+02  0.43853408399E+02  0.00000000000E+00 0.  1.
</event>
<event>
 7    1  0.2000468E-015  0.9000776E+02  0.7816164E-02  0.1186339E+00
        -11   -1    0    0    0    0  0.00000000000E+00  0.00000000000E+00  0.45593999997E+02  0.45594000000E+02  0.51100000000E-03 0. -1.
         11   -1    0    0    0    0 -0.00000000000E+00 -0.00000000000E+00 -0.45593999997E+02  0.45594000000E+02  0.51100000000E-03 0.  1.
    9900012    2    1    2    0    0 -0.64384764476E+00 -0.97762461759E+00 -0.15058740217E+00  0.90007760089E+02  0.90000021722E+02 0.  0.
         12    1    1    2    0    0  0.64384764476E+00  0.97762461759E+00  0.15058740217E+00  0.11802399113E+01  0.00000000000E+00 0. -1.
         11    1    3    3    0    0 -0.30873487361E+02 -0.77601605378E+01  0.17633059881E+02  0.36391168083E+02  0.51100000000E-03 0. -1.
        -11    1    3    3    0    0 -0.57444191757E+01 -0.56493836135E+01  0.47813363497E+01  0.93688347424E+01  0.51100000000E-03 0.  1.
        -12    1    3    3    0    0  0.35974058892E+02  0.12431919534E+02 -0.22564983633E+02  0.44247757263E+02  0.00000000000E+00 0.  1.
</event>
<event>
 7    1  0.2000468E-015  0.9000755E+02  0.7816164E-02  0.1186339E+00
        -11   -1    0    0    0    0  0.00000000000E+00  0.00000000000E+00  0.45593999997E+02  0.45594000000E+02  0.51100000000E-03 0.  1.
         11   -1    0    0    0    0 -0.00000000000E+00 -0.00000000000E+00 -0.45593999997E+02  0.45594000000E+02  0.51100000000E-03 0. -1.
    9900012    2    1    2    0    0 -0.40636132735E+00  0.56263016106E+00  0.95487545219E+00  0.90007546970E+02  0.89999805790E+02 0.  0.
         12    1    1    2    0    0  0.40636132735E+00 -0.56263016106E+00 -0.95487545219E+00  0.11804530299E+01  0.00000000000E+00 0. -1.
         11    1    3    3    0    0 -0.32345138821E+02 -0.22127329895E+02 -0.97829162369E+01  0.40392229253E+02  0.51100000000E-03 0. -1.
        -11    1    3    3    0    0  0.59168874429E+01 -0.23509923507E+01  0.11885664185E+02  0.13483535717E+02  0.51100000000E-03 0.  1.
        -12    1    3    3    0    0  0.26021890051E+02  0.25040952407E+02 -0.11478724962E+01  0.36131782000E+02  0.00000000000E+00 0.  1.
</event>
<event>
 7    1  0.2000468E-015  0.9000759E+02  0.7816164E-02  0.1186339E+00
        -11   -1    0    0    0    0  0.00000000000E+00  0.00000000000E+00  0.45593999997E+02  0.45594000000E+02  0.51100000000E-03 0.  1.
         11   -1    0    0    0    0 -0.00000000000E+00 -0.00000000000E+00 -0.45593999997E+02  0.45594000000E+02  0.51100000000E-03 0. -1.
    9900012    2    1    2    0    0 -0.11295123995E+01 -0.31614205519E+00  0.13278981348E+00  0.90007586007E+02  0.89999845342E+02 0.  0.
         12    1    1    2    0    0  0.11295123995E+01  0.31614205519E+00 -0.13278981348E+00  0.11804139927E+01  0.00000000000E+00 0. -1.
         11    1    3    3    0    0  0.11366729039E+02  0.40745437332E+01 -0.34617857114E+02  0.36663339552E+02  0.51100000000E-03 0. -1.
        -11    1    3    3    0    0  0.28474427768E+01  0.24613151923E-01 -0.75828718190E+01  0.80999062624E+01  0.51100000000E-03 0.  1.
        -12    1    3    3    0    0 -0.15343684216E+02 -0.44152989403E+01  0.42333518746E+02  0.45244340193E+02  0.00000000000E+00 0.  1.
</event>
<event>
 7    1  0.2000468E-015  0.9000766E+02  0.7816164E-02  0.1186339E+00
        -11   -1    0    0    0    0  0.00000000000E+00  0.00000000000E+00  0.45593999997E+02  0.45594000000E+02  0.51100000000E-03 0. -1.
         11   -1    0    0    0    0 -0.00000000000E+00 -0.00000000000E+00 -0.45593999997E+02  0.45594000000E+02  0.51100000000E-03 0.  1.
    9900012    2    1    2    0    0 -0.93797822220E+00 -0.94556794663E-01 -0.71024610828E+00  0.90007663748E+02  0.89999924110E+02 0.  0.
         12    1    1    2    0    0  0.93797822220E+00  0.94556794663E-01  0.71024610828E+00  0.11803362517E+01  0.00000000000E+00 0. -1.
         11    1    3    3    0    0  0.46125626349E-01 -0.81329433052E+01  0.52551354148E+00  0.81500343019E+01  0.51100000000E-03 0. -1.
        -11    1    3    3    0    0 -0.41635797891E+01 -0.33264183438E+02  0.15807658592E+02  0.37063774321E+02  0.51100000000E-03 0.  1.
         12    1    3    3    0    0  0.31794759405E+01  0.41302569949E+02 -0.17043418242E+02  0.44793855126E+02  0.00000000000E+00 0. -1.
</event>
<event>
 7    1  0.2000468E-015  0.9000778E+02  0.7816164E-02  0.1186339E+00
        -11   -1    0    0    0    0  0.00000000000E+00  0.00000000000E+00  0.45593999997E+02  0.45594000000E+02  0.51100000000E-03 0. -1.
         11   -1    0    0    0    0 -0.00000000000E+00 -0.00000000000E+00 -0.45593999997E+02  0.45594000000E+02  0.51100000000E-03 0.  1.
    9900012    2    1    2    0    0  0.26097944672E+00 -0.91035842764E+00 -0.70430752117E+00  0.90007783146E+02  0.90000045083E+02 0.  0.
         12    1    1    2    0    0 -0.26097944672E+00  0.91035842764E+00  0.70430752117E+00  0.11802168541E+01  0.00000000000E+00 0. -1.
         11    1    3    3    0    0 -0.20093929073E+02  0.63922206143E+01 -0.26556140697E+02  0.33909513104E+02  0.51100000000E-03 0. -1.
        -11    1    3    3    0    0 -0.13189913866E+02 -0.34324048245E+01  0.96069483717E-01  0.13629543657E+02  0.51100000000E-03 0.  1.
        -12    1    3    3    0    0  0.33544822386E+02 -0.38701742175E+01  0.25755763693E+02  0.42468726385E+02  0.00000000000E+00 0.  1.
</event>
<event>
 7    1  0.2000468E-015  0.9000777E+02  0.7816164E-02  0.1186339E+00
        -11   -1    0    0    0    0  0.00000000000E+00  0.00000000000E+00  0.45593999997E+02  0.45594000000E+02  0.51100000000E-03 0. -1.
         11   -1    0    0    0    0 -0.00000000000E+00 -0.00000000000E+00 -0.45593999997E+02  0.45594000000E+02  0.51100000000E-03 0.  1.
    9900012    2    1    2    0    0 -0.99926046904E+00 -0.60970136641E+00  0.15060129660E+00  0.90007772059E+02  0.90000033851E+02 0.  0.
         12    1    1    2    0    0  0.99926046904E+00  0.60970136641E+00 -0.15060129660E+00  0.11802279406E+01  0.00000000000E+00 0. -1.
         11    1    3    3    0    0  0.12173964990E+01 -0.78612442124E+01  0.36611658928E+01  0.87570172295E+01  0.51100000000E-03 0. -1.
        -11    1    3    3    0    0  0.26552924116E+02 -0.15446074437E+02 -0.24256160208E+02  0.39140775451E+02  0.51100000000E-03 0.  1.
         12    1    3    3    0    0 -0.28769581084E+02  0.22697617283E+02  0.20745595612E+02  0.42109979379E+02  0.00000000000E+00 0. -1.
</event>
<event>
 7    1  0.2000468E-015  0.9000787E+02  0.7816164E-02  0.1186339E+00
        -11   -1    0    0    0    0  0.00000000000E+00  0.00000000000E+00  0.45593999997E+02  0.45594000000E+02  0.51100000000E-03 0.  1.
         11   -1    0    0    0    0 -0.00000000000E+00 -0.00000000000E+00 -0.45593999997E+02  0.45594000000E+02  0.51100000000E-03 0. -1.
    9900012    2    1    2    0    0 -0.68577835981E+00  0.24908192547E+00  0.92756550462E+00  0.90007868003E+02  0.90000131061E+02 0.  0.
         12    1    1    2    0    0  0.68577835981E+00 -0.24908192547E+00 -0.92756550462E+00  0.11801319968E+01  0.00000000000E+00 0. -1.
         11    1    3    3    0    0  0.40125571603E+00  0.18476347715E+02 -0.22134869007E+02  0.28835548500E+02  0.51100000000E-03 0. -1.
        -11    1    3    3    0    0 -0.89878663421E+01  0.16064188803E+02 -0.11719910611E+01  0.18444876432E+02  0.51100000000E-03 0.  1.
        -12    1    3    3    0    0  0.79008322663E+01 -0.34291454593E+02  0.24234425573E+02  0.42727443072E+02  0.00000000000E+00 0.  1.
</event>
<event>
 7    1  0.2296485E-015  0.9000774E+02  0.7816164E-02  0.1186339E+00
        -11   -1    0    0    0    0  0.00000000000E+00  0.00000000000E+00  0.45593999997E+02  0.45594000000E+02  0.51100000000E-03 0. -1.
         11   -1    0    0    0    0 -0.00000000000E+00 -0.00000000000E+00 -0.45593999997E+02  0.45594000000E+02  0.51100000000E-03 0.  1.
    9900012    2    1    2    0    0  0.55368897606E+00 -0.98471193041E+00 -0.34173239518E+00  0.90007741512E+02  0.90000002900E+02 0.  0.
         12    1    1    2    0    0 -0.55368897606E+00  0.98471193041E+00  0.34173239518E+00  0.11802584878E+01  0.00000000000E+00 0. -1.
         11    1    3    3    0    0 -0.85684097772E+01  0.32769031909E+02  0.93569811838E+01  0.35139439317E+02  0.51100000000E-03 0. -1.
        -11    1    3    3    0    0 -0.22415109926E+01  0.92058670082E+01 -0.29374493191E+01  0.99197261891E+01  0.51100000000E-03 0.  1.
        -12    1    3    3    0    0  0.11363609746E+02 -0.42959610847E+02 -0.67612642599E+01  0.44948576007E+02  0.00000000000E+00 0.  1.
</event>
<event>
 7    1  0.2000468E-015  0.9000779E+02  0.7816164E-02  0.1186339E+00
        -11   -1    0    0    0    0  0.00000000000E+00  0.00000000000E+00  0.45593999997E+02  0.45594000000E+02  0.51100000000E-03 0.  1.
         11   -1    0    0    0    0 -0.00000000000E+00 -0.00000000000E+00 -0.45593999997E+02  0.45594000000E+02  0.51100000000E-03 0. -1.
    9900012    2    1    2    0    0  0.50050803450E+00  0.25619603252E+00  0.10376673228E+01  0.90007788929E+02  0.90000050943E+02 0.  0.
         12    1    1    2    0    0 -0.50050803450E+00 -0.25619603252E+00 -0.10376673228E+01  0.11802110711E+01  0.00000000000E+00 0. -1.
         11    1    3    3    0    0  0.49689208213E+01  0.56840624115E+01 -0.86526260595E+00  0.75991722750E+01  0.51100000000E-03 0. -1.
        -11    1    3    3    0    0  0.18304288994E+02  0.29196623822E+02 -0.15088403411E+02  0.37618476257E+02  0.51100000000E-03 0.  1.
         12    1    3    3    0    0 -0.22772701781E+02 -0.34624490201E+02  0.16991333339E+02  0.44790140396E+02  0.00000000000E+00 0. -1.
</event>
<event>
 7    1  0.2000468E-015  0.9000771E+02  0.7816164E-02  0.1186339E+00
        -11   -1    0    0    0    0  0.00000000000E+00  0.00000000000E+00  0.45593999997E+02  0.45594000000E+02  0.51100000000E-03 0.  1.
         11   -1    0    0    0    0 -0.00000000000E+00 -0.00000000000E+00 -0.45593999997E+02  0.45594000000E+02  0.51100000000E-03 0. -1.
    9900012    2    1    2    0    0  0.59273535582E-01 -0.10398073007E+01  0.55530741227E+00  0.90007712367E+02  0.89999973370E+02 0.  0.
         12    1    1    2    0    0 -0.59273535582E-01  0.10398073007E+01 -0.55530741227E+00  0.11802876331E+01  0.00000000000E+00 0. -1.
         11    1    3    3    0    0 -0.14091563798E+02 -0.27480648299E+02  0.12199688475E+02  0.33205279706E+02  0.51100000000E-03 0. -1.
        -11    1    3    3    0    0 -0.82307789123E+01 -0.97668417962E+01 -0.41454764978E+00  0.12779231988E+02  0.51100000000E-03 0.  1.
        -12    1    3    3    0    0  0.22381616246E+02  0.36207682794E+02 -0.11229833413E+02  0.44023200674E+02  0.00000000000E+00 0.  1.
</event>
<event>
 7    1  0.2000468E-015  0.9000766E+02  0.7816164E-02  0.1186339E+00
        -11   -1    0    0    0    0  0.00000000000E+00  0.00000000000E+00  0.45593999997E+02  0.45594000000E+02  0.51100000000E-03 0.  1.
         11   -1    0    0    0    0 -0.00000000000E+00 -0.00000000000E+00 -0.45593999997E+02  0.45594000000E+02  0.51100000000E-03 0. -1.
    9900012    2    1    2    0    0  0.13413927491E+00  0.11230619360E+01 -0.33753958468E+00  0.90007663426E+02  0.89999923783E+02 0.  0.
         12    1    1    2    0    0 -0.13413927491E+00 -0.11230619360E+01  0.33753958468E+00  0.11803365742E+01  0.00000000000E+00 0. -1.
         11    1    3    3    0    0 -0.36868895018E+02 -0.11509991067E+02 -0.19596026597E+02  0.43310501877E+02  0.51100000000E-03 0. -1.
        -11    1    3    3    0    0  0.22961126806E+01  0.68289519064E+01  0.18539313891E+01  0.74393399868E+01  0.51100000000E-03 0.  1.
        -12    1    3    3    0    0  0.34706921612E+02  0.58041010963E+01  0.17404555623E+02  0.39257821562E+02  0.00000000000E+00 0.  1.
</event>
<event>
 7    1  0.2000468E-015  0.9000773E+02  0.7816164E-02  0.1186339E+00
        -11   -1    0    0    0    0  0.00000000000E+00  0.00000000000E+00  0.45593999997E+02  0.45594000000E+02  0.51100000000E-03 0.  1.
         11   -1    0    0    0    0 -0.00000000000E+00 -0.00000000000E+00 -0.45593999997E+02  0.45594000000E+02  0.51100000000E-03 0. -1.
    9900012    2    1    2    0    0 -0.65891924734E+00 -0.81325976193E+00  0.54540170350E+00  0.90007733491E+02  0.89999994773E+02 0.  0.
         12    1    1    2    0    0  0.65891924734E+00  0.81325976193E+00 -0.54540170350E+00  0.11802665093E+01  0.00000000000E+00 0. -1.
         11    1    3    3    0    0 -0.30248256473E+01 -0.75163004562E+01 -0.58005059211E+01  0.99644473980E+01  0.51100000000E-03 0. -1.
        -11    1    3    3    0    0 -0.13503194389E+02 -0.17317959071E+02  0.33770174253E+02  0.40282410981E+02  0.51100000000E-03 0.  1.
         12    1    3    3    0    0  0.15869100789E+02  0.24020999765E+02 -0.27424266628E+02  0.39760875112E+02  0.00000000000E+00 0. -1.
</event>
<event>
 7    1  0.2000468E-015  0.9000751E+02  0.7816164E-02  0.1186339E+00
        -11   -1    0    0    0    0  0.00000000000E+00  0.00000000000E+00  0.45593999997E+02  0.45594000000E+02  0.51100000000E-03 0.  1.
         11   -1    0    0    0    0 -0.00000000000E+00 -0.00000000000E+00 -0.45593999997E+02  0.45594000000E+02  0.51100000000E-03 0. -1.
    9900012    2    1    2    0    0 -0.43633976255E+00  0.37128536133E+00  0.10321344913E+01  0.90007514161E+02  0.89999772548E+02 0.  0.
         12    1    1    2    0    0  0.43633976255E+00 -0.37128536133E+00 -0.10321344913E+01  0.11804858390E+01  0.00000000000E+00 0. -1.
         11    1    3    3    0    0  0.85421739672E+01 -0.12294040798E+01  0.14834132243E+00  0.86314642956E+01  0.51100000000E-03 0. -1.
        -11    1    3    3    0    0 -0.38380330183E+02  0.13151094611E+02 -0.18203930056E+02  0.44467787264E+02  0.51100000000E-03 0.  1.
         12    1    3    3    0    0  0.29401816453E+02 -0.11550405170E+02  0.19087723225E+02  0.36908262601E+02  0.00000000000E+00 0. -1.
</event>
<event>
 7    1  0.2000468E-015  0.9000773E+02  0.7816164E-02  0.1186339E+00
        -11   -1    0    0    0    0  0.00000000000E+00  0.00000000000E+00  0.45593999997E+02  0.45594000000E+02  0.51100000000E-03 0.  1.
         11   -1    0    0    0    0 -0.00000000000E+00 -0.00000000000E+00 -0.45593999997E+02  0.45594000000E+02  0.51100000000E-03 0. -1.
    9900012    2    1    2    0    0  0.11169167048E+01 -0.37224084516E+00  0.83521716702E-01  0.90007727976E+02  0.89999989186E+02 0.  0.
         12    1    1    2    0    0 -0.11169167048E+01  0.37224084516E+00 -0.83521716702E-01  0.11802720235E+01  0.00000000000E+00 0. -1.
         11    1    3    3    0    0 -0.29995163032E+02 -0.22075308127E+02  0.37593955192E+00  0.37244736071E+02  0.51100000000E-03 0. -1.
        -11    1    3    3    0    0 -0.14711014117E+01 -0.44061314077E+01 -0.89845362240E+01  0.10114347471E+02  0.51100000000E-03 0.  1.
        -12    1    3    3    0    0  0.32583181148E+02  0.26109198690E+02  0.86921183888E+01  0.42648644434E+02  0.00000000000E+00 0.  1.
</event>
<event>
 7    1  0.2000468E-015  0.9000768E+02  0.7816164E-02  0.1186339E+00
        -11   -1    0    0    0    0  0.00000000000E+00  0.00000000000E+00  0.45593999997E+02  0.45594000000E+02  0.51100000000E-03 0. -1.
         11   -1    0    0    0    0 -0.00000000000E+00 -0.00000000000E+00 -0.45593999997E+02  0.45594000000E+02  0.51100000000E-03 0.  1.
    9900012    2    1    2    0    0 -0.94293814852E+00  0.48699399251E+00 -0.51658661985E+00  0.90007679181E+02  0.89999939746E+02 0.  0.
         12    1    1    2    0    0  0.94293814852E+00 -0.48699399251E+00  0.51658661985E+00  0.11803208193E+01  0.00000000000E+00 0. -1.
         11    1    3    3    0    0  0.91767931208E+01  0.87444497104E+00 -0.35712919378E+01  0.98859654236E+01  0.51100000000E-03 0. -1.
        -11    1    3    3    0    0 -0.73127317939E+01  0.22693227920E+02 -0.30863038501E+02  0.38999817762E+02  0.51100000000E-03 0.  1.
         12    1    3    3    0    0 -0.28069994754E+01 -0.23080678898E+02  0.33917743819E+02  0.41121895995E+02  0.00000000000E+00 0. -1.
</event>
<event>
 7    1  0.2000468E-015  0.9000792E+02  0.7816164E-02  0.1186339E+00
        -11   -1    0    0    0    0  0.00000000000E+00  0.00000000000E+00  0.45593999997E+02  0.45594000000E+02  0.51100000000E-03 0.  1.
         11   -1    0    0    0    0 -0.00000000000E+00 -0.00000000000E+00 -0.45593999997E+02  0.45594000000E+02  0.51100000000E-03 0. -1.
    9900012    2    1    2    0    0  0.88907147886E+00 -0.73340177252E+00  0.25348679569E+00  0.90007922964E+02  0.90000186747E+02 0.  0.
         12    1    1    2    0    0 -0.88907147886E+00  0.73340177252E+00 -0.25348679569E+00  0.11800770356E+01  0.00000000000E+00 0. -1.
         11    1    3    3    0    0  0.60230354148E+01  0.51476208315E+01  0.77079583098E+01  0.11053848986E+02  0.51100000000E-03 0. -1.
        -11    1    3    3    0    0 -0.13195752137E+02 -0.17351697370E+02  0.31071737023E+02  0.37956055090E+02  0.51100000000E-03 0.  1.
         12    1    3    3    0    0  0.80617882012E+01  0.11470674766E+02 -0.38526208537E+02  0.40998018889E+02  0.00000000000E+00 0. -1.
</event>
<event>
 7    1  0.2000468E-015  0.9000769E+02  0.7816164E-02  0.1186339E+00
        -11   -1    0    0    0    0  0.00000000000E+00  0.00000000000E+00  0.45593999997E+02  0.45594000000E+02  0.51100000000E-03 0.  1.
         11   -1    0    0    0    0 -0.00000000000E+00 -0.00000000000E+00 -0.45593999997E+02  0.45594000000E+02  0.51100000000E-03 0. -1.
    9900012    2    1    2    0    0  0.36333826448E+00 -0.11217206400E+01  0.53433542536E-01  0.90007691976E+02  0.89999952710E+02 0.  0.
         12    1    1    2    0    0 -0.36333826448E+00  0.11217206400E+01 -0.53433542536E-01  0.11803080243E+01  0.00000000000E+00 0. -1.
         11    1    3    3    0    0  0.38701692439E+01 -0.18637818911E+01 -0.90766341685E+01  0.10041771806E+02  0.51100000000E-03 0. -1.
        -11    1    3    3    0    0 -0.44021268396E+01 -0.33604274281E+02 -0.15921317416E+02  0.37444816987E+02  0.51100000000E-03 0.  1.
         12    1    3    3    0    0  0.89529586020E+00  0.34346335532E+02  0.25051385127E+02  0.42521103183E+02  0.00000000000E+00 0. -1.
</event>
<event>
 7    1  0.2000468E-015  0.9000772E+02  0.7816164E-02  0.1186339E+00
        -11   -1    0    0    0    0  0.00000000000E+00  0.00000000000E+00  0.45593999997E+02  0.45594000000E+02  0.51100000000E-03 0.  1.
         11   -1    0    0    0    0 -0.00000000000E+00 -0.00000000000E+00 -0.45593999997E+02  0.45594000000E+02  0.51100000000E-03 0. -1.
    9900012    2    1    2    0    0 -0.16760319938E-01  0.99070145602E+00  0.64131206391E+00  0.90007723996E+02  0.89999985152E+02 0.  0.
         12    1    1    2    0    0  0.16760319938E-01 -0.99070145602E+00 -0.64131206391E+00  0.11802760044E+01  0.00000000000E+00 0. -1.
         11    1    3    3    0    0 -0.29430957732E+02  0.23612253205E+02  0.26560150386E+01  0.37825575879E+02  0.51100000000E-03 0. -1.
        -11    1    3    3    0    0  0.13144085394E+01  0.91777525746E+01 -0.29704506978E+01  0.97356247739E+01  0.51100000000E-03 0.  1.
        -12    1    3    3    0    0  0.28099788873E+02 -0.31799304323E+02  0.95574772311E+00  0.42446523342E+02  0.00000000000E+00 0.  1.
</event>
<event>
 7    1  0.2000468E-015  0.9000777E+02  0.7816164E-02  0.1186339E+00
        -11   -1    0    0    0    0  0.00000000000E+00  0.00000000000E+00  0.45593999997E+02  0.45594000000E+02  0.51100000000E-03 0. -1.
         11   -1    0    0    0    0 -0.00000000000E+00 -0.00000000000E+00 -0.45593999997E+02  0.45594000000E+02  0.51100000000E-03 0.  1.
    9900012    2    1    2    0    0 -0.50981431764E-01  0.10115953789E+01  0.60582347410E+00  0.90007768498E+02  0.90000030242E+02 0.  0.
         12    1    1    2    0    0  0.50981431764E-01 -0.10115953789E+01 -0.60582347410E+00  0.11802315022E+01  0.00000000000E+00 0. -1.
         11    1    3    3    0    0  0.99829399290E+00  0.24049480292E+02  0.24024594541E+02  0.34008164259E+02  0.51100000000E-03 0. -1.
        -11    1    3    3    0    0  0.29409113250E+01  0.84458311510E+01  0.75154603568E+01  0.11681745070E+02  0.51100000000E-03 0.  1.
        -12    1    3    3    0    0 -0.39901867497E+01 -0.31483716064E+02 -0.30934231423E+02  0.44317859168E+02  0.00000000000E+00 0.  1.
</event>
<event>
 7    1  0.2000468E-015  0.9000772E+02  0.7816164E-02  0.1186339E+00
        -11   -1    0    0    0    0  0.00000000000E+00  0.00000000000E+00  0.45593999997E+02  0.45594000000E+02  0.51100000000E-03 0.  1.
         11   -1    0    0    0    0 -0.00000000000E+00 -0.00000000000E+00 -0.45593999997E+02  0.45594000000E+02  0.51100000000E-03 0. -1.
    9900012    2    1    2    0    0  0.31932785364E+00 -0.10102888991E+01  0.52000439268E+00  0.90007721005E+02  0.89999982122E+02 0.  0.
         12    1    1    2    0    0 -0.31932785364E+00  0.10102888991E+01 -0.52000439268E+00  0.11802789951E+01  0.00000000000E+00 0. -1.
         11    1    3    3    0    0 -0.87293175508E+01  0.13474834851E+02 -0.61871020557E+01  0.17206173057E+02  0.51100000000E-03 0. -1.
        -11    1    3    3    0    0  0.54082600385E+01  0.26180819274E+02 -0.10196540573E+02  0.28612130546E+02  0.51100000000E-03 0.  1.
         12    1    3    3    0    0  0.36403853659E+01 -0.40665943024E+02  0.16903647021E+02  0.44189417401E+02  0.00000000000E+00 0. -1.
</event>
<event>
 7    1  0.2000468E-015  0.9000771E+02  0.7816164E-02  0.1186339E+00
        -11   -1    0    0    0    0  0.00000000000E+00  0.00000000000E+00  0.45593999997E+02  0.45594000000E+02  0.51100000000E-03 0. -1.
         11   -1    0    0    0    0 -0.00000000000E+00 -0.00000000000E+00 -0.45593999997E+02  0.45594000000E+02  0.51100000000E-03 0.  1.
    9900012    2    1    2    0    0  0.69344366834E+00 -0.94442340678E+00  0.14244924887E+00  0.90007707036E+02  0.89999967969E+02 0.  0.
         12    1    1    2    0    0 -0.69344366834E+00  0.94442340678E+00 -0.14244924887E+00  0.11802929640E+01  0.00000000000E+00 0. -1.
         11    1    3    3    0    0 -0.29276020846E+02 -0.15512132377E+02  0.17967331097E+02  0.37690007091E+02  0.51100000000E-03 0. -1.
        -11    1    3    3    0    0 -0.79579925727E+01  0.66630030619E+01 -0.48871818221E+01  0.11472131537E+02  0.51100000000E-03 0.  1.
        -12    1    3    3    0    0  0.37927457087E+02  0.79047059082E+01 -0.12937700026E+02  0.40845568408E+02  0.00000000000E+00 0.  1.
</event>
<event>
 7    1  0.2000468E-015  0.9000775E+02  0.7816164E-02  0.1186339E+00
        -11   -1    0    0    0    0  0.00000000000E+00  0.00000000000E+00  0.45593999997E+02  0.45594000000E+02  0.51100000000E-03 0.  1.
         11   -1    0    0    0    0 -0.00000000000E+00 -0.00000000000E+00 -0.45593999997E+02  0.45594000000E+02  0.51100000000E-03 0. -1.
    9900012    2    1    2    0    0  0.73023458207E+00  0.23669068796E+00  0.89650444179E+00  0.90007752043E+02  0.90000013570E+02 0.  0.
         12    1    1    2    0    0 -0.73023458207E+00 -0.23669068796E+00 -0.89650444179E+00  0.11802479573E+01  0.00000000000E+00 0. -1.
         11    1    3    3    0    0  0.21383071691E-01  0.16433080541E+01  0.10896412453E+02  0.11019651682E+02  0.51100000000E-03 0. -1.
        -11    1    3    3    0    0 -0.37138503123E+02  0.61653923243E+01  0.41586604223E+01  0.37875782942E+02  0.51100000000E-03 0.  1.
         12    1    3    3    0    0  0.37847354633E+02 -0.75720096905E+01 -0.14158568433E+02  0.41112317419E+02  0.00000000000E+00 0. -1.
</event>
<event>
 7    1  0.2000468E-015  0.9000774E+02  0.7816164E-02  0.1186339E+00
        -11   -1    0    0    0    0  0.00000000000E+00  0.00000000000E+00  0.45593999997E+02  0.45594000000E+02  0.51100000000E-03 0.  1.
         11   -1    0    0    0    0 -0.00000000000E+00 -0.00000000000E+00 -0.45593999997E+02  0.45594000000E+02  0.51100000000E-03 0. -1.
    9900012    2    1    2    0    0  0.21071918149E+00  0.11578227221E+01  0.89778294867E-01  0.90007738939E+02  0.90000000293E+02 0.  0.
         12    1    1    2    0    0 -0.21071918149E+00 -0.11578227221E+01 -0.89778294867E-01  0.11802610607E+01  0.00000000000E+00 0. -1.
         11    1    3    3    0    0 -0.35403480997E+01  0.33538047054E+01 -0.85150410404E+01  0.98126446410E+01  0.51100000000E-03 0. -1.
        -11    1    3    3    0    0  0.16517963811E+02  0.35035180132E+02  0.12357586020E+02  0.40657310632E+02  0.51100000000E-03 0.  1.
         12    1    3    3    0    0 -0.12766896530E+02 -0.37231162115E+02 -0.37527666850E+01  0.39537783666E+02  0.00000000000E+00 0. -1.
</event>
<event>
 7    1  0.2000468E-015  0.9000781E+02  0.7816164E-02  0.1186339E+00
        -11   -1    0    0    0    0  0.00000000000E+00  0.00000000000E+00  0.45593999997E+02  0.45594000000E+02  0.51100000000E-03 0. -1.
         11   -1    0    0    0    0 -0.00000000000E+00 -0.00000000000E+00 -0.45593999997E+02  0.45594000000E+02  0.51100000000E-03 0.  1.
    9900012    2    1    2    0    0  0.10831656988E+00  0.53024216802E+00 -0.10487926714E+01  0.90007807090E+02  0.90000069344E+02 0.  0.
         12    1    1    2    0    0 -0.10831656988E+00 -0.53024216802E+00  0.10487926714E+01  0.11801929095E+01  0.00000000000E+00 0. -1.
         11    1    3    3    0    0  0.60500261810E+01  0.50783753158E+01 -0.25741384313E+01  0.83077615255E+01  0.51100000000E-03 0. -1.
        -11    1    3    3    0    0  0.74690932101E+00 -0.13555339572E+02 -0.38137099981E+02  0.40481396958E+02  0.51100000000E-03 0.  1.
         12    1    3    3    0    0 -0.66886189322E+01  0.90072064247E+01  0.39662445741E+02  0.41218648607E+02  0.00000000000E+00 0. -1.
</event>
<event>
 7    1  0.2000468E-015  0.9000792E+02  0.7816164E-02  0.1186339E+00
        -11   -1    0    0    0    0  0.00000000000E+00  0.00000000000E+00  0.45593999997E+02  0.45594000000E+02  0.51100000000E-03 0.  1.
         11   -1    0    0    0    0 -0.00000000000E+00 -0.00000000000E+00 -0.45593999997E+02  0.45594000000E+02  0.51100000000E-03 0. -1.
    9900012    2    1    2    0    0 -0.10430125769E+01  0.55009127809E+00  0.45929069673E-01  0.90007921558E+02  0.90000185322E+02 0.  0.
         12    1    1    2    0    0  0.10430125769E+01 -0.55009127809E+00 -0.45929069673E-01  0.11800784420E+01  0.00000000000E+00 0. -1.
         11    1    3    3    0    0  0.28110430978E+02 -0.12247492371E+02  0.15940918364E+02  0.34558794506E+02  0.51100000000E-03 0. -1.
        -11    1    3    3    0    0  0.17928808782E+01 -0.54506754127E+01  0.97472306984E+01  0.11310737856E+02  0.51100000000E-03 0.  1.
        -12    1    3    3    0    0 -0.30946324433E+02  0.18248259062E+02 -0.25642219993E+02  0.44138389196E+02  0.00000000000E+00 0.  1.
</event>
<event>
 7    1  0.2000468E-015  0.9000778E+02  0.7816164E-02  0.1186339E+00
        -11   -1    0    0    0    0  0.00000000000E+00  0.00000000000E+00  0.45593999997E+02  0.45594000000E+02  0.51100000000E-03 0.  1.
         11   -1    0    0    0    0 -0.00000000000E+00 -0.00000000000E+00 -0.45593999997E+02  0.45594000000E+02  0.51100000000E-03 0. -1.
    9900012    2    1    2    0    0 -0.10323395649E+01  0.30280562695E+00  0.48527657639E+00  0.90007784096E+02  0.90000046046E+02 0.  0.
         12    1    1    2    0    0  0.10323395649E+01 -0.30280562695E+00 -0.48527657639E+00  0.11802159042E+01  0.00000000000E+00 0. -1.
         11    1    3    3    0    0  0.82497996701E+01  0.84803105790E+01 -0.41599804478E+02  0.43249492424E+02  0.51100000000E-03 0. -1.
        -11    1    3    3    0    0 -0.68851036974E+01 -0.51253137717E+01  0.60175798185E+01  0.10482593253E+02  0.51100000000E-03 0.  1.
        -12    1    3    3    0    0 -0.23970355376E+01 -0.30521911803E+01  0.36067501235E+02  0.36275698418E+02  0.00000000000E+00 0.  1.
</event>
<event>
 7    1  0.2000468E-015  0.9000779E+02  0.7816164E-02  0.1186339E+00
        -11   -1    0    0    0    0  0.00000000000E+00  0.00000000000E+00  0.45593999997E+02  0.45594000000E+02  0.51100000000E-03 0.  1.
         11   -1    0    0    0    0 -0.00000000000E+00 -0.00000000000E+00 -0.45593999997E+02  0.45594000000E+02  0.51100000000E-03 0. -1.
    9900012    2    1    2    0    0  0.13658582379E-01  0.76988798586E+00  0.89441571892E+00  0.90007790889E+02  0.90000052929E+02 0.  0.
         12    1    1    2    0    0 -0.13658582379E-01 -0.76988798586E+00 -0.89441571892E+00  0.11802091111E+01  0.00000000000E+00 0. -1.
         11    1    3    3    0    0  0.55264217375E+00 -0.26856681198E+02 -0.28474656281E+02  0.39145788904E+02  0.51100000000E-03 0. -1.
        -11    1    3    3    0    0 -0.11818061284E+02  0.59981396109E+00  0.53514435669E+01  0.12987081959E+02  0.51100000000E-03 0.  1.
        -12    1    3    3    0    0  0.11279077692E+02  0.27026755223E+02  0.24017628433E+02  0.37874920026E+02  0.00000000000E+00 0.  1.
</event>
<event>
 7    1  0.2000468E-015  0.9000758E+02  0.7816164E-02  0.1186339E+00
        -11   -1    0    0    0    0  0.00000000000E+00  0.00000000000E+00  0.45593999997E+02  0.45594000000E+02  0.51100000000E-03 0.  1.
         11   -1    0    0    0    0 -0.00000000000E+00 -0.00000000000E+00 -0.45593999997E+02  0.45594000000E+02  0.51100000000E-03 0. -1.
    9900012    2    1    2    0    0 -0.63958198450E+00 -0.51533690953E+00  0.84779227462E+00  0.90007581012E+02  0.89999840282E+02 0.  0.
         12    1    1    2    0    0  0.63958198450E+00  0.51533690953E+00 -0.84779227462E+00  0.11804189875E+01  0.00000000000E+00 0. -1.
         11    1    3    3    0    0 -0.68429878894E+01 -0.33553036004E+01 -0.34224242779E+01  0.83544918280E+01  0.51100000000E-03 0. -1.
        -11    1    3    3    0    0 -0.29914092423E+02  0.57640212313E+01  0.25437341591E+02  0.39687973162E+02  0.51100000000E-03 0.  1.
         12    1    3    3    0    0  0.36117498327E+02 -0.29240545405E+01 -0.21167125039E+02  0.41965116023E+02  0.00000000000E+00 0. -1.
</event>
<event>
 7    1  0.2000468E-015  0.9000773E+02  0.7816164E-02  0.1186339E+00
        -11   -1    0    0    0    0  0.00000000000E+00  0.00000000000E+00  0.45593999997E+02  0.45594000000E+02  0.51100000000E-03 0. -1.
         11   -1    0    0    0    0 -0.00000000000E+00 -0.00000000000E+00 -0.45593999997E+02  0.45594000000E+02  0.51100000000E-03 0.  1.
    9900012    2    1    2    0    0  0.36713610142E+00  0.43990657115E+00 -0.10318622558E+01  0.90007726124E+02  0.89999987308E+02 0.  0.
         12    1    1    2    0    0 -0.36713610142E+00 -0.43990657115E+00  0.10318622558E+01  0.11802738763E+01  0.00000000000E+00 0. -1.
         11    1    3    3    0    0  0.65701919421E+01 -0.85881104193E+01  0.51700512263E+01  0.11985511782E+02  0.51100000000E-03 0. -1.
        -11    1    3    3    0    0  0.33705452345E+02  0.62928537397E+01 -0.14399525863E+02  0.37188760013E+02  0.51100000000E-03 0.  1.
         12    1    3    3    0    0 -0.39908508186E+02  0.27351632507E+01  0.81976123813E+01  0.40833454328E+02  0.00000000000E+00 0. -1.
</event>
<event>
 7    1  0.2000468E-015  0.9000732E+02  0.7816164E-02  0.1186340E+00
        -11   -1    0    0    0    0  0.00000000000E+00  0.00000000000E+00  0.45593999997E+02  0.45594000000E+02  0.51100000000E-03 0. -1.
         11   -1    0    0    0    0 -0.00000000000E+00 -0.00000000000E+00 -0.45593999997E+02  0.45594000000E+02  0.51100000000E-03 0.  1.
    9900012    2    1    2    0    0 -0.18297422913E+00 -0.11392314353E+01  0.25037707684E+00  0.90007315236E+02  0.89999570996E+02 0.  0.
         12    1    1    2    0    0  0.18297422913E+00  0.11392314353E+01 -0.25037707684E+00  0.11806847642E+01  0.00000000000E+00 0. -1.
         11    1    3    3    0    0 -0.40617890295E+01  0.84153481150E+01  0.42354589705E+01  0.10259401882E+02  0.51100000000E-03 0. -1.
        -11    1    3    3    0    0  0.28676234359E+02 -0.33707440927E+02 -0.77467325416E+01  0.44928051996E+02  0.51100000000E-03 0.  1.
         12    1    3    3    0    0 -0.24797419558E+02  0.24152861376E+02  0.37616506480E+01  0.34819861358E+02  0.00000000000E+00 0. -1.
</event>
<event>
 7    1  0.2000468E-015  0.9000780E+02  0.7816164E-02  0.1186339E+00
        -11   -1    0    0    0    0  0.00000000000E+00  0.00000000000E+00  0.45593999997E+02  0.45594000000E+02  0.51100000000E-03 0.  1.
         11   -1    0    0    0    0 -0.00000000000E+00 -0.00000000000E+00 -0.45593999997E+02  0.45594000000E+02  0.51100000000E-03 0. -1.
    9900012    2    1    2    0    0 -0.84318356069E+00 -0.81883763230E+00  0.10684238938E+00  0.90007801338E+02  0.90000063516E+02 0.  0.
         12    1    1    2    0    0  0.84318356069E+00  0.81883763230E+00 -0.10684238938E+00  0.11801986618E+01  0.00000000000E+00 0. -1.
         11    1    3    3    0    0 -0.56114505963E+01  0.34097970940E+01 -0.34137397862E+02  0.34763156172E+02  0.51100000000E-03 0. -1.
        -11    1    3    3    0    0 -0.64804172470E+00  0.27746575584E+01 -0.98585223151E+01  0.10262024417E+02  0.51100000000E-03 0.  1.
        -12    1    3    3    0    0  0.54163087603E+01 -0.70032922847E+01  0.44102762566E+02  0.44982620749E+02  0.00000000000E+00 0.  1.
</event>
<event>
 8    1  0.2000468E-015  0.9000749E+02  0.7816164E-02  0.1186340E+00
        -11   -1    0    0    0    0  0.00000000000E+00  0.00000000000E+00  0.45593999997E+02  0.45594000000E+02  0.51100000000E-03 0.  1.
         11   -1    0    0    0    0 -0.00000000000E+00 -0.00000000000E+00 -0.45593999997E+02  0.45594000000E+02  0.51100000000E-03 0. -1.
    9900012    2    1    2    0    0 -0.45003534921E+00 -0.10181002603E+01  0.39310614734E+00  0.90007494854E+02  0.89999752986E+02 0.  0.
         23    2    3    3    0    0  0.23989011795E+02 -0.13537135283E+02 -0.19582683131E+01  0.62448064071E+02  0.56010705878E+02 0.  0.
         12    1    1    2    0    0  0.45003534921E+00  0.10181002603E+01 -0.39310614734E+00  0.11805051455E+01  0.00000000000E+00 0. -1.
         11    1    4    4    0    0 -0.70592603989E+01  0.13526786394E+02 -0.12734177275E+02  0.19873761059E+02  0.51100000000E-03 0. -1.
        -11    1    4    4    0    0  0.31048272194E+02 -0.27063921676E+02  0.10775908962E+02  0.42574303012E+02  0.51100000000E-03 0.  1.
         12    1    3    3    0    0 -0.24439047145E+02  0.12519035022E+02  0.23513744605E+01  0.27559430783E+02  0.00000000000E+00 0. -1.
</event>
<event>
 7    1  0.2000468E-015  0.9000768E+02  0.7816164E-02  0.1186339E+00
        -11   -1    0    0    0    0  0.00000000000E+00  0.00000000000E+00  0.45593999997E+02  0.45594000000E+02  0.51100000000E-03 0.  1.
         11   -1    0    0    0    0 -0.00000000000E+00 -0.00000000000E+00 -0.45593999997E+02  0.45594000000E+02  0.51100000000E-03 0. -1.
    9900012    2    1    2    0    0  0.95394936069E+00 -0.45529827595E+00  0.52520655915E+00  0.90007678928E+02  0.89999939490E+02 0.  0.
         12    1    1    2    0    0 -0.95394936069E+00  0.45529827595E+00 -0.52520655915E+00  0.11803210718E+01  0.00000000000E+00 0. -1.
         11    1    3    3    0    0  0.40345680712E+01 -0.63839550956E+01  0.43892423931E+01  0.87348767152E+01  0.51100000000E-03 0. -1.
        -11    1    3    3    0    0 -0.16497443327E+02  0.22295529528E+02  0.30304776933E+02  0.41080844423E+02  0.51100000000E-03 0.  1.
         12    1    3    3    0    0  0.13416824617E+02 -0.16366872709E+02 -0.34168812767E+02  0.40191957790E+02  0.00000000000E+00 0. -1.
</event>
<event>
 7    1  0.2000468E-015  0.9000775E+02  0.7816164E-02  0.1186339E+00
        -11   -1    0    0    0    0  0.00000000000E+00  0.00000000000E+00  0.45593999997E+02  0.45594000000E+02  0.51100000000E-03 0. -1.
         11   -1    0    0    0    0 -0.00000000000E+00 -0.00000000000E+00 -0.45593999997E+02  0.45594000000E+02  0.51100000000E-03 0.  1.
    9900012    2    1    2    0    0  0.89944568432E+00 -0.54344001483E+00 -0.53726796786E+00  0.90007751527E+02  0.90000013047E+02 0.  0.
         12    1    1    2    0    0 -0.89944568432E+00  0.54344001483E+00  0.53726796786E+00  0.11802484730E+01  0.00000000000E+00 0. -1.
         11    1    3    3    0    0 -0.86235469746E+01 -0.51702360281E+00 -0.17546829673E+01  0.88154289973E+01  0.51100000000E-03 0. -1.
        -11    1    3    3    0    0 -0.35232494852E+02 -0.45391644332E+01 -0.46581209548E+01  0.35827793657E+02  0.51100000000E-03 0.  1.
         12    1    3    3    0    0  0.44755487511E+02  0.45127480212E+01  0.58755359543E+01  0.45364528872E+02  0.00000000000E+00 0. -1.
</event>
<event>
 7    1  0.2000468E-015  0.9000777E+02  0.7816164E-02  0.1186339E+00
        -11   -1    0    0    0    0  0.00000000000E+00  0.00000000000E+00  0.45593999997E+02  0.45594000000E+02  0.51100000000E-03 0. -1.
         11   -1    0    0    0    0 -0.00000000000E+00 -0.00000000000E+00 -0.45593999997E+02  0.45594000000E+02  0.51100000000E-03 0.  1.
    9900012    2    1    2    0    0  0.12636965602E+00 -0.27377126116E+00 -0.11410641188E+01  0.90007768109E+02  0.90000029848E+02 0.  0.
         12    1    1    2    0    0 -0.12636965602E+00  0.27377126116E+00  0.11410641188E+01  0.11802318911E+01  0.00000000000E+00 0. -1.
         11    1    3    3    0    0  0.24997798861E+02  0.22498971010E+02  0.18995767309E+02  0.38625546214E+02  0.51100000000E-03 0. -1.
        -11    1    3    3    0    0 -0.65428171909E+01 -0.97993324000E+01  0.88347136212E+01  0.14727102135E+02  0.51100000000E-03 0.  1.
        -12    1    3    3    0    0 -0.18328612014E+02 -0.12973409871E+02 -0.28971545049E+02  0.36655119759E+02  0.00000000000E+00 0.  1.
</event>
<event>
 7    1  0.2000468E-015  0.9000779E+02  0.7816164E-02  0.1186339E+00
        -11   -1    0    0    0    0  0.00000000000E+00  0.00000000000E+00  0.45593999997E+02  0.45594000000E+02  0.51100000000E-03 0.  1.
         11   -1    0    0    0    0 -0.00000000000E+00 -0.00000000000E+00 -0.45593999997E+02  0.45594000000E+02  0.51100000000E-03 0. -1.
    9900012    2    1    2    0    0  0.90763870013E-01  0.20502577297E+00  0.11587188561E+01  0.90007786869E+02  0.90000048855E+02 0.  0.
         12    1    1    2    0    0 -0.90763870013E-01 -0.20502577297E+00 -0.11587188561E+01  0.11802131312E+01  0.00000000000E+00 0. -1.
         11    1    3    3    0    0  0.97541400253E+01 -0.43937487786E+01  0.99872153559E+00  0.10744567042E+02  0.51100000000E-03 0. -1.
        -11    1    3    3    0    0  0.90371485482E+01 -0.34407622007E+02  0.41799728929E+01  0.35819361799E+02  0.51100000000E-03 0.  1.
         12    1    3    3    0    0 -0.18700524703E+02  0.39006396559E+02 -0.40199755724E+01  0.43443858027E+02  0.00000000000E+00 0. -1.
</event>
<event>
 8    1  0.2000468E-015  0.9000773E+02  0.7816164E-02  0.1186339E+00
        -11   -1    0    0    0    0  0.00000000000E+00  0.00000000000E+00  0.45593999997E+02  0.45594000000E+02  0.51100000000E-03 0. -1.
         11   -1    0    0    0    0 -0.00000000000E+00 -0.00000000000E+00 -0.45593999997E+02  0.45594000000E+02  0.51100000000E-03 0.  1.
    9900012    2    1    2    0    0  0.62215204238E+00 -0.17485556629E+00 -0.98762249323E+00  0.90007726378E+02  0.89999987567E+02 0.  0.
         23    2    3    3    0    0 -0.10299889049E+02 -0.74816483491E+01  0.18734612731E+02  0.66308638535E+02  0.62320037338E+02 0.  0.
         12    1    1    2    0    0 -0.62215204238E+00  0.17485556629E+00  0.98762249323E+00  0.11802736217E+01  0.00000000000E+00 0. -1.
         11    1    4    4    0    0 -0.26365915788E+02 -0.25831928883E+02  0.19817798874E+02  0.41895050037E+02  0.51100000000E-03 0. -1.
        -11    1    4    4    0    0  0.16066026740E+02  0.18350280534E+02 -0.10831861427E+01  0.24413588498E+02  0.51100000000E-03 0.  1.
        -12    1    3    3    0    0  0.10922041091E+02  0.73067927828E+01 -0.19722235224E+02  0.23699087843E+02  0.00000000000E+00 0.  1.
</event>
<event>
 7    1  0.2000468E-015  0.9000776E+02  0.7816164E-02  0.1186339E+00
        -11   -1    0    0    0    0  0.00000000000E+00  0.00000000000E+00  0.45593999997E+02  0.45594000000E+02  0.51100000000E-03 0.  1.
         11   -1    0    0    0    0 -0.00000000000E+00 -0.00000000000E+00 -0.45593999997E+02  0.45594000000E+02  0.51100000000E-03 0. -1.
    9900012    2    1    2    0    0 -0.67011324712E+00 -0.51688307268E+00 -0.82263940884E+00  0.90007764654E+02  0.90000026348E+02 0.  0.
         12    1    1    2    0    0  0.67011324712E+00  0.51688307268E+00  0.82263940884E+00  0.11802353459E+01  0.00000000000E+00 0. -1.
         11    1    3    3    0    0  0.66057523876E+01  0.21350883425E+01  0.95838664948E+01  0.11834063718E+02  0.51100000000E-03 0. -1.
        -11    1    3    3    0    0  0.22786363006E+02  0.20625526531E+02  0.13168530306E+02  0.33437118213E+02  0.51100000000E-03 0.  1.
         12    1    3    3    0    0 -0.30062228640E+02 -0.23277497946E+02 -0.23575036210E+02  0.44736582723E+02  0.00000000000E+00 0. -1.
</event>
<event>
 7    1  0.2000468E-015  0.9000776E+02  0.7816164E-02  0.1186339E+00
        -11   -1    0    0    0    0  0.00000000000E+00  0.00000000000E+00  0.45593999997E+02  0.45594000000E+02  0.51100000000E-03 0. -1.
         11   -1    0    0    0    0 -0.00000000000E+00 -0.00000000000E+00 -0.45593999997E+02  0.45594000000E+02  0.51100000000E-03 0.  1.
    9900012    2    1    2    0    0  0.19157770699E+00  0.52065637311E+00 -0.10417188314E+01  0.90007761380E+02  0.90000023030E+02 0.  0.
         12    1    1    2    0    0 -0.19157770699E+00 -0.52065637311E+00  0.10417188314E+01  0.11802386201E+01  0.00000000000E+00 0. -1.
         11    1    3    3    0    0  0.10158578234E+01 -0.82537087338E+01 -0.47651243549E+01  0.95844710526E+01  0.51100000000E-03 0. -1.
        -11    1    3    3    0    0 -0.11743875399E+02  0.27320946569E+02 -0.28816669510E+02  0.41409578273E+02  0.51100000000E-03 0.  1.
         12    1    3    3    0    0  0.10919595283E+02 -0.18546581462E+02  0.32540075034E+02  0.39013712054E+02  0.00000000000E+00 0. -1.
</event>
<event>
 7    1  0.2000468E-015  0.9000773E+02  0.7816164E-02  0.1186339E+00
        -11   -1    0    0    0    0  0.00000000000E+00  0.00000000000E+00  0.45593999997E+02  0.45594000000E+02  0.51100000000E-03 0.  1.
         11   -1    0    0    0    0 -0.00000000000E+00 -0.00000000000E+00 -0.45593999997E+02  0.45594000000E+02  0.51100000000E-03 0. -1.
    9900012    2    1    2    0    0 -0.10910063781E+00  0.48077098332E+00  0.10723780255E+01  0.90007729558E+02  0.89999990788E+02 0.  0.
         12    1    1    2    0    0  0.10910063781E+00 -0.48077098332E+00 -0.10723780255E+01  0.11802704424E+01  0.00000000000E+00 0. -1.
         11    1    3    3    0    0  0.21192634926E+02 -0.11339802116E+02 -0.24207144087E+02  0.34113116425E+02  0.51100000000E-03 0. -1.
        -11    1    3    3    0    0 -0.13063630047E+02 -0.78658020532E+01 -0.73328769417E+01  0.16920412419E+02  0.51100000000E-03 0.  1.
        -12    1    3    3    0    0 -0.82381055171E+01  0.19686375152E+02  0.32612399054E+02  0.38974200713E+02  0.00000000000E+00 0.  1.
</event>
<event>
 7    1  0.2000468E-015  0.9000775E+02  0.7816164E-02  0.1186339E+00
        -11   -1    0    0    0    0  0.00000000000E+00  0.00000000000E+00  0.45593999997E+02  0.45594000000E+02  0.51100000000E-03 0.  1.
         11   -1    0    0    0    0 -0.00000000000E+00 -0.00000000000E+00 -0.45593999997E+02  0.45594000000E+02  0.51100000000E-03 0. -1.
    9900012    2    1    2    0    0  0.39514898928E-01  0.11738287564E+01  0.11646673925E+00  0.90007745842E+02  0.90000007287E+02 0.  0.
         12    1    1    2    0    0 -0.39514898928E-01 -0.11738287564E+01 -0.11646673925E+00  0.11802541582E+01  0.00000000000E+00 0. -1.
         11    1    3    3    0    0  0.10277220879E+02  0.86150828600E+01 -0.39717031486E+02  0.41919965553E+02  0.51100000000E-03 0. -1.
        -11    1    3    3    0    0 -0.31380652013E+00 -0.84614501314E+01  0.16551314407E+01  0.86275183689E+01  0.51100000000E-03 0.  1.
        -12    1    3    3    0    0 -0.99238994600E+01  0.10201960278E+01  0.38178366784E+02  0.39460261920E+02  0.00000000000E+00 0.  1.
</event>
<event>
 7    1  0.2000468E-015  0.9000782E+02  0.7816164E-02  0.1186339E+00
        -11   -1    0    0    0    0  0.00000000000E+00  0.00000000000E+00  0.45593999997E+02  0.45594000000E+02  0.51100000000E-03 0.  1.
         11   -1    0    0    0    0 -0.00000000000E+00 -0.00000000000E+00 -0.45593999997E+02  0.45594000000E+02  0.51100000000E-03 0. -1.
    9900012    2    1    2    0    0  0.75344838117E+00 -0.85726963353E+00 -0.30037511536E+00  0.90007821667E+02  0.90000084113E+02 0.  0.
         12    1    1    2    0    0 -0.75344838117E+00  0.85726963353E+00  0.30037511536E+00  0.11801783330E+01  0.00000000000E+00 0. -1.
         11    1    3    3    0    0 -0.10080749862E+02 -0.22464936624E+01 -0.18621254044E+01  0.10494558726E+02  0.51100000000E-03 0. -1.
        -11    1    3    3    0    0 -0.21001951018E+02  0.13030306713E+02  0.27393003769E+02  0.36895087685E+02  0.51100000000E-03 0.  1.
         12    1    3    3    0    0  0.31836149261E+02 -0.11641082684E+02 -0.25831253480E+02  0.42618175256E+02  0.00000000000E+00 0. -1.
</event>
<event>
 7    1  0.2000468E-015  0.9000780E+02  0.7816164E-02  0.1186339E+00
        -11   -1    0    0    0    0  0.00000000000E+00  0.00000000000E+00  0.45593999997E+02  0.45594000000E+02  0.51100000000E-03 0.  1.
         11   -1    0    0    0    0 -0.00000000000E+00 -0.00000000000E+00 -0.45593999997E+02  0.45594000000E+02  0.51100000000E-03 0. -1.
    9900012    2    1    2    0    0 -0.82229651350E+00  0.22948216008E+00  0.81488628662E+00  0.90007799476E+02  0.90000061629E+02 0.  0.
         12    1    1    2    0    0  0.82229651350E+00 -0.22948216008E+00 -0.81488628662E+00  0.11802005245E+01  0.00000000000E+00 0. -1.
         11    1    3    3    0    0 -0.30811154516E+02  0.65340466187E+01 -0.24500863759E+02  0.39903800985E+02  0.51100000000E-03 0. -1.
        -11    1    3    3    0    0  0.14340125910E+01 -0.66375061300E+01 -0.50177111297E+01  0.84433586314E+01  0.51100000000E-03 0.  1.
        -12    1    3    3    0    0  0.28554845412E+02  0.33294167137E+00  0.30333461175E+02  0.41660639859E+02  0.00000000000E+00 0.  1.
</event>
<event>
 7    1  0.2000468E-015  0.9000767E+02  0.7816164E-02  0.1186339E+00
        -11   -1    0    0    0    0  0.00000000000E+00  0.00000000000E+00  0.45593999997E+02  0.45594000000E+02  0.51100000000E-03 0.  1.
         11   -1    0    0    0    0 -0.00000000000E+00 -0.00000000000E+00 -0.45593999997E+02  0.45594000000E+02  0.51100000000E-03 0. -1.
    9900012    2    1    2    0    0  0.24769827463E+00 -0.10800026335E+01  0.40670263911E+00  0.90007674977E+02  0.89999935487E+02 0.  0.
         12    1    1    2    0    0 -0.24769827463E+00  0.10800026335E+01 -0.40670263911E+00  0.11803250232E+01  0.00000000000E+00 0. -1.
         11    1    3    3    0    0  0.88476691682E+01 -0.20294483218E+01 -0.25488918889E+01  0.94285078524E+01  0.51100000000E-03 0. -1.
        -11    1    3    3    0    0  0.98874289122E+01  0.21586945686E+02  0.32386697074E+02  0.40157883686E+02  0.51100000000E-03 0.  1.
         12    1    3    3    0    0 -0.18487399806E+02 -0.20637499998E+02 -0.29431102546E+02  0.40421283438E+02  0.00000000000E+00 0. -1.
</event>
<event>
 7    1  0.2000468E-015  0.9000759E+02  0.7816164E-02  0.1186339E+00
        -11   -1    0    0    0    0  0.00000000000E+00  0.00000000000E+00  0.45593999997E+02  0.45594000000E+02  0.51100000000E-03 0. -1.
         11   -1    0    0    0    0 -0.00000000000E+00 -0.00000000000E+00 -0.45593999997E+02  0.45594000000E+02  0.51100000000E-03 0.  1.
    9900012    2    1    2    0    0 -0.63275421354E+00 -0.80323193972E+00  0.58974926136E+00  0.90007591751E+02  0.89999851162E+02 0.  0.
         12    1    1    2    0    0  0.63275421354E+00  0.80323193972E+00 -0.58974926136E+00  0.11804082493E+01  0.00000000000E+00 0. -1.
         11    1    3    3    0    0 -0.80238518301E+01 -0.16293709570E+02  0.17507593613E+02  0.25226632834E+02  0.51100000000E-03 0. -1.
        -11    1    3    3    0    0 -0.25773078019E+02  0.13705894329E+02 -0.58336765431E+01  0.29768017607E+02  0.51100000000E-03 0.  1.
         12    1    3    3    0    0  0.33164175636E+02  0.17845833013E+01 -0.11084167808E+02  0.35012941310E+02  0.00000000000E+00 0. -1.
</event>
<event>
 7    1  0.2000468E-015  0.9000775E+02  0.7816164E-02  0.1186339E+00
        -11   -1    0    0    0    0  0.00000000000E+00  0.00000000000E+00  0.45593999997E+02  0.45594000000E+02  0.51100000000E-03 0. -1.
         11   -1    0    0    0    0 -0.00000000000E+00 -0.00000000000E+00 -0.45593999997E+02  0.45594000000E+02  0.51100000000E-03 0.  1.
    9900012    2    1    2    0    0  0.94114420929E+00  0.16185085898E+00 -0.69357095743E+00  0.90007750536E+02  0.90000012044E+02 0.  0.
         12    1    1    2    0    0 -0.94114420929E+00 -0.16185085898E+00  0.69357095743E+00  0.11802494636E+01  0.00000000000E+00 0. -1.
         11    1    3    3    0    0 -0.19387253851E+02  0.22708653085E+02  0.18499198054E+02  0.35125046131E+02  0.51100000000E-03 0. -1.
        -11    1    3    3    0    0 -0.26687082892E+01  0.61684528464E+01  0.70136212483E+01  0.97140464137E+01  0.51100000000E-03 0.  1.
        -12    1    3    3    0    0  0.22997106349E+02 -0.28715255073E+02 -0.26206390260E+02  0.45168657992E+02  0.00000000000E+00 0.  1.
</event>
<event>
 7    1  0.2000468E-015  0.9000790E+02  0.7816164E-02  0.1186339E+00
        -11   -1    0    0    0    0  0.00000000000E+00  0.00000000000E+00  0.45593999997E+02  0.45594000000E+02  0.51100000000E-03 0.  1.
         11   -1    0    0    0    0 -0.00000000000E+00 -0.00000000000E+00 -0.45593999997E+02  0.45594000000E+02  0.51100000000E-03 0. -1.
    9900012    2    1    2    0    0  0.32894760993E-01  0.11688637482E+01 -0.15909983220E+00  0.90007899460E+02  0.90000162933E+02 0.  0.
         12    1    1    2    0    0 -0.32894760993E-01 -0.11688637482E+01  0.15909983220E+00  0.11801005397E+01  0.00000000000E+00 0. -1.
         11    1    3    3    0    0 -0.89583249407E+01  0.33369220687E+02 -0.13204633805E+02  0.36988090370E+02  0.51100000000E-03 0. -1.
        -11    1    3    3    0    0 -0.10922195891E+01  0.88797498714E+01  0.79446288850E+00  0.89818746903E+01  0.51100000000E-03 0.  1.
        -12    1    3    3    0    0  0.10083439291E+02 -0.41080106811E+02  0.12251071084E+02  0.44037934400E+02  0.00000000000E+00 0.  1.
</event>
<event>
 7    1  0.2223811E-015  0.9000772E+02  0.7816164E-02  0.1186339E+00
        -11   -1    0    0    0    0  0.00000000000E+00  0.00000000000E+00  0.45593999997E+02  0.45594000000E+02  0.51100000000E-03 0. -1.
         11   -1    0    0    0    0 -0.00000000000E+00 -0.00000000000E+00 -0.45593999997E+02  0.45594000000E+02  0.51100000000E-03 0.  1.
    9900012    2    1    2    0    0 -0.33807189348E+00  0.93294444731E+00  0.63904729280E+00  0.90007720631E+02  0.89999981743E+02 0.  0.
         12    1    1    2    0    0  0.33807189348E+00 -0.93294444731E+00 -0.63904729280E+00  0.11802793692E+01  0.00000000000E+00 0. -1.
         11    1    3    3    0    0  0.32739990330E+02  0.15713112563E+02 -0.55627613157E+00  0.36319668454E+02  0.51100000000E-03 0. -1.
        -11    1    3    3    0    0  0.76290914656E+01  0.25382791309E+01  0.46969643808E+01  0.93116793433E+01  0.51100000000E-03 0.  1.
        -12    1    3    3    0    0 -0.40707153689E+02 -0.17318447246E+02 -0.35016409564E+01  0.44376372834E+02  0.00000000000E+00 0.  1.
</event>
<event>
 7    1  0.2000468E-015  0.9000768E+02  0.7816164E-02  0.1186339E+00
        -11   -1    0    0    0    0  0.00000000000E+00  0.00000000000E+00  0.45593999997E+02  0.45594000000E+02  0.51100000000E-03 0.  1.
         11   -1    0    0    0    0 -0.00000000000E+00 -0.00000000000E+00 -0.45593999997E+02  0.45594000000E+02  0.51100000000E-03 0. -1.
    9900012    2    1    2    0    0  0.64978914867E+00  0.76951430068E+00  0.61545504328E+00  0.90007676694E+02  0.89999937226E+02 0.  0.
         12    1    1    2    0    0 -0.64978914867E+00 -0.76951430068E+00 -0.61545504328E+00  0.11803233061E+01  0.00000000000E+00 0. -1.
         11    1    3    3    0    0 -0.38386617434E+01  0.19263396405E+02 -0.30603905890E+02  0.36364994446E+02  0.51100000000E-03 0. -1.
        -11    1    3    3    0    0  0.15201288955E+01  0.76862341080E+01 -0.46691388818E+01  0.91208467140E+01  0.51100000000E-03 0.  1.
        -12    1    3    3    0    0  0.29683219966E+01 -0.26180116212E+02  0.35888499815E+02  0.44521835534E+02  0.00000000000E+00 0.  1.
</event>
<event>
 7    1  0.2000468E-015  0.9000767E+02  0.7816164E-02  0.1186339E+00
        -11   -1    0    0    0    0  0.00000000000E+00  0.00000000000E+00  0.45593999997E+02  0.45594000000E+02  0.51100000000E-03 0. -1.
         11   -1    0    0    0    0 -0.00000000000E+00 -0.00000000000E+00 -0.45593999997E+02  0.45594000000E+02  0.51100000000E-03 0.  1.
    9900012    2    1    2    0    0  0.55338425878E+00  0.10045721056E+01 -0.27887968453E+00  0.90007672447E+02  0.89999932924E+02 0.  0.
         12    1    1    2    0    0 -0.55338425878E+00 -0.10045721056E+01  0.27887968453E+00  0.11803275527E+01  0.00000000000E+00 0. -1.
         11    1    3    3    0    0 -0.14086029993E+02 -0.11153571194E+02  0.58298388406E+01  0.18889293595E+02  0.51100000000E-03 0. -1.
        -11    1    3    3    0    0 -0.85293473828E+01  0.16092065650E+02 -0.31584183204E+02  0.36459086283E+02  0.51100000000E-03 0.  1.
         12    1    3    3    0    0  0.23168761635E+02 -0.39339223502E+01  0.25475464679E+02  0.34659292569E+02  0.00000000000E+00 0. -1.
</event>
<event>
 7    1  0.2000468E-015  0.9000772E+02  0.7816164E-02  0.1186339E+00
        -11   -1    0    0    0    0  0.00000000000E+00  0.00000000000E+00  0.45593999997E+02  0.45594000000E+02  0.51100000000E-03 0. -1.
         11   -1    0    0    0    0 -0.00000000000E+00 -0.00000000000E+00 -0.45593999997E+02  0.45594000000E+02  0.51100000000E-03 0.  1.
    9900012    2    1    2    0    0  0.84243992605E-01  0.98391937768E+00 -0.64643258416E+00  0.90007716357E+02  0.89999977413E+02 0.  0.
         12    1    1    2    0    0 -0.84243992605E-01 -0.98391937768E+00  0.64643258416E+00  0.11802836430E+01  0.00000000000E+00 0. -1.
         11    1    3    3    0    0  0.13227599655E+02  0.22890958439E+02 -0.25998087485E+02  0.37079184512E+02  0.51100000000E-03 0. -1.
        -11    1    3    3    0    0 -0.70765374318E+00  0.34364546881E+01 -0.82957304172E+01  0.90071714794E+01  0.51100000000E-03 0.  1.
        -12    1    3    3    0    0 -0.12435701919E+02 -0.25343493749E+02  0.33647385318E+02  0.43921360366E+02  0.00000000000E+00 0.  1.
</event>
<event>
 7    1  0.2000468E-015  0.9000778E+02  0.7816164E-02  0.1186339E+00
        -11   -1    0    0    0    0  0.00000000000E+00  0.00000000000E+00  0.45593999997E+02  0.45594000000E+02  0.51100000000E-03 0. -1.
         11   -1    0    0    0    0 -0.00000000000E+00 -0.00000000000E+00 -0.45593999997E+02  0.45594000000E+02  0.51100000000E-03 0.  1.
    9900012    2    1    2    0    0  0.86878831456E+00 -0.42538385645E+00 -0.67614626355E+00  0.90007780389E+02  0.90000042290E+02 0.  0.
         12    1    1    2    0    0 -0.86878831456E+00  0.42538385645E+00  0.67614626355E+00  0.11802196112E+01  0.00000000000E+00 0. -1.
         11    1    3    3    0    0  0.30589427837E+02 -0.15930048630E+02 -0.27523011673E+02  0.44124774408E+02  0.51100000000E-03 0. -1.
        -11    1    3    3    0    0 -0.58744606725E+00  0.64333615363E+01  0.67690208528E+01  0.93569694402E+01  0.51100000000E-03 0.  1.
        -12    1    3    3    0    0 -0.29133193455E+02  0.90713032374E+01  0.20077844557E+02  0.36526036541E+02  0.00000000000E+00 0.  1.
</event>
<event>
 7    1  0.2000468E-015  0.9000777E+02  0.7816164E-02  0.1186339E+00
        -11   -1    0    0    0    0  0.00000000000E+00  0.00000000000E+00  0.45593999997E+02  0.45594000000E+02  0.51100000000E-03 0.  1.
         11   -1    0    0    0    0 -0.00000000000E+00 -0.00000000000E+00 -0.45593999997E+02  0.45594000000E+02  0.51100000000E-03 0. -1.
    9900012    2    1    2    0    0 -0.61901392769E+00  0.34203453243E+00  0.94486587384E+00  0.90007772317E+02  0.90000034112E+02 0.  0.
         12    1    1    2    0    0  0.61901392769E+00 -0.34203453243E+00 -0.94486587384E+00  0.11802276829E+01  0.00000000000E+00 0. -1.
         11    1    3    3    0    0  0.15377034534E+01 -0.43933850131E+00  0.94576977430E+01  0.95919548106E+01  0.51100000000E-03 0. -1.
        -11    1    3    3    0    0  0.36553783628E+02  0.13836543617E+02 -0.51952299474E+01  0.39428662813E+02  0.51100000000E-03 0.  1.
         12    1    3    3    0    0 -0.38710501009E+02 -0.13055170583E+02 -0.33176019218E+01  0.40987154693E+02  0.00000000000E+00 0. -1.
</event>
<event>
 7    1  0.2000468E-015  0.9000778E+02  0.7816164E-02  0.1186339E+00
        -11   -1    0    0    0    0  0.00000000000E+00  0.00000000000E+00  0.45593999997E+02  0.45594000000E+02  0.51100000000E-03 0. -1.
         11   -1    0    0    0    0 -0.00000000000E+00 -0.00000000000E+00 -0.45593999997E+02  0.45594000000E+02  0.51100000000E-03 0.  1.
    9900012    2    1    2    0    0  0.36432542948E+00 -0.11159206298E+01  0.12213376885E+00  0.90007776069E+02  0.90000037913E+02 0.  0.
         12    1    1    2    0    0 -0.36432542948E+00  0.11159206298E+01 -0.12213376885E+00  0.11802239313E+01  0.00000000000E+00 0. -1.
         11    1    3    3    0    0 -0.10251555801E+02  0.59120889232E+01  0.20353611146E+01  0.12007909348E+02  0.51100000000E-03 0. -1.
        -11    1    3    3    0    0 -0.18332980496E+02  0.36911293243E+01 -0.30597933694E+02  0.35860230844E+02  0.51100000000E-03 0.  1.
         12    1    3    3    0    0  0.28948861727E+02 -0.10719138877E+02  0.28684706349E+02  0.42139635877E+02  0.00000000000E+00 0. -1.
</event>
<event>
 7    1  0.2000468E-015  0.9000771E+02  0.7816164E-02  0.1186339E+00
        -11   -1    0    0    0    0  0.00000000000E+00  0.00000000000E+00  0.45593999997E+02  0.45594000000E+02  0.51100000000E-03 0. -1.
         11   -1    0    0    0    0 -0.00000000000E+00 -0.00000000000E+00 -0.45593999997E+02  0.45594000000E+02  0.51100000000E-03 0.  1.
    9900012    2    1    2    0    0 -0.10838392042E+01 -0.46666022186E+00 -0.24585060017E-01  0.90007710371E+02  0.89999971348E+02 0.  0.
         12    1    1    2    0    0  0.10838392042E+01  0.46666022186E+00  0.24585060017E-01  0.11802896290E+01  0.00000000000E+00 0. -1.
         11    1    3    3    0    0  0.68112734126E+01  0.46808563813E+01 -0.11747715978E+02  0.14363589138E+02  0.51100000000E-03 0. -1.
        -11    1    3    3    0    0  0.29212168026E+02 -0.10124987076E+02 -0.98320898779E+01  0.32442813005E+02  0.51100000000E-03 0.  1.
         12    1    3    3    0    0 -0.37107280643E+02  0.49774704726E+01  0.21555220796E+02  0.43201308228E+02  0.00000000000E+00 0. -1.
</event>
<event>
 7    1  0.2000468E-015  0.9000776E+02  0.7816164E-02  0.1186339E+00
        -11   -1    0    0    0    0  0.00000000000E+00  0.00000000000E+00  0.45593999997E+02  0.45594000000E+02  0.51100000000E-03 0.  1.
         11   -1    0    0    0    0 -0.00000000000E+00 -0.00000000000E+00 -0.45593999997E+02  0.45594000000E+02  0.51100000000E-03 0. -1.
    9900012    2    1    2    0    0 -0.86449133440E+00  0.75055351121E+00 -0.28687127078E+00  0.90007758090E+02  0.90000019697E+02 0.  0.
         12    1    1    2    0    0  0.86449133440E+00 -0.75055351121E+00  0.28687127078E+00  0.11802419101E+01  0.00000000000E+00 0. -1.
         11    1    3    3    0    0 -0.75587229503E+00 -0.80702797043E+01  0.64002853049E+01  0.10327846323E+02  0.51100000000E-03 0. -1.
        -11    1    3    3    0    0  0.18542320322E+02 -0.39274201123E+01  0.30651784310E+02  0.36038509310E+02  0.51100000000E-03 0.  1.
         12    1    3    3    0    0 -0.18650939361E+02  0.12748253328E+02 -0.37338940885E+02  0.43641402457E+02  0.00000000000E+00 0. -1.
</event>
<event>
 7    1  0.2000468E-015  0.9000772E+02  0.7816164E-02  0.1186339E+00
        -11   -1    0    0    0    0  0.00000000000E+00  0.00000000000E+00  0.45593999997E+02  0.45594000000E+02  0.51100000000E-03 0.  1.
         11   -1    0    0    0    0 -0.00000000000E+00 -0.00000000000E+00 -0.45593999997E+02  0.45594000000E+02  0.51100000000E-03 0. -1.
    9900012    2    1    2    0    0 -0.10414055987E+00 -0.35309141819E+00  0.11213995740E+01  0.90007722147E+02  0.89999983279E+02 0.  0.
         12    1    1    2    0    0  0.10414055987E+00  0.35309141819E+00 -0.11213995740E+01  0.11802778530E+01  0.00000000000E+00 0. -1.
         11    1    3    3    0    0  0.44330747728E+01  0.85237379459E+01 -0.67857061498E+00  0.96315481026E+01  0.51100000000E-03 0. -1.
        -11    1    3    3    0    0 -0.17150579341E+01  0.35674019628E+02  0.96039526914E+00  0.35728132605E+02  0.51100000000E-03 0.  1.
         12    1    3    3    0    0 -0.28221573985E+01 -0.44550848992E+02  0.83957491982E+00  0.44648041439E+02  0.00000000000E+00 0. -1.
</event>
<event>
 7    1  0.2000468E-015  0.9000745E+02  0.7816164E-02  0.1186340E+00
        -11   -1    0    0    0    0  0.00000000000E+00  0.00000000000E+00  0.45593999997E+02  0.45594000000E+02  0.51100000000E-03 0. -1.
         11   -1    0    0    0    0 -0.00000000000E+00 -0.00000000000E+00 -0.45593999997E+02  0.45594000000E+02  0.51100000000E-03 0.  1.
    9900012    2    1    2    0    0  0.90068959489E+00  0.73147187213E+00 -0.21774184067E+00  0.90007447436E+02  0.89999704942E+02 0.  0.
         12    1    1    2    0    0 -0.90068959489E+00 -0.73147187213E+00  0.21774184067E+00  0.11805525635E+01  0.00000000000E+00 0. -1.
         11    1    3    3    0    0  0.13217433832E+02  0.87440319974E+01  0.11433822162E+02  0.19542030144E+02  0.51100000000E-03 0. -1.
        -11    1    3    3    0    0  0.27281464163E+02 -0.32434293008E+01  0.37142144170E+01  0.27723519068E+02  0.51100000000E-03 0.  1.
         12    1    3    3    0    0 -0.39598208400E+02 -0.47691308244E+01 -0.15365778420E+02  0.42741898224E+02  0.00000000000E+00 0. -1.
</event>
<event>
 7    1  0.2000468E-015  0.9000784E+02  0.7816164E-02  0.1186339E+00
        -11   -1    0    0    0    0  0.00000000000E+00  0.00000000000E+00  0.45593999997E+02  0.45594000000E+02  0.51100000000E-03 0.  1.
         11   -1    0    0    0    0 -0.00000000000E+00 -0.00000000000E+00 -0.45593999997E+02  0.45594000000E+02  0.51100000000E-03 0. -1.
    9900012    2    1    2    0    0 -0.33745218366E+00 -0.48810928733E+00  0.10201289787E+01  0.90007835695E+02  0.90000098327E+02 0.  0.
         12    1    1    2    0    0  0.33745218366E+00  0.48810928733E+00 -0.10201289787E+01  0.11801643046E+01  0.00000000000E+00 0. -1.
         11    1    3    3    0    0 -0.34989213998E+01 -0.43786907876E+01 -0.62237697964E+01  0.83756011555E+01  0.51100000000E-03 0. -1.
        -11    1    3    3    0    0 -0.24771518776E+02  0.25227420807E+02  0.23960134105E+02  0.42709939471E+02  0.51100000000E-03 0.  1.
         12    1    3    3    0    0  0.27932987992E+02 -0.21336839307E+02 -0.16716235330E+02  0.38922295068E+02  0.00000000000E+00 0. -1.
</event>
<event>
 7    1  0.2000468E-015  0.9000772E+02  0.7816164E-02  0.1186339E+00
        -11   -1    0    0    0    0  0.00000000000E+00  0.00000000000E+00  0.45593999997E+02  0.45594000000E+02  0.51100000000E-03 0. -1.
         11   -1    0    0    0    0 -0.00000000000E+00 -0.00000000000E+00 -0.45593999997E+02  0.45594000000E+02  0.51100000000E-03 0.  1.
    9900012    2    1    2    0    0  0.61049574327E+00 -0.38800855649E+00 -0.93263183383E+00  0.90007721291E+02  0.89999982412E+02 0.  0.
         12    1    1    2    0    0 -0.61049574327E+00  0.38800855649E+00  0.93263183383E+00  0.11802787086E+01  0.00000000000E+00 0. -1.
         11    1    3    3    0    0 -0.11625420308E+02  0.35197682028E+02 -0.12393051350E+02  0.39084714909E+02  0.51100000000E-03 0. -1.
        -11    1    3    3    0    0  0.79257883753E+01  0.37593444658E+01  0.67392454642E+01  0.11062017080E+02  0.51100000000E-03 0.  1.
        -12    1    3    3    0    0  0.43101276764E+01 -0.39345035051E+02  0.47211740518E+01  0.39860989302E+02  0.00000000000E+00 0.  1.
</event>
<event>
 7    1  0.2000468E-015  0.9000763E+02  0.7816164E-02  0.1186339E+00
        -11   -1    0    0    0    0  0.00000000000E+00  0.00000000000E+00  0.45593999997E+02  0.45594000000E+02  0.51100000000E-03 0.  1.
         11   -1    0    0    0    0 -0.00000000000E+00 -0.00000000000E+00 -0.45593999997E+02  0.45594000000E+02  0.51100000000E-03 0. -1.
    9900012    2    1    2    0    0  0.32057521732E+00 -0.72762521172E+00  0.87238550493E+00  0.90007634214E+02  0.89999894186E+02 0.  0.
         12    1    1    2    0    0 -0.32057521732E+00  0.72762521172E+00 -0.87238550493E+00  0.11803657856E+01  0.00000000000E+00 0. -1.
         11    1    3    3    0    0 -0.38500989668E+01  0.33881600544E+01  0.86619353434E+01  0.10066380420E+02  0.51100000000E-03 0. -1.
        -11    1    3    3    0    0  0.20704212624E+02  0.18555940200E+02  0.24574649632E+02  0.37106613183E+02  0.51100000000E-03 0.  1.
         12    1    3    3    0    0 -0.16533538440E+02 -0.22671725466E+02 -0.32364199470E+02  0.42834640612E+02  0.00000000000E+00 0. -1.
</event>
<event>
 7    1  0.2000468E-015  0.9000773E+02  0.7816164E-02  0.1186339E+00
        -11   -1    0    0    0    0  0.00000000000E+00  0.00000000000E+00  0.45593999997E+02  0.45594000000E+02  0.51100000000E-03 0.  1.
         11   -1    0    0    0    0 -0.00000000000E+00 -0.00000000000E+00 -0.45593999997E+02  0.45594000000E+02  0.51100000000E-03 0. -1.
    9900012    2    1    2    0    0  0.11671023848E+01  0.60548597673E-01 -0.16503253867E+00  0.90007733145E+02  0.89999994423E+02 0.  0.
         12    1    1    2    0    0 -0.11671023848E+01 -0.60548597673E-01  0.16503253867E+00  0.11802668546E+01  0.00000000000E+00 0. -1.
         11    1    3    3    0    0  0.14160270596E+02 -0.23670113907E+02  0.21797337875E+02  0.35155532913E+02  0.51100000000E-03 0. -1.
        -11    1    3    3    0    0  0.49414105533E+01  0.21173041913E+01  0.10579255819E+02  0.11866809565E+02  0.51100000000E-03 0.  1.
        -12    1    3    3    0    0 -0.17934578764E+02  0.21613358313E+02 -0.32541626233E+02  0.42985390668E+02  0.00000000000E+00 0.  1.
</event>
<event>
 7    1  0.2000468E-015  0.9000742E+02  0.7816164E-02  0.1186340E+00
        -11   -1    0    0    0    0  0.00000000000E+00  0.00000000000E+00  0.45593999997E+02  0.45594000000E+02  0.51100000000E-03 0. -1.
         11   -1    0    0    0    0 -0.00000000000E+00 -0.00000000000E+00 -0.45593999997E+02  0.45594000000E+02  0.51100000000E-03 0.  1.
    9900012    2    1    2    0    0 -0.33052844533E+00  0.10905222552E+01 -0.30866000839E+00  0.90007424359E+02  0.89999681560E+02 0.  0.
         12    1    1    2    0    0  0.33052844533E+00 -0.10905222552E+01  0.30866000839E+00  0.11805756405E+01  0.00000000000E+00 0. -1.
         11    1    3    3    0    0 -0.32741669457E+01 -0.27987825457E+01 -0.91578544183E+01  0.10120259420E+02  0.51100000000E-03 0. -1.
        -11    1    3    3    0    0 -0.32357690263E+02  0.16155487896E+01 -0.16509770626E+02  0.36362104496E+02  0.51100000000E-03 0.  1.
         12    1    3    3    0    0  0.35301328763E+02  0.22737560113E+01  0.25358965036E+02  0.43525060443E+02  0.00000000000E+00 0. -1.
</event>
<event>
 7    1  0.2000468E-015  0.9000774E+02  0.7816164E-02  0.1186339E+00
        -11   -1    0    0    0    0  0.00000000000E+00  0.00000000000E+00  0.45593999997E+02  0.45594000000E+02  0.51100000000E-03 0. -1.
         11   -1    0    0    0    0 -0.00000000000E+00 -0.00000000000E+00 -0.45593999997E+02  0.45594000000E+02  0.51100000000E-03 0.  1.
    9900012    2    1    2    0    0 -0.10223389082E+01  0.15339355521E+00  0.56948805814E+00  0.90007736015E+02  0.89999997330E+02 0.  0.
         12    1    1    2    0    0  0.10223389082E+01 -0.15339355521E+00 -0.56948805814E+00  0.11802639851E+01  0.00000000000E+00 0. -1.
         11    1    3    3    0    0  0.33125705799E+02 -0.13519298107E+02  0.25557909087E+01  0.35869428117E+02  0.51100000000E-03 0. -1.
        -11    1    3    3    0    0  0.71890785518E+01 -0.40182005554E+01 -0.39453218573E+01  0.91320507525E+01  0.51100000000E-03 0.  1.
        -12    1    3    3    0    0 -0.41337123259E+02  0.17690892217E+02  0.19590190068E+01  0.45006257146E+02  0.00000000000E+00 0.  1.
</event>
<event>
 7    1  0.2000468E-015  0.9000792E+02  0.7816164E-02  0.1186339E+00
        -11   -1    0    0    0    0  0.00000000000E+00  0.00000000000E+00  0.45593999997E+02  0.45594000000E+02  0.51100000000E-03 0.  1.
         11   -1    0    0    0    0 -0.00000000000E+00 -0.00000000000E+00 -0.45593999997E+02  0.45594000000E+02  0.51100000000E-03 0. -1.
    9900012    2    1    2    0    0 -0.10403263251E+00 -0.11402805471E+01  0.28554567885E+00  0.90007915745E+02  0.90000179432E+02 0.  0.
         12    1    1    2    0    0  0.10403263251E+00  0.11402805471E+01 -0.28554567885E+00  0.11800842552E+01  0.00000000000E+00 0. -1.
         11    1    3    3    0    0  0.83403496381E+01 -0.12089574818E+01 -0.48048111902E+01  0.97009907284E+01  0.51100000000E-03 0. -1.
        -11    1    3    3    0    0  0.16311680743E+01  0.38627953796E+02  0.10562104676E+02  0.40079141448E+02  0.51100000000E-03 0.  1.
         12    1    3    3    0    0 -0.10075550345E+02 -0.38559276861E+02 -0.54717478067E+01  0.40227783569E+02  0.00000000000E+00 0. -1.
</event>
<event>
 7    1  0.2000468E-015  0.9000761E+02  0.7816164E-02  0.1186339E+00
        -11   -1    0    0    0    0  0.00000000000E+00  0.00000000000E+00  0.45593999997E+02  0.45594000000E+02  0.51100000000E-03 0.  1.
         11   -1    0    0    0    0 -0.00000000000E+00 -0.00000000000E+00 -0.45593999997E+02  0.45594000000E+02  0.51100000000E-03 0. -1.
    9900012    2    1    2    0    0  0.63104509769E+00 -0.88516228284E+00 -0.45998021286E+00  0.90007613632E+02  0.89999873332E+02 0.  0.
         12    1    1    2    0    0 -0.63104509769E+00  0.88516228284E+00  0.45998021286E+00  0.11803863683E+01  0.00000000000E+00 0. -1.
         11    1    3    3    0    0 -0.31113989236E+02 -0.11658012330E+02 -0.12551913153E+02  0.35518165799E+02  0.51100000000E-03 0. -1.
        -11    1    3    3    0    0  0.61551571708E+00  0.10562912063E+01 -0.13177514536E+02  0.13234103684E+02  0.51100000000E-03 0.  1.
        -12    1    3    3    0    0  0.31129518617E+02  0.97165588406E+01  0.25269447476E+02  0.41255344148E+02  0.00000000000E+00 0.  1.
</event>
<event>
 7    1  0.2000468E-015  0.9000771E+02  0.7816164E-02  0.1186339E+00
        -11   -1    0    0    0    0  0.00000000000E+00  0.00000000000E+00  0.45593999997E+02  0.45594000000E+02  0.51100000000E-03 0. -1.
         11   -1    0    0    0    0 -0.00000000000E+00 -0.00000000000E+00 -0.45593999997E+02  0.45594000000E+02  0.51100000000E-03 0.  1.
    9900012    2    1    2    0    0  0.13284149322E+00 -0.82879792503E+00  0.82977524299E+00  0.90007711977E+02  0.89999972975E+02 0.  0.
         12    1    1    2    0    0 -0.13284149322E+00  0.82879792503E+00 -0.82977524299E+00  0.11802880228E+01  0.00000000000E+00 0. -1.
         11    1    3    3    0    0  0.28182728834E+01 -0.40106705787E+01  0.50404472030E+01  0.70309493529E+01  0.51100000000E-03 0. -1.
        -11    1    3    3    0    0  0.22616695460E+02 -0.30170055964E+02  0.95733903115E+01  0.38902403431E+02  0.51100000000E-03 0.  1.
         12    1    3    3    0    0 -0.25302126850E+02  0.33351928617E+02 -0.13784062271E+02  0.44074359194E+02  0.00000000000E+00 0. -1.
</event>
<event>
 7    1  0.2000468E-015  0.9000793E+02  0.7816164E-02  0.1186339E+00
        -11   -1    0    0    0    0  0.00000000000E+00  0.00000000000E+00  0.45593999997E+02  0.45594000000E+02  0.51100000000E-03 0.  1.
         11   -1    0    0    0    0 -0.00000000000E+00 -0.00000000000E+00 -0.45593999997E+02  0.45594000000E+02  0.51100000000E-03 0. -1.
    9900012    2    1    2    0    0 -0.22933946597E+00 -0.85649437044E+00  0.77870167796E+00  0.90007934112E+02  0.90000198042E+02 0.  0.
         12    1    1    2    0    0  0.22933946597E+00  0.85649437044E+00 -0.77870167796E+00  0.11800658882E+01  0.00000000000E+00 0. -1.
         11    1    3    3    0    0 -0.37493674399E+02 -0.14167098983E+02  0.14024535084E+01  0.40105475806E+02  0.51100000000E-03 0. -1.
        -11    1    3    3    0    0  0.54728928787E+00 -0.38357164791E+00  0.94236115598E+01  0.94472804481E+01  0.51100000000E-03 0.  1.
        -12    1    3    3    0    0  0.36717045645E+02  0.13694176261E+02 -0.10047363390E+02  0.40455177857E+02  0.00000000000E+00 0.  1.
</event>
<event>
 7    1  0.2000468E-015  0.9000769E+02  0.7816164E-02  0.1186339E+00
        -11   -1    0    0    0    0  0.00000000000E+00  0.00000000000E+00  0.45593999997E+02  0.45594000000E+02  0.51100000000E-03 0.  1.
         11   -1    0    0    0    0 -0.00000000000E+00 -0.00000000000E+00 -0.45593999997E+02  0.45594000000E+02  0.51100000000E-03 0. -1.
    9900012    2    1    2    0    0  0.10774515239E+01  0.34694318004E+00 -0.33444423537E+00  0.90007693132E+02  0.89999953881E+02 0.  0.
         12    1    1    2    0    0 -0.10774515239E+01 -0.34694318004E+00  0.33444423537E+00  0.11803068682E+01  0.00000000000E+00 0. -1.
         11    1    3    3    0    0 -0.82980431565E+01 -0.37591901874E+02 -0.73869555901E+01  0.39199180092E+02  0.51100000000E-03 0. -1.
        -11    1    3    3    0    0  0.29090377764E+01  0.19760095461E+01  0.13283803262E+02  0.13741417099E+02  0.51100000000E-03 0.  1.
        -12    1    3    3    0    0  0.64664569040E+01  0.35962835508E+02 -0.62312919074E+01  0.37067095941E+02  0.00000000000E+00 0.  1.
</event>
<event>
 7    1  0.2000468E-015  0.9000775E+02  0.7816164E-02  0.1186339E+00
        -11   -1    0    0    0    0  0.00000000000E+00  0.00000000000E+00  0.45593999997E+02  0.45594000000E+02  0.51100000000E-03 0.  1.
         11   -1    0    0    0    0 -0.00000000000E+00 -0.00000000000E+00 -0.45593999997E+02  0.45594000000E+02  0.51100000000E-03 0. -1.
    9900012    2    1    2    0    0 -0.28362926306E+00 -0.65142151496E+00  0.94244560729E+00  0.90007746099E+02  0.90000007547E+02 0.  0.
         12    1    1    2    0    0  0.28362926306E+00  0.65142151496E+00 -0.94244560729E+00  0.11802539014E+01  0.00000000000E+00 0. -1.
         11    1    3    3    0    0 -0.36624546046E+01  0.31156752578E+02 -0.20895028800E+02  0.37692957350E+02  0.51100000000E-03 0. -1.
        -11    1    3    3    0    0 -0.93304754716E+01 -0.72070101450E+01 -0.58461353867E+01  0.13159637798E+02  0.51100000000E-03 0.  1.
        -12    1    3    3    0    0  0.12709300813E+02 -0.24601163948E+02  0.27683609794E+02  0.39155150951E+02  0.00000000000E+00 0.  1.
</event>
<event>
 7    1  0.2000468E-015  0.9000769E+02  0.7816164E-02  0.1186339E+00
        -11   -1    0    0    0    0  0.00000000000E+00  0.00000000000E+00  0.45593999997E+02  0.45594000000E+02  0.51100000000E-03 0.  1.
         11   -1    0    0    0    0 -0.00000000000E+00 -0.00000000000E+00 -0.45593999997E+02  0.45594000000E+02  0.51100000000E-03 0. -1.
    9900012    2    1    2    0    0  0.92790228167E+00 -0.52543055609E+00  0.50602337309E+00  0.90007686665E+02  0.89999947329E+02 0.  0.
         12    1    1    2    0    0 -0.92790228167E+00  0.52543055609E+00 -0.50602337309E+00  0.11803133346E+01  0.00000000000E+00 0. -1.
         11    1    3    3    0    0  0.82054806984E+01 -0.26462238421E+02 -0.26476087079E+02  0.38321836634E+02  0.51100000000E-03 0. -1.
        -11    1    3    3    0    0  0.90768250327E+01  0.10527610599E+01 -0.28139948885E+01  0.95611519189E+01  0.51100000000E-03 0.  1.
        -12    1    3    3    0    0 -0.16354403449E+02  0.24884046805E+02  0.29796105340E+02  0.42124698112E+02  0.00000000000E+00 0.  1.
</event>
<event>
 7    1  0.2000468E-015  0.9000781E+02  0.7816164E-02  0.1186339E+00
        -11   -1    0    0    0    0  0.00000000000E+00  0.00000000000E+00  0.45593999997E+02  0.45594000000E+02  0.51100000000E-03 0.  1.
         11   -1    0    0    0    0 -0.00000000000E+00 -0.00000000000E+00 -0.45593999997E+02  0.45594000000E+02  0.51100000000E-03 0. -1.
    9900012    2    1    2    0    0  0.99908789572E+00 -0.93751803107E-01  0.62119929644E+00  0.90007807393E+02  0.90000069650E+02 0.  0.
         12    1    1    2    0    0 -0.99908789572E+00  0.93751803107E-01 -0.62119929644E+00  0.11801926071E+01  0.00000000000E+00 0. -1.
         11    1    3    3    0    0  0.23969513391E+02 -0.44601665932E+01 -0.26576498027E+02  0.36065785807E+02  0.51100000000E-03 0. -1.
        -11    1    3    3    0    0  0.44528784432E+01  0.59710812553E+00 -0.79928821072E+01  0.91690146245E+01  0.51100000000E-03 0.  1.
        -12    1    3    3    0    0 -0.27423303939E+02  0.37693066646E+01  0.35190579431E+02  0.44773006961E+02  0.00000000000E+00 0.  1.
</event>
<event>
 7    1  0.2000468E-015  0.9000754E+02  0.7816164E-02  0.1186339E+00
        -11   -1    0    0    0    0  0.00000000000E+00  0.00000000000E+00  0.45593999997E+02  0.45594000000E+02  0.51100000000E-03 0. -1.
         11   -1    0    0    0    0 -0.00000000000E+00 -0.00000000000E+00 -0.45593999997E+02  0.45594000000E+02  0.51100000000E-03 0.  1.
    9900012    2    1    2    0    0 -0.36736671504E+00 -0.10484445988E+01 -0.39911860208E+00  0.90007538210E+02  0.89999796914E+02 0.  0.
         12    1    1    2    0    0  0.36736671504E+00  0.10484445988E+01  0.39911860208E+00  0.11804617904E+01  0.00000000000E+00 0. -1.
         11    1    3    3    0    0 -0.52272072582E+01  0.51593181753E+00 -0.36381925793E+01  0.63895482521E+01  0.51100000000E-03 0. -1.
        -11    1    3    3    0    0  0.18626124367E+02  0.90215693500E+01 -0.35540746449E+02  0.41127434650E+02  0.51100000000E-03 0.  1.
         12    1    3    3    0    0 -0.13766283824E+02 -0.10585945766E+02  0.38779820426E+02  0.42490555308E+02  0.00000000000E+00 0. -1.
</event>
<event>
 7    1  0.2000468E-015  0.9000778E+02  0.7816164E-02  0.1186339E+00
        -11   -1    0    0    0    0  0.00000000000E+00  0.00000000000E+00  0.45593999997E+02  0.45594000000E+02  0.51100000000E-03 0.  1.
         11   -1    0    0    0    0 -0.00000000000E+00 -0.00000000000E+00 -0.45593999997E+02  0.45594000000E+02  0.51100000000E-03 0. -1.
    9900012    2    1    2    0    0 -0.75472959091E+00 -0.89885057379E+00 -0.12399376049E+00  0.90007778173E+02  0.90000040044E+02 0.  0.
         12    1    1    2    0    0  0.75472959091E+00  0.89885057379E+00  0.12399376049E+00  0.11802218275E+01  0.00000000000E+00 0. -1.
         11    1    3    3    0    0 -0.15565812146E+01 -0.83067830806E+01  0.52369439098E+01  0.99423926698E+01  0.51100000000E-03 0. -1.
        -11    1    3    3    0    0  0.19214116858E+02 -0.29866436900E+02 -0.12957343293E+02  0.37803162370E+02  0.51100000000E-03 0.  1.
         12    1    3    3    0    0 -0.18412265234E+02  0.37274369407E+02  0.75964056222E+01  0.42262223133E+02  0.00000000000E+00 0. -1.
</event>
<event>
 7    1  0.2000468E-015  0.9000722E+02  0.7816164E-02  0.1186340E+00
        -11   -1    0    0    0    0  0.00000000000E+00  0.00000000000E+00  0.45593999997E+02  0.45594000000E+02  0.51100000000E-03 0.  1.
         11   -1    0    0    0    0 -0.00000000000E+00 -0.00000000000E+00 -0.45593999997E+02  0.45594000000E+02  0.51100000000E-03 0. -1.
    9900012    2    1    2    0    0 -0.78275234476E-01  0.74648657201E+00  0.91152361574E+00  0.90007218684E+02  0.89999473169E+02 0.  0.
         12    1    1    2    0    0  0.78275234476E-01 -0.74648657201E+00 -0.91152361574E+00  0.11807813162E+01  0.00000000000E+00 0. -1.
         11    1    3    3    0    0 -0.10317543023E+02  0.51660549321E+01  0.41677544900E+00  0.11546147393E+02  0.51100000000E-03 0. -1.
        -11    1    3    3    0    0 -0.31631199873E+02 -0.13657081133E+02  0.68129055048E+01  0.35120711157E+02  0.51100000000E-03 0.  1.
         12    1    3    3    0    0  0.41870467661E+02  0.92375127732E+01 -0.63181573381E+01  0.43340360134E+02  0.00000000000E+00 0. -1.
</event>
<event>
 7    1  0.2000468E-015  0.9000775E+02  0.7816164E-02  0.1186339E+00
        -11   -1    0    0    0    0  0.00000000000E+00  0.00000000000E+00  0.45593999997E+02  0.45594000000E+02  0.51100000000E-03 0.  1.
         11   -1    0    0    0    0 -0.00000000000E+00 -0.00000000000E+00 -0.45593999997E+02  0.45594000000E+02  0.51100000000E-03 0. -1.
    9900012    2    1    2    0    0 -0.27453590913E+00  0.10425873965E+01  0.48024022191E+00  0.90007750401E+02  0.90000011906E+02 0.  0.
         12    1    1    2    0    0  0.27453590913E+00 -0.10425873965E+01 -0.48024022191E+00  0.11802495988E+01  0.00000000000E+00 0. -1.
         11    1    3    3    0    0 -0.20536315020E+01 -0.81295165734E+01 -0.68483036769E+01  0.10826158394E+02  0.51100000000E-03 0. -1.
        -11    1    3    3    0    0  0.34824380213E+02  0.15486095937E+02  0.20231091819E+02  0.43149202786E+02  0.51100000000E-03 0.  1.
         12    1    3    3    0    0 -0.33045284620E+02 -0.63139919666E+01 -0.12902547921E+02  0.36032389221E+02  0.00000000000E+00 0. -1.
</event>
<event>
 7    1  0.2000468E-015  0.9000772E+02  0.7816164E-02  0.1186339E+00
        -11   -1    0    0    0    0  0.00000000000E+00  0.00000000000E+00  0.45593999997E+02  0.45594000000E+02  0.51100000000E-03 0. -1.
         11   -1    0    0    0    0 -0.00000000000E+00 -0.00000000000E+00 -0.45593999997E+02  0.45594000000E+02  0.51100000000E-03 0.  1.
    9900012    2    1    2    0    0  0.26073047635E+00 -0.11477841542E+01  0.87568333181E-01  0.90007721618E+02  0.89999982743E+02 0.  0.
         12    1    1    2    0    0 -0.26073047635E+00  0.11477841542E+01 -0.87568333181E-01  0.11802783820E+01  0.00000000000E+00 0. -1.
         11    1    3    3    0    0 -0.21278419100E+01  0.18584194800E+01 -0.96535343096E+01  0.10058437209E+02  0.51100000000E-03 0. -1.
        -11    1    3    3    0    0 -0.29889915312E+02  0.25586769006E+01 -0.19715218438E+02  0.35897683813E+02  0.51100000000E-03 0.  1.
         12    1    3    3    0    0  0.32278487698E+02 -0.55648805348E+01  0.29456321080E+02  0.44051600596E+02  0.00000000000E+00 0. -1.
</event>
<event>
 7    1  0.2000468E-015  0.9000775E+02  0.7816164E-02  0.1186339E+00
        -11   -1    0    0    0    0  0.00000000000E+00  0.00000000000E+00  0.45593999997E+02  0.45594000000E+02  0.51100000000E-03 0. -1.
         11   -1    0    0    0    0 -0.00000000000E+00 -0.00000000000E+00 -0.45593999997E+02  0.45594000000E+02  0.51100000000E-03 0.  1.
    9900012    2    1    2    0    0  0.21633440239E+00  0.36748823019E+00 -0.11005186457E+01  0.90007750254E+02  0.90000011758E+02 0.  0.
         12    1    1    2    0    0 -0.21633440239E+00 -0.36748823019E+00  0.11005186457E+01  0.11802497458E+01  0.00000000000E+00 0. -1.
         11    1    3    3    0    0  0.28245270049E+01 -0.33239118718E+02 -0.12952143440E+02  0.35785122410E+02  0.51100000000E-03 0. -1.
        -11    1    3    3    0    0  0.63232166738E+01 -0.32525608484E+01 -0.85798849173E+01  0.11143457571E+02  0.51100000000E-03 0.  1.
        -12    1    3    3    0    0 -0.89314092763E+01  0.36859167797E+02  0.20431509711E+02  0.43079170273E+02  0.00000000000E+00 0.  1.
</event>
<event>
 7    1  0.2000468E-015  0.9000875E+02  0.7816164E-02  0.1186337E+00
        -11   -1    0    0    0    0  0.00000000000E+00  0.00000000000E+00  0.45593999997E+02  0.45594000000E+02  0.51100000000E-03 0.  1.
         11   -1    0    0    0    0 -0.00000000000E+00 -0.00000000000E+00 -0.45593999997E+02  0.45594000000E+02  0.51100000000E-03 0. -1.
    9900012    2    1    2    0    0  0.79686414389E+00 -0.62917906193E+00  0.59981757368E+00  0.90008746050E+02  0.90001020693E+02 0.  0.
         12    1    1    2    0    0 -0.79686414389E+00  0.62917906193E+00 -0.59981757368E+00  0.11792539495E+01  0.00000000000E+00 0. -1.
         11    1    3    3    0    0 -0.49825542339E+01 -0.53599094575E+01  0.54226390244E+01  0.91082100512E+01  0.51100000000E-03 0. -1.
        -11    1    3    3    0    0 -0.21101502406E+02 -0.28819643033E+02  0.68128782930E+01  0.36362900589E+02  0.51100000000E-03 0.  1.
         12    1    3    3    0    0  0.26880920784E+02  0.33550373428E+02 -0.11635699744E+02  0.44537635410E+02  0.00000000000E+00 0. -1.
</event>
<event>
 7    1  0.2000468E-015  0.9000772E+02  0.7816164E-02  0.1186339E+00
        -11   -1    0    0    0    0  0.00000000000E+00  0.00000000000E+00  0.45593999997E+02  0.45594000000E+02  0.51100000000E-03 0.  1.
         11   -1    0    0    0    0 -0.00000000000E+00 -0.00000000000E+00 -0.45593999997E+02  0.45594000000E+02  0.51100000000E-03 0. -1.
    9900012    2    1    2    0    0 -0.23976179536E+00 -0.11556186452E+01  0.11351406129E-01  0.90007716548E+02  0.89999977607E+02 0.  0.
         12    1    1    2    0    0  0.23976179536E+00  0.11556186452E+01 -0.11351406129E-01  0.11802834516E+01  0.00000000000E+00 0. -1.
         11    1    3    3    0    0 -0.30912826928E+02  0.22340698804E+02 -0.10912717550E+02  0.39671111609E+02  0.51100000000E-03 0. -1.
        -11    1    3    3    0    0  0.61980196045E+00  0.48897544494E+01  0.73406966446E+01  0.88419274219E+01  0.51100000000E-03 0.  1.
        -12    1    3    3    0    0  0.30053263172E+02 -0.28386071899E+02  0.35833723112E+01  0.41494677517E+02  0.00000000000E+00 0.  1.
</event>
<event>
 7    1  0.2000468E-015  0.9000787E+02  0.7816164E-02  0.1186339E+00
        -11   -1    0    0    0    0  0.00000000000E+00  0.00000000000E+00  0.45593999997E+02  0.45594000000E+02  0.51100000000E-03 0.  1.
         11   -1    0    0    0    0 -0.00000000000E+00 -0.00000000000E+00 -0.45593999997E+02  0.45594000000E+02  0.51100000000E-03 0. -1.
    9900012    2    1    2    0    0  0.10628594508E+01 -0.38444280280E+00 -0.33948025254E+00  0.90007867244E+02  0.90000130291E+02 0.  0.
         12    1    1    2    0    0 -0.10628594508E+01  0.38444280280E+00  0.33948025254E+00  0.11801327563E+01  0.00000000000E+00 0. -1.
         11    1    3    3    0    0  0.92797878874E+01  0.35732230979E+02 -0.17891138052E+02  0.41024378302E+02  0.51100000000E-03 0. -1.
        -11    1    3    3    0    0 -0.48480369867E+01  0.19214963233E+01  0.81175647694E+01  0.96483402091E+01  0.51100000000E-03 0.  1.
        -12    1    3    3    0    0 -0.33688914500E+01 -0.38038170105E+02  0.94340930297E+01  0.39335148733E+02  0.00000000000E+00 0.  1.
</event>
<event>
 7    1  0.2000468E-015  0.9000777E+02  0.7816164E-02  0.1186339E+00
        -11   -1    0    0    0    0  0.00000000000E+00  0.00000000000E+00  0.45593999997E+02  0.45594000000E+02  0.51100000000E-03 0.  1.
         11   -1    0    0    0    0 -0.00000000000E+00 -0.00000000000E+00 -0.45593999997E+02  0.45594000000E+02  0.51100000000E-03 0. -1.
    9900012    2    1    2    0    0  0.11588673806E+01  0.22017187085E+00  0.38506351833E-01  0.90007774599E+02  0.90000036423E+02 0.  0.
         12    1    1    2    0    0 -0.11588673806E+01 -0.22017187085E+00 -0.38506351833E-01  0.11802254013E+01  0.00000000000E+00 0. -1.
         11    1    3    3    0    0 -0.48785341839E+01 -0.33114165204E+01 -0.60458344990E+01  0.84449801779E+01  0.51100000000E-03 0. -1.
        -11    1    3    3    0    0 -0.24533389202E+02 -0.26390209253E+02  0.12847533028E+02  0.38254273426E+02  0.51100000000E-03 0.  1.
         12    1    3    3    0    0  0.30570790767E+02  0.29921797644E+02 -0.67631921770E+01  0.43308520995E+02  0.00000000000E+00 0. -1.
</event>
<event>
 7    1  0.2000468E-015  0.9000770E+02  0.7816164E-02  0.1186339E+00
        -11   -1    0    0    0    0  0.00000000000E+00  0.00000000000E+00  0.45593999997E+02  0.45594000000E+02  0.51100000000E-03 0.  1.
         11   -1    0    0    0    0 -0.00000000000E+00 -0.00000000000E+00 -0.45593999997E+02  0.45594000000E+02  0.51100000000E-03 0. -1.
    9900012    2    1    2    0    0  0.11664113963E+01 -0.17645407286E+00 -0.38301042009E-01  0.90007695567E+02  0.89999956348E+02 0.  0.
         12    1    1    2    0    0 -0.11664113963E+01  0.17645407286E+00  0.38301042009E-01  0.11803044332E+01  0.00000000000E+00 0. -1.
         11    1    3    3    0    0 -0.28559105670E+02 -0.24756247194E+02 -0.14579198269E+02  0.40509842189E+02  0.51100000000E-03 0. -1.
        -11    1    3    3    0    0  0.92404978251E+01 -0.52522808540E+01  0.37417388286E+00  0.10635471808E+02  0.51100000000E-03 0.  1.
        -12    1    3    3    0    0  0.20485019241E+02  0.29832073975E+02  0.14166723345E+02  0.38862381569E+02  0.00000000000E+00 0.  1.
</event>
<event>
 7    1  0.2000468E-015  0.9000771E+02  0.7816164E-02  0.1186339E+00
        -11   -1    0    0    0    0  0.00000000000E+00  0.00000000000E+00  0.45593999997E+02  0.45594000000E+02  0.51100000000E-03 0. -1.
         11   -1    0    0    0    0 -0.00000000000E+00 -0.00000000000E+00 -0.45593999997E+02  0.45594000000E+02  0.51100000000E-03 0.  1.
    9900012    2    1    2    0    0 -0.76359862132E-02  0.11183528797E+00 -0.11749596818E+01  0.90007705251E+02  0.89999966161E+02 0.  0.
         12    1    1    2    0    0  0.76359862132E-02 -0.11183528797E+00  0.11749596818E+01  0.11802947487E+01  0.00000000000E+00 0. -1.
         11    1    3    3    0    0  0.42850285915E+01 -0.92826249697E+01 -0.57048436043E+01  0.11707853653E+02  0.51100000000E-03 0. -1.
        -11    1    3    3    0    0  0.29361837570E+02  0.27112363141E+02  0.49022372617E+01  0.40264496408E+02  0.51100000000E-03 0.  1.
         12    1    3    3    0    0 -0.33654502148E+02 -0.17717902883E+02 -0.37235333914E+00  0.38035355190E+02  0.00000000000E+00 0. -1.
</event>
<event>
 7    1  0.2000468E-015  0.9000773E+02  0.7816164E-02  0.1186339E+00
        -11   -1    0    0    0    0  0.00000000000E+00  0.00000000000E+00  0.45593999997E+02  0.45594000000E+02  0.51100000000E-03 0.  1.
         11   -1    0    0    0    0 -0.00000000000E+00 -0.00000000000E+00 -0.45593999997E+02  0.45594000000E+02  0.51100000000E-03 0. -1.
    9900012    2    1    2    0    0 -0.19400361964E-01 -0.98641829180E+00 -0.64779867973E+00  0.90007728612E+02  0.89999989829E+02 0.  0.
         12    1    1    2    0    0  0.19400361964E-01  0.98641829180E+00  0.64779867973E+00  0.11802713882E+01  0.00000000000E+00 0. -1.
         11    1    3    3    0    0  0.61417369736E+00  0.13725725663E+02 -0.10390244220E+02  0.17225850618E+02  0.51100000000E-03 0. -1.
        -11    1    3    3    0    0 -0.17723068053E+02 -0.37006927517E+02 -0.45153060089E+01  0.41279629529E+02  0.51100000000E-03 0.  1.
         12    1    3    3    0    0  0.17089493993E+02  0.22294783563E+02  0.14257751550E+02  0.31502248464E+02  0.00000000000E+00 0. -1.
</event>
<event>
 7    1  0.2000468E-015  0.9000790E+02  0.7816164E-02  0.1186339E+00
        -11   -1    0    0    0    0  0.00000000000E+00  0.00000000000E+00  0.45593999997E+02  0.45594000000E+02  0.51100000000E-03 0.  1.
         11   -1    0    0    0    0 -0.00000000000E+00 -0.00000000000E+00 -0.45593999997E+02  0.45594000000E+02  0.51100000000E-03 0. -1.
    9900012    2    1    2    0    0  0.22007058600E-02 -0.67700601164E+00  0.96658707841E+00  0.90007901460E+02  0.90000164960E+02 0.  0.
         12    1    1    2    0    0 -0.22007058600E-02  0.67700601164E+00 -0.96658707841E+00  0.11800985395E+01  0.00000000000E+00 0. -1.
         11    1    3    3    0    0 -0.13782965741E+01  0.10771001131E+02  0.56055338434E+01  0.12220318193E+02  0.51100000000E-03 0. -1.
        -11    1    3    3    0    0 -0.36432138054E+02 -0.11674975519E+02 -0.10135314675E+02  0.39576891495E+02  0.51100000000E-03 0.  1.
         12    1    3    3    0    0  0.37812635334E+02  0.22696837614E+00  0.54963679097E+01  0.38210691773E+02  0.00000000000E+00 0. -1.
</event>
<event>
 7    1  0.2000468E-015  0.9000755E+02  0.7816164E-02  0.1186339E+00
        -11   -1    0    0    0    0  0.00000000000E+00  0.00000000000E+00  0.45593999997E+02  0.45594000000E+02  0.51100000000E-03 0. -1.
         11   -1    0    0    0    0 -0.00000000000E+00 -0.00000000000E+00 -0.45593999997E+02  0.45594000000E+02  0.51100000000E-03 0.  1.
    9900012    2    1    2    0    0 -0.64856545021E+00  0.48333663055E+00 -0.85977751844E+00  0.90007547196E+02  0.89999806019E+02 0.  0.
         12    1    1    2    0    0  0.64856545021E+00 -0.48333663055E+00  0.85977751844E+00  0.11804528042E+01  0.00000000000E+00 0. -1.
         11    1    3    3    0    0  0.14365433272E+02 -0.11899478297E+02  0.51105737906E+01  0.19341179426E+02  0.51100000000E-03 0. -1.
        -11    1    3    3    0    0  0.23918302993E+02 -0.76759691562E+01 -0.92000319565E+01  0.26751566474E+02  0.51100000000E-03 0.  1.
         12    1    3    3    0    0 -0.38932301715E+02  0.20058784084E+02  0.32296806474E+01  0.43914801296E+02  0.00000000000E+00 0. -1.
</event>
<event>
 7    1  0.2000468E-015  0.9000770E+02  0.7816164E-02  0.1186339E+00
        -11   -1    0    0    0    0  0.00000000000E+00  0.00000000000E+00  0.45593999997E+02  0.45594000000E+02  0.51100000000E-03 0.  1.
         11   -1    0    0    0    0 -0.00000000000E+00 -0.00000000000E+00 -0.45593999997E+02  0.45594000000E+02  0.51100000000E-03 0. -1.
    9900012    2    1    2    0    0 -0.97163693212E+00 -0.60338652764E+00 -0.29147233542E+00  0.90007699296E+02  0.89999960127E+02 0.  0.
         12    1    1    2    0    0  0.97163693212E+00  0.60338652764E+00  0.29147233542E+00  0.11803007040E+01  0.00000000000E+00 0. -1.
         11    1    3    3    0    0  0.12246958951E+02 -0.15427331335E+02 -0.33789339584E+02  0.39111507583E+02  0.51100000000E-03 0. -1.
        -11    1    3    3    0    0  0.10721752588E+02  0.75767032639E+01  0.92577181734E+01  0.16064487447E+02  0.51100000000E-03 0.  1.
        -12    1    3    3    0    0 -0.23940348471E+02  0.72472415431E+01  0.24240149075E+02  0.34831704266E+02  0.00000000000E+00 0.  1.
</event>
<event>
 7    1  0.2000468E-015  0.9000772E+02  0.7816164E-02  0.1186339E+00
        -11   -1    0    0    0    0  0.00000000000E+00  0.00000000000E+00  0.45593999997E+02  0.45594000000E+02  0.51100000000E-03 0.  1.
         11   -1    0    0    0    0 -0.00000000000E+00 -0.00000000000E+00 -0.45593999997E+02  0.45594000000E+02  0.51100000000E-03 0. -1.
    9900012    2    1    2    0    0 -0.19171180931E+00  0.37282083619E+00  0.11033201714E+01  0.90007718595E+02  0.89999979681E+02 0.  0.
         12    1    1    2    0    0  0.19171180931E+00 -0.37282083619E+00 -0.11033201714E+01  0.11802814047E+01  0.00000000000E+00 0. -1.
         11    1    3    3    0    0 -0.36130330375E+01  0.58792229728E+01  0.53478255276E+01  0.87303212214E+01  0.51100000000E-03 0. -1.
        -11    1    3    3    0    0 -0.37935914282E+02 -0.95413117748E+01  0.24226355225E+01  0.39192338358E+02  0.51100000000E-03 0.  1.
         12    1    3    3    0    0  0.41357235511E+02  0.40349096383E+01 -0.66671408787E+01  0.42085059016E+02  0.00000000000E+00 0. -1.
</event>
<event>
 8    1  0.2000468E-015  0.9000761E+02  0.7816164E-02  0.1186339E+00
        -11   -1    0    0    0    0  0.00000000000E+00  0.00000000000E+00  0.45593999997E+02  0.45594000000E+02  0.51100000000E-03 0.  1.
         11   -1    0    0    0    0 -0.00000000000E+00 -0.00000000000E+00 -0.45593999997E+02  0.45594000000E+02  0.51100000000E-03 0. -1.
    9900012    2    1    2    0    0  0.43553859242E+00  0.10565445615E+01 -0.29552260742E+00  0.90007612823E+02  0.89999872512E+02 0.  0.
         23    2    3    3    0    0  0.18367440105E+02  0.78281163378E+01  0.18545974324E+02  0.63129940253E+02  0.56945534780E+02 0.  0.
         12    1    1    2    0    0 -0.43553859242E+00 -0.10565445615E+01  0.29552260742E+00  0.11803871770E+01  0.00000000000E+00 0. -1.
         11    1    4    4    0    0 -0.99973717257E+01  0.10671454805E+02 -0.13736233845E+02  0.20062689490E+02  0.51100000000E-03 0. -1.
        -11    1    4    4    0    0  0.28364811830E+02 -0.28433384671E+01  0.32282208168E+02  0.43067250763E+02  0.51100000000E-03 0.  1.
         12    1    3    3    0    0 -0.17931901512E+02 -0.67715717763E+01 -0.18841496931E+02  0.26877672570E+02  0.00000000000E+00 0. -1.
</event>
<event>
 7    1  0.2000468E-015  0.9000773E+02  0.7816164E-02  0.1186339E+00
        -11   -1    0    0    0    0  0.00000000000E+00  0.00000000000E+00  0.45593999997E+02  0.45594000000E+02  0.51100000000E-03 0.  1.
         11   -1    0    0    0    0 -0.00000000000E+00 -0.00000000000E+00 -0.45593999997E+02  0.45594000000E+02  0.51100000000E-03 0. -1.
    9900012    2    1    2    0    0  0.24701009737E+00 -0.11536064665E+01  0.34720401151E-01  0.90007734193E+02  0.89999995485E+02 0.  0.
         12    1    1    2    0    0 -0.24701009737E+00  0.11536064665E+01 -0.34720401151E-01  0.11802658065E+01  0.00000000000E+00 0. -1.
         11    1    3    3    0    0 -0.28516060024E+01 -0.30783475695E+02 -0.27265903860E+02  0.41221154111E+02  0.51100000000E-03 0. -1.
        -11    1    3    3    0    0 -0.17945005454E+01  0.57784854710E+01 -0.53365525798E+01  0.80678324378E+01  0.51100000000E-03 0.  1.
        -12    1    3    3    0    0  0.48931166452E+01  0.23851383757E+02  0.32637176841E+02  0.40718747645E+02  0.00000000000E+00 0.  1.
</event>
<event>
 7    1  0.2000468E-015  0.9000777E+02  0.7816164E-02  0.1186339E+00
        -11   -1    0    0    0    0  0.00000000000E+00  0.00000000000E+00  0.45593999997E+02  0.45594000000E+02  0.51100000000E-03 0.  1.
         11   -1    0    0    0    0 -0.00000000000E+00 -0.00000000000E+00 -0.45593999997E+02  0.45594000000E+02  0.51100000000E-03 0. -1.
    9900012    2    1    2    0    0 -0.57028427262E+00 -0.63221859794E+00  0.81731828511E+00  0.90007773883E+02  0.90000035699E+02 0.  0.
         12    1    1    2    0    0  0.57028427262E+00  0.63221859794E+00 -0.81731828511E+00  0.11802261166E+01  0.00000000000E+00 0. -1.
         11    1    3    3    0    0  0.37732769947E+02  0.42785711857E+01  0.38897002126E+01  0.38173261155E+02  0.51100000000E-03 0. -1.
        -11    1    3    3    0    0  0.38285562864E+01 -0.54075189879E+01 -0.68511543236E+01  0.95308667323E+01  0.51100000000E-03 0.  1.
        -12    1    3    3    0    0 -0.42131610506E+02  0.49672920432E+00  0.37787723960E+01  0.42303645996E+02  0.00000000000E+00 0.  1.
</event>
<event>
 7    1  0.2000468E-015  0.9000773E+02  0.7816164E-02  0.1186339E+00
        -11   -1    0    0    0    0  0.00000000000E+00  0.00000000000E+00  0.45593999997E+02  0.45594000000E+02  0.51100000000E-03 0.  1.
         11   -1    0    0    0    0 -0.00000000000E+00 -0.00000000000E+00 -0.45593999997E+02  0.45594000000E+02  0.51100000000E-03 0. -1.
    9900012    2    1    2    0    0  0.60263915254E+00 -0.88768484269E-01  0.10109368493E+01  0.90007725835E+02  0.89999987016E+02 0.  0.
         12    1    1    2    0    0 -0.60263915254E+00  0.88768484269E-01 -0.10109368493E+01  0.11802741653E+01  0.00000000000E+00 0. -1.
         11    1    3    3    0    0  0.34362561452E+02 -0.15039040552E+02  0.39860625379E+01  0.37720645078E+02  0.51100000000E-03 0. -1.
        -11    1    3    3    0    0  0.59762668677E+01  0.10678619245E+02 -0.72938051333E+00  0.12258901698E+02  0.51100000000E-03 0.  1.
        -12    1    3    3    0    0 -0.39736189167E+02  0.42716528223E+01 -0.22457451753E+01  0.40028179059E+02  0.00000000000E+00 0.  1.
</event>
<event>
 7    1  0.2000468E-015  0.9000771E+02  0.7816164E-02  0.1186339E+00
        -11   -1    0    0    0    0  0.00000000000E+00  0.00000000000E+00  0.45593999997E+02  0.45594000000E+02  0.51100000000E-03 0.  1.
         11   -1    0    0    0    0 -0.00000000000E+00 -0.00000000000E+00 -0.45593999997E+02  0.45594000000E+02  0.51100000000E-03 0. -1.
    9900012    2    1    2    0    0  0.91931399536E-01  0.46807947688E+00  0.10795969109E+01  0.90007712209E+02  0.89999973210E+02 0.  0.
         12    1    1    2    0    0 -0.91931399536E-01 -0.46807947688E+00 -0.10795969109E+01  0.11802877907E+01  0.00000000000E+00 0. -1.
         11    1    3    3    0    0  0.36372090969E+02  0.46520110374E+01 -0.10511184684E+02  0.38145185959E+02  0.51100000000E-03 0. -1.
        -11    1    3    3    0    0  0.30380979522E+01 -0.22078504317E+01  0.11915451947E+02  0.12493303729E+02  0.51100000000E-03 0.  1.
        -12    1    3    3    0    0 -0.39318257521E+02 -0.19760811289E+01 -0.32467035190E+00  0.39369222522E+02  0.00000000000E+00 0.  1.
</event>
<event>
 7    1  0.2000468E-015  0.9000791E+02  0.7816164E-02  0.1186339E+00
        -11   -1    0    0    0    0  0.00000000000E+00  0.00000000000E+00  0.45593999997E+02  0.45594000000E+02  0.51100000000E-03 0. -1.
         11   -1    0    0    0    0 -0.00000000000E+00 -0.00000000000E+00 -0.45593999997E+02  0.45594000000E+02  0.51100000000E-03 0.  1.
    9900012    2    1    2    0    0  0.51906676943E+00 -0.10521737011E+01  0.12689121676E+00  0.90007914753E+02  0.90000178428E+02 0.  0.
         12    1    1    2    0    0 -0.51906676943E+00  0.10521737011E+01 -0.12689121676E+00  0.11800852467E+01  0.00000000000E+00 0. -1.
         11    1    3    3    0    0 -0.88350374281E+01  0.12886592275E+01 -0.22170733912E+01  0.91996708443E+01  0.51100000000E-03 0. -1.
        -11    1    3    3    0    0 -0.49679240608E+01 -0.35679769055E+02 -0.16838083247E+02  0.39764899560E+02  0.51100000000E-03 0.  1.
         12    1    3    3    0    0  0.14322028258E+02  0.33338936126E+02  0.19182047855E+02  0.41043344349E+02  0.00000000000E+00 0. -1.
</event>
<event>
 7    1  0.2000468E-015  0.9000776E+02  0.7816164E-02  0.1186339E+00
        -11   -1    0    0    0    0  0.00000000000E+00  0.00000000000E+00  0.45593999997E+02  0.45594000000E+02  0.51100000000E-03 0.  1.
         11   -1    0    0    0    0 -0.00000000000E+00 -0.00000000000E+00 -0.45593999997E+02  0.45594000000E+02  0.51100000000E-03 0. -1.
    9900012    2    1    2    0    0  0.33659362534E+00  0.11287377942E+01  0.74987365417E-01  0.90007759609E+02  0.90000021235E+02 0.  0.
         12    1    1    2    0    0 -0.33659362534E+00 -0.11287377942E+01 -0.74987365417E-01  0.11802403914E+01  0.00000000000E+00 0. -1.
         11    1    3    3    0    0 -0.22043826417E+01  0.56505068900E+01 -0.29917396185E+01  0.67629902521E+01  0.51100000000E-03 0. -1.
        -11    1    3    3    0    0  0.27473922386E+01  0.21048893068E+02  0.35852758228E+02  0.41665625356E+02  0.51100000000E-03 0.  1.
         12    1    3    3    0    0 -0.20641597159E+00 -0.25570662164E+02 -0.32786031244E+02  0.41579144000E+02  0.00000000000E+00 0. -1.
</event>
<event>
 7    1  0.2000468E-015  0.9000773E+02  0.7816164E-02  0.1186339E+00
        -11   -1    0    0    0    0  0.00000000000E+00  0.00000000000E+00  0.45593999997E+02  0.45594000000E+02  0.51100000000E-03 0.  1.
         11   -1    0    0    0    0 -0.00000000000E+00 -0.00000000000E+00 -0.45593999997E+02  0.45594000000E+02  0.51100000000E-03 0. -1.
    9900012    2    1    2    0    0 -0.27748597585E+00  0.11280726055E+01  0.20857064475E+00  0.90007725462E+02  0.89999986639E+02 0.  0.
         12    1    1    2    0    0  0.27748597585E+00 -0.11280726055E+01 -0.20857064475E+00  0.11802745375E+01  0.00000000000E+00 0. -1.
         11    1    3    3    0    0  0.10325096608E+01  0.54347975581E+01 -0.19885201459E+01  0.58785468723E+01  0.51100000000E-03 0. -1.
        -11    1    3    3    0    0 -0.34739516865E+02  0.54973053134E+01  0.24410110179E+02  0.42812473381E+02  0.51100000000E-03 0.  1.
         12    1    3    3    0    0  0.33429521229E+02 -0.98040302660E+01 -0.22213019388E+02  0.41316705210E+02  0.00000000000E+00 0. -1.
</event>
<event>
 7    1  0.2000468E-015  0.9000716E+02  0.7816164E-02  0.1186340E+00
        -11   -1    0    0    0    0  0.00000000000E+00  0.00000000000E+00  0.45593999997E+02  0.45594000000E+02  0.51100000000E-03 0.  1.
         11   -1    0    0    0    0 -0.00000000000E+00 -0.00000000000E+00 -0.45593999997E+02  0.45594000000E+02  0.51100000000E-03 0. -1.
    9900012    2    1    2    0    0 -0.82797284049E+00  0.81720665442E+00  0.20252748782E+00  0.90007159992E+02  0.89999413702E+02 0.  0.
         12    1    1    2    0    0  0.82797284049E+00 -0.81720665442E+00 -0.20252748782E+00  0.11808400078E+01  0.00000000000E+00 0. -1.
         11    1    3    3    0    0 -0.10983862190E+02  0.16037428493E+02 -0.29847204785E+02  0.35618814902E+02  0.51100000000E-03 0. -1.
        -11    1    3    3    0    0 -0.94847600782E+00  0.68791129330E+01 -0.69882977687E+01  0.98518073189E+01  0.51100000000E-03 0.  1.
        -12    1    3    3    0    0  0.11104365357E+02 -0.22099334771E+02  0.37038030042E+02  0.44536537772E+02  0.00000000000E+00 0.  1.
</event>
<event>
 7    1  0.2000468E-015  0.9000774E+02  0.7816164E-02  0.1186339E+00
        -11   -1    0    0    0    0  0.00000000000E+00  0.00000000000E+00  0.45593999997E+02  0.45594000000E+02  0.51100000000E-03 0. -1.
         11   -1    0    0    0    0 -0.00000000000E+00 -0.00000000000E+00 -0.45593999997E+02  0.45594000000E+02  0.51100000000E-03 0.  1.
    9900012    2    1    2    0    0 -0.44538163103E+00  0.37821705534E+00 -0.10254810229E+01  0.90007735510E+02  0.89999996819E+02 0.  0.
         12    1    1    2    0    0  0.44538163103E+00 -0.37821705534E+00  0.10254810229E+01  0.11802644901E+01  0.00000000000E+00 0. -1.
         11    1    3    3    0    0 -0.28787520753E+02 -0.23200462435E+02  0.77753607246E+01  0.37781464277E+02  0.51100000000E-03 0. -1.
        -11    1    3    3    0    0 -0.28153143550E+01 -0.39817880668E+00  0.87287769359E+01  0.91802008876E+01  0.51100000000E-03 0.  1.
        -12    1    3    3    0    0  0.31157453477E+02  0.23976858297E+02 -0.17529618683E+02  0.43046070345E+02  0.00000000000E+00 0.  1.
</event>
<event>
 7    1  0.2000468E-015  0.9000758E+02  0.7816164E-02  0.1186339E+00
        -11   -1    0    0    0    0  0.00000000000E+00  0.00000000000E+00  0.45593999997E+02  0.45594000000E+02  0.51100000000E-03 0.  1.
         11   -1    0    0    0    0 -0.00000000000E+00 -0.00000000000E+00 -0.45593999997E+02  0.45594000000E+02  0.51100000000E-03 0. -1.
    9900012    2    1    2    0    0  0.33108040979E-01 -0.71765924981E+00 -0.93662328697E+00  0.90007578837E+02  0.89999838077E+02 0.  0.
         12    1    1    2    0    0 -0.33108040979E-01  0.71765924981E+00  0.93662328697E+00  0.11804211634E+01  0.00000000000E+00 0. -1.
         11    1    3    3    0    0  0.24476451662E+02  0.19903800903E+00 -0.31736948032E+02  0.40079548061E+02  0.51100000000E-03 0. -1.
        -11    1    3    3    0    0 -0.11842256823E-01  0.94474037012E+01  0.23682620368E+00  0.94503790318E+01  0.51100000000E-03 0.  1.
        -12    1    3    3    0    0 -0.24431501364E+02 -0.10364100960E+02  0.30563498542E+02  0.40477651744E+02  0.00000000000E+00 0.  1.
</event>
<event>
 7    1  0.2000468E-015  0.9000780E+02  0.7816164E-02  0.1186339E+00
        -11   -1    0    0    0    0  0.00000000000E+00  0.00000000000E+00  0.45593999997E+02  0.45594000000E+02  0.51100000000E-03 0.  1.
         11   -1    0    0    0    0 -0.00000000000E+00 -0.00000000000E+00 -0.45593999997E+02  0.45594000000E+02  0.51100000000E-03 0. -1.
    9900012    2    1    2    0    0  0.95564753473E+00  0.56902374250E+00  0.39474652550E+00  0.90007798725E+02  0.90000060868E+02 0.  0.
         12    1    1    2    0    0 -0.95564753473E+00 -0.56902374250E+00 -0.39474652550E+00  0.11802012750E+01  0.00000000000E+00 0. -1.
         11    1    3    3    0    0  0.36815314265E+02 -0.16643434659E+02 -0.40725152101E+01  0.40607347390E+02  0.51100000000E-03 0. -1.
        -11    1    3    3    0    0  0.16532313895E+00  0.56496516173E+01 -0.77944043401E+01  0.96280130045E+01  0.51100000000E-03 0.  1.
        -12    1    3    3    0    0 -0.36024989869E+02  0.11562806784E+02  0.12261666076E+02  0.39772438330E+02  0.00000000000E+00 0.  1.
</event>
<event>
 7    1  0.2000468E-015  0.9000778E+02  0.7816164E-02  0.1186339E+00
        -11   -1    0    0    0    0  0.00000000000E+00  0.00000000000E+00  0.45593999997E+02  0.45594000000E+02  0.51100000000E-03 0.  1.
         11   -1    0    0    0    0 -0.00000000000E+00 -0.00000000000E+00 -0.45593999997E+02  0.45594000000E+02  0.51100000000E-03 0. -1.
    9900012    2    1    2    0    0 -0.64553195214E-01  0.55392192252E+00  0.10401516910E+01  0.90007783007E+02  0.90000044942E+02 0.  0.
         12    1    1    2    0    0  0.64553195214E-01 -0.55392192252E+00 -0.10401516910E+01  0.11802169934E+01  0.00000000000E+00 0. -1.
         11    1    3    3    0    0 -0.12045889048E+02  0.22769448374E+02 -0.10378420491E+02  0.27771619225E+02  0.51100000000E-03 0. -1.
        -11    1    3    3    0    0 -0.12198751018E+02  0.71130914889E+01  0.18802336057E+02  0.23514536746E+02  0.51100000000E-03 0.  1.
        -12    1    3    3    0    0  0.24180086870E+02 -0.29328617940E+02 -0.73837638753E+01  0.38721627036E+02  0.00000000000E+00 0.  1.
</event>
<event>
 7    1  0.2000468E-015  0.9000776E+02  0.7816164E-02  0.1186339E+00
        -11   -1    0    0    0    0  0.00000000000E+00  0.00000000000E+00  0.45593999997E+02  0.45594000000E+02  0.51100000000E-03 0.  1.
         11   -1    0    0    0    0 -0.00000000000E+00 -0.00000000000E+00 -0.45593999997E+02  0.45594000000E+02  0.51100000000E-03 0. -1.
    9900012    2    1    2    0    0 -0.79359591628E+00 -0.15175700099E-01  0.87347180474E+00  0.90007755206E+02  0.90000016775E+02 0.  0.
         12    1    1    2    0    0  0.79359591628E+00  0.15175700099E-01 -0.87347180474E+00  0.11802447941E+01  0.00000000000E+00 0. -1.
         11    1    3    3    0    0  0.19936006124E+02  0.20043847943E+02 -0.31640241453E+02  0.42430001886E+02  0.51100000000E-03 0. -1.
        -11    1    3    3    0    0 -0.10071455575E+02 -0.16434066156E+00  0.31733407054E+01  0.10560838828E+02  0.51100000000E-03 0.  1.
        -12    1    3    3    0    0 -0.10658146465E+02 -0.19894682981E+02  0.29340372553E+02  0.37016914492E+02  0.00000000000E+00 0.  1.
</event>
<event>
 7    1  0.2000468E-015  0.9000771E+02  0.7816164E-02  0.1186339E+00
        -11   -1    0    0    0    0  0.00000000000E+00  0.00000000000E+00  0.45593999997E+02  0.45594000000E+02  0.51100000000E-03 0.  1.
         11   -1    0    0    0    0 -0.00000000000E+00 -0.00000000000E+00 -0.45593999997E+02  0.45594000000E+02  0.51100000000E-03 0. -1.
    9900012    2    1    2    0    0  0.88345197528E+00 -0.38289150501E+00  0.68263320646E+00  0.90007711310E+02  0.89999972299E+02 0.  0.
         12    1    1    2    0    0 -0.88345197528E+00  0.38289150501E+00 -0.68263320646E+00  0.11802886900E+01  0.00000000000E+00 0. -1.
         11    1    3    3    0    0  0.17315026180E+02  0.69415110403E+01 -0.30396078613E+02  0.35663935600E+02  0.51100000000E-03 0. -1.
        -11    1    3    3    0    0  0.74801836706E+01  0.29227604496E+01 -0.52986645906E+01  0.96214096211E+01  0.51100000000E-03 0.  1.
        -12    1    3    3    0    0 -0.23911757875E+02 -0.10247162995E+02  0.36377376410E+02  0.44722366089E+02  0.00000000000E+00 0.  1.
</event>
<event>
 7    1  0.2000468E-015  0.9000767E+02  0.7816164E-02  0.1186339E+00
        -11   -1    0    0    0    0  0.00000000000E+00  0.00000000000E+00  0.45593999997E+02  0.45594000000E+02  0.51100000000E-03 0.  1.
         11   -1    0    0    0    0 -0.00000000000E+00 -0.00000000000E+00 -0.45593999997E+02  0.45594000000E+02  0.51100000000E-03 0. -1.
    9900012    2    1    2    0    0 -0.56387297403E-01 -0.10935505062E+01  0.44062100802E+00  0.90007669915E+02  0.89999930358E+02 0.  0.
         12    1    1    2    0    0  0.56387297403E-01  0.10935505062E+01 -0.44062100802E+00  0.11803300850E+01  0.00000000000E+00 0. -1.
         11    1    3    3    0    0 -0.13156286447E+01  0.75435894150E+01 -0.88010855330E+00  0.77078668462E+01  0.51100000000E-03 0. -1.
        -11    1    3    3    0    0  0.18994579950E+02 -0.35890113510E+01  0.37220640586E+02  0.41941043809E+02  0.51100000000E-03 0.  1.
         12    1    3    3    0    0 -0.17735338603E+02 -0.50481285701E+01 -0.35899911024E+02  0.40358759259E+02  0.00000000000E+00 0. -1.
</event>
<event>
 7    1  0.2000468E-015  0.9000781E+02  0.7816164E-02  0.1186339E+00
        -11   -1    0    0    0    0  0.00000000000E+00  0.00000000000E+00  0.45593999997E+02  0.45594000000E+02  0.51100000000E-03 0. -1.
         11   -1    0    0    0    0 -0.00000000000E+00 -0.00000000000E+00 -0.45593999997E+02  0.45594000000E+02  0.51100000000E-03 0.  1.
    9900012    2    1    2    0    0 -0.68643259070E+00 -0.85697320013E+00 -0.43271784354E+00  0.90007814633E+02  0.90000076987E+02 0.  0.
         12    1    1    2    0    0  0.68643259070E+00  0.85697320013E+00  0.43271784354E+00  0.11801853666E+01  0.00000000000E+00 0. -1.
         11    1    3    3    0    0 -0.11847571274E+02 -0.57526397041E+01  0.36889669920E+01  0.13677217787E+02  0.51100000000E-03 0. -1.
        -11    1    3    3    0    0 -0.22453338610E+02 -0.75704204368E+01  0.21714132427E+02  0.32139807523E+02  0.51100000000E-03 0.  1.
         12    1    3    3    0    0  0.33614477294E+02  0.12466086941E+02 -0.25835817262E+02  0.44190789323E+02  0.00000000000E+00 0. -1.
</event>
<event>
 7    1  0.2000468E-015  0.9000780E+02  0.7816164E-02  0.1186339E+00
        -11   -1    0    0    0    0  0.00000000000E+00  0.00000000000E+00  0.45593999997E+02  0.45594000000E+02  0.51100000000E-03 0.  1.
         11   -1    0    0    0    0 -0.00000000000E+00 -0.00000000000E+00 -0.45593999997E+02  0.45594000000E+02  0.51100000000E-03 0. -1.
    9900012    2    1    2    0    0 -0.73573271110E+00  0.54596988673E+00 -0.74396942371E+00  0.90007798219E+02  0.90000060356E+02 0.  0.
         12    1    1    2    0    0  0.73573271110E+00 -0.54596988673E+00  0.74396942371E+00  0.11802017806E+01  0.00000000000E+00 0. -1.
         11    1    3    3    0    0  0.65794028753E+01  0.11939280557E+01 -0.61220516445E+01  0.90660643610E+01  0.51100000000E-03 0. -1.
        -11    1    3    3    0    0  0.26065497990E+01 -0.39442958771E+02  0.95945463143E+01  0.40676730666E+02  0.51100000000E-03 0.  1.
         12    1    3    3    0    0 -0.99216853854E+01  0.38795000602E+02 -0.42164640935E+01  0.40265003192E+02  0.00000000000E+00 0. -1.
</event>
<event>
 7    1  0.2000468E-015  0.9000771E+02  0.7816164E-02  0.1186339E+00
        -11   -1    0    0    0    0  0.00000000000E+00  0.00000000000E+00  0.45593999997E+02  0.45594000000E+02  0.51100000000E-03 0.  1.
         11   -1    0    0    0    0 -0.00000000000E+00 -0.00000000000E+00 -0.45593999997E+02  0.45594000000E+02  0.51100000000E-03 0. -1.
    9900012    2    1    2    0    0  0.82138575627E+00 -0.36199077541E+00 -0.76639894878E+00  0.90007712225E+02  0.89999973227E+02 0.  0.
         12    1    1    2    0    0 -0.82138575627E+00  0.36199077541E+00  0.76639894878E+00  0.11802877746E+01  0.00000000000E+00 0. -1.
         11    1    3    3    0    0  0.29594216400E+02 -0.78032763449E+01 -0.18407401353E+02  0.35714719527E+02  0.51100000000E-03 0. -1.
        -11    1    3    3    0    0  0.91011868745E+01 -0.12911389644E+01 -0.37499896714E+01  0.99277925616E+01  0.51100000000E-03 0.  1.
        -12    1    3    3    0    0 -0.37874017518E+02  0.87324245339E+01  0.21390992075E+02  0.44365200137E+02  0.00000000000E+00 0.  1.
</event>
<event>
 7    1  0.2000468E-015  0.9000773E+02  0.7816164E-02  0.1186339E+00
        -11   -1    0    0    0    0  0.00000000000E+00  0.00000000000E+00  0.45593999997E+02  0.45594000000E+02  0.51100000000E-03 0.  1.
         11   -1    0    0    0    0 -0.00000000000E+00 -0.00000000000E+00 -0.45593999997E+02  0.45594000000E+02  0.51100000000E-03 0. -1.
    9900012    2    1    2    0    0  0.85910642871E+00  0.28956654826E+00  0.75572456505E+00  0.90007732124E+02  0.89999993388E+02 0.  0.
         12    1    1    2    0    0 -0.85910642871E+00 -0.28956654826E+00 -0.75572456505E+00  0.11802678763E+01  0.00000000000E+00 0. -1.
         11    1    3    3    0    0 -0.32903807349E+02 -0.50617417452E+01 -0.13196657875E+02  0.35811081342E+02  0.51100000000E-03 0. -1.
        -11    1    3    3    0    0 -0.17185048553E+01  0.16764335121E+01 -0.10615534603E+02  0.10883623634E+02  0.51100000000E-03 0.  1.
        -12    1    3    3    0    0  0.35481418633E+02  0.36748747813E+01  0.24567917042E+02  0.43313027147E+02  0.00000000000E+00 0.  1.
</event>
<event>
 7    1  0.2000468E-015  0.9000762E+02  0.7816164E-02  0.1186339E+00
        -11   -1    0    0    0    0  0.00000000000E+00  0.00000000000E+00  0.45593999997E+02  0.45594000000E+02  0.51100000000E-03 0. -1.
         11   -1    0    0    0    0 -0.00000000000E+00 -0.00000000000E+00 -0.45593999997E+02  0.45594000000E+02  0.51100000000E-03 0.  1.
    9900012    2    1    2    0    0 -0.87770127557E+00  0.18489787139E+00 -0.76730424452E+00  0.90007617623E+02  0.89999877376E+02 0.  0.
         12    1    1    2    0    0  0.87770127557E+00 -0.18489787139E+00  0.76730424452E+00  0.11803823769E+01  0.00000000000E+00 0. -1.
         11    1    3    3    0    0  0.63097793459E+01  0.36233621866E+02 -0.62862014775E+01  0.37312263376E+02  0.51100000000E-03 0. -1.
        -11    1    3    3    0    0  0.62819685005E+01  0.71542027702E+00 -0.89461957329E+01  0.10954878948E+02  0.51100000000E-03 0.  1.
        -12    1    3    3    0    0 -0.13469449122E+02 -0.36764144272E+02  0.14465092966E+02  0.41740475299E+02  0.00000000000E+00 0.  1.
</event>
<event>
 7    1  0.2000468E-015  0.9000776E+02  0.7816164E-02  0.1186339E+00
        -11   -1    0    0    0    0  0.00000000000E+00  0.00000000000E+00  0.45593999997E+02  0.45594000000E+02  0.51100000000E-03 0.  1.
         11   -1    0    0    0    0 -0.00000000000E+00 -0.00000000000E+00 -0.45593999997E+02  0.45594000000E+02  0.51100000000E-03 0. -1.
    9900012    2    1    2    0    0 -0.13508102976E+00 -0.11722831232E+01 -0.21510584417E-01  0.90007763875E+02  0.90000025558E+02 0.  0.
         12    1    1    2    0    0  0.13508102976E+00  0.11722831232E+01  0.21510584417E-01  0.11802361251E+01  0.00000000000E+00 0. -1.
         11    1    3    3    0    0 -0.70480770324E+00  0.11233003915E+02  0.12685518690E+01  0.11326356650E+02  0.51100000000E-03 0. -1.
        -11    1    3    3    0    0  0.33550322926E+02  0.44170754164E+01  0.16451425390E+02  0.37626906879E+02  0.51100000000E-03 0.  1.
         12    1    3    3    0    0 -0.32980596253E+02 -0.16822362455E+02 -0.17741487843E+02  0.41054500346E+02  0.00000000000E+00 0. -1.
</event>
<event>
 7    1  0.2000468E-015  0.9000786E+02  0.7816164E-02  0.1186339E+00
        -11   -1    0    0    0    0  0.00000000000E+00  0.00000000000E+00  0.45593999997E+02  0.45594000000E+02  0.51100000000E-03 0.  1.
         11   -1    0    0    0    0 -0.00000000000E+00 -0.00000000000E+00 -0.45593999997E+02  0.45594000000E+02  0.51100000000E-03 0. -1.
    9900012    2    1    2    0    0 -0.54262447305E+00  0.77265356774E-01  0.10451457044E+01  0.90007855603E+02  0.90000118497E+02 0.  0.
         12    1    1    2    0    0  0.54262447305E+00 -0.77265356774E-01 -0.10451457044E+01  0.11801443969E+01  0.00000000000E+00 0. -1.
         11    1    3    3    0    0  0.19342040300E+02 -0.30648426040E+02  0.21453557274E+02  0.42115266374E+02  0.51100000000E-03 0. -1.
        -11    1    3    3    0    0  0.26580329428E+01  0.11676762522E+02  0.60914056492E-01  0.11975626618E+02  0.51100000000E-03 0.  1.
        -12    1    3    3    0    0 -0.22542697716E+02  0.19048928875E+02 -0.20469325627E+02  0.35916962611E+02  0.00000000000E+00 0.  1.
</event>
<event>
 7    1  0.2000468E-015  0.9000779E+02  0.7816164E-02  0.1186339E+00
        -11   -1    0    0    0    0  0.00000000000E+00  0.00000000000E+00  0.45593999997E+02  0.45594000000E+02  0.51100000000E-03 0.  1.
         11   -1    0    0    0    0 -0.00000000000E+00 -0.00000000000E+00 -0.45593999997E+02  0.45594000000E+02  0.51100000000E-03 0. -1.
    9900012    2    1    2    0    0 -0.59200307428E+00  0.97323471222E+00  0.30860616283E+00  0.90007791879E+02  0.90000053932E+02 0.  0.
         12    1    1    2    0    0  0.59200307428E+00 -0.97323471222E+00 -0.30860616283E+00  0.11802081210E+01  0.00000000000E+00 0. -1.
         11    1    3    3    0    0 -0.26360456245E+02  0.16032190597E+02 -0.17409905193E+02  0.35426114490E+02  0.51100000000E-03 0. -1.
        -11    1    3    3    0    0 -0.49002995220E+01  0.18938357483E+01 -0.90640011116E+01  0.10476433823E+02  0.51100000000E-03 0.  1.
        -12    1    3    3    0    0  0.30668752693E+02 -0.16952791633E+02  0.26782512468E+02  0.44105243565E+02  0.00000000000E+00 0.  1.
</event>
<event>
 7    1  0.2000468E-015  0.9000770E+02  0.7816164E-02  0.1186339E+00
        -11   -1    0    0    0    0  0.00000000000E+00  0.00000000000E+00  0.45593999997E+02  0.45594000000E+02  0.51100000000E-03 0. -1.
         11   -1    0    0    0    0 -0.00000000000E+00 -0.00000000000E+00 -0.45593999997E+02  0.45594000000E+02  0.51100000000E-03 0.  1.
    9900012    2    1    2    0    0  0.89274927887E+00 -0.67236218212E+00  0.37952356558E+00  0.90007699057E+02  0.89999959885E+02 0.  0.
         12    1    1    2    0    0 -0.89274927887E+00  0.67236218212E+00 -0.37952356558E+00  0.11803009428E+01  0.00000000000E+00 0. -1.
         11    1    3    3    0    0  0.35109491089E+02 -0.11391265558E+02  0.13040494995E+02  0.39147053600E+02  0.51100000000E-03 0. -1.
        -11    1    3    3    0    0  0.60005115583E+01  0.26424283937E+01 -0.67614620474E+01  0.94183828791E+01  0.51100000000E-03 0.  1.
        -12    1    3    3    0    0 -0.40217253369E+02  0.80764749825E+01 -0.58995093820E+01  0.41442262578E+02  0.00000000000E+00 0.  1.
</event>
<event>
 7    1  0.2000468E-015  0.9000777E+02  0.7816164E-02  0.1186339E+00
        -11   -1    0    0    0    0  0.00000000000E+00  0.00000000000E+00  0.45593999997E+02  0.45594000000E+02  0.51100000000E-03 0.  1.
         11   -1    0    0    0    0 -0.00000000000E+00 -0.00000000000E+00 -0.45593999997E+02  0.45594000000E+02  0.51100000000E-03 0. -1.
    9900012    2    1    2    0    0  0.53432286937E-01 -0.11695004850E+01  0.14955112619E+00  0.90007766153E+02  0.90000027866E+02 0.  0.
         12    1    1    2    0    0 -0.53432286937E-01  0.11695004850E+01 -0.14955112619E+00  0.11802338468E+01  0.00000000000E+00 0. -1.
         11    1    3    3    0    0  0.50475904419E+00 -0.11608977817E+02  0.92234645012E+00  0.11656494795E+02  0.51100000000E-03 0. -1.
        -11    1    3    3    0    0  0.16952595632E+02 -0.10069281435E+02  0.30989044255E+02  0.36730121037E+02  0.51100000000E-03 0.  1.
         12    1    3    3    0    0 -0.17403922390E+02  0.20508758767E+02 -0.31761839579E+02  0.41621150322E+02  0.00000000000E+00 0. -1.
</event>
<event>
 7    1  0.2000468E-015  0.9000792E+02  0.7816164E-02  0.1186339E+00
        -11   -1    0    0    0    0  0.00000000000E+00  0.00000000000E+00  0.45593999997E+02  0.45594000000E+02  0.51100000000E-03 0.  1.
         11   -1    0    0    0    0 -0.00000000000E+00 -0.00000000000E+00 -0.45593999997E+02  0.45594000000E+02  0.51100000000E-03 0. -1.
    9900012    2    1    2    0    0  0.96984753903E-01 -0.49106587092E+00  0.10686598533E+01  0.90007921353E+02  0.90000185114E+02 0.  0.
         12    1    1    2    0    0 -0.96984753903E-01  0.49106587092E+00 -0.10686598533E+01  0.11800786474E+01  0.00000000000E+00 0. -1.
         11    1    3    3    0    0  0.21702935581E+01 -0.17568522362E+01 -0.43644121111E+01  0.51811965070E+01  0.51100000000E-03 0. -1.
        -11    1    3    3    0    0 -0.18843505598E+02 -0.37321106286E+02  0.84177011651E+01  0.42647395827E+02  0.51100000000E-03 0.  1.
         12    1    3    3    0    0  0.16770196794E+02  0.38586892651E+02 -0.29846292007E+01  0.42179329019E+02  0.00000000000E+00 0. -1.
</event>
<event>
 7    1  0.2000468E-015  0.9000774E+02  0.7816164E-02  0.1186339E+00
        -11   -1    0    0    0    0  0.00000000000E+00  0.00000000000E+00  0.45593999997E+02  0.45594000000E+02  0.51100000000E-03 0. -1.
         11   -1    0    0    0    0 -0.00000000000E+00 -0.00000000000E+00 -0.45593999997E+02  0.45594000000E+02  0.51100000000E-03 0.  1.
    9900012    2    1    2    0    0 -0.10597901302E+01  0.51820042554E+00  0.36290810537E-01  0.90007744170E+02  0.90000005593E+02 0.  0.
         12    1    1    2    0    0  0.10597901302E+01 -0.51820042554E+00 -0.36290810537E-01  0.11802558299E+01  0.00000000000E+00 0. -1.
         11    1    3    3    0    0  0.58400686156E+01 -0.37589840463E+02 -0.15669280565E+02  0.41141570961E+02  0.51100000000E-03 0. -1.
        -11    1    3    3    0    0 -0.73484440373E+01  0.88564444672E+00  0.79112414368E+01  0.10833823757E+02  0.51100000000E-03 0.  1.
        -12    1    3    3    0    0  0.44858529154E+00  0.37222396442E+02  0.77943299390E+01  0.38032349452E+02  0.00000000000E+00 0.  1.
</event>
<event>
 7    1  0.2000468E-015  0.9000776E+02  0.7816164E-02  0.1186339E+00
        -11   -1    0    0    0    0  0.00000000000E+00  0.00000000000E+00  0.45593999997E+02  0.45594000000E+02  0.51100000000E-03 0. -1.
         11   -1    0    0    0    0 -0.00000000000E+00 -0.00000000000E+00 -0.45593999997E+02  0.45594000000E+02  0.51100000000E-03 0.  1.
    9900012    2    1    2    0    0  0.82941887674E+00 -0.80485303505E+00 -0.23923830933E+00  0.90007763138E+02  0.90000024812E+02 0.  0.
         12    1    1    2    0    0 -0.82941887674E+00  0.80485303505E+00  0.23923830933E+00  0.11802368617E+01  0.00000000000E+00 0. -1.
         11    1    3    3    0    0 -0.60907957938E+01  0.57714045043E+01  0.24191698658E+01  0.87326563230E+01  0.51100000000E-03 0. -1.
        -11    1    3    3    0    0 -0.21090805987E+02 -0.14186944836E+02 -0.31418714311E+02  0.40413204651E+02  0.51100000000E-03 0.  1.
         12    1    3    3    0    0  0.28011020657E+02  0.76106872970E+01  0.28760306136E+02  0.40861902164E+02  0.00000000000E+00 0. -1.
</event>
<event>
 7    1  0.2772667E-015  0.9000775E+02  0.7816164E-02  0.1186339E+00
        -11   -1    0    0    0    0  0.00000000000E+00  0.00000000000E+00  0.45593999997E+02  0.45594000000E+02  0.51100000000E-03 0.  1.
         11   -1    0    0    0    0 -0.00000000000E+00 -0.00000000000E+00 -0.45593999997E+02  0.45594000000E+02  0.51100000000E-03 0. -1.
    9900012    2    1    2    0    0 -0.52719926853E+00  0.92877574001E-01  0.10518651846E+01  0.90007751857E+02  0.90000013381E+02 0.  0.
         12    1    1    2    0    0  0.52719926853E+00 -0.92877574000E-01 -0.10518651846E+01  0.11802481430E+01  0.00000000000E+00 0. -1.
         11    1    3    3    0    0 -0.79559643303E+01  0.43701975433E-01 -0.34648525523E+02  0.35550240498E+02  0.51100000000E-03 0. -1.
        -11    1    3    3    0    0 -0.67467413996E+00 -0.39252236242E+01 -0.84778254082E+01  0.93667544864E+01  0.51100000000E-03 0.  1.
        -12    1    3    3    0    0  0.81034392017E+01  0.39743992228E+01  0.44178216116E+02  0.45090756872E+02  0.00000000000E+00 0.  1.
</event>
<event>
 7    1  0.2000468E-015  0.9000770E+02  0.7816164E-02  0.1186339E+00
        -11   -1    0    0    0    0  0.00000000000E+00  0.00000000000E+00  0.45593999997E+02  0.45594000000E+02  0.51100000000E-03 0.  1.
         11   -1    0    0    0    0 -0.00000000000E+00 -0.00000000000E+00 -0.45593999997E+02  0.45594000000E+02  0.51100000000E-03 0. -1.
    9900012    2    1    2    0    0  0.43963158580E+00  0.67675986965E+00  0.86129465438E+00  0.90007699897E+02  0.89999960735E+02 0.  0.
         12    1    1    2    0    0 -0.43963158580E+00 -0.67675986965E+00 -0.86129465438E+00  0.11803001034E+01  0.00000000000E+00 0. -1.
         11    1    3    3    0    0  0.20492798295E+02  0.22231238108E+02 -0.19800675409E+02  0.36142073497E+02  0.51100000000E-03 0. -1.
        -11    1    3    3    0    0  0.20729829750E+01  0.10052506359E+02  0.36502031092E+00  0.10270510338E+02  0.51100000000E-03 0.  1.
        -12    1    3    3    0    0 -0.22126149684E+02 -0.31606984597E+02  0.20296949753E+02  0.43595116062E+02  0.00000000000E+00 0.  1.
</event>
<event>
 7    1  0.2000468E-015  0.9000775E+02  0.7816164E-02  0.1186339E+00
        -11   -1    0    0    0    0  0.00000000000E+00  0.00000000000E+00  0.45593999997E+02  0.45594000000E+02  0.51100000000E-03 0.  1.
         11   -1    0    0    0    0 -0.00000000000E+00 -0.00000000000E+00 -0.45593999997E+02  0.45594000000E+02  0.51100000000E-03 0. -1.
    9900012    2    1    2    0    0 -0.62246691052E+00 -0.81716306627E+00  0.58117094321E+00  0.90007754180E+02  0.90000015735E+02 0.  0.
         12    1    1    2    0    0  0.62246691052E+00  0.81716306627E+00 -0.58117094321E+00  0.11802458205E+01  0.00000000000E+00 0. -1.
         11    1    3    3    0    0  0.38370033409E+02  0.63558748189E+01  0.15677361425E+02  0.41933712810E+02  0.51100000000E-03 0. -1.
        -11    1    3    3    0    0 -0.63780513905E+01  0.59953957790E+01  0.19810620089E+01  0.89749048480E+01  0.51100000000E-03 0.  1.
        -12    1    3    3    0    0 -0.32614448929E+02 -0.13168433664E+02 -0.17077252490E+02  0.39099136522E+02  0.00000000000E+00 0.  1.
</event>
<event>
 7    1  0.2000468E-015  0.9000774E+02  0.7816164E-02  0.1186339E+00
        -11   -1    0    0    0    0  0.00000000000E+00  0.00000000000E+00  0.45593999997E+02  0.45594000000E+02  0.51100000000E-03 0.  1.
         11   -1    0    0    0    0 -0.00000000000E+00 -0.00000000000E+00 -0.45593999997E+02  0.45594000000E+02  0.51100000000E-03 0. -1.
    9900012    2    1    2    0    0  0.11870675494E+00  0.11690453644E+01  0.11070623052E+00  0.90007739763E+02  0.90000001128E+02 0.  0.
         12    1    1    2    0    0 -0.11870675494E+00 -0.11690453644E+01 -0.11070623052E+00  0.11802602370E+01  0.00000000000E+00 0. -1.
         11    1    3    3    0    0  0.39959596088E+01  0.90793461657E+01 -0.46626981779E+01  0.10960975073E+02  0.51100000000E-03 0. -1.
        -11    1    3    3    0    0  0.30711206889E+02 -0.19212047525E+02 -0.13080453535E+02  0.38514662969E+02  0.51100000000E-03 0.  1.
         12    1    3    3    0    0 -0.34588459743E+02  0.11301746724E+02  0.17853857943E+02  0.40532101721E+02  0.00000000000E+00 0. -1.
</event>
<event>
 7    1  0.2000468E-015  0.9000775E+02  0.7816164E-02  0.1186339E+00
        -11   -1    0    0    0    0  0.00000000000E+00  0.00000000000E+00  0.45593999997E+02  0.45594000000E+02  0.51100000000E-03 0. -1.
         11   -1    0    0    0    0 -0.00000000000E+00 -0.00000000000E+00 -0.45593999997E+02  0.45594000000E+02  0.51100000000E-03 0.  1.
    9900012    2    1    2    0    0 -0.11214525549E+01 -0.20672654086E+00 -0.30428267817E+00  0.90007754414E+02  0.90000015972E+02 0.  0.
         12    1    1    2    0    0  0.11214525549E+01  0.20672654086E+00  0.30428267817E+00  0.11802455862E+01  0.00000000000E+00 0. -1.
         11    1    3    3    0    0  0.39272961458E+01  0.18531507596E+01  0.58260299283E+01  0.72663916589E+01  0.51100000000E-03 0. -1.
        -11    1    3    3    0    0  0.34945060504E+02  0.38721103483E+01 -0.19440276471E+02  0.40175550297E+02  0.51100000000E-03 0.  1.
         12    1    3    3    0    0 -0.39993809204E+02 -0.59319876487E+01  0.13309963864E+02  0.42565812458E+02  0.00000000000E+00 0. -1.
</event>
<event>
 7    1  0.2000468E-015  0.9000773E+02  0.7816164E-02  0.1186339E+00
        -11   -1    0    0    0    0  0.00000000000E+00  0.00000000000E+00  0.45593999997E+02  0.45594000000E+02  0.51100000000E-03 0.  1.
         11   -1    0    0    0    0 -0.00000000000E+00 -0.00000000000E+00 -0.45593999997E+02  0.45594000000E+02  0.51100000000E-03 0. -1.
    9900012    2    1    2    0    0 -0.30324326557E+00  0.13733477927E+00  0.11323545759E+01  0.90007727063E+02  0.89999988260E+02 0.  0.
         12    1    1    2    0    0  0.30324326557E+00 -0.13733477927E+00 -0.11323545759E+01  0.11802729368E+01  0.00000000000E+00 0. -1.
         11    1    3    3    0    0 -0.43500401735E+01 -0.30097941045E+01 -0.35667117294E+02  0.36057245685E+02  0.51100000000E-03 0. -1.
        -11    1    3    3    0    0 -0.64511488705E+01 -0.41694389333E+01 -0.57008416220E+01  0.95656227308E+01  0.51100000000E-03 0.  1.
        -12    1    3    3    0    0  0.10497945778E+02  0.73165678171E+01  0.42500313492E+02  0.44384858647E+02  0.00000000000E+00 0.  1.
</event>
<event>
 7    1  0.2000468E-015  0.9000776E+02  0.7816164E-02  0.1186339E+00
        -11   -1    0    0    0    0  0.00000000000E+00  0.00000000000E+00  0.45593999997E+02  0.45594000000E+02  0.51100000000E-03 0.  1.
         11   -1    0    0    0    0 -0.00000000000E+00 -0.00000000000E+00 -0.45593999997E+02  0.45594000000E+02  0.51100000000E-03 0. -1.
    9900012    2    1    2    0    0  0.15827870196E-01  0.11475345932E+01  0.27546526736E+00  0.90007759653E+02  0.90000021280E+02 0.  0.
         12    1    1    2    0    0 -0.15827870196E-01 -0.11475345932E+01 -0.27546526736E+00  0.11802403474E+01  0.00000000000E+00 0. -1.
         11    1    3    3    0    0  0.78223562825E+01 -0.50073904275E+01  0.67993057670E+01  0.11510594071E+02  0.51100000000E-03 0. -1.
        -11    1    3    3    0    0  0.30830275614E+02 -0.42712608942E+01  0.13288195905E+02  0.33842661165E+02  0.51100000000E-03 0.  1.
         12    1    3    3    0    0 -0.38636804026E+02  0.10426185915E+02 -0.19812036405E+02  0.44654504416E+02  0.00000000000E+00 0. -1.
</event>
<event>
 7    1  0.2000468E-015  0.9000774E+02  0.7816164E-02  0.1186339E+00
        -11   -1    0    0    0    0  0.00000000000E+00  0.00000000000E+00  0.45593999997E+02  0.45594000000E+02  0.51100000000E-03 0. -1.
         11   -1    0    0    0    0 -0.00000000000E+00 -0.00000000000E+00 -0.45593999997E+02  0.45594000000E+02  0.51100000000E-03 0.  1.
    9900012    2    1    2    0    0 -0.80405639613E+00 -0.21409938550E+00  0.83705785516E+00  0.90007741093E+02  0.90000002475E+02 0.  0.
         12    1    1    2    0    0  0.80405639613E+00  0.21409938550E+00 -0.83705785516E+00  0.11802589071E+01  0.00000000000E+00 0. -1.
         11    1    3    3    0    0 -0.17755326269E+01 -0.34028454265E+01 -0.62560065428E+01  0.73395838595E+01  0.51100000000E-03 0. -1.
        -11    1    3    3    0    0  0.27665188829E+02  0.26405709560E+02 -0.14863169832E+02  0.41030939400E+02  0.51100000000E-03 0.  1.
         12    1    3    3    0    0 -0.26693712598E+02 -0.23216963519E+02  0.21956234230E+02  0.41637217833E+02  0.00000000000E+00 0. -1.
</event>
<event>
 7    1  0.2000468E-015  0.9000762E+02  0.7816164E-02  0.1186339E+00
        -11   -1    0    0    0    0  0.00000000000E+00  0.00000000000E+00  0.45593999997E+02  0.45594000000E+02  0.51100000000E-03 0.  1.
         11   -1    0    0    0    0 -0.00000000000E+00 -0.00000000000E+00 -0.45593999997E+02  0.45594000000E+02  0.51100000000E-03 0. -1.
    9900012    2    1    2    0    0 -0.62927184732E+00 -0.35150103434E+00  0.93475225556E+00  0.90007619632E+02  0.89999879411E+02 0.  0.
         12    1    1    2    0    0  0.62927184732E+00  0.35150103434E+00 -0.93475225556E+00  0.11803803685E+01  0.00000000000E+00 0. -1.
         11    1    3    3    0    0 -0.26832313288E+02  0.30734805834E+02 -0.17550896481E+02  0.44414359093E+02  0.51100000000E-03 0. -1.
        -11    1    3    3    0    0  0.49753381848E+01 -0.41148702349E+01  0.66961430046E+01  0.93018534983E+01  0.51100000000E-03 0.  1.
        -12    1    3    3    0    0  0.21227703256E+02 -0.26971436633E+02  0.11789505732E+02  0.36291407041E+02  0.00000000000E+00 0.  1.
</event>
<event>
 7    1  0.2000468E-015  0.9000762E+02  0.7816164E-02  0.1186339E+00
        -11   -1    0    0    0    0  0.00000000000E+00  0.00000000000E+00  0.45593999997E+02  0.45594000000E+02  0.51100000000E-03 0. -1.
         11   -1    0    0    0    0 -0.00000000000E+00 -0.00000000000E+00 -0.45593999997E+02  0.45594000000E+02  0.51100000000E-03 0.  1.
    9900012    2    1    2    0    0 -0.11697753392E+01 -0.14805194503E+00  0.54839446873E-01  0.90007618245E+02  0.89999878006E+02 0.  0.
         12    1    1    2    0    0  0.11697753392E+01  0.14805194503E+00 -0.54839446873E-01  0.11803817550E+01  0.00000000000E+00 0. -1.
         11    1    3    3    0    0  0.20497008847E+02  0.30615578604E+02 -0.18490989115E+00  0.36843930530E+02  0.51100000000E-03 0. -1.
        -11    1    3    3    0    0 -0.67102710918E+01  0.86552078083E+01 -0.88827574605E+00  0.10987692860E+02  0.51100000000E-03 0.  1.
        -12    1    3    3    0    0 -0.14956513095E+02 -0.39418838358E+02  0.11280250841E+01  0.42175994855E+02  0.00000000000E+00 0.  1.
</event>
<event>
 7    1  0.2000468E-015  0.9000769E+02  0.7816164E-02  0.1186339E+00
        -11   -1    0    0    0    0  0.00000000000E+00  0.00000000000E+00  0.45593999997E+02  0.45594000000E+02  0.51100000000E-03 0. -1.
         11   -1    0    0    0    0 -0.00000000000E+00 -0.00000000000E+00 -0.45593999997E+02  0.45594000000E+02  0.51100000000E-03 0.  1.
    9900012    2    1    2    0    0 -0.10676761401E+01  0.29237461716E+00 -0.40954228582E+00  0.90007686423E+02  0.89999947083E+02 0.  0.
         12    1    1    2    0    0  0.10676761401E+01 -0.29237461716E+00  0.40954228582E+00  0.11803135773E+01  0.00000000000E+00 0. -1.
         11    1    3    3    0    0  0.91923682725E+00 -0.11376438112E+02 -0.55893526233E+01  0.12708627128E+02  0.51100000000E-03 0. -1.
        -11    1    3    3    0    0  0.31154014620E+02 -0.10745955585E+02 -0.10104765065E+02  0.34469616558E+02  0.51100000000E-03 0.  1.
         12    1    3    3    0    0 -0.33140927587E+02  0.22414768314E+02  0.15284575403E+02  0.42829442737E+02  0.00000000000E+00 0. -1.
</event>
<event>
 7    1  0.2000468E-015  0.9000778E+02  0.7816164E-02  0.1186339E+00
        -11   -1    0    0    0    0  0.00000000000E+00  0.00000000000E+00  0.45593999997E+02  0.45594000000E+02  0.51100000000E-03 0.  1.
         11   -1    0    0    0    0 -0.00000000000E+00 -0.00000000000E+00 -0.45593999997E+02  0.45594000000E+02  0.51100000000E-03 0. -1.
    9900012    2    1    2    0    0  0.74297127769E+00  0.82413030720E+00  0.40214066208E+00  0.90007782141E+02  0.90000044065E+02 0.  0.
         12    1    1    2    0    0 -0.74297127769E+00 -0.82413030720E+00 -0.40214066208E+00  0.11802178590E+01  0.00000000000E+00 0. -1.
         11    1    3    3    0    0 -0.35170480146E+01  0.14226464302E+02 -0.79222888569E+01  0.16659068830E+02  0.51100000000E-03 0. -1.
        -11    1    3    3    0    0  0.35537440481E+01 -0.29995389034E+01  0.39861934812E+02  0.40132283483E+02  0.51100000000E-03 0.  1.
         12    1    3    3    0    0  0.70627524419E+00 -0.10402795092E+02 -0.31537505293E+02  0.33216429828E+02  0.00000000000E+00 0. -1.
</event>
<event>
 7    1  0.2000468E-015  0.9000768E+02  0.7816164E-02  0.1186339E+00
        -11   -1    0    0    0    0  0.00000000000E+00  0.00000000000E+00  0.45593999997E+02  0.45594000000E+02  0.51100000000E-03 0.  1.
         11   -1    0    0    0    0 -0.00000000000E+00 -0.00000000000E+00 -0.45593999997E+02  0.45594000000E+02  0.51100000000E-03 0. -1.
    9900012    2    1    2    0    0 -0.61636780604E+00  0.64931097258E-01  0.10045092433E+01  0.90007676256E+02  0.89999936783E+02 0.  0.
         12    1    1    2    0    0  0.61636780604E+00 -0.64931097258E-01 -0.10045092433E+01  0.11803237435E+01  0.00000000000E+00 0. -1.
         11    1    3    3    0    0  0.13218579204E+01 -0.21307847300E+01 -0.11683749870E+02  0.11949793438E+02  0.51100000000E-03 0. -1.
        -11    1    3    3    0    0  0.25659673750E+02 -0.25215660657E+02  0.15253364650E+02  0.39075740975E+02  0.51100000000E-03 0.  1.
         12    1    3    3    0    0 -0.27597899477E+02  0.27411376484E+02 -0.25651055365E+01  0.38982141843E+02  0.00000000000E+00 0. -1.
</event>
<event>
 7    1  0.2000468E-015  0.9000827E+02  0.7816164E-02  0.1186338E+00
        -11   -1    0    0    0    0  0.00000000000E+00  0.00000000000E+00  0.45593999997E+02  0.45594000000E+02  0.51100000000E-03 0.  1.
         11   -1    0    0    0    0 -0.00000000000E+00 -0.00000000000E+00 -0.45593999997E+02  0.45594000000E+02  0.51100000000E-03 0. -1.
    9900012    2    1    2    0    0  0.53609768352E+00  0.94445673263E+00  0.46083345788E+00  0.90008268369E+02  0.90000536710E+02 0.  0.
         12    1    1    2    0    0 -0.53609768352E+00 -0.94445673263E+00 -0.46083345788E+00  0.11797316313E+01  0.00000000000E+00 0. -1.
         11    1    3    3    0    0  0.17806231679E+02  0.38644362161E+01 -0.32733309748E+02  0.37462852550E+02  0.51100000000E-03 0. -1.
        -11    1    3    3    0    0  0.71035921835E+01  0.40283415983E+01 -0.27035970411E+01  0.86022087375E+01  0.51100000000E-03 0.  1.
        -12    1    3    3    0    0 -0.24373726179E+02 -0.69483210817E+01  0.35897740247E+02  0.43943207081E+02  0.00000000000E+00 0.  1.
</event>
<event>
 7    1  0.2000468E-015  0.9000771E+02  0.7816164E-02  0.1186339E+00
        -11   -1    0    0    0    0  0.00000000000E+00  0.00000000000E+00  0.45593999997E+02  0.45594000000E+02  0.51100000000E-03 0. -1.
         11   -1    0    0    0    0 -0.00000000000E+00 -0.00000000000E+00 -0.45593999997E+02  0.45594000000E+02  0.51100000000E-03 0.  1.
    9900012    2    1    2    0    0 -0.10133553321E+01 -0.37897969997E+00  0.47176339788E+00  0.90007713871E+02  0.89999974894E+02 0.  0.
         12    1    1    2    0    0  0.10133553321E+01  0.37897969997E+00 -0.47176339788E+00  0.11802861287E+01  0.00000000000E+00 0. -1.
         11    1    3    3    0    0  0.87158929286E+01 -0.59431777691E+01 -0.23936967756E+01  0.10817482889E+02  0.51100000000E-03 0. -1.
        -11    1    3    3    0    0  0.29304992878E+02 -0.90799220483E+01  0.17116257076E+02  0.35131095180E+02  0.51100000000E-03 0.  1.
         12    1    3    3    0    0 -0.39034241139E+02  0.14644120117E+02 -0.14250796903E+02  0.44059135802E+02  0.00000000000E+00 0. -1.
</event>
<event>
 7    1  0.2000468E-015  0.9000784E+02  0.7816164E-02  0.1186339E+00
        -11   -1    0    0    0    0  0.00000000000E+00  0.00000000000E+00  0.45593999997E+02  0.45594000000E+02  0.51100000000E-03 0.  1.
         11   -1    0    0    0    0 -0.00000000000E+00 -0.00000000000E+00 -0.45593999997E+02  0.45594000000E+02  0.51100000000E-03 0. -1.
    9900012    2    1    2    0    0  0.10261251854E+01 -0.55412603990E+00  0.18108891476E+00  0.90007838249E+02  0.90000100914E+02 0.  0.
         12    1    1    2    0    0 -0.10261251854E+01  0.55412603990E+00 -0.18108891476E+00  0.11801617513E+01  0.00000000000E+00 0. -1.
         11    1    3    3    0    0 -0.25053814746E+02  0.20418276319E+00  0.21170700436E+02  0.32801431084E+02  0.51100000000E-03 0. -1.
        -11    1    3    3    0    0 -0.11551441391E+02  0.56529751633E+01  0.14240211409E+01  0.12939078903E+02  0.51100000000E-03 0.  1.
        -12    1    3    3    0    0  0.37631381322E+02 -0.64112839664E+01 -0.22413632662E+02  0.44267328262E+02  0.00000000000E+00 0.  1.
</event>
<event>
 7    1  0.2000468E-015  0.9000778E+02  0.7816164E-02  0.1186339E+00
        -11   -1    0    0    0    0  0.00000000000E+00  0.00000000000E+00  0.45593999997E+02  0.45594000000E+02  0.51100000000E-03 0. -1.
         11   -1    0    0    0    0 -0.00000000000E+00 -0.00000000000E+00 -0.45593999997E+02  0.45594000000E+02  0.51100000000E-03 0.  1.
    9900012    2    1    2    0    0 -0.24500529560E+00 -0.11335509024E+01  0.21896828940E+00  0.90007782920E+02  0.90000044855E+02 0.  0.
         12    1    1    2    0    0  0.24500529560E+00  0.11335509024E+01 -0.21896828940E+00  0.11802170796E+01  0.00000000000E+00 0. -1.
         11    1    3    3    0    0 -0.45374876839E+01  0.22983121206E+01 -0.83874417440E+01  0.98091901988E+01  0.51100000000E-03 0. -1.
        -11    1    3    3    0    0 -0.82794826278E+00 -0.41319539024E+02  0.71270363801E+01  0.41937864172E+02  0.51100000000E-03 0.  1.
         12    1    3    3    0    0  0.51204306511E+01  0.37887676000E+02  0.14793736533E+01  0.38260728550E+02  0.00000000000E+00 0. -1.
</event>
<event>
 7    1  0.2000468E-015  0.9000767E+02  0.7816164E-02  0.1186339E+00
        -11   -1    0    0    0    0  0.00000000000E+00  0.00000000000E+00  0.45593999997E+02  0.45594000000E+02  0.51100000000E-03 0.  1.
         11   -1    0    0    0    0 -0.00000000000E+00 -0.00000000000E+00 -0.45593999997E+02  0.45594000000E+02  0.51100000000E-03 0. -1.
    9900012    2    1    2    0    0 -0.75931970266E-01 -0.10871532905E+01  0.45333935518E+00  0.90007667626E+02  0.89999928039E+02 0.  0.
         12    1    1    2    0    0  0.75931970266E-01  0.10871532905E+01 -0.45333935518E+00  0.11803323736E+01  0.00000000000E+00 0. -1.
         11    1    3    3    0    0 -0.30541471384E+01  0.28458883991E+01 -0.91617108342E+01  0.10067961124E+02  0.51100000000E-03 0. -1.
        -11    1    3    3    0    0 -0.38022688286E+02 -0.31074618766E+01  0.74736092962E+01  0.38874618712E+02  0.51100000000E-03 0.  1.
         12    1    3    3    0    0  0.41000903455E+02 -0.82557981305E+00  0.21414408931E+01  0.41065087790E+02  0.00000000000E+00 0. -1.
</event>
<event>
 7    1  0.2000468E-015  0.9000785E+02  0.7816164E-02  0.1186339E+00
        -11   -1    0    0    0    0  0.00000000000E+00  0.00000000000E+00  0.45593999997E+02  0.45594000000E+02  0.51100000000E-03 0. -1.
         11   -1    0    0    0    0 -0.00000000000E+00 -0.00000000000E+00 -0.45593999997E+02  0.45594000000E+02  0.51100000000E-03 0.  1.
    9900012    2    1    2    0    0  0.36827046491E-01  0.35479114114E-01 -0.11790378158E+01  0.90007853751E+02  0.90000116620E+02 0.  0.
         12    1    1    2    0    0 -0.36827046491E-01 -0.35479114114E-01  0.11790378158E+01  0.11801462494E+01  0.00000000000E+00 0. -1.
         11    1    3    3    0    0  0.91077140298E+01  0.33793929408E+02  0.17176929132E+02  0.38987523829E+02  0.51100000000E-03 0. -1.
        -11    1    3    3    0    0 -0.74133341310E+01  0.31802280800E+01  0.26543142062E+01  0.84921586034E+01  0.51100000000E-03 0.  1.
        -12    1    3    3    0    0 -0.16575528524E+01 -0.36938678374E+02 -0.21010281154E+02  0.42528171318E+02  0.00000000000E+00 0.  1.
</event>
<event>
 7    1  0.2376287E-015  0.9000778E+02  0.7816164E-02  0.1186339E+00
        -11   -1    0    0    0    0  0.00000000000E+00  0.00000000000E+00  0.45593999997E+02  0.45594000000E+02  0.51100000000E-03 0. -1.
         11   -1    0    0    0    0 -0.00000000000E+00 -0.00000000000E+00 -0.45593999997E+02  0.45594000000E+02  0.51100000000E-03 0.  1.
    9900012    2    1    2    0    0 -0.23638714308E+00  0.36943733082E+00 -0.10957024787E+01  0.90007776824E+02  0.90000038678E+02 0.  0.
         12    1    1    2    0    0  0.23638714308E+00 -0.36943733082E+00  0.10957024787E+01  0.11802231757E+01  0.00000000000E+00 0. -1.
         11    1    3    3    0    0 -0.32528233449E+02  0.18416778896E+02  0.10586474877E+02  0.38850188762E+02  0.51100000000E-03 0. -1.
        -11    1    3    3    0    0 -0.53218491798E+01  0.16987295866E+00 -0.74411175006E+01  0.91499270726E+01  0.51100000000E-03 0.  1.
        -12    1    3    3    0    0  0.37613695486E+02 -0.18217214524E+02 -0.42410598550E+01  0.42007660990E+02  0.00000000000E+00 0.  1.
</event>
<event>
 7    1  0.2000468E-015  0.9000778E+02  0.7816164E-02  0.1186339E+00
        -11   -1    0    0    0    0  0.00000000000E+00  0.00000000000E+00  0.45593999997E+02  0.45594000000E+02  0.51100000000E-03 0. -1.
         11   -1    0    0    0    0 -0.00000000000E+00 -0.00000000000E+00 -0.45593999997E+02  0.45594000000E+02  0.51100000000E-03 0.  1.
    9900012    2    1    2    0    0  0.18551583312E+00  0.38689483529E+00 -0.10994647877E+01  0.90007776904E+02  0.90000038759E+02 0.  0.
         12    1    1    2    0    0 -0.18551583312E+00 -0.38689483529E+00  0.10994647877E+01  0.11802230964E+01  0.00000000000E+00 0. -1.
         11    1    3    3    0    0  0.95734440116E+01  0.16200489774E+02  0.35372118818E+02  0.40066113975E+02  0.51100000000E-03 0. -1.
        -11    1    3    3    0    0  0.22781196296E+01 -0.38107401466E+01  0.41060183387E+01  0.60473925266E+01  0.51100000000E-03 0.  1.
        -12    1    3    3    0    0 -0.11666047808E+02 -0.12002854792E+02 -0.40577601944E+02  0.43894270402E+02  0.00000000000E+00 0.  1.
</event>
<event>
 7    1  0.2000468E-015  0.9000776E+02  0.7816164E-02  0.1186339E+00
        -11   -1    0    0    0    0  0.00000000000E+00  0.00000000000E+00  0.45593999997E+02  0.45594000000E+02  0.51100000000E-03 0.  1.
         11   -1    0    0    0    0 -0.00000000000E+00 -0.00000000000E+00 -0.45593999997E+02  0.45594000000E+02  0.51100000000E-03 0. -1.
    9900012    2    1    2    0    0 -0.68869605595E+00 -0.64549552151E+00  0.70851196165E+00  0.90007764462E+02  0.90000026153E+02 0.  0.
         12    1    1    2    0    0  0.68869605595E+00  0.64549552151E+00 -0.70851196165E+00  0.11802355382E+01  0.00000000000E+00 0. -1.
         11    1    3    3    0    0  0.14528096054E+02 -0.13470974992E+00  0.28050837230E+01  0.14797034048E+02  0.51100000000E-03 0. -1.
        -11    1    3    3    0    0  0.68122631870E+01 -0.22200968931E+02 -0.26927598864E+02  0.35558199224E+02  0.51100000000E-03 0.  1.
         12    1    3    3    0    0 -0.22029055297E+02  0.21690183159E+02  0.24831027103E+02  0.39652531190E+02  0.00000000000E+00 0. -1.
</event>
<event>
 7    1  0.2000468E-015  0.9000771E+02  0.7816164E-02  0.1186339E+00
        -11   -1    0    0    0    0  0.00000000000E+00  0.00000000000E+00  0.45593999997E+02  0.45594000000E+02  0.51100000000E-03 0.  1.
         11   -1    0    0    0    0 -0.00000000000E+00 -0.00000000000E+00 -0.45593999997E+02  0.45594000000E+02  0.51100000000E-03 0. -1.
    9900012    2    1    2    0    0 -0.10345116441E+01 -0.53138222974E+00  0.20123143790E+00  0.90007713803E+02  0.89999974825E+02 0.  0.
         12    1    1    2    0    0  0.10345116441E+01  0.53138222974E+00 -0.20123143790E+00  0.11802861973E+01  0.00000000000E+00 0. -1.
         11    1    3    3    0    0 -0.51671319728E+01  0.16180305131E+01  0.64902745956E+01  0.84522742593E+01  0.51100000000E-03 0. -1.
        -11    1    3    3    0    0 -0.62800819491E+01 -0.33126748575E+02 -0.26714180066E+02  0.43017070069E+02  0.51100000000E-03 0.  1.
         12    1    3    3    0    0  0.10412702278E+02  0.30977335832E+02  0.20425136909E+02  0.38538369474E+02  0.00000000000E+00 0. -1.
</event>
<event>
 7    1  0.2000468E-015  0.9000771E+02  0.7816164E-02  0.1186339E+00
        -11   -1    0    0    0    0  0.00000000000E+00  0.00000000000E+00  0.45593999997E+02  0.45594000000E+02  0.51100000000E-03 0.  1.
         11   -1    0    0    0    0 -0.00000000000E+00 -0.00000000000E+00 -0.45593999997E+02  0.45594000000E+02  0.51100000000E-03 0. -1.
    9900012    2    1    2    0    0  0.26153176718E+00  0.10784385490E+01  0.40206340917E+00  0.90007710394E+02  0.89999971371E+02 0.  0.
         12    1    1    2    0    0 -0.26153176718E+00 -0.10784385490E+01 -0.40206340917E+00  0.11802896060E+01  0.00000000000E+00 0. -1.
         11    1    3    3    0    0  0.55361634523E+01  0.49121229425E+01  0.67904964155E+01  0.10044346639E+02  0.51100000000E-03 0. -1.
        -11    1    3    3    0    0 -0.40269524359E+01  0.83180683422E+01  0.35316801420E+02  0.36505931979E+02  0.51100000000E-03 0.  1.
         12    1    3    3    0    0 -0.12476792492E+01 -0.12151752736E+02 -0.41705234426E+02  0.43457431776E+02  0.00000000000E+00 0. -1.
</event>
<event>
 7    1  0.2000468E-015  0.9000777E+02  0.7816164E-02  0.1186339E+00
        -11   -1    0    0    0    0  0.00000000000E+00  0.00000000000E+00  0.45593999997E+02  0.45594000000E+02  0.51100000000E-03 0. -1.
         11   -1    0    0    0    0 -0.00000000000E+00 -0.00000000000E+00 -0.45593999997E+02  0.45594000000E+02  0.51100000000E-03 0.  1.
    9900012    2    1    2    0    0 -0.15000898075E+00  0.34257426386E+00 -0.11194127050E+01  0.90007769249E+02  0.90000031004E+02 0.  0.
         12    1    1    2    0    0  0.15000898075E+00 -0.34257426386E+00  0.11194127050E+01  0.11802307506E+01  0.00000000000E+00 0. -1.
         11    1    3    3    0    0 -0.12139133839E+02  0.11872341372E+02  0.74242056519E+01  0.18531861478E+02  0.51100000000E-03 0. -1.
        -11    1    3    3    0    0  0.33331049889E+02  0.12260124262E+02 -0.15529730319E+02  0.38761347469E+02  0.51100000000E-03 0.  1.
         12    1    3    3    0    0 -0.21341925030E+02 -0.23789891370E+02  0.69861119620E+01  0.32714560302E+02  0.00000000000E+00 0. -1.
</event>
<event>
 7    1  0.2000468E-015  0.9000772E+02  0.7816164E-02  0.1186339E+00
        -11   -1    0    0    0    0  0.00000000000E+00  0.00000000000E+00  0.45593999997E+02  0.45594000000E+02  0.51100000000E-03 0.  1.
         11   -1    0    0    0    0 -0.00000000000E+00 -0.00000000000E+00 -0.45593999997E+02  0.45594000000E+02  0.51100000000E-03 0. -1.
    9900012    2    1    2    0    0  0.21616519425E-01 -0.93001752009E+00  0.72639881542E+00  0.90007722448E+02  0.89999983584E+02 0.  0.
         12    1    1    2    0    0 -0.21616519425E-01  0.93001752009E+00 -0.72639881542E+00  0.11802775524E+01  0.00000000000E+00 0. -1.
         11    1    3    3    0    0  0.80789814324E+01  0.36500598267E+01 -0.22366246250E+01  0.91430502403E+01  0.51100000000E-03 0. -1.
        -11    1    3    3    0    0 -0.35387020068E+02  0.11260651369E+02  0.22788399373E+02  0.43570111370E+02  0.51100000000E-03 0.  1.
         12    1    3    3    0    0  0.27329655155E+02 -0.15840728716E+02 -0.19825375933E+02  0.37294560837E+02  0.00000000000E+00 0. -1.
</event>
<event>
 7    1  0.2000468E-015  0.9000770E+02  0.7816164E-02  0.1186339E+00
        -11   -1    0    0    0    0  0.00000000000E+00  0.00000000000E+00  0.45593999997E+02  0.45594000000E+02  0.51100000000E-03 0. -1.
         11   -1    0    0    0    0 -0.00000000000E+00 -0.00000000000E+00 -0.45593999997E+02  0.45594000000E+02  0.51100000000E-03 0.  1.
    9900012    2    1    2    0    0 -0.89510809466E+00 -0.62386518000E+00 -0.45020481506E+00  0.90007698920E+02  0.89999959746E+02 0.  0.
         12    1    1    2    0    0  0.89510809466E+00  0.62386518000E+00  0.45020481506E+00  0.11803010800E+01  0.00000000000E+00 0. -1.
         11    1    3    3    0    0 -0.25346425992E+01 -0.23490802357E+02  0.22146083253E+02  0.32383502160E+02  0.51100000000E-03 0. -1.
        -11    1    3    3    0    0 -0.16710143676E+02 -0.66774424415E+01 -0.51657938825E+01  0.18721713755E+02  0.51100000000E-03 0.  1.
        -12    1    3    3    0    0  0.18349678181E+02  0.29544379618E+02 -0.17430494185E+02  0.38902483004E+02  0.00000000000E+00 0.  1.
</event>
<event>
 7    1  0.2000468E-015  0.9000779E+02  0.7816164E-02  0.1186339E+00
        -11   -1    0    0    0    0  0.00000000000E+00  0.00000000000E+00  0.45593999997E+02  0.45594000000E+02  0.51100000000E-03 0.  1.
         11   -1    0    0    0    0 -0.00000000000E+00 -0.00000000000E+00 -0.45593999997E+02  0.45594000000E+02  0.51100000000E-03 0. -1.
    9900012    2    1    2    0    0  0.33058725282E+00 -0.10825493304E+01 -0.33421967539E+00  0.90007786555E+02  0.90000048537E+02 0.  0.
         12    1    1    2    0    0 -0.33058725282E+00  0.10825493304E+01  0.33421967539E+00  0.11802134451E+01  0.00000000000E+00 0. -1.
         11    1    3    3    0    0 -0.60907375969E+01 -0.80616443340E+01 -0.26268177647E+02  0.28144348474E+02  0.51100000000E-03 0. -1.
        -11    1    3    3    0    0 -0.11716887271E+02  0.15129885408E+01 -0.13606142281E+02  0.18019480838E+02  0.51100000000E-03 0.  1.
        -12    1    3    3    0    0  0.18138212121E+02  0.54661064627E+01  0.39540100252E+02  0.43843957243E+02  0.00000000000E+00 0.  1.
</event>
<event>
 7    1  0.2000468E-015  0.9000772E+02  0.7816164E-02  0.1186339E+00
        -11   -1    0    0    0    0  0.00000000000E+00  0.00000000000E+00  0.45593999997E+02  0.45594000000E+02  0.51100000000E-03 0.  1.
         11   -1    0    0    0    0 -0.00000000000E+00 -0.00000000000E+00 -0.45593999997E+02  0.45594000000E+02  0.51100000000E-03 0. -1.
    9900012    2    1    2    0    0 -0.66676543055E+00 -0.61606409700E+00 -0.75428874519E+00  0.90007719261E+02  0.89999980356E+02 0.  0.
         12    1    1    2    0    0  0.66676543055E+00  0.61606409700E+00  0.75428874519E+00  0.11802807387E+01  0.00000000000E+00 0. -1.
         11    1    3    3    0    0 -0.87063244093E+01 -0.75527635813E+01  0.33594794542E+01  0.12005433141E+02  0.51100000000E-03 0. -1.
        -11    1    3    3    0    0 -0.26984127849E+02 -0.17603693321E+02  0.86741283507E+01  0.33365756056E+02  0.51100000000E-03 0.  1.
         12    1    3    3    0    0  0.35023686827E+02  0.24540392805E+02 -0.12787896550E+02  0.44636530064E+02  0.00000000000E+00 0. -1.
</event>
<event>
 7    1  0.2000468E-015  0.9000778E+02  0.7816164E-02  0.1186339E+00
        -11   -1    0    0    0    0  0.00000000000E+00  0.00000000000E+00  0.45593999997E+02  0.45594000000E+02  0.51100000000E-03 0.  1.
         11   -1    0    0    0    0 -0.00000000000E+00 -0.00000000000E+00 -0.45593999997E+02  0.45594000000E+02  0.51100000000E-03 0. -1.
    9900012    2    1    2    0    0 -0.91333163978E+00  0.64828338386E+00  0.37213163411E+00  0.90007776300E+02  0.90000038147E+02 0.  0.
         12    1    1    2    0    0  0.91333163978E+00 -0.64828338386E+00 -0.37213163411E+00  0.11802237005E+01  0.00000000000E+00 0. -1.
         11    1    3    3    0    0  0.18170630150E+02  0.26474866321E+02  0.92665621937E+01  0.33420944360E+02  0.51100000000E-03 0. -1.
        -11    1    3    3    0    0  0.77476464070E+01  0.78352186844E+01  0.38835791863E+01  0.11683272839E+02  0.51100000000E-03 0.  1.
        -12    1    3    3    0    0 -0.26831608197E+02 -0.33661801621E+02 -0.12778009746E+02  0.44903559100E+02  0.00000000000E+00 0.  1.
</event>
<event>
 7    1  0.2000468E-015  0.9000727E+02  0.7816164E-02  0.1186340E+00
        -11   -1    0    0    0    0  0.00000000000E+00  0.00000000000E+00  0.45593999997E+02  0.45594000000E+02  0.51100000000E-03 0. -1.
         11   -1    0    0    0    0 -0.00000000000E+00 -0.00000000000E+00 -0.45593999997E+02  0.45594000000E+02  0.51100000000E-03 0.  1.
    9900012    2    1    2    0    0 -0.27891731788E+00 -0.47712335689E+00 -0.10434039550E+01  0.90007265745E+02  0.89999520851E+02 0.  0.
         12    1    1    2    0    0  0.27891731788E+00  0.47712335689E+00  0.10434039550E+01  0.11807342551E+01  0.00000000000E+00 0. -1.
         11    1    3    3    0    0 -0.10981680132E+02  0.31566968439E+02 -0.93460038338E+01  0.34704734301E+02  0.51100000000E-03 0. -1.
        -11    1    3    3    0    0 -0.38243448767E+01  0.97252906522E+01  0.13997526489E+01  0.10543538293E+02  0.51100000000E-03 0.  1.
        -12    1    3    3    0    0  0.14527107690E+02 -0.41769382449E+02  0.69028472300E+01  0.44758993151E+02  0.00000000000E+00 0.  1.
</event>
<event>
 7    1  0.2000468E-015  0.9000811E+02  0.7816164E-02  0.1186338E+00
        -11   -1    0    0    0    0  0.00000000000E+00  0.00000000000E+00  0.45593999997E+02  0.45594000000E+02  0.51100000000E-03 0. -1.
         11   -1    0    0    0    0 -0.00000000000E+00 -0.00000000000E+00 -0.45593999997E+02  0.45594000000E+02  0.51100000000E-03 0.  1.
    9900012    2    1    2    0    0  0.38874398695E+00  0.23880478308E+00 -0.10881144271E+01  0.90008109065E+02  0.90000375304E+02 0.  0.
         12    1    1    2    0    0 -0.38874398695E+00 -0.23880478308E+00  0.10881144271E+01  0.11798909349E+01  0.00000000000E+00 0. -1.
         11    1    3    3    0    0 -0.20463749035E+00  0.12455899115E+02  0.60471670466E+01  0.13847726485E+02  0.51100000000E-03 0. -1.
        -11    1    3    3    0    0  0.26303437239E+02  0.21084221245E+02 -0.44557455178E+01  0.34003953659E+02  0.51100000000E-03 0.  1.
         12    1    3    3    0    0 -0.25710055762E+02 -0.33301315577E+02 -0.26795359559E+01  0.42156428921E+02  0.00000000000E+00 0. -1.
</event>
<event>
 7    1  0.2000468E-015  0.9000864E+02  0.7816164E-02  0.1186337E+00
        -11   -1    0    0    0    0  0.00000000000E+00  0.00000000000E+00  0.45593999997E+02  0.45594000000E+02  0.51100000000E-03 0.  1.
         11   -1    0    0    0    0 -0.00000000000E+00 -0.00000000000E+00 -0.45593999997E+02  0.45594000000E+02  0.51100000000E-03 0. -1.
    9900012    2    1    2    0    0 -0.48225508105E+00  0.98038232142E+00  0.44404998820E+00  0.90008635827E+02  0.90000909016E+02 0.  0.
         12    1    1    2    0    0  0.48225508105E+00 -0.98038232142E+00 -0.44404998820E+00  0.11793641725E+01  0.00000000000E+00 0. -1.
         11    1    3    3    0    0 -0.15440080643E+02 -0.13697424443E+02 -0.31280298688E+02  0.37476294012E+02  0.51100000000E-03 0. -1.
        -11    1    3    3    0    0  0.72248904543E+01 -0.65666606615E+01 -0.37563630074E+01  0.10460895642E+02  0.51100000000E-03 0.  1.
        -12    1    3    3    0    0  0.77329351078E+01  0.21244467426E+02  0.35480711683E+02  0.42071446174E+02  0.00000000000E+00 0.  1.
</event>
<event>
 7    1  0.2000468E-015  0.9000763E+02  0.7816164E-02  0.1186339E+00
        -11   -1    0    0    0    0  0.00000000000E+00  0.00000000000E+00  0.45593999997E+02  0.45594000000E+02  0.51100000000E-03 0.  1.
         11   -1    0    0    0    0 -0.00000000000E+00 -0.00000000000E+00 -0.45593999997E+02  0.45594000000E+02  0.51100000000E-03 0. -1.
    9900012    2    1    2    0    0 -0.19745214564E+00 -0.10429185865E+01  0.51634443076E+00  0.90007627983E+02  0.89999887872E+02 0.  0.
         12    1    1    2    0    0  0.19745214564E+00  0.10429185865E+01 -0.51634443076E+00  0.11803720173E+01  0.00000000000E+00 0. -1.
         11    1    3    3    0    0 -0.81046263404E+00 -0.58971269431E+01 -0.73607511780E+01  0.94664467479E+01  0.51100000000E-03 0. -1.
        -11    1    3    3    0    0  0.10172940293E+02 -0.61344573444E+01  0.41889497812E+02  0.43541363189E+02  0.51100000000E-03 0.  1.
         12    1    3    3    0    0 -0.95599298046E+01  0.10988665701E+02 -0.34012402204E+02  0.36999818046E+02  0.00000000000E+00 0. -1.
</event>
<event>
 7    1  0.2000468E-015  0.9000776E+02  0.7816164E-02  0.1186339E+00
        -11   -1    0    0    0    0  0.00000000000E+00  0.00000000000E+00  0.45593999997E+02  0.45594000000E+02  0.51100000000E-03 0.  1.
         11   -1    0    0    0    0 -0.00000000000E+00 -0.00000000000E+00 -0.45593999997E+02  0.45594000000E+02  0.51100000000E-03 0. -1.
    9900012    2    1    2    0    0 -0.24006197940E+00  0.10888843107E+01  0.38687458003E+00  0.90007758187E+02  0.90000019795E+02 0.  0.
         12    1    1    2    0    0  0.24006197940E+00 -0.10888843107E+01 -0.38687458003E+00  0.11802418128E+01  0.00000000000E+00 0. -1.
         11    1    3    3    0    0 -0.27617870382E+02 -0.19627378771E+02 -0.14033986281E+02  0.36673335451E+02  0.51100000000E-03 0. -1.
        -11    1    3    3    0    0 -0.80721938678E+01 -0.19235704154E+01  0.64805114786E+01  0.10528887228E+02  0.51100000000E-03 0.  1.
        -12    1    3    3    0    0  0.35450002271E+02  0.22639833497E+02  0.79403493825E+01  0.42805535508E+02  0.00000000000E+00 0.  1.
</event>
<event>
 7    1  0.2000468E-015  0.9000774E+02  0.7816164E-02  0.1186339E+00
        -11   -1    0    0    0    0  0.00000000000E+00  0.00000000000E+00  0.45593999997E+02  0.45594000000E+02  0.51100000000E-03 0.  1.
         11   -1    0    0    0    0 -0.00000000000E+00 -0.00000000000E+00 -0.45593999997E+02  0.45594000000E+02  0.51100000000E-03 0. -1.
    9900012    2    1    2    0    0 -0.33868873923E+00  0.80771781076E-01  0.11277331801E+01  0.90007738898E+02  0.90000000252E+02 0.  0.
         12    1    1    2    0    0  0.33868873923E+00 -0.80771781076E-01 -0.11277331801E+01  0.11802611017E+01  0.00000000000E+00 0. -1.
         11    1    3    3    0    0 -0.14451030740E+02  0.96644654300E+01 -0.15879781396E+02  0.23545735048E+02  0.51100000000E-03 0. -1.
        -11    1    3    3    0    0 -0.13816812157E+02  0.10454616462E+02 -0.12333959779E+02  0.21268048045E+02  0.51100000000E-03 0.  1.
        -12    1    3    3    0    0  0.27929154158E+02 -0.20038310110E+02  0.29341474354E+02  0.45193955806E+02  0.00000000000E+00 0.  1.
</event>
<event>
 7    1  0.2000468E-015  0.9000776E+02  0.7816164E-02  0.1186339E+00
        -11   -1    0    0    0    0  0.00000000000E+00  0.00000000000E+00  0.45593999997E+02  0.45594000000E+02  0.51100000000E-03 0.  1.
         11   -1    0    0    0    0 -0.00000000000E+00 -0.00000000000E+00 -0.45593999997E+02  0.45594000000E+02  0.51100000000E-03 0. -1.
    9900012    2    1    2    0    0 -0.15731427469E+00 -0.75491340041E+00  0.89348944818E+00  0.90007760441E+02  0.90000022079E+02 0.  0.
         12    1    1    2    0    0  0.15731427469E+00  0.75491340041E+00 -0.89348944818E+00  0.11802395592E+01  0.00000000000E+00 0. -1.
         11    1    3    3    0    0  0.54528228223E+01 -0.46742296673E+01  0.63021021137E+01  0.95550086880E+01  0.51100000000E-03 0. -1.
        -11    1    3    3    0    0 -0.22990867368E+02 -0.17119635017E+02  0.26101603089E+02  0.38767970924E+02  0.51100000000E-03 0.  1.
         12    1    3    3    0    0  0.17380730271E+02  0.21038951284E+02 -0.31510215754E+02  0.41684780829E+02  0.00000000000E+00 0. -1.
</event>
<event>
 7    1  0.2000468E-015  0.9000773E+02  0.7816164E-02  0.1186339E+00
        -11   -1    0    0    0    0  0.00000000000E+00  0.00000000000E+00  0.45593999997E+02  0.45594000000E+02  0.51100000000E-03 0.  1.
         11   -1    0    0    0    0 -0.00000000000E+00 -0.00000000000E+00 -0.45593999997E+02  0.45594000000E+02  0.51100000000E-03 0. -1.
    9900012    2    1    2    0    0  0.25635859207E+00 -0.61689747147E+00  0.97301808579E+00  0.90007726128E+02  0.89999987313E+02 0.  0.
         12    1    1    2    0    0 -0.25635859207E+00  0.61689747147E+00 -0.97301808579E+00  0.11802738722E+01  0.00000000000E+00 0. -1.
         11    1    3    3    0    0 -0.15360692435E+02 -0.29250146167E+02 -0.20477747833E+02  0.38869783630E+02  0.51100000000E-03 0. -1.
        -11    1    3    3    0    0  0.17904813404E+01  0.75566608737E+01 -0.88163558108E+01  0.11748918122E+02  0.51100000000E-03 0.  1.
        -12    1    3    3    0    0  0.13826569687E+02  0.21076587821E+02  0.30267121730E+02  0.39389024376E+02  0.00000000000E+00 0.  1.
</event>
<event>
 7    1  0.2000468E-015  0.9000819E+02  0.7816164E-02  0.1186338E+00
        -11   -1    0    0    0    0  0.00000000000E+00  0.00000000000E+00  0.45593999997E+02  0.45594000000E+02  0.51100000000E-03 0. -1.
         11   -1    0    0    0    0 -0.00000000000E+00 -0.00000000000E+00 -0.45593999997E+02  0.45594000000E+02  0.51100000000E-03 0.  1.
    9900012    2    1    2    0    0 -0.80150149017E+00 -0.79608915975E-01 -0.86209964994E+00  0.90008187293E+02  0.90000454564E+02 0.  0.
         12    1    1    2    0    0  0.80150149017E+00  0.79608915975E-01  0.86209964994E+00  0.11798127075E+01  0.00000000000E+00 0. -1.
         11    1    3    3    0    0  0.23524421951E+02  0.10983196109E+02  0.29337978461E+02  0.39175834456E+02  0.51100000000E-03 0. -1.
        -11    1    3    3    0    0 -0.67056352813E+01 -0.61573889095E+01  0.55591687705E+01  0.10666927411E+02  0.51100000000E-03 0.  1.
        -12    1    3    3    0    0 -0.17620288160E+02 -0.49054161154E+01 -0.35759246881E+02  0.40165425426E+02  0.00000000000E+00 0.  1.
</event>
<event>
 7    1  0.2000468E-015  0.9000777E+02  0.7816164E-02  0.1186339E+00
        -11   -1    0    0    0    0  0.00000000000E+00  0.00000000000E+00  0.45593999997E+02  0.45594000000E+02  0.51100000000E-03 0.  1.
         11   -1    0    0    0    0 -0.00000000000E+00 -0.00000000000E+00 -0.45593999997E+02  0.45594000000E+02  0.51100000000E-03 0. -1.
    9900012    2    1    2    0    0  0.75863099486E+00 -0.88534646086E+00  0.18325621963E+00  0.90007770283E+02  0.90000032051E+02 0.  0.
         12    1    1    2    0    0 -0.75863099486E+00  0.88534646086E+00 -0.18325621963E+00  0.11802297167E+01  0.00000000000E+00 0. -1.
         11    1    3    3    0    0 -0.22798623957E+02  0.26283493008E+02 -0.13767149922E+02  0.37418360149E+02  0.51100000000E-03 0. -1.
        -11    1    3    3    0    0 -0.36080755799E+01 -0.52675482898E+01 -0.88452737522E+01  0.10908901979E+02  0.51100000000E-03 0.  1.
        -12    1    3    3    0    0  0.27165330532E+02 -0.21901291179E+02  0.22795679894E+02  0.41680508155E+02  0.00000000000E+00 0.  1.
</event>
<event>
 7    1  0.2000468E-015  0.9000777E+02  0.7816164E-02  0.1186339E+00
        -11   -1    0    0    0    0  0.00000000000E+00  0.00000000000E+00  0.45593999997E+02  0.45594000000E+02  0.51100000000E-03 0. -1.
         11   -1    0    0    0    0 -0.00000000000E+00 -0.00000000000E+00 -0.45593999997E+02  0.45594000000E+02  0.51100000000E-03 0.  1.
    9900012    2    1    2    0    0 -0.82698641420E+00  0.42372730950E+00 -0.72765532901E+00  0.90007773903E+02  0.90000035719E+02 0.  0.
         12    1    1    2    0    0  0.82698641420E+00 -0.42372730950E+00  0.72765532901E+00  0.11802260970E+01  0.00000000000E+00 0. -1.
         11    1    3    3    0    0 -0.76369896763E+01  0.31265670700E+01  0.66779932066E+00  0.82791901266E+01  0.51100000000E-03 0. -1.
        -11    1    3    3    0    0 -0.21797572076E+02 -0.31953748300E+02  0.85685475824E+01  0.39618129521E+02  0.51100000000E-03 0.  1.
         12    1    3    3    0    0  0.28607575339E+02  0.29250908539E+02 -0.99640022320E+01  0.42110454255E+02  0.00000000000E+00 0. -1.
</event>
<event>
 7    1  0.2000468E-015  0.9000782E+02  0.7816164E-02  0.1186339E+00
        -11   -1    0    0    0    0  0.00000000000E+00  0.00000000000E+00  0.45593999997E+02  0.45594000000E+02  0.51100000000E-03 0.  1.
         11   -1    0    0    0    0 -0.00000000000E+00 -0.00000000000E+00 -0.45593999997E+02  0.45594000000E+02  0.51100000000E-03 0. -1.
    9900012    2    1    2    0    0  0.64906460262E+00 -0.96113845019E+00 -0.21852080528E+00  0.90007820640E+02  0.90000083073E+02 0.  0.
         12    1    1    2    0    0 -0.64906460262E+00  0.96113845019E+00  0.21852080528E+00  0.11801793597E+01  0.00000000000E+00 0. -1.
         11    1    3    3    0    0 -0.36253294400E+02 -0.27527487055E+00 -0.18677218875E+01  0.36302417501E+02  0.51100000000E-03 0. -1.
        -11    1    3    3    0    0 -0.59190766928E+01  0.66428807821E+01 -0.42541366606E+01  0.98620998255E+01  0.51100000000E-03 0.  1.
        -12    1    3    3    0    0  0.42821435695E+02 -0.73287443618E+01  0.59033377429E+01  0.43843303314E+02  0.00000000000E+00 0.  1.
</event>
<event>
 7    1  0.2000468E-015  0.9000726E+02  0.7816164E-02  0.1186340E+00
        -11   -1    0    0    0    0  0.00000000000E+00  0.00000000000E+00  0.45593999997E+02  0.45594000000E+02  0.51100000000E-03 0.  1.
         11   -1    0    0    0    0 -0.00000000000E+00 -0.00000000000E+00 -0.45593999997E+02  0.45594000000E+02  0.51100000000E-03 0. -1.
    9900012    2    1    2    0    0 -0.79847609978E+00 -0.27151967657E+00  0.82634979959E+00  0.90007262515E+02  0.89999517579E+02 0.  0.
         12    1    1    2    0    0  0.79847609978E+00  0.27151967657E+00 -0.82634979959E+00  0.11807374848E+01  0.00000000000E+00 0. -1.
         11    1    3    3    0    0  0.91807108379E+01 -0.39200890894E+01 -0.96478282561E-02  0.99826170566E+01  0.51100000000E-03 0. -1.
        -11    1    3    3    0    0 -0.26619519727E+02 -0.27034252555E+02  0.16981059333E+02  0.41566886076E+02  0.51100000000E-03 0.  1.
         12    1    3    3    0    0  0.16640332789E+02  0.30682821968E+02 -0.16145061705E+02  0.38457759383E+02  0.00000000000E+00 0. -1.
</event>
<event>
 7    1  0.2000468E-015  0.9000787E+02  0.7816164E-02  0.1186339E+00
        -11   -1    0    0    0    0  0.00000000000E+00  0.00000000000E+00  0.45593999997E+02  0.45594000000E+02  0.51100000000E-03 0. -1.
         11   -1    0    0    0    0 -0.00000000000E+00 -0.00000000000E+00 -0.45593999997E+02  0.45594000000E+02  0.51100000000E-03 0.  1.
    9900012    2    1    2    0    0 -0.11268544789E+00 -0.11747357678E+01  0.19109803895E-03  0.90007871968E+02  0.90000135078E+02 0.  0.
         12    1    1    2    0    0  0.11268544789E+00  0.11747357678E+01 -0.19109803895E-03  0.11801280315E+01  0.00000000000E+00 0. -1.
         11    1    3    3    0    0  0.39033420905E+02 -0.29400272890E+00 -0.45556644373E+01  0.39299471548E+02  0.51100000000E-03 0. -1.
        -11    1    3    3    0    0 -0.48031298211E+00 -0.98947233614E+01  0.47933281639E+01  0.11005100913E+02  0.51100000000E-03 0.  1.
        -12    1    3    3    0    0 -0.38665793371E+02  0.90139903225E+01 -0.23747262864E+00  0.39703299508E+02  0.00000000000E+00 0.  1.
</event>
<event>
 7    1  0.2000468E-015  0.9000769E+02  0.7816164E-02  0.1186339E+00
        -11   -1    0    0    0    0  0.00000000000E+00  0.00000000000E+00  0.45593999997E+02  0.45594000000E+02  0.51100000000E-03 0. -1.
         11   -1    0    0    0    0 -0.00000000000E+00 -0.00000000000E+00 -0.45593999997E+02  0.45594000000E+02  0.51100000000E-03 0.  1.
    9900012    2    1    2    0    0  0.10861366767E+01  0.34294731996E+00 -0.30955350046E+00  0.90007691094E+02  0.89999951816E+02 0.  0.
         12    1    1    2    0    0 -0.10861366767E+01 -0.34294731996E+00  0.30955350046E+00  0.11803089063E+01  0.00000000000E+00 0. -1.
         11    1    3    3    0    0 -0.22861250408E+01  0.72674355452E+00  0.95512353467E+01  0.98478739231E+01  0.51100000000E-03 0. -1.
        -11    1    3    3    0    0  0.26234619335E+01 -0.39815623403E+02 -0.20480417907E+01  0.39954485291E+02  0.51100000000E-03 0.  1.
         12    1    3    3    0    0  0.74879978400E+00  0.39431827168E+02 -0.78127470564E+01  0.40205331879E+02  0.00000000000E+00 0. -1.
</event>
<event>
 7    1  0.2000468E-015  0.9000774E+02  0.7816164E-02  0.1186339E+00
        -11   -1    0    0    0    0  0.00000000000E+00  0.00000000000E+00  0.45593999997E+02  0.45594000000E+02  0.51100000000E-03 0. -1.
         11   -1    0    0    0    0 -0.00000000000E+00 -0.00000000000E+00 -0.45593999997E+02  0.45594000000E+02  0.51100000000E-03 0.  1.
    9900012    2    1    2    0    0 -0.10266692562E+01 -0.22947590390E+00 -0.53507837717E+00  0.90007738240E+02  0.89999999585E+02 0.  0.
         12    1    1    2    0    0  0.10266692562E+01  0.22947590390E+00  0.53507837717E+00  0.11802617599E+01  0.00000000000E+00 0. -1.
         11    1    3    3    0    0  0.12495235966E+02  0.29361847569E+02  0.17459287217E+02  0.36374107891E+02  0.51100000000E-03 0. -1.
        -11    1    3    3    0    0  0.13018965263E+02 -0.49165461833E+01 -0.79557068467E+01  0.16029945558E+02  0.51100000000E-03 0.  1.
        -12    1    3    3    0    0 -0.26540870486E+02 -0.24674777289E+02 -0.10038658747E+02  0.37603684791E+02  0.00000000000E+00 0.  1.
</event>
<event>
 7    1  0.2000468E-015  0.9000774E+02  0.7816164E-02  0.1186339E+00
        -11   -1    0    0    0    0  0.00000000000E+00  0.00000000000E+00  0.45593999997E+02  0.45594000000E+02  0.51100000000E-03 0. -1.
         11   -1    0    0    0    0 -0.00000000000E+00 -0.00000000000E+00 -0.45593999997E+02  0.45594000000E+02  0.51100000000E-03 0.  1.
    9900012    2    1    2    0    0 -0.62592156696E+00 -0.31799558929E+00  0.94874817252E+00  0.90007736429E+02  0.89999997750E+02 0.  0.
         12    1    1    2    0    0  0.62592156696E+00  0.31799558929E+00 -0.94874817252E+00  0.11802635713E+01  0.00000000000E+00 0. -1.
         11    1    3    3    0    0  0.12075502062E+02  0.28324470601E+02  0.20112398188E+02  0.36777737097E+02  0.51100000000E-03 0. -1.
        -11    1    3    3    0    0  0.65097116920E+01  0.51420349449E+01  0.25912068391E+01  0.86908700849E+01  0.51100000000E-03 0.  1.
        -12    1    3    3    0    0 -0.19211135321E+02 -0.33784501135E+02 -0.21754856855E+02  0.44539129246E+02  0.00000000000E+00 0.  1.
</event>
<event>
 7    1  0.2000468E-015  0.9000774E+02  0.7816164E-02  0.1186339E+00
        -11   -1    0    0    0    0  0.00000000000E+00  0.00000000000E+00  0.45593999997E+02  0.45594000000E+02  0.51100000000E-03 0. -1.
         11   -1    0    0    0    0 -0.00000000000E+00 -0.00000000000E+00 -0.45593999997E+02  0.45594000000E+02  0.51100000000E-03 0.  1.
    9900012    2    1    2    0    0 -0.55361959954E+00 -0.10369608081E+01 -0.10594943257E+00  0.90007742545E+02  0.90000003946E+02 0.  0.
         12    1    1    2    0    0  0.55361959954E+00  0.10369608081E+01  0.10594943257E+00  0.11802574553E+01  0.00000000000E+00 0. -1.
         11    1    3    3    0    0  0.50427630156E+01  0.52193645930E+01 -0.41158267498E+01  0.83433360043E+01  0.51100000000E-03 0. -1.
        -11    1    3    3    0    0  0.18967382363E+02  0.26349000908E+02 -0.16008031474E+02  0.36197907599E+02  0.51100000000E-03 0.  1.
         12    1    3    3    0    0 -0.24563764978E+02 -0.32605326309E+02  0.20017908791E+02  0.45466498942E+02  0.00000000000E+00 0. -1.
</event>
<event>
 7    1  0.2000468E-015  0.9000775E+02  0.7816164E-02  0.1186339E+00
        -11   -1    0    0    0    0  0.00000000000E+00  0.00000000000E+00  0.45593999997E+02  0.45594000000E+02  0.51100000000E-03 0. -1.
         11   -1    0    0    0    0 -0.00000000000E+00 -0.00000000000E+00 -0.45593999997E+02  0.45594000000E+02  0.51100000000E-03 0.  1.
    9900012    2    1    2    0    0 -0.34666808857E-03  0.98558178941E+00 -0.64931874662E+00  0.90007751544E+02  0.90000013064E+02 0.  0.
         12    1    1    2    0    0  0.34666808857E-03 -0.98558178941E+00  0.64931874662E+00  0.11802484563E+01  0.00000000000E+00 0. -1.
         11    1    3    3    0    0  0.64609142352E+01  0.77268482955E+01  0.24906421449E+01  0.10375494971E+02  0.51100000000E-03 0. -1.
        -11    1    3    3    0    0  0.21426408414E+02  0.27207858739E+02 -0.76499250179E+01  0.35466602709E+02  0.51100000000E-03 0.  1.
         12    1    3    3    0    0 -0.27887669317E+02 -0.33949125245E+02  0.45099641264E+01  0.44165653864E+02  0.00000000000E+00 0. -1.
</event>
<event>
 7    1  0.2000468E-015  0.9000771E+02  0.7816164E-02  0.1186339E+00
        -11   -1    0    0    0    0  0.00000000000E+00  0.00000000000E+00  0.45593999997E+02  0.45594000000E+02  0.51100000000E-03 0.  1.
         11   -1    0    0    0    0 -0.00000000000E+00 -0.00000000000E+00 -0.45593999997E+02  0.45594000000E+02  0.51100000000E-03 0. -1.
    9900012    2    1    2    0    0  0.86832939660E+00  0.79893165382E+00  0.28059837588E-01  0.90007713983E+02  0.89999975007E+02 0.  0.
         12    1    1    2    0    0 -0.86832939660E+00 -0.79893165382E+00 -0.28059837588E-01  0.11802860174E+01  0.00000000000E+00 0. -1.
         11    1    3    3    0    0 -0.46201982207E+01  0.41451330056E+01 -0.42613270280E+01  0.75290947353E+01  0.51100000000E-03 0. -1.
        -11    1    3    3    0    0 -0.20825781525E+02  0.70874116253E+01  0.34602554183E+02  0.41003430782E+02  0.51100000000E-03 0.  1.
         12    1    3    3    0    0  0.26314309142E+02 -0.10433612977E+02 -0.30313167317E+02  0.41475188465E+02  0.00000000000E+00 0. -1.
</event>
<event>
 7    1  0.2000468E-015  0.9000792E+02  0.7816164E-02  0.1186339E+00
        -11   -1    0    0    0    0  0.00000000000E+00  0.00000000000E+00  0.45593999997E+02  0.45594000000E+02  0.51100000000E-03 0.  1.
         11   -1    0    0    0    0 -0.00000000000E+00 -0.00000000000E+00 -0.45593999997E+02  0.45594000000E+02  0.51100000000E-03 0. -1.
    9900012    2    1    2    0    0 -0.60141223124E+00  0.10030150151E+01 -0.15763079577E+00  0.90007922350E+02  0.90000186125E+02 0.  0.
         12    1    1    2    0    0  0.60141223124E+00 -0.10030150151E+01  0.15763079577E+00  0.11800776500E+01  0.00000000000E+00 0. -1.
         11    1    3    3    0    0  0.71715417004E+01  0.55538984345E+01  0.14535035245E+01  0.91863741998E+01  0.51100000000E-03 0. -1.
        -11    1    3    3    0    0 -0.30665625728E+02 -0.22560295254E+01  0.29175820049E+02  0.42387483368E+02  0.51100000000E-03 0.  1.
         12    1    3    3    0    0  0.22892671796E+02 -0.22948538941E+01 -0.30786954369E+02  0.38434064782E+02  0.00000000000E+00 0. -1.
</event>
<event>
 7    1  0.2000468E-015  0.9000778E+02  0.7816164E-02  0.1186339E+00
        -11   -1    0    0    0    0  0.00000000000E+00  0.00000000000E+00  0.45593999997E+02  0.45594000000E+02  0.51100000000E-03 0. -1.
         11   -1    0    0    0    0 -0.00000000000E+00 -0.00000000000E+00 -0.45593999997E+02  0.45594000000E+02  0.51100000000E-03 0.  1.
    9900012    2    1    2    0    0 -0.47739168966E+00  0.15999362349E+00 -0.10674338785E+01  0.90007781431E+02  0.90000043346E+02 0.  0.
         12    1    1    2    0    0  0.47739168966E+00 -0.15999362349E+00  0.10674338785E+01  0.11802185687E+01  0.00000000000E+00 0. -1.
         11    1    3    3    0    0 -0.13519253522E+02 -0.14176357114E+01 -0.33795188265E+02  0.36426565264E+02  0.51100000000E-03 0. -1.
        -11    1    3    3    0    0  0.48398380434E+00 -0.33598326215E+01 -0.90567276634E+01  0.96719714535E+01  0.51100000000E-03 0.  1.
        -12    1    3    3    0    0  0.12557878028E+02  0.49374619564E+01  0.41784482050E+02  0.43909244714E+02  0.00000000000E+00 0.  1.
</event>
<event>
 7    1  0.2000468E-015  0.9000747E+02  0.7816164E-02  0.1186340E+00
        -11   -1    0    0    0    0  0.00000000000E+00  0.00000000000E+00  0.45593999997E+02  0.45594000000E+02  0.51100000000E-03 0. -1.
         11   -1    0    0    0    0 -0.00000000000E+00 -0.00000000000E+00 -0.45593999997E+02  0.45594000000E+02  0.51100000000E-03 0.  1.
    9900012    2    1    2    0    0 -0.30853662675E+00 -0.10495542872E+01 -0.44373692085E+00  0.90007465584E+02  0.89999723330E+02 0.  0.
         12    1    1    2    0    0  0.30853662675E+00  0.10495542872E+01  0.44373692085E+00  0.11805344157E+01  0.00000000000E+00 0. -1.
         11    1    3    3    0    0 -0.78059105211E+01  0.19203050868E+02  0.29727516563E+02  0.36241062940E+02  0.51100000000E-03 0. -1.
        -11    1    3    3    0    0 -0.83048845966E+01 -0.36080129404E+01  0.60471331447E+01  0.10888373849E+02  0.51100000000E-03 0.  1.
        -12    1    3    3    0    0  0.15802258491E+02 -0.16644592215E+02 -0.36218386629E+02  0.42878028796E+02  0.00000000000E+00 0.  1.
</event>
<event>
 7    1  0.2000468E-015  0.9000766E+02  0.7816164E-02  0.1186339E+00
        -11   -1    0    0    0    0  0.00000000000E+00  0.00000000000E+00  0.45593999997E+02  0.45594000000E+02  0.51100000000E-03 0.  1.
         11   -1    0    0    0    0 -0.00000000000E+00 -0.00000000000E+00 -0.45593999997E+02  0.45594000000E+02  0.51100000000E-03 0. -1.
    9900012    2    1    2    0    0 -0.88347502456E+00  0.43046102540E+00 -0.65374772386E+00  0.90007656448E+02  0.89999916713E+02 0.  0.
         12    1    1    2    0    0  0.88347502456E+00 -0.43046102540E+00  0.65374772386E+00  0.11803435516E+01  0.00000000000E+00 0. -1.
         11    1    3    3    0    0 -0.55236469688E+01  0.49266201830E+01  0.48610600976E+01  0.88550645281E+01  0.51100000000E-03 0. -1.
        -11    1    3    3    0    0  0.31501782886E+02  0.12193861102E+02  0.21092559704E+02  0.39823970781E+02  0.51100000000E-03 0.  1.
         12    1    3    3    0    0 -0.26861610942E+02 -0.16690020259E+02 -0.26607367526E+02  0.41328621140E+02  0.00000000000E+00 0. -1.
</event>
<event>
 7    1  0.2000468E-015  0.9000770E+02  0.7816164E-02  0.1186339E+00
        -11   -1    0    0    0    0  0.00000000000E+00  0.00000000000E+00  0.45593999997E+02  0.45594000000E+02  0.51100000000E-03 0. -1.
         11   -1    0    0    0    0 -0.00000000000E+00 -0.00000000000E+00 -0.45593999997E+02  0.45594000000E+02  0.51100000000E-03 0.  1.
    9900012    2    1    2    0    0 -0.92513649593E+00  0.33564780173E+00 -0.65159605450E+00  0.90007697326E+02  0.89999958131E+02 0.  0.
         12    1    1    2    0    0  0.92513649593E+00 -0.33564780173E+00  0.65159605450E+00  0.11803026735E+01  0.00000000000E+00 0. -1.
         11    1    3    3    0    0  0.15860945448E+01  0.84483544758E+01 -0.61520690117E+01  0.10570635867E+02  0.51100000000E-03 0. -1.
        -11    1    3    3    0    0  0.41457443814E+01  0.34973069794E+02 -0.16547505798E+01  0.35256786681E+02  0.51100000000E-03 0.  1.
         12    1    3    3    0    0 -0.66569754222E+01 -0.43085776468E+02  0.71552235370E+01  0.44180274778E+02  0.00000000000E+00 0. -1.
</event>
<event>
 7    1  0.2000468E-015  0.9000822E+02  0.7816164E-02  0.1186338E+00
        -11   -1    0    0    0    0  0.00000000000E+00  0.00000000000E+00  0.45593999997E+02  0.45594000000E+02  0.51100000000E-03 0.  1.
         11   -1    0    0    0    0 -0.00000000000E+00 -0.00000000000E+00 -0.45593999997E+02  0.45594000000E+02  0.51100000000E-03 0. -1.
    9900012    2    1    2    0    0  0.78768664693E+00  0.24331446294E+00  0.84392968309E+00  0.90008224813E+02  0.90000492579E+02 0.  0.
         12    1    1    2    0    0 -0.78768664693E+00 -0.24331446294E+00 -0.84392968309E+00  0.11797751869E+01  0.00000000000E+00 0. -1.
         11    1    3    3    0    0  0.64849883919E+01  0.20074422376E+02 -0.33590194722E+02  0.39665333603E+02  0.51100000000E-03 0. -1.
        -11    1    3    3    0    0  0.10903150770E+02 -0.30966635061E+01  0.43881164797E+01  0.12154159291E+02  0.51100000000E-03 0.  1.
        -12    1    3    3    0    0 -0.16600452515E+02 -0.16734444407E+02  0.30046007925E+02  0.38188731918E+02  0.00000000000E+00 0.  1.
</event>
<event>
 7    1  0.2000468E-015  0.9000769E+02  0.7816164E-02  0.1186339E+00
        -11   -1    0    0    0    0  0.00000000000E+00  0.00000000000E+00  0.45593999997E+02  0.45594000000E+02  0.51100000000E-03 0. -1.
         11   -1    0    0    0    0 -0.00000000000E+00 -0.00000000000E+00 -0.45593999997E+02  0.45594000000E+02  0.51100000000E-03 0.  1.
    9900012    2    1    2    0    0  0.32639473208E+00  0.95794499139E+00  0.60739655420E+00  0.90007693810E+02  0.89999954568E+02 0.  0.
         12    1    1    2    0    0 -0.32639473208E+00 -0.95794499139E+00 -0.60739655420E+00  0.11803061898E+01  0.00000000000E+00 0. -1.
         11    1    3    3    0    0 -0.10405332486E+02  0.25553810439E+01 -0.17206057462E+01  0.10851792516E+02  0.51100000000E-03 0. -1.
        -11    1    3    3    0    0 -0.30237587591E+02  0.88305798762E+01 -0.13150986900E+02  0.34135601664E+02  0.51100000000E-03 0.  1.
         12    1    3    3    0    0  0.40969314809E+02 -0.10428015929E+02  0.15478989200E+02  0.45020299630E+02  0.00000000000E+00 0. -1.
</event>
<event>
 7    1  0.2000468E-015  0.9000761E+02  0.7816164E-02  0.1186339E+00
        -11   -1    0    0    0    0  0.00000000000E+00  0.00000000000E+00  0.45593999997E+02  0.45594000000E+02  0.51100000000E-03 0.  1.
         11   -1    0    0    0    0 -0.00000000000E+00 -0.00000000000E+00 -0.45593999997E+02  0.45594000000E+02  0.51100000000E-03 0. -1.
    9900012    2    1    2    0    0  0.55208839287E+00 -0.76888210416E+00  0.70522722816E+00  0.90007607384E+02  0.89999867002E+02 0.  0.
         12    1    1    2    0    0 -0.55208839287E+00  0.76888210416E+00 -0.70522722816E+00  0.11803926156E+01  0.00000000000E+00 0. -1.
         11    1    3    3    0    0 -0.10031685429E+02 -0.16098933694E+01  0.72537871722E+01  0.12483745343E+02  0.51100000000E-03 0. -1.
        -11    1    3    3    0    0  0.40332579983E+02  0.37829113507E+01  0.12114765562E+02  0.42282324573E+02  0.51100000000E-03 0.  1.
         12    1    3    3    0    0 -0.29748806162E+02 -0.29419000854E+01 -0.18663325506E+02  0.35241537468E+02  0.00000000000E+00 0. -1.
</event>
<event>
 7    1  0.2000468E-015  0.9000772E+02  0.7816164E-02  0.1186339E+00
        -11   -1    0    0    0    0  0.00000000000E+00  0.00000000000E+00  0.45593999997E+02  0.45594000000E+02  0.51100000000E-03 0.  1.
         11   -1    0    0    0    0 -0.00000000000E+00 -0.00000000000E+00 -0.45593999997E+02  0.45594000000E+02  0.51100000000E-03 0. -1.
    9900012    2    1    2    0    0 -0.11133387957E+01 -0.62601671726E-01  0.38680416241E+00  0.90007720498E+02  0.89999981608E+02 0.  0.
         12    1    1    2    0    0  0.11133387957E+01  0.62601671726E-01 -0.38680416241E+00  0.11802795022E+01  0.00000000000E+00 0. -1.
         11    1    3    3    0    0 -0.26895990172E+02 -0.26726173245E+01 -0.13574930884E+02  0.30245924014E+02  0.51100000000E-03 0. -1.
        -11    1    3    3    0    0 -0.87470914952E+01  0.17965653124E+02  0.79078140827E+01  0.21489760949E+02  0.51100000000E-03 0.  1.
        -12    1    3    3    0    0  0.34529742872E+02 -0.15355637472E+02  0.60539209633E+01  0.38272035535E+02  0.00000000000E+00 0.  1.
</event>
<event>
 7    1  0.2000468E-015  0.9000779E+02  0.7816164E-02  0.1186339E+00
        -11   -1    0    0    0    0  0.00000000000E+00  0.00000000000E+00  0.45593999997E+02  0.45594000000E+02  0.51100000000E-03 0.  1.
         11   -1    0    0    0    0 -0.00000000000E+00 -0.00000000000E+00 -0.45593999997E+02  0.45594000000E+02  0.51100000000E-03 0. -1.
    9900012    2    1    2    0    0 -0.99657413816E+00  0.29205670324E+00  0.56075103207E+00  0.90007788641E+02  0.90000050652E+02 0.  0.
         12    1    1    2    0    0  0.99657413816E+00 -0.29205670324E+00 -0.56075103207E+00  0.11802113585E+01  0.00000000000E+00 0. -1.
         11    1    3    3    0    0 -0.12795225545E+02 -0.53132423829E+01 -0.74925001054E+01  0.15750742823E+02  0.51100000000E-03 0. -1.
        -11    1    3    3    0    0  0.15228154389E+02 -0.56120606361E+01  0.38418045678E+02  0.41705373091E+02  0.51100000000E-03 0.  1.
         12    1    3    3    0    0 -0.34295029815E+01  0.11217359722E+02 -0.30364794541E+02  0.32551672727E+02  0.00000000000E+00 0. -1.
</event>
<event>
 7    1  0.2000468E-015  0.9000786E+02  0.7816164E-02  0.1186339E+00
        -11   -1    0    0    0    0  0.00000000000E+00  0.00000000000E+00  0.45593999997E+02  0.45594000000E+02  0.51100000000E-03 0.  1.
         11   -1    0    0    0    0 -0.00000000000E+00 -0.00000000000E+00 -0.45593999997E+02  0.45594000000E+02  0.51100000000E-03 0. -1.
    9900012    2    1    2    0    0  0.11232188848E+01 -0.13240745750E+00  0.33702035308E+00  0.90007858010E+02  0.90000120936E+02 0.  0.
         12    1    1    2    0    0 -0.11232188848E+01  0.13240745750E+00 -0.33702035308E+00  0.11801419899E+01  0.00000000000E+00 0. -1.
         11    1    3    3    0    0 -0.12712874746E+01  0.44675343415E+01  0.64552345637E+01  0.79526780690E+01  0.51100000000E-03 0. -1.
        -11    1    3    3    0    0  0.38643788320E+02  0.94620583164E+01 -0.14382795470E+02  0.42305291975E+02  0.51100000000E-03 0.  1.
         12    1    3    3    0    0 -0.36249281961E+02 -0.14062000115E+02  0.82645812597E+01  0.39749887966E+02  0.00000000000E+00 0. -1.
</event>
<event>
 7    1  0.2357503E-015  0.9000773E+02  0.7816164E-02  0.1186339E+00
        -11   -1    0    0    0    0  0.00000000000E+00  0.00000000000E+00  0.45593999997E+02  0.45594000000E+02  0.51100000000E-03 0.  1.
         11   -1    0    0    0    0 -0.00000000000E+00 -0.00000000000E+00 -0.45593999997E+02  0.45594000000E+02  0.51100000000E-03 0. -1.
    9900012    2    1    2    0    0 -0.59463097492E+00 -0.89899449389E+00 -0.48088440414E+00  0.90007734392E+02  0.89999995686E+02 0.  0.
         12    1    1    2    0    0  0.59463097492E+00  0.89899449389E+00  0.48088440414E+00  0.11802656085E+01  0.00000000000E+00 0. -1.
         11    1    3    3    0    0 -0.31884511914E+02  0.21145175005E+02 -0.23625573944E+01  0.38331738856E+02  0.51100000000E-03 0. -1.
        -11    1    3    3    0    0  0.17543335329E+01  0.81272806844E+01 -0.36747455592E+01  0.90903318231E+01  0.51100000000E-03 0.  1.
        -12    1    3    3    0    0  0.29535547406E+02 -0.30171450183E+02  0.55564185495E+01  0.42585663713E+02  0.00000000000E+00 0.  1.
</event>
<event>
 7    1  0.2000468E-015  0.9000772E+02  0.7816164E-02  0.1186339E+00
        -11   -1    0    0    0    0  0.00000000000E+00  0.00000000000E+00  0.45593999997E+02  0.45594000000E+02  0.51100000000E-03 0. -1.
         11   -1    0    0    0    0 -0.00000000000E+00 -0.00000000000E+00 -0.45593999997E+02  0.45594000000E+02  0.51100000000E-03 0.  1.
    9900012    2    1    2    0    0 -0.34434400502E+00  0.28924053579E+00 -0.10912489650E+01  0.90007721565E+02  0.89999982689E+02 0.  0.
         12    1    1    2    0    0  0.34434400502E+00 -0.28924053579E+00  0.10912489650E+01  0.11802784353E+01  0.00000000000E+00 0. -1.
         11    1    3    3    0    0 -0.80378213533E+01  0.42636560548E+01  0.31584566006E+01  0.96312607388E+01  0.51100000000E-03 0. -1.
        -11    1    3    3    0    0  0.18724053158E+02 -0.32587499435E+02 -0.23352181721E+02  0.44247708161E+02  0.51100000000E-03 0.  1.
         12    1    3    3    0    0 -0.11030575809E+02  0.28613083916E+02  0.19102476155E+02  0.36128752665E+02  0.00000000000E+00 0. -1.
</event>
<event>
 7    1  0.2638826E-015  0.9000747E+02  0.7816164E-02  0.1186340E+00
        -11   -1    0    0    0    0  0.00000000000E+00  0.00000000000E+00  0.45593999997E+02  0.45594000000E+02  0.51100000000E-03 0.  1.
         11   -1    0    0    0    0 -0.00000000000E+00 -0.00000000000E+00 -0.45593999997E+02  0.45594000000E+02  0.51100000000E-03 0. -1.
    9900012    2    1    2    0    0  0.10986659403E+01  0.42987092202E+00 -0.42481917220E-01  0.90007465980E+02  0.89999723731E+02 0.  0.
         12    1    1    2    0    0 -0.10986659403E+01 -0.42987092202E+00  0.42481917220E-01  0.11805340195E+01  0.00000000000E+00 0. -1.
         11    1    3    3    0    0  0.38835287022E+02  0.95186425993E+00 -0.11363499424E+02  0.40474864831E+02  0.51100000000E-03 0. -1.
        -11    1    3    3    0    0  0.23103419110E+01  0.16073002980E+01  0.89242341722E+01  0.93575130144E+01  0.51100000000E-03 0.  1.
        -12    1    3    3    0    0 -0.40046962993E+02 -0.21292936359E+01  0.23967833348E+01  0.40175088135E+02  0.00000000000E+00 0.  1.
</event>
<event>
 7    1  0.2000468E-015  0.9000776E+02  0.7816164E-02  0.1186339E+00
        -11   -1    0    0    0    0  0.00000000000E+00  0.00000000000E+00  0.45593999997E+02  0.45594000000E+02  0.51100000000E-03 0. -1.
         11   -1    0    0    0    0 -0.00000000000E+00 -0.00000000000E+00 -0.45593999997E+02  0.45594000000E+02  0.51100000000E-03 0.  1.
    9900012    2    1    2    0    0 -0.27224106960E+00  0.81231025869E+00 -0.81178592052E+00  0.90007762932E+02  0.90000024603E+02 0.  0.
         12    1    1    2    0    0  0.27224106960E+00 -0.81231025869E+00  0.81178592052E+00  0.11802370682E+01  0.00000000000E+00 0. -1.
         11    1    3    3    0    0 -0.32732854422E+02  0.15927183855E+02 -0.12096684509E+02  0.38359415018E+02  0.51100000000E-03 0. -1.
        -11    1    3    3    0    0 -0.45626699656E+01 -0.37086579793E+01 -0.67192472638E+01  0.89286272895E+01  0.51100000000E-03 0.  1.
        -12    1    3    3    0    0  0.37023283318E+02 -0.11406215617E+02  0.18004145852E+02  0.42719720624E+02  0.00000000000E+00 0.  1.
</event>
<event>
 7    1  0.2000468E-015  0.9000751E+02  0.7816164E-02  0.1186339E+00
        -11   -1    0    0    0    0  0.00000000000E+00  0.00000000000E+00  0.45593999997E+02  0.45594000000E+02  0.51100000000E-03 0.  1.
         11   -1    0    0    0    0 -0.00000000000E+00 -0.00000000000E+00 -0.45593999997E+02  0.45594000000E+02  0.51100000000E-03 0. -1.
    9900012    2    1    2    0    0  0.10914251812E+01 -0.28987529367E+00 -0.34396282594E+00  0.90007514067E+02  0.89999772453E+02 0.  0.
         12    1    1    2    0    0 -0.10914251812E+01  0.28987529367E+00  0.34396282594E+00  0.11804859329E+01  0.00000000000E+00 0. -1.
         11    1    3    3    0    0 -0.27775473059E+01 -0.88289557375E+01 -0.30717306306E+01  0.97519617401E+01  0.51100000000E-03 0. -1.
        -11    1    3    3    0    0 -0.24066048534E+02 -0.24950272813E+02 -0.74863769858E+01  0.35464582983E+02  0.51100000000E-03 0.  1.
         12    1    3    3    0    0  0.27935021021E+02  0.33489353257E+02  0.10214144790E+02  0.44790969345E+02  0.00000000000E+00 0. -1.
</event>
<event>
 7    1  0.2000468E-015  0.9000760E+02  0.7816164E-02  0.1186339E+00
        -11   -1    0    0    0    0  0.00000000000E+00  0.00000000000E+00  0.45593999997E+02  0.45594000000E+02  0.51100000000E-03 0. -1.
         11   -1    0    0    0    0 -0.00000000000E+00 -0.00000000000E+00 -0.45593999997E+02  0.45594000000E+02  0.51100000000E-03 0.  1.
    9900012    2    1    2    0    0  0.77129211288E+00 -0.73337007684E+00  0.51050062663E+00  0.90007604269E+02  0.89999863845E+02 0.  0.
         12    1    1    2    0    0 -0.77129211288E+00  0.73337007684E+00 -0.51050062663E+00  0.11803957314E+01  0.00000000000E+00 0. -1.
         11    1    3    3    0    0  0.19673606290E+01 -0.71825193822E+01  0.88973362739E+01  0.11602658555E+02  0.51100000000E-03 0. -1.
        -11    1    3    3    0    0  0.18767546591E+02  0.24510712479E+02  0.21924763934E+02  0.37864113684E+02  0.51100000000E-03 0.  1.
         12    1    3    3    0    0 -0.19963615107E+02 -0.18061563173E+02 -0.30311599581E+02  0.40540832029E+02  0.00000000000E+00 0. -1.
</event>
<event>
 7    1  0.2000468E-015  0.9000777E+02  0.7816164E-02  0.1186339E+00
        -11   -1    0    0    0    0  0.00000000000E+00  0.00000000000E+00  0.45593999997E+02  0.45594000000E+02  0.51100000000E-03 0.  1.
         11   -1    0    0    0    0 -0.00000000000E+00 -0.00000000000E+00 -0.45593999997E+02  0.45594000000E+02  0.51100000000E-03 0. -1.
    9900012    2    1    2    0    0  0.29935124924E+00  0.44941290426E+00  0.10494516241E+01  0.90007774665E+02  0.90000036491E+02 0.  0.
         12    1    1    2    0    0 -0.29935124924E+00 -0.44941290426E+00 -0.10494516241E+01  0.11802253345E+01  0.00000000000E+00 0. -1.
         11    1    3    3    0    0 -0.74601051939E+01 -0.20762205505E+01 -0.25092005686E+01  0.81400214393E+01  0.51100000000E-03 0. -1.
        -11    1    3    3    0    0 -0.31135101858E+01  0.33751675000E+02 -0.21711152299E+02  0.40252250190E+02  0.51100000000E-03 0.  1.
         12    1    3    3    0    0  0.10872966629E+02 -0.31226041545E+02  0.25269804492E+02  0.41615503036E+02  0.00000000000E+00 0. -1.
</event>
<event>
 7    1  0.2000468E-015  0.9000774E+02  0.7816164E-02  0.1186339E+00
        -11   -1    0    0    0    0  0.00000000000E+00  0.00000000000E+00  0.45593999997E+02  0.45594000000E+02  0.51100000000E-03 0.  1.
         11   -1    0    0    0    0 -0.00000000000E+00 -0.00000000000E+00 -0.45593999997E+02  0.45594000000E+02  0.51100000000E-03 0. -1.
    9900012    2    1    2    0    0  0.54645611112E-01 -0.11118756466E+01 -0.39211205442E+00  0.90007743477E+02  0.90000004891E+02 0.  0.
         12    1    1    2    0    0 -0.54645611112E-01  0.11118756466E+01  0.39211205442E+00  0.11802565227E+01  0.00000000000E+00 0. -1.
         11    1    3    3    0    0 -0.26302507203E+02 -0.11407706164E+02 -0.24498217650E+02  0.37711010506E+02  0.51100000000E-03 0. -1.
        -11    1    3    3    0    0 -0.89867602762E+01 -0.15667999414E+01  0.44163290949E+01  0.10135121373E+02  0.51100000000E-03 0.  1.
        -12    1    3    3    0    0  0.35343913090E+02  0.11862630459E+02  0.19689776500E+02  0.42161611598E+02  0.00000000000E+00 0.  1.
</event>
<event>
 7    1  0.2000468E-015  0.9000778E+02  0.7816164E-02  0.1186339E+00
        -11   -1    0    0    0    0  0.00000000000E+00  0.00000000000E+00  0.45593999997E+02  0.45594000000E+02  0.51100000000E-03 0.  1.
         11   -1    0    0    0    0 -0.00000000000E+00 -0.00000000000E+00 -0.45593999997E+02  0.45594000000E+02  0.51100000000E-03 0. -1.
    9900012    2    1    2    0    0  0.11164845982E+01  0.37067829172E+00  0.94736342676E-01  0.90007781703E+02  0.90000043621E+02 0.  0.
         12    1    1    2    0    0 -0.11164845982E+01 -0.37067829172E+00 -0.94736342676E-01  0.11802182970E+01  0.00000000000E+00 0. -1.
         11    1    3    3    0    0 -0.27384721956E+02 -0.19662587858E+02 -0.22034296327E+02  0.40274688985E+02  0.51100000000E-03 0. -1.
        -11    1    3    3    0    0  0.13097432693E+01  0.71044843045E+01 -0.53346391623E+01  0.89803953096E+01  0.51100000000E-03 0.  1.
        -12    1    3    3    0    0  0.27191463285E+02  0.12928781846E+02  0.27463671832E+02  0.40752697409E+02  0.00000000000E+00 0.  1.
</event>
<event>
 7    1  0.2000468E-015  0.9000780E+02  0.7816164E-02  0.1186339E+00
        -11   -1    0    0    0    0  0.00000000000E+00  0.00000000000E+00  0.45593999997E+02  0.45594000000E+02  0.51100000000E-03 0.  1.
         11   -1    0    0    0    0 -0.00000000000E+00 -0.00000000000E+00 -0.45593999997E+02  0.45594000000E+02  0.51100000000E-03 0. -1.
    9900012    2    1    2    0    0  0.18648111689E+00 -0.51698795217E+00  0.10444270815E+01  0.90007796764E+02  0.90000058881E+02 0.  0.
         12    1    1    2    0    0 -0.18648111689E+00  0.51698795217E+00 -0.10444270815E+01  0.11802032360E+01  0.00000000000E+00 0. -1.
         11    1    3    3    0    0  0.79754109180E+00 -0.24903629439E+01 -0.83184759159E+01  0.87198062599E+01  0.51100000000E-03 0. -1.
        -11    1    3    3    0    0  0.18345278635E+02 -0.34501212268E+02  0.93635035747E+01  0.40181564126E+02  0.51100000000E-03 0.  1.
         12    1    3    3    0    0 -0.18956338610E+02  0.36474587259E+02 -0.60057730059E-03  0.41106426378E+02  0.00000000000E+00 0. -1.
</event>
<event>
 7    1  0.2000468E-015  0.9000743E+02  0.7816164E-02  0.1186340E+00
        -11   -1    0    0    0    0  0.00000000000E+00  0.00000000000E+00  0.45593999997E+02  0.45594000000E+02  0.51100000000E-03 0. -1.
         11   -1    0    0    0    0 -0.00000000000E+00 -0.00000000000E+00 -0.45593999997E+02  0.45594000000E+02  0.51100000000E-03 0.  1.
    9900012    2    1    2    0    0  0.76342779966E+00  0.89793095550E+00 -0.68184292772E-01  0.90007427637E+02  0.89999684881E+02 0.  0.
         12    1    1    2    0    0 -0.76342779966E+00 -0.89793095550E+00  0.68184292772E-01  0.11805723629E+01  0.00000000000E+00 0. -1.
         11    1    3    3    0    0 -0.53847059882E+01 -0.19411496398E+02  0.31372889564E+02  0.37283501054E+02  0.51100000000E-03 0. -1.
        -11    1    3    3    0    0 -0.71816482550E+01  0.38557440038E+01  0.57165534734E+01  0.99559940417E+01  0.51100000000E-03 0.  1.
        -12    1    3    3    0    0  0.13329782043E+02  0.16453683350E+02 -0.37157627330E+02  0.42767932542E+02  0.00000000000E+00 0.  1.
</event>
<event>
 7    1  0.2000468E-015  0.9000776E+02  0.7816164E-02  0.1186339E+00
        -11   -1    0    0    0    0  0.00000000000E+00  0.00000000000E+00  0.45593999997E+02  0.45594000000E+02  0.51100000000E-03 0. -1.
         11   -1    0    0    0    0 -0.00000000000E+00 -0.00000000000E+00 -0.45593999997E+02  0.45594000000E+02  0.51100000000E-03 0.  1.
    9900012    2    1    2    0    0 -0.69293894444E+00 -0.28555108700E+00 -0.91173877073E+00  0.90007757910E+02  0.90000019515E+02 0.  0.
         12    1    1    2    0    0  0.69293894444E+00  0.28555108700E+00  0.91173877073E+00  0.11802420896E+01  0.00000000000E+00 0. -1.
         11    1    3    3    0    0  0.33843833381E+02 -0.19623271323E+02 -0.18432285484E+02  0.43246121026E+02  0.51100000000E-03 0. -1.
        -11    1    3    3    0    0 -0.39685461794E+01  0.10324450228E+02  0.17318568556E+01  0.11195667007E+02  0.51100000000E-03 0.  1.
        -12    1    3    3    0    0 -0.30568226146E+02  0.90132700077E+01  0.15788689858E+02  0.35565969878E+02  0.00000000000E+00 0.  1.
</event>
<event>
 7    1  0.2000468E-015  0.9000779E+02  0.7816164E-02  0.1186339E+00
        -11   -1    0    0    0    0  0.00000000000E+00  0.00000000000E+00  0.45593999997E+02  0.45594000000E+02  0.51100000000E-03 0.  1.
         11   -1    0    0    0    0 -0.00000000000E+00 -0.00000000000E+00 -0.45593999997E+02  0.45594000000E+02  0.51100000000E-03 0. -1.
    9900012    2    1    2    0    0 -0.41062351556E+00  0.11003088525E+01  0.11665288728E+00  0.90007788520E+02  0.90000050528E+02 0.  0.
         12    1    1    2    0    0  0.41062351556E+00 -0.11003088525E+01 -0.11665288728E+00  0.11802114804E+01  0.00000000000E+00 0. -1.
         11    1    3    3    0    0 -0.11677322244E+02 -0.17477025313E+02 -0.29160832209E+02  0.35946632721E+02  0.51100000000E-03 0. -1.
        -11    1    3    3    0    0 -0.64696300299E+01  0.37047017994E+01 -0.75198727271E+01  0.10589117727E+02  0.51100000000E-03 0.  1.
        -12    1    3    3    0    0  0.17736328758E+02  0.14872632366E+02  0.36797357823E+02  0.43472038072E+02  0.00000000000E+00 0.  1.
</event>
<event>
 7    1  0.2000468E-015  0.9000770E+02  0.7816164E-02  0.1186339E+00
        -11   -1    0    0    0    0  0.00000000000E+00  0.00000000000E+00  0.45593999997E+02  0.45594000000E+02  0.51100000000E-03 0.  1.
         11   -1    0    0    0    0 -0.00000000000E+00 -0.00000000000E+00 -0.45593999997E+02  0.45594000000E+02  0.51100000000E-03 0. -1.
    9900012    2    1    2    0    0  0.24710772333E+00 -0.10839682222E+01  0.39630674214E+00  0.90007699882E+02  0.89999960721E+02 0.  0.
         12    1    1    2    0    0 -0.24710772333E+00  0.10839682222E+01 -0.39630674214E+00  0.11803001176E+01  0.00000000000E+00 0. -1.
         11    1    3    3    0    0  0.24702801838E+01 -0.80730302281E+01  0.54961630343E+01  0.10073922256E+02  0.51100000000E-03 0. -1.
        -11    1    3    3    0    0  0.35014682962E+02  0.33688525141E+01 -0.19050865891E+02  0.40003908330E+02  0.51100000000E-03 0.  1.
         12    1    3    3    0    0 -0.37237855423E+02  0.36202094917E+01  0.13951009599E+02  0.39929869297E+02  0.00000000000E+00 0. -1.
</event>
<event>
 7    1  0.2000468E-015  0.9000725E+02  0.7816164E-02  0.1186340E+00
        -11   -1    0    0    0    0  0.00000000000E+00  0.00000000000E+00  0.45593999997E+02  0.45594000000E+02  0.51100000000E-03 0. -1.
         11   -1    0    0    0    0 -0.00000000000E+00 -0.00000000000E+00 -0.45593999997E+02  0.45594000000E+02  0.51100000000E-03 0.  1.
    9900012    2    1    2    0    0 -0.61875384089E+00 -0.25755272435E+00 -0.97210425575E+00  0.90007247526E+02  0.89999502392E+02 0.  0.
         12    1    1    2    0    0  0.61875384089E+00  0.25755272435E+00  0.97210425575E+00  0.11807524743E+01  0.00000000000E+00 0. -1.
         11    1    3    3    0    0  0.63883842366E+01 -0.28056799041E+02  0.29986026059E+01  0.28930728359E+02  0.51100000000E-03 0. -1.
        -11    1    3    3    0    0 -0.29002373707E+02  0.61731013684E+01  0.17532571408E+01  0.29703851131E+02  0.51100000000E-03 0.  1.
         12    1    3    3    0    0  0.21995235630E+02  0.21626144948E+02 -0.57239640025E+01  0.31372668035E+02  0.00000000000E+00 0. -1.
</event>
<event>
 7    1  0.2000468E-015  0.9000797E+02  0.7816164E-02  0.1186339E+00
        -11   -1    0    0    0    0  0.00000000000E+00  0.00000000000E+00  0.45593999997E+02  0.45594000000E+02  0.51100000000E-03 0. -1.
         11   -1    0    0    0    0 -0.00000000000E+00 -0.00000000000E+00 -0.45593999997E+02  0.45594000000E+02  0.51100000000E-03 0.  1.
    9900012    2    1    2    0    0 -0.31521316652E+00  0.10481860513E+01  0.44093962064E+00  0.90007965641E+02  0.90000229988E+02 0.  0.
         12    1    1    2    0    0  0.31521316652E+00 -0.10481860513E+01 -0.44093962064E+00  0.11800343587E+01  0.00000000000E+00 0. -1.
         11    1    3    3    0    0  0.29366381422E+02 -0.98868204041E+01  0.21083745545E+02  0.37478766015E+02  0.51100000000E-03 0. -1.
        -11    1    3    3    0    0  0.17669383449E+01 -0.57917724938E+01  0.56298040247E+01  0.82680949046E+01  0.51100000000E-03 0.  1.
        -12    1    3    3    0    0 -0.31448532934E+02  0.16726778949E+02 -0.26272609949E+02  0.44261104722E+02  0.00000000000E+00 0.  1.
</event>
<event>
 7    1  0.2084850E-015  0.9000773E+02  0.7816164E-02  0.1186339E+00
        -11   -1    0    0    0    0  0.00000000000E+00  0.00000000000E+00  0.45593999997E+02  0.45594000000E+02  0.51100000000E-03 0. -1.
         11   -1    0    0    0    0 -0.00000000000E+00 -0.00000000000E+00 -0.45593999997E+02  0.45594000000E+02  0.51100000000E-03 0.  1.
    9900012    2    1    2    0    0 -0.47265057322E+00 -0.68934571514E+00 -0.83333353884E+00  0.90007728478E+02  0.89999989694E+02 0.  0.
         12    1    1    2    0    0  0.47265057322E+00  0.68934571514E+00  0.83333353884E+00  0.11802715223E+01  0.00000000000E+00 0. -1.
         11    1    3    3    0    0  0.13607687778E+02  0.31807949528E+02  0.12493296398E+02  0.36783111274E+02  0.51100000000E-03 0. -1.
        -11    1    3    3    0    0 -0.77543913379E+00  0.81270698139E+01 -0.52901870188E+01  0.97281369524E+01  0.51100000000E-03 0.  1.
        -12    1    3    3    0    0 -0.13304899217E+02 -0.40624365057E+02 -0.80364429181E+01  0.43496480251E+02  0.00000000000E+00 0.  1.
</event>
<event>
 7    1  0.2000468E-015  0.9000775E+02  0.7816164E-02  0.1186339E+00
        -11   -1    0    0    0    0  0.00000000000E+00  0.00000000000E+00  0.45593999997E+02  0.45594000000E+02  0.51100000000E-03 0.  1.
         11   -1    0    0    0    0 -0.00000000000E+00 -0.00000000000E+00 -0.45593999997E+02  0.45594000000E+02  0.51100000000E-03 0. -1.
    9900012    2    1    2    0    0  0.78567301492E+00 -0.82081807594E+00 -0.31933146427E+00  0.90007747068E+02  0.90000008529E+02 0.  0.
         12    1    1    2    0    0 -0.78567301492E+00  0.82081807594E+00  0.31933146427E+00  0.11802529323E+01  0.00000000000E+00 0. -1.
         11    1    3    3    0    0 -0.18951188264E+01 -0.10604904161E+02 -0.70760517007E+01  0.12888986600E+02  0.51100000000E-03 0. -1.
        -11    1    3    3    0    0  0.28274622189E+02 -0.22077694679E+02  0.13944878339E+01  0.35900187449E+02  0.51100000000E-03 0.  1.
         12    1    3    3    0    0 -0.25593830348E+02  0.31861780765E+02  0.53622324025E+01  0.41218573019E+02  0.00000000000E+00 0. -1.
</event>
<event>
 7    1  0.2000468E-015  0.9000773E+02  0.7816164E-02  0.1186339E+00
        -11   -1    0    0    0    0  0.00000000000E+00  0.00000000000E+00  0.45593999997E+02  0.45594000000E+02  0.51100000000E-03 0.  1.
         11   -1    0    0    0    0 -0.00000000000E+00 -0.00000000000E+00 -0.45593999997E+02  0.45594000000E+02  0.51100000000E-03 0. -1.
    9900012    2    1    2    0    0  0.62881208568E+00 -0.32074179899E+00  0.94591296186E+00  0.90007732542E+02  0.89999993812E+02 0.  0.
         12    1    1    2    0    0 -0.62881208568E+00  0.32074179899E+00 -0.94591296186E+00  0.11802674579E+01  0.00000000000E+00 0. -1.
         11    1    3    3    0    0 -0.65660488756E+00 -0.20256116941E+02 -0.52877292967E+01  0.20945201954E+02  0.51100000000E-03 0. -1.
        -11    1    3    3    0    0  0.29067236222E+02  0.18418264511E+02  0.18022124870E+02  0.38844995485E+02  0.51100000000E-03 0.  1.
         12    1    3    3    0    0 -0.27781819248E+02  0.15171106314E+01 -0.11788482611E+02  0.30217535103E+02  0.00000000000E+00 0. -1.
</event>
<event>
 7    1  0.2000468E-015  0.9000716E+02  0.7816164E-02  0.1186340E+00
        -11   -1    0    0    0    0  0.00000000000E+00  0.00000000000E+00  0.45593999997E+02  0.45594000000E+02  0.51100000000E-03 0. -1.
         11   -1    0    0    0    0 -0.00000000000E+00 -0.00000000000E+00 -0.45593999997E+02  0.45594000000E+02  0.51100000000E-03 0.  1.
    9900012    2    1    2    0    0 -0.54907629593E+00  0.58552914080E+00 -0.86605347652E+00  0.90007162256E+02  0.89999415996E+02 0.  0.
         12    1    1    2    0    0  0.54907629593E+00 -0.58552914080E+00  0.86605347652E+00  0.11808377440E+01  0.00000000000E+00 0. -1.
         11    1    3    3    0    0  0.78473295738E+01  0.32711326214E+02  0.14429484818E+02  0.36603571908E+02  0.51100000000E-03 0. -1.
        -11    1    3    3    0    0 -0.38108099630E+01  0.46465245096E+01  0.77181957681E+01  0.97817692044E+01  0.51100000000E-03 0.  1.
        -12    1    3    3    0    0 -0.45855959068E+01 -0.36772321582E+02 -0.23013734062E+02  0.43621821143E+02  0.00000000000E+00 0.  1.
</event>
<event>
 7    1  0.2000468E-015  0.9000769E+02  0.7816164E-02  0.1186339E+00
        -11   -1    0    0    0    0  0.00000000000E+00  0.00000000000E+00  0.45593999997E+02  0.45594000000E+02  0.51100000000E-03 0.  1.
         11   -1    0    0    0    0 -0.00000000000E+00 -0.00000000000E+00 -0.45593999997E+02  0.45594000000E+02  0.51100000000E-03 0. -1.
    9900012    2    1    2    0    0  0.53848188857E+00 -0.19850381579E+00  0.10313844685E+01  0.90007694772E+02  0.89999955543E+02 0.  0.
         12    1    1    2    0    0 -0.53848188857E+00  0.19850381579E+00 -0.10313844685E+01  0.11803052279E+01  0.00000000000E+00 0. -1.
         11    1    3    3    0    0  0.58553162966E+01  0.16473384223E+02 -0.54041804827E+01  0.18299242707E+02  0.51100000000E-03 0. -1.
        -11    1    3    3    0    0  0.15190426787E+02  0.21224489809E+02  0.11109733989E+02  0.28366427748E+02  0.51100000000E-03 0.  1.
         12    1    3    3    0    0 -0.20507261195E+02 -0.37896377847E+02 -0.46741690382E+01  0.43342024317E+02  0.00000000000E+00 0. -1.
</event>
<event>
 7    1  0.2000468E-015  0.9000771E+02  0.7816164E-02  0.1186339E+00
        -11   -1    0    0    0    0  0.00000000000E+00  0.00000000000E+00  0.45593999997E+02  0.45594000000E+02  0.51100000000E-03 0.  1.
         11   -1    0    0    0    0 -0.00000000000E+00 -0.00000000000E+00 -0.45593999997E+02  0.45594000000E+02  0.51100000000E-03 0. -1.
    9900012    2    1    2    0    0  0.11077457300E+01  0.40598504148E+00  0.34083391959E-01  0.90007709301E+02  0.89999970264E+02 0.  0.
         12    1    1    2    0    0 -0.11077457300E+01 -0.40598504148E+00 -0.34083391959E-01  0.11802906989E+01  0.00000000000E+00 0. -1.
         11    1    3    3    0    0  0.18010044191E+01  0.70724958824E+01  0.56482394712E+01  0.92285656691E+01  0.51100000000E-03 0. -1.
        -11    1    3    3    0    0 -0.25360237092E+02 -0.26964565483E+02  0.17895937074E+02  0.41115617240E+02  0.51100000000E-03 0.  1.
         12    1    3    3    0    0  0.24666978403E+02  0.20298054642E+02 -0.23510093153E+02  0.39663526392E+02  0.00000000000E+00 0. -1.
</event>
<event>
 7    1  0.2921990E-015  0.9000774E+02  0.7816164E-02  0.1186339E+00
        -11   -1    0    0    0    0  0.00000000000E+00  0.00000000000E+00  0.45593999997E+02  0.45594000000E+02  0.51100000000E-03 0. -1.
         11   -1    0    0    0    0 -0.00000000000E+00 -0.00000000000E+00 -0.45593999997E+02  0.45594000000E+02  0.51100000000E-03 0.  1.
    9900012    2    1    2    0    0  0.87100420526E-01 -0.56309948177E-01 -0.11756927347E+01  0.90007741257E+02  0.90000002642E+02 0.  0.
         12    1    1    2    0    0 -0.87100420526E-01  0.56309948177E-01  0.11756927347E+01  0.11802587428E+01  0.00000000000E+00 0. -1.
         11    1    3    3    0    0 -0.25181730772E+01  0.18049222343E+02  0.33969151089E+02  0.38548915015E+02  0.51100000000E-03 0. -1.
        -11    1    3    3    0    0 -0.33366798515E+01  0.84936078453E+01 -0.37019327002E+01  0.98477973496E+01  0.51100000000E-03 0.  1.
        -12    1    3    3    0    0  0.59419533492E+01 -0.26599140137E+02 -0.31442911124E+02  0.41611028893E+02  0.00000000000E+00 0.  1.
</event>
<event>
 7    1  0.2000468E-015  0.9000771E+02  0.7816164E-02  0.1186339E+00
        -11   -1    0    0    0    0  0.00000000000E+00  0.00000000000E+00  0.45593999997E+02  0.45594000000E+02  0.51100000000E-03 0. -1.
         11   -1    0    0    0    0 -0.00000000000E+00 -0.00000000000E+00 -0.45593999997E+02  0.45594000000E+02  0.51100000000E-03 0.  1.
    9900012    2    1    2    0    0 -0.10921694530E+00 -0.72096048688E+00 -0.92809773375E+00  0.90007712845E+02  0.89999973855E+02 0.  0.
         12    1    1    2    0    0  0.10921694530E+00  0.72096048688E+00  0.92809773375E+00  0.11802871550E+01  0.00000000000E+00 0. -1.
         11    1    3    3    0    0 -0.32913395541E+01 -0.17148304951E+01 -0.95031452947E+01  0.10202123820E+02  0.51100000000E-03 0. -1.
        -11    1    3    3    0    0 -0.37102025431E+02 -0.75923665027E+01  0.74080483739E+00  0.37878135015E+02  0.51100000000E-03 0.  1.
         12    1    3    3    0    0  0.40284148039E+02  0.85862365109E+01  0.78342427235E+01  0.41927454010E+02  0.00000000000E+00 0. -1.
</event>
<event>
 7    1  0.2000468E-015  0.9000779E+02  0.7816164E-02  0.1186339E+00
        -11   -1    0    0    0    0  0.00000000000E+00  0.00000000000E+00  0.45593999997E+02  0.45594000000E+02  0.51100000000E-03 0.  1.
         11   -1    0    0    0    0 -0.00000000000E+00 -0.00000000000E+00 -0.45593999997E+02  0.45594000000E+02  0.51100000000E-03 0. -1.
    9900012    2    1    2    0    0 -0.10711375821E+01  0.46139788144E+00 -0.18073810854E+00  0.90007792396E+02  0.90000054456E+02 0.  0.
         12    1    1    2    0    0  0.10711375821E+01 -0.46139788144E+00  0.18073810854E+00  0.11802076040E+01  0.00000000000E+00 0. -1.
         11    1    3    3    0    0 -0.37861176538E+02 -0.12747919679E+02 -0.13649059219E+02  0.42216998505E+02  0.51100000000E-03 0. -1.
        -11    1    3    3    0    0  0.12697731243E+02 -0.55357009007E+01 -0.12382815743E+01  0.13907181767E+02  0.51100000000E-03 0.  1.
        -12    1    3    3    0    0  0.24092307713E+02  0.18745018461E+02  0.14706602685E+02  0.33883612124E+02  0.00000000000E+00 0.  1.
</event>
<event>
 7    1  0.2000468E-015  0.9000786E+02  0.7816164E-02  0.1186339E+00
        -11   -1    0    0    0    0  0.00000000000E+00  0.00000000000E+00  0.45593999997E+02  0.45594000000E+02  0.51100000000E-03 0.  1.
         11   -1    0    0    0    0 -0.00000000000E+00 -0.00000000000E+00 -0.45593999997E+02  0.45594000000E+02  0.51100000000E-03 0. -1.
    9900012    2    1    2    0    0 -0.99434179837E+00 -0.34157418482E+00  0.53603534652E+00  0.90007863386E+02  0.90000126382E+02 0.  0.
         12    1    1    2    0    0  0.99434179837E+00  0.34157418482E+00 -0.53603534652E+00  0.11801366143E+01  0.00000000000E+00 0. -1.
         11    1    3    3    0    0 -0.29786129514E+02  0.16771413734E+02  0.11278410711E+02  0.35995782788E+02  0.51100000000E-03 0. -1.
        -11    1    3    3    0    0 -0.96077498754E+01 -0.96575246698E+01 -0.77043709817E+00  0.13644420618E+02  0.51100000000E-03 0.  1.
        -12    1    3    3    0    0  0.38399537591E+02 -0.74554632493E+01 -0.99719382664E+01  0.40367659980E+02  0.00000000000E+00 0.  1.
</event>
<event>
 7    1  0.2000468E-015  0.9000770E+02  0.7816164E-02  0.1186339E+00
        -11   -1    0    0    0    0  0.00000000000E+00  0.00000000000E+00  0.45593999997E+02  0.45594000000E+02  0.51100000000E-03 0. -1.
         11   -1    0    0    0    0 -0.00000000000E+00 -0.00000000000E+00 -0.45593999997E+02  0.45594000000E+02  0.51100000000E-03 0.  1.
    9900012    2    1    2    0    0 -0.88863994198E+00 -0.77502824235E+00  0.52514263878E-01  0.90007700262E+02  0.89999961106E+02 0.  0.
         12    1    1    2    0    0  0.88863994198E+00  0.77502824235E+00 -0.52514263878E-01  0.11802997377E+01  0.00000000000E+00 0. -1.
         11    1    3    3    0    0  0.82226761438E+01  0.37278349098E+01  0.45446576137E+01  0.10107574841E+02  0.51100000000E-03 0. -1.
        -11    1    3    3    0    0  0.17095324441E+02 -0.65603875890E+01 -0.35078252979E+02  0.39569845026E+02  0.51100000000E-03 0.  1.
         12    1    3    3    0    0 -0.26206640526E+02  0.20575244368E+01  0.30586109629E+02  0.40330280395E+02  0.00000000000E+00 0. -1.
</event>
<event>
 7    1  0.2000468E-015  0.9000778E+02  0.7816164E-02  0.1186339E+00
        -11   -1    0    0    0    0  0.00000000000E+00  0.00000000000E+00  0.45593999997E+02  0.45594000000E+02  0.51100000000E-03 0. -1.
         11   -1    0    0    0    0 -0.00000000000E+00 -0.00000000000E+00 -0.45593999997E+02  0.45594000000E+02  0.51100000000E-03 0.  1.
    9900012    2    1    2    0    0  0.24595884947E+00  0.11203378339E+01 -0.27797356999E+00  0.90007778867E+02  0.90000040748E+02 0.  0.
         12    1    1    2    0    0 -0.24595884947E+00 -0.11203378339E+01  0.27797356999E+00  0.11802211332E+01  0.00000000000E+00 0. -1.
         11    1    3    3    0    0 -0.30309439219E+01 -0.91794895010E+01  0.35013254767E+00  0.96732746068E+01  0.51100000000E-03 0. -1.
        -11    1    3    3    0    0  0.41043873308E+01 -0.33238341058E+02  0.11020458349E+02  0.35257393751E+02  0.51100000000E-03 0.  1.
         12    1    3    3    0    0 -0.82748455944E+00  0.43538168393E+02 -0.11648564467E+02  0.45077110509E+02  0.00000000000E+00 0. -1.
</event>
<event>
 7    1  0.2000468E-015  0.9000749E+02  0.7816164E-02  0.1186340E+00
        -11   -1    0    0    0    0  0.00000000000E+00  0.00000000000E+00  0.45593999997E+02  0.45594000000E+02  0.51100000000E-03 0.  1.
         11   -1    0    0    0    0 -0.00000000000E+00 -0.00000000000E+00 -0.45593999997E+02  0.45594000000E+02  0.51100000000E-03 0. -1.
    9900012    2    1    2    0    0  0.94958815506E+00  0.32916860163E+00  0.61930239421E+00  0.90007489480E+02  0.89999747541E+02 0.  0.
         12    1    1    2    0    0 -0.94958815506E+00 -0.32916860163E+00 -0.61930239421E+00  0.11805105201E+01  0.00000000000E+00 0. -1.
         11    1    3    3    0    0  0.48986425216E+01 -0.51038171812E+01  0.54108033158E+01  0.89063146788E+01  0.51100000000E-03 0. -1.
        -11    1    3    3    0    0  0.31687848400E+01 -0.28000653768E+02  0.23528753897E+02  0.36710762305E+02  0.51100000000E-03 0.  1.
         12    1    3    3    0    0 -0.71178392066E+01  0.33433639551E+02 -0.28320254819E+02  0.44390412496E+02  0.00000000000E+00 0. -1.
</event>
<event>
 7    1  0.2000468E-015  0.9000775E+02  0.7816164E-02  0.1186339E+00
        -11   -1    0    0    0    0  0.00000000000E+00  0.00000000000E+00  0.45593999997E+02  0.45594000000E+02  0.51100000000E-03 0.  1.
         11   -1    0    0    0    0 -0.00000000000E+00 -0.00000000000E+00 -0.45593999997E+02  0.45594000000E+02  0.51100000000E-03 0. -1.
    9900012    2    1    2    0    0 -0.17564112595E+00 -0.96952080045E+00 -0.64974492977E+00  0.90007750509E+02  0.90000012016E+02 0.  0.
         12    1    1    2    0    0  0.17564112595E+00  0.96952080045E+00  0.64974492977E+00  0.11802494912E+01  0.00000000000E+00 0. -1.
         11    1    3    3    0    0 -0.78787344005E+01 -0.29805554759E+02  0.23162970451E+02  0.38561233780E+02  0.51100000000E-03 0. -1.
        -11    1    3    3    0    0  0.48373969741E+01 -0.30063168674E+01  0.56120247660E+01  0.79958222108E+01  0.51100000000E-03 0.  1.
        -12    1    3    3    0    0  0.28656963004E+01  0.31842350826E+02 -0.29424740147E+02  0.43450694518E+02  0.00000000000E+00 0.  1.
</event>
<event>
 7    1  0.2000468E-015  0.9000775E+02  0.7816164E-02  0.1186339E+00
        -11   -1    0    0    0    0  0.00000000000E+00  0.00000000000E+00  0.45593999997E+02  0.45594000000E+02  0.51100000000E-03 0. -1.
         11   -1    0    0    0    0 -0.00000000000E+00 -0.00000000000E+00 -0.45593999997E+02  0.45594000000E+02  0.51100000000E-03 0.  1.
    9900012    2    1    2    0    0  0.12868995707E+00 -0.29824012410E+00 -0.11346749177E+01  0.90007747720E+02  0.90000009189E+02 0.  0.
         12    1    1    2    0    0 -0.12868995707E+00  0.29824012410E+00  0.11346749177E+01  0.11802522804E+01  0.00000000000E+00 0. -1.
         11    1    3    3    0    0  0.15024163383E+01  0.56975802665E+01  0.94146284805E+01  0.11106525354E+02  0.51100000000E-03 0. -1.
        -11    1    3    3    0    0 -0.16284594875E+01  0.33135276488E+02  0.10069175802E+02  0.34669680267E+02  0.51100000000E-03 0.  1.
         12    1    3    3    0    0  0.25473310625E+00 -0.39131096879E+02 -0.20618479200E+02  0.44231542098E+02  0.00000000000E+00 0. -1.
</event>
<event>
 7    1  0.2000468E-015  0.9000777E+02  0.7816164E-02  0.1186339E+00
        -11   -1    0    0    0    0  0.00000000000E+00  0.00000000000E+00  0.45593999997E+02  0.45594000000E+02  0.51100000000E-03 0.  1.
         11   -1    0    0    0    0 -0.00000000000E+00 -0.00000000000E+00 -0.45593999997E+02  0.45594000000E+02  0.51100000000E-03 0. -1.
    9900012    2    1    2    0    0 -0.46154086400E-01  0.11213397138E+01  0.36525113430E+00  0.90007770639E+02  0.90000032411E+02 0.  0.
         12    1    1    2    0    0  0.46154086400E-01 -0.11213397138E+01 -0.36525113430E+00  0.11802293609E+01  0.00000000000E+00 0. -1.
         11    1    3    3    0    0  0.56897812338E+01 -0.18043283155E+02 -0.37250645436E+02  0.41779711143E+02  0.51100000000E-03 0. -1.
        -11    1    3    3    0    0  0.82709974722E+01  0.34855572824E+01  0.89160515613E+01  0.12651264145E+02  0.51100000000E-03 0.  1.
        -12    1    3    3    0    0 -0.14006932792E+02  0.15679065587E+02  0.28699845009E+02  0.35576795351E+02  0.00000000000E+00 0.  1.
</event>
<event>
 7    1  0.2000468E-015  0.9000771E+02  0.7816164E-02  0.1186339E+00
        -11   -1    0    0    0    0  0.00000000000E+00  0.00000000000E+00  0.45593999997E+02  0.45594000000E+02  0.51100000000E-03 0.  1.
         11   -1    0    0    0    0 -0.00000000000E+00 -0.00000000000E+00 -0.45593999997E+02  0.45594000000E+02  0.51100000000E-03 0. -1.
    9900012    2    1    2    0    0  0.84967848702E+00  0.81107092297E+00 -0.11530315111E+00  0.90007710040E+02  0.89999971012E+02 0.  0.
         12    1    1    2    0    0 -0.84967848702E+00 -0.81107092297E+00  0.11530315111E+00  0.11802899602E+01  0.00000000000E+00 0. -1.
         11    1    3    3    0    0  0.16709121699E+02 -0.30123064087E+02 -0.47449602104E+01  0.34772235844E+02  0.51100000000E-03 0. -1.
        -11    1    3    3    0    0  0.50190336546E+01 -0.85316129706E+01  0.37311204233E+01  0.10578297527E+02  0.51100000000E-03 0.  1.
        -12    1    3    3    0    0 -0.20878476867E+02  0.39465747980E+02  0.89853663601E+00  0.44657176668E+02  0.00000000000E+00 0.  1.
</event>
<event>
 7    1  0.2000468E-015  0.9000769E+02  0.7816164E-02  0.1186339E+00
        -11   -1    0    0    0    0  0.00000000000E+00  0.00000000000E+00  0.45593999997E+02  0.45594000000E+02  0.51100000000E-03 0.  1.
         11   -1    0    0    0    0 -0.00000000000E+00 -0.00000000000E+00 -0.45593999997E+02  0.45594000000E+02  0.51100000000E-03 0. -1.
    9900012    2    1    2    0    0 -0.48679194482E+00 -0.78880413853E+00  0.73072601930E+00  0.90007686956E+02  0.89999947624E+02 0.  0.
         12    1    1    2    0    0  0.48679194482E+00  0.78880413853E+00 -0.73072601930E+00  0.11803130440E+01  0.00000000000E+00 0. -1.
         11    1    3    3    0    0  0.25298311968E+01  0.90455299100E+01  0.43083801897E+01  0.10333624599E+02  0.51100000000E-03 0. -1.
        -11    1    3    3    0    0  0.30721422504E+02  0.11777071902E+02  0.14207285456E+02  0.35837859640E+02  0.51100000000E-03 0.  1.
         12    1    3    3    0    0 -0.33738045646E+02 -0.21611405951E+02 -0.17784939626E+02  0.43836202717E+02  0.00000000000E+00 0. -1.
</event>
<event>
 7    1  0.2000468E-015  0.9000787E+02  0.7816164E-02  0.1186339E+00
        -11   -1    0    0    0    0  0.00000000000E+00  0.00000000000E+00  0.45593999997E+02  0.45594000000E+02  0.51100000000E-03 0. -1.
         11   -1    0    0    0    0 -0.00000000000E+00 -0.00000000000E+00 -0.45593999997E+02  0.45594000000E+02  0.51100000000E-03 0.  1.
    9900012    2    1    2    0    0 -0.83268587068E+00 -0.35216710215E+00 -0.75849312801E+00  0.90007873205E+02  0.90000136331E+02 0.  0.
         12    1    1    2    0    0  0.83268587068E+00  0.35216710215E+00  0.75849312801E+00  0.11801267950E+01  0.00000000000E+00 0. -1.
         11    1    3    3    0    0  0.58463073117E+01  0.81286461361E+01  0.34188486842E+00  0.10018536955E+02  0.51100000000E-03 0. -1.
        -11    1    3    3    0    0  0.27034656713E+02 -0.27441402174E+02 -0.11003258074E+02  0.40062138053E+02  0.51100000000E-03 0.  1.
         12    1    3    3    0    0 -0.33713649895E+02  0.18960588936E+02  0.99028800773E+01  0.39927198197E+02  0.00000000000E+00 0. -1.
</event>
<event>
 7    1  0.2000468E-015  0.9000855E+02  0.7816164E-02  0.1186337E+00
        -11   -1    0    0    0    0  0.00000000000E+00  0.00000000000E+00  0.45593999997E+02  0.45594000000E+02  0.51100000000E-03 0. -1.
         11   -1    0    0    0    0 -0.00000000000E+00 -0.00000000000E+00 -0.45593999997E+02  0.45594000000E+02  0.51100000000E-03 0.  1.
    9900012    2    1    2    0    0  0.76608039416E+00 -0.84323838358E+00 -0.30525823536E+00  0.90008545579E+02  0.90000817577E+02 0.  0.
         12    1    1    2    0    0 -0.76608039416E+00  0.84323838358E+00  0.30525823536E+00  0.11794544214E+01  0.00000000000E+00 0. -1.
         11    1    3    3    0    0 -0.34314111347E+02 -0.49977159071E+01  0.86553616880E+01  0.35740043201E+02  0.51100000000E-03 0. -1.
        -11    1    3    3    0    0 -0.65867793406E+01 -0.79832342303E+00  0.67486051868E+01  0.94639661135E+01  0.51100000000E-03 0.  1.
        -12    1    3    3    0    0  0.41666971081E+02  0.49528009466E+01 -0.15709225110E+02  0.44804536264E+02  0.00000000000E+00 0.  1.
</event>
<event>
 7    1  0.2000468E-015  0.9000761E+02  0.7816164E-02  0.1186339E+00
        -11   -1    0    0    0    0  0.00000000000E+00  0.00000000000E+00  0.45593999997E+02  0.45594000000E+02  0.51100000000E-03 0.  1.
         11   -1    0    0    0    0 -0.00000000000E+00 -0.00000000000E+00 -0.45593999997E+02  0.45594000000E+02  0.51100000000E-03 0. -1.
    9900012    2    1    2    0    0  0.60852816523E+00 -0.49062679221E+00  0.88447246754E+00  0.90007613316E+02  0.89999873012E+02 0.  0.
         12    1    1    2    0    0 -0.60852816523E+00  0.49062679221E+00 -0.88447246754E+00  0.11803866837E+01  0.00000000000E+00 0. -1.
         11    1    3    3    0    0  0.31959474135E+02 -0.14477282302E+02 -0.20461149696E+02  0.40615986224E+02  0.51100000000E-03 0. -1.
        -11    1    3    3    0    0  0.33008263547E+01  0.89137968906E+01  0.40441288929E+01  0.10329869718E+02  0.51100000000E-03 0.  1.
        -12    1    3    3    0    0 -0.34651772324E+02  0.50728586196E+01  0.17301493270E+02  0.39061757374E+02  0.00000000000E+00 0.  1.
</event>
<event>
 7    1  0.2000468E-015  0.9000762E+02  0.7816164E-02  0.1186339E+00
        -11   -1    0    0    0    0  0.00000000000E+00  0.00000000000E+00  0.45593999997E+02  0.45594000000E+02  0.51100000000E-03 0.  1.
         11   -1    0    0    0    0 -0.00000000000E+00 -0.00000000000E+00 -0.45593999997E+02  0.45594000000E+02  0.51100000000E-03 0. -1.
    9900012    2    1    2    0    0 -0.27669015130E+00  0.40926442596E+00  0.10720248701E+01  0.90007622038E+02  0.89999881849E+02 0.  0.
         12    1    1    2    0    0  0.27669015130E+00 -0.40926442596E+00 -0.10720248701E+01  0.11803779616E+01  0.00000000000E+00 0. -1.
         11    1    3    3    0    0  0.20806965046E+02  0.21764500438E+01 -0.32940865755E+02  0.39022651962E+02  0.51100000000E-03 0. -1.
        -11    1    3    3    0    0 -0.97897908063E+01 -0.11676578661E+01 -0.45059635327E+01  0.10840070874E+02  0.51100000000E-03 0.  1.
        -12    1    3    3    0    0 -0.11293864391E+02 -0.59952775176E+00  0.38518854157E+02  0.40144899203E+02  0.00000000000E+00 0.  1.
</event>
<event>
 7    1  0.2000468E-015  0.9000776E+02  0.7816164E-02  0.1186339E+00
        -11   -1    0    0    0    0  0.00000000000E+00  0.00000000000E+00  0.45593999997E+02  0.45594000000E+02  0.51100000000E-03 0. -1.
         11   -1    0    0    0    0 -0.00000000000E+00 -0.00000000000E+00 -0.45593999997E+02  0.45594000000E+02  0.51100000000E-03 0.  1.
    9900012    2    1    2    0    0  0.41006062402E+00 -0.58492105298E+00 -0.93951045597E+00  0.90007761782E+02  0.90000023438E+02 0.  0.
         12    1    1    2    0    0 -0.41006062402E+00  0.58492105298E+00  0.93951045597E+00  0.11802382177E+01  0.00000000000E+00 0. -1.
         11    1    3    3    0    0  0.46041365852E+01 -0.86582614041E+01  0.34950986082E+01  0.10410536911E+02  0.51100000000E-03 0. -1.
        -11    1    3    3    0    0 -0.22841833581E+02 -0.29598229115E+02 -0.35251352098E+01  0.37553043906E+02  0.51100000000E-03 0.  1.
         12    1    3    3    0    0  0.18647757620E+02  0.37671569466E+02 -0.90947385431E+00  0.42044180965E+02  0.00000000000E+00 0. -1.
</event>
<event>
 7    1  0.2000468E-015  0.9000770E+02  0.7816164E-02  0.1186339E+00
        -11   -1    0    0    0    0  0.00000000000E+00  0.00000000000E+00  0.45593999997E+02  0.45594000000E+02  0.51100000000E-03 0.  1.
         11   -1    0    0    0    0 -0.00000000000E+00 -0.00000000000E+00 -0.45593999997E+02  0.45594000000E+02  0.51100000000E-03 0. -1.
    9900012    2    1    2    0    0 -0.38453434126E+00 -0.11150003392E+01  0.44871209451E-01  0.90007700953E+02  0.89999961805E+02 0.  0.
         12    1    1    2    0    0  0.38453434126E+00  0.11150003392E+01 -0.44871209451E-01  0.11802990475E+01  0.00000000000E+00 0. -1.
         11    1    3    3    0    0 -0.40235083413E+01  0.69598230695E+01  0.47762832609E+01  0.93509699273E+01  0.51100000000E-03 0. -1.
        -11    1    3    3    0    0 -0.28882797023E+02 -0.93740627174E+01  0.22843155057E+02  0.37998667726E+02  0.51100000000E-03 0.  1.
         12    1    3    3    0    0  0.32521771023E+02  0.12992393087E+01 -0.27574567109E+02  0.42658063300E+02  0.00000000000E+00 0. -1.
</event>
<event>
 7    1  0.2000468E-015  0.9000813E+02  0.7816164E-02  0.1186338E+00
        -11   -1    0    0    0    0  0.00000000000E+00  0.00000000000E+00  0.45593999997E+02  0.45594000000E+02  0.51100000000E-03 0.  1.
         11   -1    0    0    0    0 -0.00000000000E+00 -0.00000000000E+00 -0.45593999997E+02  0.45594000000E+02  0.51100000000E-03 0. -1.
    9900012    2    1    2    0    0  0.48615836141E+00 -0.57966002970E+00  0.90539128490E+00  0.90008131753E+02  0.90000398291E+02 0.  0.
         12    1    1    2    0    0 -0.48615836141E+00  0.57966002970E+00 -0.90539128490E+00  0.11798682474E+01  0.00000000000E+00 0. -1.
         11    1    3    3    0    0  0.38465207293E+00 -0.26266847910E+01  0.94727592568E+01  0.98377130679E+01  0.51100000000E-03 0. -1.
        -11    1    3    3    0    0  0.10277667659E+02  0.68131397065E+01  0.33988401720E+02  0.36156061413E+02  0.51100000000E-03 0.  1.
         12    1    3    3    0    0 -0.10176161371E+02 -0.47661149452E+01 -0.42555769692E+02  0.44014357271E+02  0.00000000000E+00 0. -1.
</event>
<event>
 7    1  0.2000468E-015  0.9000774E+02  0.7816164E-02  0.1186339E+00
        -11   -1    0    0    0    0  0.00000000000E+00  0.00000000000E+00  0.45593999997E+02  0.45594000000E+02  0.51100000000E-03 0.  1.
         11   -1    0    0    0    0 -0.00000000000E+00 -0.00000000000E+00 -0.45593999997E+02  0.45594000000E+02  0.51100000000E-03 0. -1.
    9900012    2    1    2    0    0 -0.68398126960E+00  0.34347372474E+00  0.89844707644E+00  0.90007740823E+02  0.90000002201E+02 0.  0.
         12    1    1    2    0    0  0.68398126960E+00 -0.34347372474E+00 -0.89844707644E+00  0.11802591774E+01  0.00000000000E+00 0. -1.
         11    1    3    3    0    0 -0.24724421375E+02  0.23816881842E+02 -0.16213557542E+02  0.37966041688E+02  0.51100000000E-03 0. -1.
        -11    1    3    3    0    0 -0.12534045007E+00  0.14568344916E+01  0.17259218553E+02  0.17321047955E+02  0.51100000000E-03 0.  1.
        -12    1    3    3    0    0  0.24165780555E+02 -0.24930242609E+02 -0.14721393382E+00  0.34720651179E+02  0.00000000000E+00 0.  1.
</event>
<event>
 7    1  0.2000468E-015  0.9000810E+02  0.7816164E-02  0.1186338E+00
        -11   -1    0    0    0    0  0.00000000000E+00  0.00000000000E+00  0.45593999997E+02  0.45594000000E+02  0.51100000000E-03 0. -1.
         11   -1    0    0    0    0 -0.00000000000E+00 -0.00000000000E+00 -0.45593999997E+02  0.45594000000E+02  0.51100000000E-03 0.  1.
    9900012    2    1    2    0    0 -0.79685966560E+00 -0.10160872954E+00 -0.86420193926E+00  0.90008103965E+02  0.90000370137E+02 0.  0.
         12    1    1    2    0    0  0.79685966560E+00  0.10160872954E+00  0.86420193926E+00  0.11798960346E+01  0.00000000000E+00 0. -1.
         11    1    3    3    0    0 -0.15164590434E+02  0.36352055601E+02  0.14215917246E+02  0.41875160333E+02  0.51100000000E-03 0. -1.
        -11    1    3    3    0    0 -0.14108282390E+01 -0.93058374237E+00 -0.85538088496E+01  0.87191782020E+01  0.51100000000E-03 0.  1.
        -12    1    3    3    0    0  0.15778559007E+02 -0.35523080588E+02 -0.65263103355E+01  0.39413765431E+02  0.00000000000E+00 0.  1.
</event>
<event>
 7    1  0.2000468E-015  0.9000773E+02  0.7816164E-02  0.1186339E+00
        -11   -1    0    0    0    0  0.00000000000E+00  0.00000000000E+00  0.45593999997E+02  0.45594000000E+02  0.51100000000E-03 0.  1.
         11   -1    0    0    0    0 -0.00000000000E+00 -0.00000000000E+00 -0.45593999997E+02  0.45594000000E+02  0.51100000000E-03 0. -1.
    9900012    2    1    2    0    0  0.10273291572E+01 -0.10304015693E+00  0.57185483165E+00  0.90007728667E+02  0.89999989885E+02 0.  0.
         12    1    1    2    0    0 -0.10273291572E+01  0.10304015693E+00 -0.57185483165E+00  0.11802713331E+01  0.00000000000E+00 0. -1.
         11    1    3    3    0    0 -0.15223794107E+02  0.39573082811E+01 -0.25380767643E+02  0.29859798430E+02  0.51100000000E-03 0. -1.
        -11    1    3    3    0    0 -0.17126397881E+02  0.26077289962E+01 -0.35481804274E-01  0.17323827929E+02  0.51100000000E-03 0.  1.
        -12    1    3    3    0    0  0.33377521145E+02 -0.66680774343E+01  0.25988104279E+02  0.42824102308E+02  0.00000000000E+00 0.  1.
</event>
<event>
 7    1  0.2318133E-015  0.9000802E+02  0.7816164E-02  0.1186338E+00
        -11   -1    0    0    0    0  0.00000000000E+00  0.00000000000E+00  0.45593999997E+02  0.45594000000E+02  0.51100000000E-03 0.  1.
         11   -1    0    0    0    0 -0.00000000000E+00 -0.00000000000E+00 -0.45593999997E+02  0.45594000000E+02  0.51100000000E-03 0. -1.
    9900012    2    1    2    0    0  0.89162921610E+00  0.28797432981E+00  0.71723238978E+00  0.90008019418E+02  0.90000284474E+02 0.  0.
         12    1    1    2    0    0 -0.89162921610E+00 -0.28797432981E+00 -0.71723238978E+00  0.11799805823E+01  0.00000000000E+00 0. -1.
         11    1    3    3    0    0 -0.20234962906E+01 -0.21206686260E+02 -0.28878874877E+02  0.35886034802E+02  0.51100000000E-03 0. -1.
        -11    1    3    3    0    0 -0.36521183713E+01 -0.29554965415E+01 -0.77147599691E+01  0.90327432182E+01  0.51100000000E-03 0.  1.
        -12    1    3    3    0    0  0.65672438779E+01  0.24450157131E+02  0.37310867236E+02  0.45089241398E+02  0.00000000000E+00 0.  1.
</event>
<event>
 7    1  0.2000468E-015  0.9000772E+02  0.7816164E-02  0.1186339E+00
        -11   -1    0    0    0    0  0.00000000000E+00  0.00000000000E+00  0.45593999997E+02  0.45594000000E+02  0.51100000000E-03 0.  1.
         11   -1    0    0    0    0 -0.00000000000E+00 -0.00000000000E+00 -0.45593999997E+02  0.45594000000E+02  0.51100000000E-03 0. -1.
    9900012    2    1    2    0    0 -0.11508123108E+01 -0.23132841166E+00 -0.12317743495E+00  0.90007722707E+02  0.89999983846E+02 0.  0.
         12    1    1    2    0    0  0.11508123108E+01  0.23132841166E+00  0.12317743495E+00  0.11802772934E+01  0.00000000000E+00 0. -1.
         11    1    3    3    0    0 -0.12321775841E+02 -0.33363098576E+01  0.71860156931E+01  0.14649093663E+02  0.51100000000E-03 0. -1.
        -11    1    3    3    0    0 -0.72653602894E+01 -0.11084813338E+02  0.29199917501E+02  0.32067019337E+02  0.51100000000E-03 0.  1.
         12    1    3    3    0    0  0.18436323820E+02  0.14189794784E+02 -0.36509110629E+02  0.43291609706E+02  0.00000000000E+00 0. -1.
</event>
<event>
 7    1  0.2000468E-015  0.9000779E+02  0.7816164E-02  0.1186339E+00
        -11   -1    0    0    0    0  0.00000000000E+00  0.00000000000E+00  0.45593999997E+02  0.45594000000E+02  0.51100000000E-03 0. -1.
         11   -1    0    0    0    0 -0.00000000000E+00 -0.00000000000E+00 -0.45593999997E+02  0.45594000000E+02  0.51100000000E-03 0.  1.
    9900012    2    1    2    0    0  0.30475710737E+00 -0.49680530940E+00 -0.10262562950E+01  0.90007790530E+02  0.90000052565E+02 0.  0.
         12    1    1    2    0    0 -0.30475710737E+00  0.49680530940E+00  0.10262562950E+01  0.11802094699E+01  0.00000000000E+00 0. -1.
         11    1    3    3    0    0  0.78663153507E+01  0.24877869527E+01  0.27522895553E+01  0.86973041327E+01  0.51100000000E-03 0. -1.
        -11    1    3    3    0    0 -0.22611532399E+02  0.28890508252E+02  0.16954920266E+02  0.40415494380E+02  0.51100000000E-03 0.  1.
         12    1    3    3    0    0  0.15049974156E+02 -0.31875100515E+02 -0.20733466116E+02  0.40894992017E+02  0.00000000000E+00 0. -1.
</event>
<event>
 7    1  0.2000468E-015  0.9000777E+02  0.7816164E-02  0.1186339E+00
        -11   -1    0    0    0    0  0.00000000000E+00  0.00000000000E+00  0.45593999997E+02  0.45594000000E+02  0.51100000000E-03 0. -1.
         11   -1    0    0    0    0 -0.00000000000E+00 -0.00000000000E+00 -0.45593999997E+02  0.45594000000E+02  0.51100000000E-03 0.  1.
    9900012    2    1    2    0    0 -0.62537982773E+00 -0.94713515259E+00 -0.32368458063E+00  0.90007772635E+02  0.90000034433E+02 0.  0.
         12    1    1    2    0    0  0.62537982773E+00  0.94713515259E+00  0.32368458063E+00  0.11802273654E+01  0.00000000000E+00 0. -1.
         11    1    3    3    0    0 -0.22856850689E+02  0.25420469539E+02  0.20763570079E+02  0.39997021610E+02  0.51100000000E-03 0. -1.
        -11    1    3    3    0    0 -0.71575846239E+01 -0.73274328117E+01 -0.60884193363E+01  0.11916003505E+02  0.51100000000E-03 0.  1.
        -12    1    3    3    0    0  0.29389055485E+02 -0.19040171880E+02 -0.14998835323E+02  0.38094747519E+02  0.00000000000E+00 0.  1.
</event>
<event>
 7    1  0.2000468E-015  0.9000773E+02  0.7816164E-02  0.1186339E+00
        -11   -1    0    0    0    0  0.00000000000E+00  0.00000000000E+00  0.45593999997E+02  0.45594000000E+02  0.51100000000E-03 0.  1.
         11   -1    0    0    0    0 -0.00000000000E+00 -0.00000000000E+00 -0.45593999997E+02  0.45594000000E+02  0.51100000000E-03 0. -1.
    9900012    2    1    2    0    0 -0.14445431834E+00  0.95840838928E+00  0.67350979180E+00  0.90007733449E+02  0.89999994731E+02 0.  0.
         12    1    1    2    0    0  0.14445431834E+00 -0.95840838928E+00 -0.67350979180E+00  0.11802665506E+01  0.00000000000E+00 0. -1.
         11    1    3    3    0    0  0.13761781069E+02 -0.19482453774E+02  0.10035706297E+02  0.25877944748E+02  0.51100000000E-03 0. -1.
        -11    1    3    3    0    0 -0.15147712375E+02 -0.17655516316E+02  0.42643347130E+01  0.23650687039E+02  0.51100000000E-03 0.  1.
         12    1    3    3    0    0  0.12414769878E+01  0.38096378479E+02 -0.13626531219E+02  0.40479101663E+02  0.00000000000E+00 0. -1.
</event>
<event>
 7    1  0.2000468E-015  0.9000776E+02  0.7816164E-02  0.1186339E+00
        -11   -1    0    0    0    0  0.00000000000E+00  0.00000000000E+00  0.45593999997E+02  0.45594000000E+02  0.51100000000E-03 0. -1.
         11   -1    0    0    0    0 -0.00000000000E+00 -0.00000000000E+00 -0.45593999997E+02  0.45594000000E+02  0.51100000000E-03 0.  1.
    9900012    2    1    2    0    0  0.93733262498E+00  0.33457573794E+00  0.63438435411E+00  0.90007755583E+02  0.90000017157E+02 0.  0.
         12    1    1    2    0    0 -0.93733262498E+00 -0.33457573794E+00 -0.63438435411E+00  0.11802444166E+01  0.00000000000E+00 0. -1.
         11    1    3    3    0    0  0.10705465329E+02 -0.17755240768E+02  0.67386201526E+01  0.21800563398E+02  0.51100000000E-03 0. -1.
        -11    1    3    3    0    0  0.29642602036E+01 -0.12473912182E+02 -0.26416380595E+02  0.29363420913E+02  0.51100000000E-03 0.  1.
         12    1    3    3    0    0 -0.12732392907E+02  0.30563728688E+02  0.20312144797E+02  0.38843771273E+02  0.00000000000E+00 0. -1.
</event>
<event>
 7    1  0.2000468E-015  0.9000771E+02  0.7816164E-02  0.1186339E+00
        -11   -1    0    0    0    0  0.00000000000E+00  0.00000000000E+00  0.45593999997E+02  0.45594000000E+02  0.51100000000E-03 0. -1.
         11   -1    0    0    0    0 -0.00000000000E+00 -0.00000000000E+00 -0.45593999997E+02  0.45594000000E+02  0.51100000000E-03 0.  1.
    9900012    2    1    2    0    0 -0.34221066869E+00  0.10025112507E+01  0.52051898185E+00  0.90007713187E+02  0.89999974201E+02 0.  0.
         12    1    1    2    0    0  0.34221066869E+00 -0.10025112507E+01 -0.52051898185E+00  0.11802868126E+01  0.00000000000E+00 0. -1.
         11    1    3    3    0    0  0.21477020288E+02 -0.22117014867E+02  0.19158091056E+02  0.36296793250E+02  0.51100000000E-03 0. -1.
        -11    1    3    3    0    0  0.83691235891E+01 -0.44401566311E+01 -0.41508893096E+01  0.10343457008E+02  0.51100000000E-03 0.  1.
        -12    1    3    3    0    0 -0.30188354545E+02  0.27559682749E+02 -0.14486682764E+02  0.43367462929E+02  0.00000000000E+00 0.  1.
</event>
<event>
 7    1  0.2000468E-015  0.9000777E+02  0.7816164E-02  0.1186339E+00
        -11   -1    0    0    0    0  0.00000000000E+00  0.00000000000E+00  0.45593999997E+02  0.45594000000E+02  0.51100000000E-03 0. -1.
         11   -1    0    0    0    0 -0.00000000000E+00 -0.00000000000E+00 -0.45593999997E+02  0.45594000000E+02  0.51100000000E-03 0.  1.
    9900012    2    1    2    0    0  0.24451928956E+00  0.11226085272E+01 -0.26999260870E+00  0.90007773074E+02  0.90000034878E+02 0.  0.
         12    1    1    2    0    0 -0.24451928956E+00 -0.11226085272E+01  0.26999260870E+00  0.11802269261E+01  0.00000000000E+00 0. -1.
         11    1    3    3    0    0  0.81631977908E+01 -0.52317549184E+01  0.20686602588E+01  0.99140513024E+01  0.51100000000E-03 0. -1.
        -11    1    3    3    0    0  0.21593490738E+02  0.30821481555E+02  0.11477881326E+02  0.39344431975E+02  0.51100000000E-03 0.  1.
         12    1    3    3    0    0 -0.29512169239E+02 -0.24467118109E+02 -0.13816534193E+02  0.40749289796E+02  0.00000000000E+00 0. -1.
</event>
<event>
 7    1  0.2000468E-015  0.9000776E+02  0.7816164E-02  0.1186339E+00
        -11   -1    0    0    0    0  0.00000000000E+00  0.00000000000E+00  0.45593999997E+02  0.45594000000E+02  0.51100000000E-03 0. -1.
         11   -1    0    0    0    0 -0.00000000000E+00 -0.00000000000E+00 -0.45593999997E+02  0.45594000000E+02  0.51100000000E-03 0.  1.
    9900012    2    1    2    0    0 -0.10409212687E+01  0.53122911893E+00  0.16502846668E+00  0.90007764490E+02  0.90000026181E+02 0.  0.
         12    1    1    2    0    0  0.10409212687E+01 -0.53122911893E+00 -0.16502846668E+00  0.11802355100E+01  0.00000000000E+00 0. -1.
         11    1    3    3    0    0  0.27412753183E+02 -0.93453597271E+01  0.12062295049E+02  0.31373456099E+02  0.51100000000E-03 0. -1.
        -11    1    3    3    0    0  0.12609559596E+02  0.22431756686E+01 -0.10960320288E+02  0.16857089054E+02  0.51100000000E-03 0.  1.
         12    1    3    3    0    0 -0.41063234048E+02  0.76334131774E+01 -0.93694629427E+00  0.41777219337E+02  0.00000000000E+00 0. -1.
</event>
<event>
 7    1  0.2000468E-015  0.9000762E+02  0.7816164E-02  0.1186339E+00
        -11   -1    0    0    0    0  0.00000000000E+00  0.00000000000E+00  0.45593999997E+02  0.45594000000E+02  0.51100000000E-03 0. -1.
         11   -1    0    0    0    0 -0.00000000000E+00 -0.00000000000E+00 -0.45593999997E+02  0.45594000000E+02  0.51100000000E-03 0.  1.
    9900012    2    1    2    0    0  0.74284419708E+00 -0.48984326069E+00  0.77558027641E+00  0.90007623498E+02  0.89999883328E+02 0.  0.
         12    1    1    2    0    0 -0.74284419708E+00  0.48984326069E+00 -0.77558027641E+00  0.11803765019E+01  0.00000000000E+00 0. -1.
         11    1    3    3    0    0 -0.12664078535E+02  0.65687535569E+00 -0.31831622411E+01  0.13074513088E+02  0.51100000000E-03 0. -1.
        -11    1    3    3    0    0  0.50818196254E+01  0.83881842453E+01 -0.34802208235E+02  0.36157713201E+02  0.51100000000E-03 0.  1.
         12    1    3    3    0    0  0.83251031069E+01 -0.95349028617E+01  0.38760950752E+02  0.40775397209E+02  0.00000000000E+00 0. -1.
</event>
<event>
 7    1  0.2000468E-015  0.9000776E+02  0.7816164E-02  0.1186339E+00
        -11   -1    0    0    0    0  0.00000000000E+00  0.00000000000E+00  0.45593999997E+02  0.45594000000E+02  0.51100000000E-03 0.  1.
         11   -1    0    0    0    0 -0.00000000000E+00 -0.00000000000E+00 -0.45593999997E+02  0.45594000000E+02  0.51100000000E-03 0. -1.
    9900012    2    1    2    0    0  0.57776389838E+00 -0.75048371053E+00  0.70421912931E+00  0.90007762098E+02  0.90000023758E+02 0.  0.
         12    1    1    2    0    0 -0.57776389838E+00  0.75048371053E+00 -0.70421912931E+00  0.11802379015E+01  0.00000000000E+00 0. -1.
         11    1    3    3    0    0 -0.36366585740E+02 -0.27203984367E+01 -0.16923818448E+01  0.36507441469E+02  0.51100000000E-03 0. -1.
        -11    1    3    3    0    0 -0.52499880129E+01 -0.52498490722E+01  0.73008295983E+01  0.10412751918E+02  0.51100000000E-03 0.  1.
        -12    1    3    3    0    0  0.42194337651E+02  0.72197637983E+01 -0.49042286242E+01  0.43087568712E+02  0.00000000000E+00 0.  1.
</event>
<event>
 7    1  0.2000468E-015  0.9000774E+02  0.7816164E-02  0.1186339E+00
        -11   -1    0    0    0    0  0.00000000000E+00  0.00000000000E+00  0.45593999997E+02  0.45594000000E+02  0.51100000000E-03 0.  1.
         11   -1    0    0    0    0 -0.00000000000E+00 -0.00000000000E+00 -0.45593999997E+02  0.45594000000E+02  0.51100000000E-03 0. -1.
    9900012    2    1    2    0    0  0.21914775065E+00 -0.11475118253E+01  0.16791615531E+00  0.90007743688E+02  0.90000005105E+02 0.  0.
         12    1    1    2    0    0 -0.21914775065E+00  0.11475118253E+01 -0.16791615531E+00  0.11802563116E+01  0.00000000000E+00 0. -1.
         11    1    3    3    0    0  0.63590358555E+00 -0.34842515391E+02 -0.12981547901E+02  0.37187710851E+02  0.51100000000E-03 0. -1.
        -11    1    3    3    0    0  0.45334961680E+01 -0.47626300519E+01 -0.65904116245E+01  0.93096056929E+01  0.51100000000E-03 0.  1.
        -12    1    3    3    0    0 -0.49502520029E+01  0.38457633618E+02  0.19739875681E+02  0.43510427144E+02  0.00000000000E+00 0.  1.
</event>
<event>
 7    1  0.2000468E-015  0.9000675E+02  0.7816164E-02  0.1186341E+00
        -11   -1    0    0    0    0  0.00000000000E+00  0.00000000000E+00  0.45593999997E+02  0.45594000000E+02  0.51100000000E-03 0.  1.
         11   -1    0    0    0    0 -0.00000000000E+00 -0.00000000000E+00 -0.45593999997E+02  0.45594000000E+02  0.51100000000E-03 0. -1.
    9900012    2    1    2    0    0  0.11718106409E+01  0.25485551361E-01 -0.14680734460E+00  0.90006754010E+02  0.89999002358E+02 0.  0.
         12    1    1    2    0    0 -0.11718106409E+01 -0.25485551361E-01  0.14680734460E+00  0.11812459896E+01  0.00000000000E+00 0. -1.
         11    1    3    3    0    0 -0.10343686181E+02  0.13109006000E+02  0.74457004988E+01  0.18283225599E+02  0.51100000000E-03 0. -1.
        -11    1    3    3    0    0 -0.17256516132E+02  0.20697236357E+02 -0.28221397449E+01  0.27094785750E+02  0.51100000000E-03 0.  1.
         12    1    3    3    0    0  0.28772012954E+02 -0.33780756805E+02 -0.47703680985E+01  0.44628742662E+02  0.00000000000E+00 0. -1.
</event>
<event>
 7    1  0.2000468E-015  0.9000772E+02  0.7816164E-02  0.1186339E+00
        -11   -1    0    0    0    0  0.00000000000E+00  0.00000000000E+00  0.45593999997E+02  0.45594000000E+02  0.51100000000E-03 0.  1.
         11   -1    0    0    0    0 -0.00000000000E+00 -0.00000000000E+00 -0.45593999997E+02  0.45594000000E+02  0.51100000000E-03 0. -1.
    9900012    2    1    2    0    0  0.70828620453E+00 -0.62536774432E+00  0.70732143062E+00  0.90007721317E+02  0.89999982438E+02 0.  0.
         12    1    1    2    0    0 -0.70828620453E+00  0.62536774432E+00 -0.70732143062E+00  0.11802786829E+01  0.00000000000E+00 0. -1.
         11    1    3    3    0    0 -0.21451809618E+02 -0.19503191744E+02  0.16668404269E+02  0.33442343297E+02  0.51100000000E-03 0. -1.
        -11    1    3    3    0    0 -0.21584693899E+01 -0.87385919332E+01  0.84992423167E+01  0.12379785915E+02  0.51100000000E-03 0.  1.
        -12    1    3    3    0    0  0.24318565212E+02  0.27616415933E+02 -0.24460325155E+02  0.44185592105E+02  0.00000000000E+00 0.  1.
</event>
<event>
 7    1  0.2000468E-015  0.9000773E+02  0.7816164E-02  0.1186339E+00
        -11   -1    0    0    0    0  0.00000000000E+00  0.00000000000E+00  0.45593999997E+02  0.45594000000E+02  0.51100000000E-03 0.  1.
         11   -1    0    0    0    0 -0.00000000000E+00 -0.00000000000E+00 -0.45593999997E+02  0.45594000000E+02  0.51100000000E-03 0. -1.
    9900012    2    1    2    0    0  0.18530979096E+00 -0.10951744107E+01 -0.39911229716E+00  0.90007729974E+02  0.89999991210E+02 0.  0.
         12    1    1    2    0    0 -0.18530979096E+00  0.10951744107E+01  0.39911229716E+00  0.11802700259E+01  0.00000000000E+00 0. -1.
         11    1    3    3    0    0  0.27426574983E+01  0.87560845777E+01  0.10278458970E+02  0.13778167743E+02  0.51100000000E-03 0. -1.
        -11    1    3    3    0    0 -0.16613904475E+01 -0.12050328889E+02  0.31612889730E+02  0.33872487979E+02  0.51100000000E-03 0.  1.
         12    1    3    3    0    0 -0.89595725984E+00  0.21990699007E+01 -0.42290460997E+02  0.42357074252E+02  0.00000000000E+00 0. -1.
</event>
<event>
 7    1  0.2000468E-015  0.9000748E+02  0.7816164E-02  0.1186340E+00
        -11   -1    0    0    0    0  0.00000000000E+00  0.00000000000E+00  0.45593999997E+02  0.45594000000E+02  0.51100000000E-03 0.  1.
         11   -1    0    0    0    0 -0.00000000000E+00 -0.00000000000E+00 -0.45593999997E+02  0.45594000000E+02  0.51100000000E-03 0. -1.
    9900012    2    1    2    0    0 -0.36438249088E+00  0.15428953679E+00  0.11122263181E+01  0.90007480096E+02  0.89999738033E+02 0.  0.
         12    1    1    2    0    0  0.36438249088E+00 -0.15428953679E+00 -0.11122263181E+01  0.11805199039E+01  0.00000000000E+00 0. -1.
         11    1    3    3    0    0 -0.12817808373E+01  0.96550020227E+00  0.97548360824E+01  0.98859486146E+01  0.51100000000E-03 0. -1.
        -11    1    3    3    0    0 -0.21489243801E+02  0.27388831555E+00  0.29123986691E+02  0.36194878298E+02  0.51100000000E-03 0.  1.
         12    1    3    3    0    0  0.22406642147E+02 -0.10850989810E+01 -0.37766596455E+02  0.43926653184E+02  0.00000000000E+00 0. -1.
</event>
<event>
 7    1  0.2075832E-015  0.9000775E+02  0.7816164E-02  0.1186339E+00
        -11   -1    0    0    0    0  0.00000000000E+00  0.00000000000E+00  0.45593999997E+02  0.45594000000E+02  0.51100000000E-03 0.  1.
         11   -1    0    0    0    0 -0.00000000000E+00 -0.00000000000E+00 -0.45593999997E+02  0.45594000000E+02  0.51100000000E-03 0. -1.
    9900012    2    1    2    0    0  0.74735811680E+00 -0.84900124723E+00  0.33712165552E+00  0.90007746517E+02  0.90000007971E+02 0.  0.
         12    1    1    2    0    0 -0.74735811680E+00  0.84900124723E+00 -0.33712165552E+00  0.11802534826E+01  0.00000000000E+00 0. -1.
         11    1    3    3    0    0  0.11221868340E+02  0.10078216575E+01 -0.37489474440E+02  0.39145966939E+02  0.51100000000E-03 0. -1.
        -11    1    3    3    0    0 -0.76489025471E+01  0.36018802153E+01 -0.34490266713E+01  0.91309931826E+01  0.51100000000E-03 0.  1.
        -12    1    3    3    0    0 -0.28256076760E+01 -0.54587031200E+01  0.41275622766E+02  0.41730786396E+02  0.00000000000E+00 0.  1.
</event>
<event>
 7    1  0.2000468E-015  0.9000766E+02  0.7816164E-02  0.1186339E+00
        -11   -1    0    0    0    0  0.00000000000E+00  0.00000000000E+00  0.45593999997E+02  0.45594000000E+02  0.51100000000E-03 0.  1.
         11   -1    0    0    0    0 -0.00000000000E+00 -0.00000000000E+00 -0.45593999997E+02  0.45594000000E+02  0.51100000000E-03 0. -1.
    9900012    2    1    2    0    0 -0.52820482652E+00 -0.57827655409E+00  0.88305867072E+00  0.90007662452E+02  0.89999922796E+02 0.  0.
         12    1    1    2    0    0  0.52820482652E+00  0.57827655409E+00 -0.88305867072E+00  0.11803375482E+01  0.00000000000E+00 0. -1.
         11    1    3    3    0    0 -0.98607027891E+01 -0.17772066806E+01 -0.62442002104E+00  0.10039015076E+02  0.51100000000E-03 0. -1.
        -11    1    3    3    0    0 -0.10310708953E+02 -0.13580541087E+02 -0.33267314353E+02  0.37382563045E+02  0.51100000000E-03 0.  1.
         12    1    3    3    0    0  0.19643206916E+02  0.14779471213E+02  0.34774793045E+02  0.42586084330E+02  0.00000000000E+00 0. -1.
</event>
<event>
 7    1  0.2000468E-015  0.9000764E+02  0.7816164E-02  0.1186339E+00
        -11   -1    0    0    0    0  0.00000000000E+00  0.00000000000E+00  0.45593999997E+02  0.45594000000E+02  0.51100000000E-03 0.  1.
         11   -1    0    0    0    0 -0.00000000000E+00 -0.00000000000E+00 -0.45593999997E+02  0.45594000000E+02  0.51100000000E-03 0. -1.
    9900012    2    1    2    0    0  0.11327042154E+01  0.29441240356E+00  0.15348563086E+00  0.90007637623E+02  0.89999897639E+02 0.  0.
         12    1    1    2    0    0 -0.11327042154E+01 -0.29441240356E+00 -0.15348563086E+00  0.11803623773E+01  0.00000000000E+00 0. -1.
         11    1    3    3    0    0 -0.27344553538E+01 -0.14376571360E+01  0.98353535604E+01  0.10309135950E+02  0.51100000000E-03 0. -1.
        -11    1    3    3    0    0 -0.19602673160E+02 -0.20586015356E+02  0.20799641183E+02  0.35223201116E+02  0.51100000000E-03 0.  1.
         12    1    3    3    0    0  0.23469832730E+02  0.22318084896E+02 -0.30481509113E+02  0.44475300556E+02  0.00000000000E+00 0. -1.
</event>
<event>
 7    1  0.2000468E-015  0.9000774E+02  0.7816164E-02  0.1186339E+00
        -11   -1    0    0    0    0  0.00000000000E+00  0.00000000000E+00  0.45593999997E+02  0.45594000000E+02  0.51100000000E-03 0. -1.
         11   -1    0    0    0    0 -0.00000000000E+00 -0.00000000000E+00 -0.45593999997E+02  0.45594000000E+02  0.51100000000E-03 0.  1.
    9900012    2    1    2    0    0  0.39636699770E+00  0.11019738916E+01 -0.14686386914E+00  0.90007736364E+02  0.89999997684E+02 0.  0.
         12    1    1    2    0    0 -0.39636699770E+00 -0.11019738916E+01  0.14686386914E+00  0.11802636361E+01  0.00000000000E+00 0. -1.
         11    1    3    3    0    0 -0.35738147535E+01 -0.83009811820E+01  0.25754825408E+01  0.93974225751E+01  0.51100000000E-03 0. -1.
        -11    1    3    3    0    0 -0.48170500070E+01 -0.31357222749E+02 -0.17671663740E+02  0.36314832905E+02  0.51100000000E-03 0.  1.
         12    1    3    3    0    0  0.87872317582E+01  0.40760177823E+02  0.14949317330E+02  0.44295480884E+02  0.00000000000E+00 0. -1.
</event>
<event>
 7    1  0.2000468E-015  0.9000775E+02  0.7816164E-02  0.1186339E+00
        -11   -1    0    0    0    0  0.00000000000E+00  0.00000000000E+00  0.45593999997E+02  0.45594000000E+02  0.51100000000E-03 0. -1.
         11   -1    0    0    0    0 -0.00000000000E+00 -0.00000000000E+00 -0.45593999997E+02  0.45594000000E+02  0.51100000000E-03 0.  1.
    9900012    2    1    2    0    0  0.16937027599E+00 -0.20780674667E+00 -0.11494020499E+01  0.90007747905E+02  0.90000009378E+02 0.  0.
         12    1    1    2    0    0 -0.16937027599E+00  0.20780674667E+00  0.11494020499E+01  0.11802520945E+01  0.00000000000E+00 0. -1.
         11    1    3    3    0    0  0.88910647294E+01 -0.38419552831E+01 -0.23480228330E+01  0.99661860260E+01  0.51100000000E-03 0. -1.
        -11    1    3    3    0    0 -0.46460194082E+01 -0.28934262229E+02 -0.24625609794E+02  0.38277900740E+02  0.51100000000E-03 0.  1.
         12    1    3    3    0    0 -0.40756750453E+01  0.32568410766E+02  0.25824230577E+02  0.41763661139E+02  0.00000000000E+00 0. -1.
</event>
<event>
 7    1  0.2000468E-015  0.9000773E+02  0.7816164E-02  0.1186339E+00
        -11   -1    0    0    0    0  0.00000000000E+00  0.00000000000E+00  0.45593999997E+02  0.45594000000E+02  0.51100000000E-03 0.  1.
         11   -1    0    0    0    0 -0.00000000000E+00 -0.00000000000E+00 -0.45593999997E+02  0.45594000000E+02  0.51100000000E-03 0. -1.
    9900012    2    1    2    0    0 -0.21402529339E+00  0.11595844451E+01 -0.50871643888E-01  0.90007732727E+02  0.89999993999E+02 0.  0.
         12    1    1    2    0    0  0.21402529339E+00 -0.11595844451E+01  0.50871643888E-01  0.11802672730E+01  0.00000000000E+00 0. -1.
         11    1    3    3    0    0  0.43426259001E+01  0.26407682647E+02 -0.26559113717E+02  0.37704252071E+02  0.51100000000E-03 0. -1.
        -11    1    3    3    0    0 -0.82173608375E+00  0.12409498059E+00 -0.87031396928E+01  0.87427278654E+01  0.51100000000E-03 0.  1.
        -12    1    3    3    0    0 -0.37349151098E+01 -0.25372193183E+02  0.35211381766E+02  0.43560752791E+02  0.00000000000E+00 0.  1.
</event>
<event>
 7    1  0.2000468E-015  0.9000874E+02  0.7816164E-02  0.1186337E+00
        -11   -1    0    0    0    0  0.00000000000E+00  0.00000000000E+00  0.45593999997E+02  0.45594000000E+02  0.51100000000E-03 0.  1.
         11   -1    0    0    0    0 -0.00000000000E+00 -0.00000000000E+00 -0.45593999997E+02  0.45594000000E+02  0.51100000000E-03 0. -1.
    9900012    2    1    2    0    0 -0.13043229941E+00 -0.84480251896E-01  0.11689770675E+01  0.90008738841E+02  0.90001013388E+02 0.  0.
         12    1    1    2    0    0  0.13043229941E+00  0.84480251896E-01 -0.11689770675E+01  0.11792611594E+01  0.00000000000E+00 0. -1.
         11    1    3    3    0    0 -0.81966357566E+01  0.38882061141E+02  0.64836892088E+01  0.40262112989E+02  0.51100000000E-03 0. -1.
        -11    1    3    3    0    0 -0.12561871978E+01 -0.29106568440E+01  0.92348537669E+01  0.97638339753E+01  0.51100000000E-03 0.  1.
        -12    1    3    3    0    0  0.93223906550E+01 -0.36055884549E+02 -0.14549565908E+02  0.39982791877E+02  0.00000000000E+00 0.  1.
</event>
<event>
 7    1  0.2000468E-015  0.9000707E+02  0.7816164E-02  0.1186340E+00
        -11   -1    0    0    0    0  0.00000000000E+00  0.00000000000E+00  0.45593999997E+02  0.45594000000E+02  0.51100000000E-03 0. -1.
         11   -1    0    0    0    0 -0.00000000000E+00 -0.00000000000E+00 -0.45593999997E+02  0.45594000000E+02  0.51100000000E-03 0.  1.
    9900012    2    1    2    0    0 -0.43504587533E+00  0.52633710586E+00 -0.96348824603E+00  0.90007065936E+02  0.89999318404E+02 0.  0.
         12    1    1    2    0    0  0.43504587533E+00 -0.52633710586E+00  0.96348824603E+00  0.11809340637E+01  0.00000000000E+00 0. -1.
         11    1    3    3    0    0 -0.16444716560E+01  0.74447403049E+01 -0.36965701986E+01  0.84730795304E+01  0.51100000000E-03 0. -1.
        -11    1    3    3    0    0  0.21051282247E+02  0.21001277121E+02 -0.23896693042E+02  0.38147897236E+02  0.51100000000E-03 0.  1.
         12    1    3    3    0    0 -0.19841856466E+02 -0.27919680320E+02  0.26629774994E+02  0.43386089170E+02  0.00000000000E+00 0. -1.
</event>
<event>
 7    1  0.2000468E-015  0.9000770E+02  0.7816164E-02  0.1186339E+00
        -11   -1    0    0    0    0  0.00000000000E+00  0.00000000000E+00  0.45593999997E+02  0.45594000000E+02  0.51100000000E-03 0.  1.
         11   -1    0    0    0    0 -0.00000000000E+00 -0.00000000000E+00 -0.45593999997E+02  0.45594000000E+02  0.51100000000E-03 0. -1.
    9900012    2    1    2    0    0  0.19940931322E+00  0.10726346415E+01  0.45032879793E+00  0.90007701235E+02  0.89999962091E+02 0.  0.
         12    1    1    2    0    0 -0.19940931322E+00 -0.10726346415E+01 -0.45032879793E+00  0.11802987649E+01  0.00000000000E+00 0. -1.
         11    1    3    3    0    0 -0.68927983894E+01 -0.29100076432E+01  0.38128524472E+01  0.83974197326E+01  0.51100000000E-03 0. -1.
        -11    1    3    3    0    0 -0.29876951646E+00 -0.38283510266E+02 -0.53504796256E+01  0.38656746553E+02  0.51100000000E-03 0.  1.
         12    1    3    3    0    0  0.73909772191E+01  0.42266152551E+02  0.19879559763E+01  0.42953534950E+02  0.00000000000E+00 0. -1.
</event>
<event>
 7    1  0.2000468E-015  0.9000790E+02  0.7816164E-02  0.1186339E+00
        -11   -1    0    0    0    0  0.00000000000E+00  0.00000000000E+00  0.45593999997E+02  0.45594000000E+02  0.51100000000E-03 0. -1.
         11   -1    0    0    0    0 -0.00000000000E+00 -0.00000000000E+00 -0.45593999997E+02  0.45594000000E+02  0.51100000000E-03 0.  1.
    9900012    2    1    2    0    0 -0.45130310477E+00 -0.95421994390E+00 -0.52765588288E+00  0.90007902155E+02  0.90000165663E+02 0.  0.
         12    1    1    2    0    0  0.45130310477E+00  0.95421994390E+00  0.52765588288E+00  0.11800978453E+01  0.00000000000E+00 0. -1.
         11    1    3    3    0    0  0.27695980651E+02 -0.55236093178E+01  0.21265220428E+02  0.35352329544E+02  0.51100000000E-03 0. -1.
        -11    1    3    3    0    0  0.57420128107E+01  0.30933425095E+00  0.76436965911E+01  0.95651710196E+01  0.51100000000E-03 0.  1.
        -12    1    3    3    0    0 -0.33889296566E+02  0.42600551229E+01 -0.29436572902E+02  0.45090401591E+02  0.00000000000E+00 0.  1.
</event>
<event>
 7    1  0.2000468E-015  0.9000775E+02  0.7816164E-02  0.1186339E+00
        -11   -1    0    0    0    0  0.00000000000E+00  0.00000000000E+00  0.45593999997E+02  0.45594000000E+02  0.51100000000E-03 0. -1.
         11   -1    0    0    0    0 -0.00000000000E+00 -0.00000000000E+00 -0.45593999997E+02  0.45594000000E+02  0.51100000000E-03 0.  1.
    9900012    2    1    2    0    0 -0.88094300116E+00  0.56085922399E+00 -0.54988035773E+00  0.90007749159E+02  0.90000010648E+02 0.  0.
         12    1    1    2    0    0  0.88094300116E+00 -0.56085922399E+00  0.54988035773E+00  0.11802508412E+01  0.00000000000E+00 0. -1.
         11    1    3    3    0    0  0.69472146655E+01 -0.26952539030E+02  0.98597660172E+01  0.29528259989E+02  0.51100000000E-03 0. -1.
        -11    1    3    3    0    0  0.80642778162E+01 -0.64701545050E+01  0.12731203079E+02  0.16400579506E+02  0.51100000000E-03 0.  1.
         12    1    3    3    0    0 -0.15892435483E+02  0.33983552759E+02 -0.23140849454E+02  0.44078909664E+02  0.00000000000E+00 0. -1.
</event>
<event>
 7    1  0.2376126E-015  0.9000786E+02  0.7816164E-02  0.1186339E+00
        -11   -1    0    0    0    0  0.00000000000E+00  0.00000000000E+00  0.45593999997E+02  0.45594000000E+02  0.51100000000E-03 0.  1.
         11   -1    0    0    0    0 -0.00000000000E+00 -0.00000000000E+00 -0.45593999997E+02  0.45594000000E+02  0.51100000000E-03 0. -1.
    9900012    2    1    2    0    0  0.53720130733E+00  0.29381374812E+00  0.10088656385E+01  0.90007863720E+02  0.90000126721E+02 0.  0.
         12    1    1    2    0    0 -0.53720130733E+00 -0.29381374812E+00 -0.10088656385E+01  0.11801362801E+01  0.00000000000E+00 0. -1.
         11    1    3    3    0    0 -0.30736457204E+01 -0.15332024470E+02 -0.39152521413E+02  0.42159675113E+02  0.51100000000E-03 0. -1.
        -11    1    3    3    0    0  0.79745863292E+01  0.78184835570E+00  0.50302339478E+01  0.94608967759E+01  0.51100000000E-03 0.  1.
        -12    1    3    3    0    0 -0.43637393015E+01  0.14843989863E+02  0.35131153104E+02  0.38387291831E+02  0.00000000000E+00 0.  1.
</event>
<event>
 7    1  0.2000468E-015  0.9000768E+02  0.7816164E-02  0.1186339E+00
        -11   -1    0    0    0    0  0.00000000000E+00  0.00000000000E+00  0.45593999997E+02  0.45594000000E+02  0.51100000000E-03 0. -1.
         11   -1    0    0    0    0 -0.00000000000E+00 -0.00000000000E+00 -0.45593999997E+02  0.45594000000E+02  0.51100000000E-03 0.  1.
    9900012    2    1    2    0    0  0.49728047361E+00  0.52992196482E+00  0.93007605613E+00  0.90007683674E+02  0.89999944299E+02 0.  0.
         12    1    1    2    0    0 -0.49728047361E+00 -0.52992196482E+00 -0.93007605613E+00  0.11803163256E+01  0.00000000000E+00 0. -1.
         11    1    3    3    0    0  0.50738496583E+00  0.70970725579E+01  0.55290845703E+01  0.90109186458E+01  0.51100000000E-03 0. -1.
        -11    1    3    3    0    0  0.21361751146E+02 -0.27473262080E+02  0.21839962408E+02  0.41086354177E+02  0.51100000000E-03 0.  1.
         12    1    3    3    0    0 -0.21371855638E+02  0.20906111487E+02 -0.26438970922E+02  0.39910410852E+02  0.00000000000E+00 0. -1.
</event>
<event>
 7    1  0.2000468E-015  0.9000768E+02  0.7816164E-02  0.1186339E+00
        -11   -1    0    0    0    0  0.00000000000E+00  0.00000000000E+00  0.45593999997E+02  0.45594000000E+02  0.51100000000E-03 0. -1.
         11   -1    0    0    0    0 -0.00000000000E+00 -0.00000000000E+00 -0.45593999997E+02  0.45594000000E+02  0.51100000000E-03 0.  1.
    9900012    2    1    2    0    0  0.16702205213E+00  0.32042507691E+00 -0.11236487507E+01  0.90007680081E+02  0.89999940658E+02 0.  0.
         12    1    1    2    0    0 -0.16702205213E+00 -0.32042507691E+00  0.11236487507E+01  0.11803199188E+01  0.00000000000E+00 0. -1.
         11    1    3    3    0    0 -0.16284639003E+02  0.16697278483E+00  0.86144318696E+01  0.18423511720E+02  0.51100000000E-03 0. -1.
        -11    1    3    3    0    0 -0.95996948490E+01  0.20587714745E+02  0.17528511315E+02  0.28692452819E+02  0.51100000000E-03 0.  1.
         12    1    3    3    0    0  0.26051355904E+02 -0.20434262452E+02 -0.27266591935E+02  0.42891715543E+02  0.00000000000E+00 0. -1.
</event>
<event>
 7    1  0.2000468E-015  0.9000773E+02  0.7816164E-02  0.1186339E+00
        -11   -1    0    0    0    0  0.00000000000E+00  0.00000000000E+00  0.45593999997E+02  0.45594000000E+02  0.51100000000E-03 0.  1.
         11   -1    0    0    0    0 -0.00000000000E+00 -0.00000000000E+00 -0.45593999997E+02  0.45594000000E+02  0.51100000000E-03 0. -1.
    9900012    2    1    2    0    0  0.11464986911E+01  0.26060435736E+00 -0.10325628232E+00  0.90007730650E+02  0.89999991894E+02 0.  0.
         12    1    1    2    0    0 -0.11464986911E+01 -0.26060435736E+00  0.10325628232E+00  0.11802693504E+01  0.00000000000E+00 0. -1.
         11    1    3    3    0    0  0.78440328141E+01  0.16650143009E+01  0.54570549519E+01  0.96995140301E+01  0.51100000000E-03 0. -1.
        -11    1    3    3    0    0 -0.14626027487E+01 -0.26579070064E+02 -0.33202410966E+02  0.42555684303E+02  0.51100000000E-03 0.  1.
         12    1    3    3    0    0 -0.52349313743E+01  0.25174660120E+02  0.27642099732E+02  0.37752532316E+02  0.00000000000E+00 0. -1.
</event>
<event>
 7    1  0.2000468E-015  0.9000779E+02  0.7816164E-02  0.1186339E+00
        -11   -1    0    0    0    0  0.00000000000E+00  0.00000000000E+00  0.45593999997E+02  0.45594000000E+02  0.51100000000E-03 0.  1.
         11   -1    0    0    0    0 -0.00000000000E+00 -0.00000000000E+00 -0.45593999997E+02  0.45594000000E+02  0.51100000000E-03 0. -1.
    9900012    2    1    2    0    0  0.44420999160E+00 -0.72679667103E+00  0.81690541716E+00  0.90007792231E+02  0.90000054288E+02 0.  0.
         12    1    1    2    0    0 -0.44420999160E+00  0.72679667103E+00 -0.81690541716E+00  0.11802077691E+01  0.00000000000E+00 0. -1.
         11    1    3    3    0    0  0.24882862839E+01 -0.26646004258E+01  0.81604479845E+01  0.89378171624E+01  0.51100000000E-03 0. -1.
        -11    1    3    3    0    0  0.10475290231E+02 -0.94071010623E+01  0.33787854338E+02  0.36603884450E+02  0.51100000000E-03 0.  1.
         12    1    3    3    0    0 -0.12519366523E+02  0.11344904817E+02 -0.41131396906E+02  0.44466090618E+02  0.00000000000E+00 0. -1.
</event>
<event>
 7    1  0.2000468E-015  0.9000772E+02  0.7816164E-02  0.1186339E+00
        -11   -1    0    0    0    0  0.00000000000E+00  0.00000000000E+00  0.45593999997E+02  0.45594000000E+02  0.51100000000E-03 0.  1.
         11   -1    0    0    0    0 -0.00000000000E+00 -0.00000000000E+00 -0.45593999997E+02  0.45594000000E+02  0.51100000000E-03 0. -1.
    9900012    2    1    2    0    0 -0.10013526744E+00  0.15765261207E+00  0.11654121665E+01  0.90007717434E+02  0.89999978504E+02 0.  0.
         12    1    1    2    0    0  0.10013526744E+00 -0.15765261207E+00 -0.11654121665E+01  0.11802825660E+01  0.00000000000E+00 0. -1.
         11    1    3    3    0    0  0.54450646998E+01 -0.37517053561E+01  0.85747383846E+01  0.10828211361E+02  0.51100000000E-03 0. -1.
        -11    1    3    3    0    0 -0.28538015929E+02 -0.20241207370E+02  0.15964688890E+02  0.38457718608E+02  0.51100000000E-03 0.  1.
         12    1    3    3    0    0  0.22992815962E+02  0.24150565338E+02 -0.23374015108E+02  0.40721787464E+02  0.00000000000E+00 0. -1.
</event>
<event>
 7    1  0.2000468E-015  0.9000769E+02  0.7816164E-02  0.1186339E+00
        -11   -1    0    0    0    0  0.00000000000E+00  0.00000000000E+00  0.45593999997E+02  0.45594000000E+02  0.51100000000E-03 0. -1.
         11   -1    0    0    0    0 -0.00000000000E+00 -0.00000000000E+00 -0.45593999997E+02  0.45594000000E+02  0.51100000000E-03 0.  1.
    9900012    2    1    2    0    0  0.45414976060E+00  0.10363383412E+01 -0.33598845609E+00  0.90007687582E+02  0.89999948258E+02 0.  0.
         12    1    1    2    0    0 -0.45414976060E+00 -0.10363383412E+01  0.33598845609E+00  0.11803124184E+01  0.00000000000E+00 0. -1.
         11    1    3    3    0    0  0.19354510151E+02  0.14016490800E+02  0.21107761182E+02  0.31884112971E+02  0.51100000000E-03 0. -1.
        -11    1    3    3    0    0 -0.17545697745E+02  0.10488913618E+02  0.66457586064E+01  0.21494997696E+02  0.51100000000E-03 0.  1.
        -12    1    3    3    0    0 -0.13546626451E+01 -0.23469066076E+02 -0.28089508245E+02  0.36628576915E+02  0.00000000000E+00 0.  1.
</event>
<event>
 7    1  0.2000468E-015  0.9000784E+02  0.7816164E-02  0.1186339E+00
        -11   -1    0    0    0    0  0.00000000000E+00  0.00000000000E+00  0.45593999997E+02  0.45594000000E+02  0.51100000000E-03 0. -1.
         11   -1    0    0    0    0 -0.00000000000E+00 -0.00000000000E+00 -0.45593999997E+02  0.45594000000E+02  0.51100000000E-03 0.  1.
    9900012    2    1    2    0    0 -0.15812152072E+00 -0.11558576593E+01 -0.17824790439E+00  0.90007838291E+02  0.90000100956E+02 0.  0.
         12    1    1    2    0    0  0.15812152072E+00  0.11558576593E+01  0.17824790439E+00  0.11801617090E+01  0.00000000000E+00 0. -1.
         11    1    3    3    0    0  0.92701882372E+01  0.73065897105E+01  0.26670997784E+02  0.29166157892E+02  0.51100000000E-03 0. -1.
        -11    1    3    3    0    0  0.21805235521E+02 -0.26710585488E+01 -0.57541710774E+01  0.22709322644E+02  0.51100000000E-03 0.  1.
        -12    1    3    3    0    0 -0.31233545278E+02 -0.57913888210E+01 -0.21095074611E+02  0.38132357755E+02  0.00000000000E+00 0.  1.
</event>
<event>
 7    1  0.2000468E-015  0.9000762E+02  0.7816164E-02  0.1186339E+00
        -11   -1    0    0    0    0  0.00000000000E+00  0.00000000000E+00  0.45593999997E+02  0.45594000000E+02  0.51100000000E-03 0. -1.
         11   -1    0    0    0    0 -0.00000000000E+00 -0.00000000000E+00 -0.45593999997E+02  0.45594000000E+02  0.51100000000E-03 0.  1.
    9900012    2    1    2    0    0  0.81670364448E+00 -0.80188762985E+00 -0.28858025506E+00  0.90007615665E+02  0.89999875392E+02 0.  0.
         12    1    1    2    0    0 -0.81670364448E+00  0.80188762985E+00  0.28858025506E+00  0.11803843346E+01  0.00000000000E+00 0. -1.
         11    1    3    3    0    0  0.61939264680E+01 -0.24010307226E+01  0.73860465746E+01  0.99339497626E+01  0.51100000000E-03 0. -1.
        -11    1    3    3    0    0  0.16565134266E+02  0.19318358700E+02 -0.33338664409E+02  0.41941258934E+02  0.51100000000E-03 0.  1.
         12    1    3    3    0    0 -0.21942357089E+02 -0.17719215607E+02  0.25664037580E+02  0.38132406969E+02  0.00000000000E+00 0. -1.
</event>
<event>
 7    1  0.2000468E-015  0.9000792E+02  0.7816164E-02  0.1186339E+00
        -11   -1    0    0    0    0  0.00000000000E+00  0.00000000000E+00  0.45593999997E+02  0.45594000000E+02  0.51100000000E-03 0.  1.
         11   -1    0    0    0    0 -0.00000000000E+00 -0.00000000000E+00 -0.45593999997E+02  0.45594000000E+02  0.51100000000E-03 0. -1.
    9900012    2    1    2    0    0 -0.75639490823E+00 -0.34615688998E+00  0.83703124785E+00  0.90007924087E+02  0.90000187885E+02 0.  0.
         12    1    1    2    0    0  0.75639490823E+00  0.34615688998E+00 -0.83703124785E+00  0.11800759126E+01  0.00000000000E+00 0. -1.
         11    1    3    3    0    0  0.20343817167E+02  0.20565506387E+02 -0.25445920249E+02  0.38526689547E+02  0.51100000000E-03 0. -1.
        -11    1    3    3    0    0 -0.11612644325E+02 -0.29776412978E+01 -0.59583253933E+01  0.13387363358E+02  0.51100000000E-03 0.  1.
        -12    1    3    3    0    0 -0.94875677507E+01 -0.17934021979E+02  0.32241276890E+02  0.38093871183E+02  0.00000000000E+00 0.  1.
</event>
<event>
 7    1  0.2000468E-015  0.9000773E+02  0.7816164E-02  0.1186339E+00
        -11   -1    0    0    0    0  0.00000000000E+00  0.00000000000E+00  0.45593999997E+02  0.45594000000E+02  0.51100000000E-03 0.  1.
         11   -1    0    0    0    0 -0.00000000000E+00 -0.00000000000E+00 -0.45593999997E+02  0.45594000000E+02  0.51100000000E-03 0. -1.
    9900012    2    1    2    0    0 -0.47403557803E-01 -0.11788565148E+01  0.33079852710E-01  0.90007727126E+02  0.89999988324E+02 0.  0.
         12    1    1    2    0    0  0.47403557803E-01  0.11788565148E+01 -0.33079852710E-01  0.11802728737E+01  0.00000000000E+00 0. -1.
         11    1    3    3    0    0  0.77856838740E+00  0.10020691671E+02 -0.53718772952E+01  0.11396380839E+02  0.51100000000E-03 0. -1.
        -11    1    3    3    0    0 -0.37883545835E+02 -0.15813724517E+02  0.17453228177E+01  0.41088722055E+02  0.51100000000E-03 0.  1.
         12    1    3    3    0    0  0.37057573890E+02  0.46141763321E+01  0.36596343303E+01  0.37522624232E+02  0.00000000000E+00 0. -1.
</event>
<event>
 7    1  0.2000468E-015  0.9000769E+02  0.7816164E-02  0.1186339E+00
        -11   -1    0    0    0    0  0.00000000000E+00  0.00000000000E+00  0.45593999997E+02  0.45594000000E+02  0.51100000000E-03 0. -1.
         11   -1    0    0    0    0 -0.00000000000E+00 -0.00000000000E+00 -0.45593999997E+02  0.45594000000E+02  0.51100000000E-03 0.  1.
    9900012    2    1    2    0    0  0.45563595862E+00 -0.90655993459E+00  0.60306545076E+00  0.90007685220E+02  0.89999945865E+02 0.  0.
         12    1    1    2    0    0 -0.45563595862E+00  0.90655993459E+00 -0.60306545076E+00  0.11803147799E+01  0.00000000000E+00 0. -1.
         11    1    3    3    0    0 -0.92039486215E+01 -0.12610991677E+01 -0.11978483317E+01  0.93668501763E+01  0.51100000000E-03 0. -1.
        -11    1    3    3    0    0 -0.33563327392E+02  0.10471284380E+02 -0.57078966407E+01  0.35619163754E+02  0.51100000000E-03 0.  1.
         12    1    3    3    0    0  0.43222911972E+02 -0.10116745147E+02  0.75088104232E+01  0.45021671290E+02  0.00000000000E+00 0. -1.
</event>
<event>
 7    1  0.2000468E-015  0.9000781E+02  0.7816164E-02  0.1186339E+00
        -11   -1    0    0    0    0  0.00000000000E+00  0.00000000000E+00  0.45593999997E+02  0.45594000000E+02  0.51100000000E-03 0. -1.
         11   -1    0    0    0    0 -0.00000000000E+00 -0.00000000000E+00 -0.45593999997E+02  0.45594000000E+02  0.51100000000E-03 0.  1.
    9900012    2    1    2    0    0  0.92337542071E+00  0.29268011823E+00 -0.67421884827E+00  0.90007807272E+02  0.90000069528E+02 0.  0.
         12    1    1    2    0    0 -0.92337542071E+00 -0.29268011823E+00  0.67421884827E+00  0.11801927277E+01  0.00000000000E+00 0. -1.
         11    1    3    3    0    0  0.62758906858E+01 -0.57464460263E+01 -0.39905615153E+01  0.93985651725E+01  0.51100000000E-03 0. -1.
        -11    1    3    3    0    0  0.25785076673E+02 -0.15364615204E+02 -0.20130417762E+02  0.36141047286E+02  0.51100000000E-03 0.  1.
         12    1    3    3    0    0 -0.31137591938E+02  0.21403741349E+02  0.23446760429E+02  0.44468194814E+02  0.00000000000E+00 0. -1.
</event>
<event>
 7    1  0.2000468E-015  0.9000778E+02  0.7816164E-02  0.1186339E+00
        -11   -1    0    0    0    0  0.00000000000E+00  0.00000000000E+00  0.45593999997E+02  0.45594000000E+02  0.51100000000E-03 0.  1.
         11   -1    0    0    0    0 -0.00000000000E+00 -0.00000000000E+00 -0.45593999997E+02  0.45594000000E+02  0.51100000000E-03 0. -1.
    9900012    2    1    2    0    0 -0.97652013750E+00  0.63983752402E+00 -0.17300411525E+00  0.90007782198E+02  0.90000044123E+02 0.  0.
         12    1    1    2    0    0  0.97652013750E+00 -0.63983752402E+00  0.17300411525E+00  0.11802178019E+01  0.00000000000E+00 0. -1.
         11    1    3    3    0    0 -0.28308410705E+00 -0.98131336343E+01  0.68935379103E+01  0.11995773986E+02  0.51100000000E-03 0. -1.
        -11    1    3    3    0    0 -0.21846034496E+02  0.13968222747E+02  0.27206470011E+02  0.37583939131E+02  0.51100000000E-03 0.  1.
         12    1    3    3    0    0  0.21152598466E+02 -0.35152515890E+01 -0.34273012036E+02  0.40428069081E+02  0.00000000000E+00 0. -1.
</event>
<event>
 7    1  0.2000468E-015  0.9000785E+02  0.7816164E-02  0.1186339E+00
        -11   -1    0    0    0    0  0.00000000000E+00  0.00000000000E+00  0.45593999997E+02  0.45594000000E+02  0.51100000000E-03 0. -1.
         11   -1    0    0    0    0 -0.00000000000E+00 -0.00000000000E+00 -0.45593999997E+02  0.45594000000E+02  0.51100000000E-03 0.  1.
    9900012    2    1    2    0    0  0.99769215801E-01 -0.11453670077E+01 -0.26634293922E+00  0.90007848298E+02  0.90000111095E+02 0.  0.
         12    1    1    2    0    0 -0.99769215801E-01  0.11453670077E+01  0.26634293922E+00  0.11801517021E+01  0.00000000000E+00 0. -1.
         11    1    3    3    0    0  0.11575551358E+02 -0.35400820078E+02  0.66941319716E+01  0.37842077831E+02  0.51100000000E-03 0. -1.
        -11    1    3    3    0    0  0.21348649987E+01 -0.64374926149E+01  0.40069975429E+01  0.78774989242E+01  0.51100000000E-03 0.  1.
        -12    1    3    3    0    0 -0.13610647141E+02  0.40692945686E+02 -0.10967472454E+02  0.44288271542E+02  0.00000000000E+00 0.  1.
</event>
<event>
 7    1  0.2000468E-015  0.9000770E+02  0.7816164E-02  0.1186339E+00
        -11   -1    0    0    0    0  0.00000000000E+00  0.00000000000E+00  0.45593999997E+02  0.45594000000E+02  0.51100000000E-03 0. -1.
         11   -1    0    0    0    0 -0.00000000000E+00 -0.00000000000E+00 -0.45593999997E+02  0.45594000000E+02  0.51100000000E-03 0.  1.
    9900012    2    1    2    0    0 -0.14963447195E+00 -0.52882703943E-01 -0.11695828269E+01  0.90007698748E+02  0.89999959572E+02 0.  0.
         12    1    1    2    0    0  0.14963447195E+00  0.52882703943E-01  0.11695828269E+01  0.11803012516E+01  0.00000000000E+00 0. -1.
         11    1    3    3    0    0 -0.35588692666E+01  0.56285110535E+01  0.75443778328E+01  0.10062967966E+02  0.51100000000E-03 0. -1.
        -11    1    3    3    0    0  0.23104944707E+02  0.17699999457E+02 -0.30688204272E+02  0.42295322820E+02  0.51100000000E-03 0.  1.
         12    1    3    3    0    0 -0.19695709913E+02 -0.23381393215E+02  0.21974243612E+02  0.37649407963E+02  0.00000000000E+00 0. -1.
</event>
<event>
 7    1  0.2000468E-015  0.9000756E+02  0.7816164E-02  0.1186339E+00
        -11   -1    0    0    0    0  0.00000000000E+00  0.00000000000E+00  0.45593999997E+02  0.45594000000E+02  0.51100000000E-03 0.  1.
         11   -1    0    0    0    0 -0.00000000000E+00 -0.00000000000E+00 -0.45593999997E+02  0.45594000000E+02  0.51100000000E-03 0. -1.
    9900012    2    1    2    0    0  0.42194650026E+00  0.71913455924E+00  0.83561618107E+00  0.90007556115E+02  0.89999815056E+02 0.  0.
         12    1    1    2    0    0 -0.42194650026E+00 -0.71913455924E+00 -0.83561618107E+00  0.11804438849E+01  0.00000000000E+00 0. -1.
         11    1    3    3    0    0  0.52309447725E+01  0.74590688455E+01  0.50090238480E+01  0.10396673094E+02  0.51100000000E-03 0. -1.
        -11    1    3    3    0    0  0.26262745489E+02 -0.29537169694E+02 -0.96512204966E+01  0.40685651666E+02  0.51100000000E-03 0.  1.
         12    1    3    3    0    0 -0.31071743762E+02  0.22797235408E+02  0.54778128297E+01  0.38925231355E+02  0.00000000000E+00 0. -1.
</event>
<event>
 7    1  0.2000468E-015  0.9000766E+02  0.7816164E-02  0.1186339E+00
        -11   -1    0    0    0    0  0.00000000000E+00  0.00000000000E+00  0.45593999997E+02  0.45594000000E+02  0.51100000000E-03 0. -1.
         11   -1    0    0    0    0 -0.00000000000E+00 -0.00000000000E+00 -0.45593999997E+02  0.45594000000E+02  0.51100000000E-03 0.  1.
    9900012    2    1    2    0    0  0.77169462782E+00  0.87858105008E+00  0.16057142657E+00  0.90007660878E+02  0.89999921201E+02 0.  0.
         12    1    1    2    0    0 -0.77169462782E+00 -0.87858105008E+00 -0.16057142657E+00  0.11803391221E+01  0.00000000000E+00 0. -1.
         11    1    3    3    0    0  0.33311012477E+01 -0.66030564141E+01  0.45037597762E+01  0.86591247776E+01  0.51100000000E-03 0. -1.
        -11    1    3    3    0    0 -0.93515509958E+01 -0.27997767722E+02 -0.25909954321E+02  0.39276611827E+02  0.51100000000E-03 0.  1.
         12    1    3    3    0    0  0.67921443759E+01  0.35479405186E+02  0.21566765971E+02  0.42071924273E+02  0.00000000000E+00 0. -1.
</event>
<event>
 7    1  0.2000468E-015  0.9000770E+02  0.7816164E-02  0.1186339E+00
        -11   -1    0    0    0    0  0.00000000000E+00  0.00000000000E+00  0.45593999997E+02  0.45594000000E+02  0.51100000000E-03 0.  1.
         11   -1    0    0    0    0 -0.00000000000E+00 -0.00000000000E+00 -0.45593999997E+02  0.45594000000E+02  0.51100000000E-03 0. -1.
    9900012    2    1    2    0    0  0.58057707669E+00 -0.77501559763E+00  0.67482385007E+00  0.90007700823E+02  0.89999961674E+02 0.  0.
         12    1    1    2    0    0 -0.58057707669E+00  0.77501559763E+00 -0.67482385007E+00  0.11802991770E+01  0.00000000000E+00 0. -1.
         11    1    3    3    0    0  0.21236662258E+02 -0.23980092320E+02 -0.41688657119E+01  0.32302013763E+02  0.51100000000E-03 0. -1.
        -11    1    3    3    0    0  0.10483863250E+02 -0.79184716342E+01 -0.15018463258E+01  0.13223808994E+02  0.51100000000E-03 0.  1.
        -12    1    3    3    0    0 -0.31139948431E+02  0.31123548357E+02  0.63455358877E+01  0.44481878066E+02  0.00000000000E+00 0.  1.
</event>
<event>
 7    1  0.2000468E-015  0.9000776E+02  0.7816164E-02  0.1186339E+00
        -11   -1    0    0    0    0  0.00000000000E+00  0.00000000000E+00  0.45593999997E+02  0.45594000000E+02  0.51100000000E-03 0.  1.
         11   -1    0    0    0    0 -0.00000000000E+00 -0.00000000000E+00 -0.45593999997E+02  0.45594000000E+02  0.51100000000E-03 0. -1.
    9900012    2    1    2    0    0  0.11178532707E+01 -0.37353996583E-01 -0.37678431518E+00  0.90007763720E+02  0.90000025401E+02 0.  0.
         12    1    1    2    0    0 -0.11178532707E+01  0.37353996583E-01  0.37678431518E+00  0.11802362798E+01  0.00000000000E+00 0. -1.
         11    1    3    3    0    0 -0.27957340703E+01 -0.11809157263E+01  0.79994728020E+01  0.85558317139E+01  0.51100000000E-03 0. -1.
        -11    1    3    3    0    0  0.77414871437E+01 -0.77258304563E+01  0.35178132644E+02  0.36839110956E+02  0.51100000000E-03 0.  1.
         12    1    3    3    0    0 -0.38278998026E+01  0.88693921861E+01 -0.43554389761E+02  0.44612821051E+02  0.00000000000E+00 0. -1.
</event>
<event>
 7    1  0.2000468E-015  0.9000775E+02  0.7816164E-02  0.1186339E+00
        -11   -1    0    0    0    0  0.00000000000E+00  0.00000000000E+00  0.45593999997E+02  0.45594000000E+02  0.51100000000E-03 0.  1.
         11   -1    0    0    0    0 -0.00000000000E+00 -0.00000000000E+00 -0.45593999997E+02  0.45594000000E+02  0.51100000000E-03 0. -1.
    9900012    2    1    2    0    0 -0.20236265007E+00 -0.33929189598E+00  0.11121723122E+01  0.90007747110E+02  0.90000008572E+02 0.  0.
         12    1    1    2    0    0  0.20236265007E+00  0.33929189598E+00 -0.11121723122E+01  0.11802528902E+01  0.00000000000E+00 0. -1.
         11    1    3    3    0    0 -0.25293165269E+02 -0.23924688012E+02 -0.28398576781E+01  0.34931356941E+02  0.51100000000E-03 0. -1.
        -11    1    3    3    0    0 -0.65836643284E+01 -0.71989851158E+01 -0.33348994936E+01  0.10309780676E+02  0.51100000000E-03 0.  1.
        -12    1    3    3    0    0  0.31674466947E+02  0.30784381232E+02  0.72869294838E+01  0.44766609494E+02  0.00000000000E+00 0.  1.
</event>
<event>
 7    1  0.2000468E-015  0.9000779E+02  0.7816164E-02  0.1186339E+00
        -11   -1    0    0    0    0  0.00000000000E+00  0.00000000000E+00  0.45593999997E+02  0.45594000000E+02  0.51100000000E-03 0. -1.
         11   -1    0    0    0    0 -0.00000000000E+00 -0.00000000000E+00 -0.45593999997E+02  0.45594000000E+02  0.51100000000E-03 0.  1.
    9900012    2    1    2    0    0  0.61564979648E+00  0.73462567639E+00 -0.68861317800E+00  0.90007793380E+02  0.90000055453E+02 0.  0.
         12    1    1    2    0    0 -0.61564979648E+00 -0.73462567639E+00  0.68861317800E+00  0.11802066197E+01  0.00000000000E+00 0. -1.
         11    1    3    3    0    0  0.14430624131E+01 -0.44786402597E+01 -0.12488766072E+02  0.13345783078E+02  0.51100000000E-03 0. -1.
        -11    1    3    3    0    0  0.16580549823E+02 -0.19395640931E+02 -0.20315258475E+02  0.32616180750E+02  0.51100000000E-03 0.  1.
         12    1    3    3    0    0 -0.17407962440E+02  0.24608906867E+02  0.32115411369E+02  0.44045829552E+02  0.00000000000E+00 0. -1.
</event>
<event>
 7    1  0.2000468E-015  0.9000774E+02  0.7816164E-02  0.1186339E+00
        -11   -1    0    0    0    0  0.00000000000E+00  0.00000000000E+00  0.45593999997E+02  0.45594000000E+02  0.51100000000E-03 0. -1.
         11   -1    0    0    0    0 -0.00000000000E+00 -0.00000000000E+00 -0.45593999997E+02  0.45594000000E+02  0.51100000000E-03 0.  1.
    9900012    2    1    2    0    0 -0.75541104007E+00  0.81140592173E+00 -0.40496818730E+00  0.90007735351E+02  0.89999996657E+02 0.  0.
         12    1    1    2    0    0  0.75541104007E+00 -0.81140592173E+00  0.40496818730E+00  0.11802646491E+01  0.00000000000E+00 0. -1.
         11    1    3    3    0    0  0.30627336665E+02 -0.65853318411E+01  0.13650175696E+02  0.34172030133E+02  0.51100000000E-03 0. -1.
        -11    1    3    3    0    0  0.94604063831E+01 -0.15159167017E+01  0.38924479143E+01  0.10341588051E+02  0.51100000000E-03 0.  1.
        -12    1    3    3    0    0 -0.40843154088E+02  0.89126544645E+01 -0.17947591798E+02  0.45494117167E+02  0.00000000000E+00 0.  1.
</event>
<event>
 7    1  0.2000468E-015  0.9000764E+02  0.7816164E-02  0.1186339E+00
        -11   -1    0    0    0    0  0.00000000000E+00  0.00000000000E+00  0.45593999997E+02  0.45594000000E+02  0.51100000000E-03 0.  1.
         11   -1    0    0    0    0 -0.00000000000E+00 -0.00000000000E+00 -0.45593999997E+02  0.45594000000E+02  0.51100000000E-03 0. -1.
    9900012    2    1    2    0    0 -0.40367173716E+00 -0.84230336945E+00 -0.72168445348E+00  0.90007638069E+02  0.89999898092E+02 0.  0.
         12    1    1    2    0    0  0.40367173716E+00  0.84230336945E+00  0.72168445348E+00  0.11803619309E+01  0.00000000000E+00 0. -1.
         11    1    3    3    0    0  0.86374726274E+00  0.83070826248E+01  0.36673735760E+01  0.91215848555E+01  0.51100000000E-03 0. -1.
        -11    1    3    3    0    0 -0.32141590939E+02 -0.88908875162E+01  0.22264336863E+02  0.40097761099E+02  0.51100000000E-03 0.  1.
         12    1    3    3    0    0  0.30874171939E+02 -0.25849847806E+00 -0.26653394892E+02  0.40788292115E+02  0.00000000000E+00 0. -1.
</event>
<event>
 7    1  0.2000468E-015  0.9000780E+02  0.7816164E-02  0.1186339E+00
        -11   -1    0    0    0    0  0.00000000000E+00  0.00000000000E+00  0.45593999997E+02  0.45594000000E+02  0.51100000000E-03 0.  1.
         11   -1    0    0    0    0 -0.00000000000E+00 -0.00000000000E+00 -0.45593999997E+02  0.45594000000E+02  0.51100000000E-03 0. -1.
    9900012    2    1    2    0    0  0.56741259762E+00  0.77290754588E+00  0.68813410171E+00  0.90007800156E+02  0.90000062318E+02 0.  0.
         12    1    1    2    0    0 -0.56741259762E+00 -0.77290754588E+00 -0.68813410171E+00  0.11801998442E+01  0.00000000000E+00 0. -1.
         11    1    3    3    0    0 -0.38576214404E+02  0.10755514140E+02 -0.10161606662E+02  0.41316626827E+02  0.51100000000E-03 0. -1.
        -11    1    3    3    0    0  0.13714751188E+01 -0.94968830452E+01  0.96353195884E+00  0.96436572768E+01  0.51100000000E-03 0.  1.
        -12    1    3    3    0    0  0.37772151883E+02 -0.48572354864E+00  0.98862088048E+01  0.39047516051E+02  0.00000000000E+00 0.  1.
</event>
<event>
 7    1  0.2000468E-015  0.9000799E+02  0.7816164E-02  0.1186339E+00
        -11   -1    0    0    0    0  0.00000000000E+00  0.00000000000E+00  0.45593999997E+02  0.45594000000E+02  0.51100000000E-03 0. -1.
         11   -1    0    0    0    0 -0.00000000000E+00 -0.00000000000E+00 -0.45593999997E+02  0.45594000000E+02  0.51100000000E-03 0.  1.
    9900012    2    1    2    0    0  0.42006086400E+00  0.89052220323E+00 -0.65033732473E+00  0.90007991712E+02  0.90000256402E+02 0.  0.
         12    1    1    2    0    0 -0.42006086400E+00 -0.89052220323E+00  0.65033732473E+00  0.11800082880E+01  0.00000000000E+00 0. -1.
         11    1    3    3    0    0 -0.65190812227E+01  0.50270759650E+01  0.15006811795E+01  0.83679123448E+01  0.51100000000E-03 0. -1.
        -11    1    3    3    0    0 -0.31658300270E+02  0.17532328108E+02 -0.77916703928E+01  0.37018112224E+02  0.51100000000E-03 0.  1.
         12    1    3    3    0    0  0.38597442357E+02 -0.21668881869E+02  0.56406518885E+01  0.44621967143E+02  0.00000000000E+00 0. -1.
</event>
<event>
 7    1  0.2000468E-015  0.9000756E+02  0.7816164E-02  0.1186339E+00
        -11   -1    0    0    0    0  0.00000000000E+00  0.00000000000E+00  0.45593999997E+02  0.45594000000E+02  0.51100000000E-03 0. -1.
         11   -1    0    0    0    0 -0.00000000000E+00 -0.00000000000E+00 -0.45593999997E+02  0.45594000000E+02  0.51100000000E-03 0.  1.
    9900012    2    1    2    0    0  0.97096141369E+00 -0.67114785726E+00 -0.15270043771E-01  0.90007559960E+02  0.89999818952E+02 0.  0.
         12    1    1    2    0    0 -0.97096141369E+00  0.67114785726E+00  0.15270043771E-01  0.11804400397E+01  0.00000000000E+00 0. -1.
         11    1    3    3    0    0  0.46006029045E+01  0.33639574165E+02  0.11513179429E+02  0.35851635917E+02  0.51100000000E-03 0. -1.
        -11    1    3    3    0    0 -0.10361328808E+01  0.89185427928E+01  0.10989647511E+01  0.90455348476E+01  0.51100000000E-03 0.  1.
        -12    1    3    3    0    0 -0.25935086100E+01 -0.43229264816E+02 -0.12627414223E+02  0.45110389196E+02  0.00000000000E+00 0.  1.
</event>
<event>
 7    1  0.2000468E-015  0.9000777E+02  0.7816164E-02  0.1186339E+00
        -11   -1    0    0    0    0  0.00000000000E+00  0.00000000000E+00  0.45593999997E+02  0.45594000000E+02  0.51100000000E-03 0.  1.
         11   -1    0    0    0    0 -0.00000000000E+00 -0.00000000000E+00 -0.45593999997E+02  0.45594000000E+02  0.51100000000E-03 0. -1.
    9900012    2    1    2    0    0 -0.38564631992E+00  0.79706418003E+00  0.78032775354E+00  0.90007768754E+02  0.90000030502E+02 0.  0.
         12    1    1    2    0    0  0.38564631992E+00 -0.79706418003E+00 -0.78032775354E+00  0.11802312460E+01  0.00000000000E+00 0. -1.
         11    1    3    3    0    0  0.12692040498E+02 -0.30665417448E+02  0.79425938042E+01  0.34125364700E+02  0.51100000000E-03 0. -1.
        -11    1    3    3    0    0  0.85847868142E+01  0.94391469020E+01  0.13610671342E+02  0.18656002613E+02  0.51100000000E-03 0.  1.
        -12    1    3    3    0    0 -0.21662473632E+02  0.22023334726E+02 -0.20772937392E+02  0.37226401441E+02  0.00000000000E+00 0.  1.
</event>
<event>
 7    1  0.2000468E-015  0.9000782E+02  0.7816164E-02  0.1186339E+00
        -11   -1    0    0    0    0  0.00000000000E+00  0.00000000000E+00  0.45593999997E+02  0.45594000000E+02  0.51100000000E-03 0.  1.
         11   -1    0    0    0    0 -0.00000000000E+00 -0.00000000000E+00 -0.45593999997E+02  0.45594000000E+02  0.51100000000E-03 0. -1.
    9900012    2    1    2    0    0  0.85778203370E+00  0.49772886019E+00  0.63976207414E+00  0.90007822239E+02  0.90000084693E+02 0.  0.
         12    1    1    2    0    0 -0.85778203370E+00 -0.49772886019E+00 -0.63976207414E+00  0.11801777608E+01  0.00000000000E+00 0. -1.
         11    1    3    3    0    0  0.24523468225E+02 -0.23193650014E+02 -0.10702073641E+02  0.35410171917E+02  0.51100000000E-03 0. -1.
        -11    1    3    3    0    0  0.10273802584E+02 -0.11825079863E+01  0.65637258068E+01  0.12248748564E+02  0.51100000000E-03 0.  1.
        -12    1    3    3    0    0 -0.33939488774E+02  0.24873886860E+02  0.47781099086E+01  0.42348901758E+02  0.00000000000E+00 0.  1.
</event>
<event>
 7    1  0.2000468E-015  0.9000781E+02  0.7816164E-02  0.1186339E+00
        -11   -1    0    0    0    0  0.00000000000E+00  0.00000000000E+00  0.45593999997E+02  0.45594000000E+02  0.51100000000E-03 0.  1.
         11   -1    0    0    0    0 -0.00000000000E+00 -0.00000000000E+00 -0.45593999997E+02  0.45594000000E+02  0.51100000000E-03 0. -1.
    9900012    2    1    2    0    0  0.87031801282E-01  0.11511284122E+01 -0.24532370431E+00  0.90007807272E+02  0.90000069528E+02 0.  0.
         12    1    1    2    0    0 -0.87031801282E-01 -0.11511284122E+01  0.24532370431E+00  0.11801927282E+01  0.00000000000E+00 0. -1.
         11    1    3    3    0    0  0.86157544064E+01 -0.27104585727E+01  0.11829206444E+01  0.91091773053E+01  0.51100000000E-03 0. -1.
        -11    1    3    3    0    0  0.95797860242E+00  0.93134620468E+01  0.38436084519E+02  0.39559965770E+02  0.51100000000E-03 0.  1.
         12    1    3    3    0    0 -0.94867012076E+01 -0.54518750619E+01 -0.39864328868E+02  0.41338664197E+02  0.00000000000E+00 0. -1.
</event>
<event>
 7    1  0.2000468E-015  0.9000775E+02  0.7816164E-02  0.1186339E+00
        -11   -1    0    0    0    0  0.00000000000E+00  0.00000000000E+00  0.45593999997E+02  0.45594000000E+02  0.51100000000E-03 0.  1.
         11   -1    0    0    0    0 -0.00000000000E+00 -0.00000000000E+00 -0.45593999997E+02  0.45594000000E+02  0.51100000000E-03 0. -1.
    9900012    2    1    2    0    0 -0.57958306059E+00  0.98764199252E+00  0.28572095723E+00  0.90007750156E+02  0.90000011658E+02 0.  0.
         12    1    1    2    0    0  0.57958306059E+00 -0.98764199252E+00 -0.28572095723E+00  0.11802498443E+01  0.00000000000E+00 0. -1.
         11    1    3    3    0    0 -0.97603753515E+01 -0.83062344654E+01  0.85080663212E+01  0.15383291286E+02  0.51100000000E-03 0. -1.
        -11    1    3    3    0    0 -0.19017034449E+02 -0.21494401194E+01  0.23739099426E+02  0.30492827581E+02  0.51100000000E-03 0.  1.
         12    1    3    3    0    0  0.28197826740E+02  0.11443316577E+02 -0.31961444790E+02  0.44131631289E+02  0.00000000000E+00 0. -1.
</event>
<event>
 7    1  0.2000468E-015  0.9000770E+02  0.7816164E-02  0.1186339E+00
        -11   -1    0    0    0    0  0.00000000000E+00  0.00000000000E+00  0.45593999997E+02  0.45594000000E+02  0.51100000000E-03 0.  1.
         11   -1    0    0    0    0 -0.00000000000E+00 -0.00000000000E+00 -0.45593999997E+02  0.45594000000E+02  0.51100000000E-03 0. -1.
    9900012    2    1    2    0    0 -0.92907433233E+00  0.66747999329E+00 -0.29051603300E+00  0.90007699944E+02  0.89999960783E+02 0.  0.
         12    1    1    2    0    0  0.92907433233E+00 -0.66747999329E+00  0.29051603300E+00  0.11803000559E+01  0.00000000000E+00 0. -1.
         11    1    3    3    0    0  0.77677121167E+01  0.27501867956E+02 -0.21943916704E+02  0.36030897479E+02  0.51100000000E-03 0. -1.
        -11    1    3    3    0    0  0.34854418540E+01  0.83607619011E+01 -0.27304566952E+01  0.94607631040E+01  0.51100000000E-03 0.  1.
        -12    1    3    3    0    0 -0.12182228303E+02 -0.35195149864E+02  0.24383857366E+02  0.44516039361E+02  0.00000000000E+00 0.  1.
</event>
<event>
 7    1  0.2000468E-015  0.9000776E+02  0.7816164E-02  0.1186339E+00
        -11   -1    0    0    0    0  0.00000000000E+00  0.00000000000E+00  0.45593999997E+02  0.45594000000E+02  0.51100000000E-03 0.  1.
         11   -1    0    0    0    0 -0.00000000000E+00 -0.00000000000E+00 -0.45593999997E+02  0.45594000000E+02  0.51100000000E-03 0. -1.
    9900012    2    1    2    0    0  0.33453351271E+00  0.10773490106E+01  0.34696453053E+00  0.90007755133E+02  0.90000016700E+02 0.  0.
         12    1    1    2    0    0 -0.33453351271E+00 -0.10773490106E+01 -0.34696453053E+00  0.11802448675E+01  0.00000000000E+00 0. -1.
         11    1    3    3    0    0  0.80201609817E+01 -0.51457110268E+01  0.10867704835E+02  0.14453661570E+02  0.51100000000E-03 0. -1.
        -11    1    3    3    0    0 -0.14243989997E+01  0.49066745787E+01  0.32075576612E+02  0.32479947401E+02  0.51100000000E-03 0.  1.
         12    1    3    3    0    0 -0.62612284693E+01  0.13163854587E+01 -0.42596316917E+02  0.43074146161E+02  0.00000000000E+00 0. -1.
</event>
<event>
 7    1  0.2000468E-015  0.9000736E+02  0.7816164E-02  0.1186340E+00
        -11   -1    0    0    0    0  0.00000000000E+00  0.00000000000E+00  0.45593999997E+02  0.45594000000E+02  0.51100000000E-03 0.  1.
         11   -1    0    0    0    0 -0.00000000000E+00 -0.00000000000E+00 -0.45593999997E+02  0.45594000000E+02  0.51100000000E-03 0. -1.
    9900012    2    1    2    0    0  0.13049863283E+00 -0.84727583131E+00  0.81178378736E+00  0.90007364940E+02  0.89999621356E+02 0.  0.
         12    1    1    2    0    0 -0.13049863283E+00  0.84727583131E+00 -0.81178378736E+00  0.11806350600E+01  0.00000000000E+00 0. -1.
         11    1    3    3    0    0  0.73819158684E+01  0.34983495036E+02 -0.13758853098E+02  0.38309837453E+02  0.51100000000E-03 0. -1.
        -11    1    3    3    0    0 -0.50281601682E+01  0.58933619019E+01  0.33027539619E+01  0.84215374592E+01  0.51100000000E-03 0.  1.
        -12    1    3    3    0    0 -0.22232570674E+01 -0.41724132769E+02  0.11267882924E+02  0.43275990028E+02  0.00000000000E+00 0.  1.
</event>
<event>
 7    1  0.2000468E-015  0.9000786E+02  0.7816164E-02  0.1186339E+00
        -11   -1    0    0    0    0  0.00000000000E+00  0.00000000000E+00  0.45593999997E+02  0.45594000000E+02  0.51100000000E-03 0. -1.
         11   -1    0    0    0    0 -0.00000000000E+00 -0.00000000000E+00 -0.45593999997E+02  0.45594000000E+02  0.51100000000E-03 0.  1.
    9900012    2    1    2    0    0  0.34411168712E+00 -0.11113325749E+01 -0.19811701661E+00  0.90007863017E+02  0.90000126009E+02 0.  0.
         12    1    1    2    0    0 -0.34411168712E+00  0.11113325749E+01  0.19811701661E+00  0.11801369825E+01  0.00000000000E+00 0. -1.
         11    1    3    3    0    0  0.53044547928E+01 -0.48237660773E+01  0.53386874541E+01  0.89391019578E+01  0.51100000000E-03 0. -1.
        -11    1    3    3    0    0  0.28739871729E+02  0.13799845495E+02  0.19967861908E+02  0.37618233241E+02  0.51100000000E-03 0.  1.
         12    1    3    3    0    0 -0.33700214835E+02 -0.10087411993E+02 -0.25504666379E+02  0.43450527819E+02  0.00000000000E+00 0. -1.
</event>
<event>
 7    1  0.2000468E-015  0.9000779E+02  0.7816164E-02  0.1186339E+00
        -11   -1    0    0    0    0  0.00000000000E+00  0.00000000000E+00  0.45593999997E+02  0.45594000000E+02  0.51100000000E-03 0. -1.
         11   -1    0    0    0    0 -0.00000000000E+00 -0.00000000000E+00 -0.45593999997E+02  0.45594000000E+02  0.51100000000E-03 0.  1.
    9900012    2    1    2    0    0 -0.87310353287E+00  0.44225288735E+00 -0.65954311938E+00  0.90007790475E+02  0.90000052510E+02 0.  0.
         12    1    1    2    0    0  0.87310353287E+00 -0.44225288735E+00  0.65954311938E+00  0.11802095245E+01  0.00000000000E+00 0. -1.
         11    1    3    3    0    0  0.35486859825E+01  0.59435690570E+01  0.10483320175E+02  0.12562610696E+02  0.51100000000E-03 0. -1.
        -11    1    3    3    0    0  0.33823882821E+02 -0.73609429147E+00  0.74669016832E+01  0.34646089316E+02  0.51100000000E-03 0.  1.
         12    1    3    3    0    0 -0.38245672336E+02 -0.47652218782E+01 -0.18609764978E+02  0.42799090464E+02  0.00000000000E+00 0. -1.
</event>
<event>
 7    1  0.2000468E-015  0.9000764E+02  0.7816164E-02  0.1186339E+00
        -11   -1    0    0    0    0  0.00000000000E+00  0.00000000000E+00  0.45593999997E+02  0.45594000000E+02  0.51100000000E-03 0.  1.
         11   -1    0    0    0    0 -0.00000000000E+00 -0.00000000000E+00 -0.45593999997E+02  0.45594000000E+02  0.51100000000E-03 0. -1.
    9900012    2    1    2    0    0 -0.11653147617E+00 -0.96757807814E+00 -0.66592746600E+00  0.90007641448E+02  0.89999901515E+02 0.  0.
         12    1    1    2    0    0  0.11653147617E+00  0.96757807814E+00  0.66592746600E+00  0.11803585524E+01  0.00000000000E+00 0. -1.
         11    1    3    3    0    0  0.33447919106E+01 -0.11050820737E+02 -0.20369201263E+01  0.11724219196E+02  0.51100000000E-03 0. -1.
        -11    1    3    3    0    0  0.12876455025E+01 -0.33890980125E+02 -0.16060237097E+01  0.33953436898E+02  0.51100000000E-03 0.  1.
         12    1    3    3    0    0 -0.47489688893E+01  0.43974222784E+02  0.29770163701E+01  0.44329985354E+02  0.00000000000E+00 0. -1.
</event>
<event>
 7    1  0.2000468E-015  0.9000756E+02  0.7816164E-02  0.1186339E+00
        -11   -1    0    0    0    0  0.00000000000E+00  0.00000000000E+00  0.45593999997E+02  0.45594000000E+02  0.51100000000E-03 0.  1.
         11   -1    0    0    0    0 -0.00000000000E+00 -0.00000000000E+00 -0.45593999997E+02  0.45594000000E+02  0.51100000000E-03 0. -1.
    9900012    2    1    2    0    0 -0.64836570501E+00  0.55582091079E+00  0.81493063300E+00  0.90007564949E+02  0.89999824006E+02 0.  0.
         12    1    1    2    0    0  0.64836570501E+00 -0.55582091079E+00 -0.81493063300E+00  0.11804350507E+01  0.00000000000E+00 0. -1.
         11    1    3    3    0    0  0.36960040075E+02 -0.13991103410E+02 -0.10572609664E+02  0.40909358493E+02  0.51100000000E-03 0. -1.
        -11    1    3    3    0    0 -0.45578095862E+01 -0.65975503069E+01  0.47061647952E+01  0.92978107970E+01  0.51100000000E-03 0.  1.
        -12    1    3    3    0    0 -0.33050596193E+02  0.21144474628E+02  0.66813755015E+01  0.39800395659E+02  0.00000000000E+00 0.  1.
</event>
<event>
 7    1  0.2000468E-015  0.9000767E+02  0.7816164E-02  0.1186339E+00
        -11   -1    0    0    0    0  0.00000000000E+00  0.00000000000E+00  0.45593999997E+02  0.45594000000E+02  0.51100000000E-03 0.  1.
         11   -1    0    0    0    0 -0.00000000000E+00 -0.00000000000E+00 -0.45593999997E+02  0.45594000000E+02  0.51100000000E-03 0. -1.
    9900012    2    1    2    0    0 -0.25281999191E+00  0.41005860267E+00  0.10775440311E+01  0.90007674983E+02  0.89999935493E+02 0.  0.
         12    1    1    2    0    0  0.25281999191E+00 -0.41005860267E+00 -0.10775440311E+01  0.11803250167E+01  0.00000000000E+00 0. -1.
         11    1    3    3    0    0 -0.39650237265E+01 -0.46579122090E+01  0.10011947709E+02  0.11732717353E+02  0.51100000000E-03 0. -1.
        -11    1    3    3    0    0  0.51327333357E+01  0.26612456164E+02  0.25772324809E+02  0.37400274076E+02  0.51100000000E-03 0.  1.
         12    1    3    3    0    0 -0.14205296011E+01 -0.21544485353E+02 -0.34706728487E+02  0.40874683555E+02  0.00000000000E+00 0. -1.
</event>
<event>
 7    1  0.2000468E-015  0.9000822E+02  0.7816164E-02  0.1186338E+00
        -11   -1    0    0    0    0  0.00000000000E+00  0.00000000000E+00  0.45593999997E+02  0.45594000000E+02  0.51100000000E-03 0. -1.
         11   -1    0    0    0    0 -0.00000000000E+00 -0.00000000000E+00 -0.45593999997E+02  0.45594000000E+02  0.51100000000E-03 0.  1.
    9900012    2    1    2    0    0 -0.10193132142E+01 -0.54338641834E+00 -0.24000913117E+00  0.90008223491E+02  0.90000491240E+02 0.  0.
         12    1    1    2    0    0  0.10193132142E+01  0.54338641834E+00  0.24000913117E+00  0.11797765090E+01  0.00000000000E+00 0. -1.
         11    1    3    3    0    0 -0.46871133984E+01  0.85958056739E+01 -0.65617817001E+00  0.98126182665E+01  0.51100000000E-03 0. -1.
        -11    1    3    3    0    0  0.16261243233E+02 -0.44261392220E+01 -0.36880737140E+02  0.40548828739E+02  0.51100000000E-03 0.  1.
         12    1    3    3    0    0 -0.12593443049E+02 -0.47130528702E+01  0.37296906179E+02  0.39646776485E+02  0.00000000000E+00 0. -1.
</event>
<event>
 7    1  0.2000468E-015  0.9000806E+02  0.7816164E-02  0.1186338E+00
        -11   -1    0    0    0    0  0.00000000000E+00  0.00000000000E+00  0.45593999997E+02  0.45594000000E+02  0.51100000000E-03 0.  1.
         11   -1    0    0    0    0 -0.00000000000E+00 -0.00000000000E+00 -0.45593999997E+02  0.45594000000E+02  0.51100000000E-03 0. -1.
    9900012    2    1    2    0    0 -0.11230697934E+01  0.14765513355E-01  0.36159814976E+00  0.90008060593E+02  0.90000326193E+02 0.  0.
         12    1    1    2    0    0  0.11230697934E+01 -0.14765513355E-01 -0.36159814976E+00  0.11799394066E+01  0.00000000000E+00 0. -1.
         11    1    3    3    0    0  0.63743419442E+01 -0.69338137149E+01  0.27586762440E+01  0.98142907403E+01  0.51100000000E-03 0. -1.
        -11    1    3    3    0    0 -0.12424542901E+02 -0.32360930383E+02 -0.16171051778E+02  0.38250516303E+02  0.51100000000E-03 0.  1.
         12    1    3    3    0    0  0.49271311630E+01  0.39309509611E+02  0.13773973684E+02  0.41943253551E+02  0.00000000000E+00 0. -1.
</event>
<event>
 7    1  0.2000468E-015  0.9000774E+02  0.7816164E-02  0.1186339E+00
        -11   -1    0    0    0    0  0.00000000000E+00  0.00000000000E+00  0.45593999997E+02  0.45594000000E+02  0.51100000000E-03 0. -1.
         11   -1    0    0    0    0 -0.00000000000E+00 -0.00000000000E+00 -0.45593999997E+02  0.45594000000E+02  0.51100000000E-03 0.  1.
    9900012    2    1    2    0    0 -0.98559695818E+00 -0.62776444381E+00 -0.16588418856E+00  0.90007742772E+02  0.90000004176E+02 0.  0.
         12    1    1    2    0    0  0.98559695818E+00  0.62776444381E+00  0.16588418856E+00  0.11802572283E+01  0.00000000000E+00 0. -1.
         11    1    3    3    0    0  0.30793889625E+00 -0.10191451000E+02  0.86517824287E+01  0.13372129199E+02  0.51100000000E-03 0. -1.
        -11    1    3    3    0    0 -0.21571320642E+02 -0.24181650663E+02 -0.16745910878E+02  0.36476014509E+02  0.51100000000E-03 0.  1.
         12    1    3    3    0    0  0.20277784788E+02  0.33745337219E+02  0.79282442610E+01  0.40159599064E+02  0.00000000000E+00 0. -1.
</event>
<event>
 7    1  0.2000468E-015  0.9000769E+02  0.7816164E-02  0.1186339E+00
        -11   -1    0    0    0    0  0.00000000000E+00  0.00000000000E+00  0.45593999997E+02  0.45594000000E+02  0.51100000000E-03 0.  1.
         11   -1    0    0    0    0 -0.00000000000E+00 -0.00000000000E+00 -0.45593999997E+02  0.45594000000E+02  0.51100000000E-03 0. -1.
    9900012    2    1    2    0    0  0.35803678891E+00  0.50529516173E+00  0.10047954296E+01  0.90007691821E+02  0.89999952553E+02 0.  0.
         12    1    1    2    0    0 -0.35803678891E+00 -0.50529516173E+00 -0.10047954296E+01  0.11803081792E+01  0.00000000000E+00 0. -1.
         11    1    3    3    0    0 -0.11722177838E+02  0.13990588580E+02 -0.39041689253E+01  0.18665169630E+02  0.51100000000E-03 0. -1.
        -11    1    3    3    0    0 -0.26261300874E+02 -0.11824304458E+02 -0.95335865726E+01  0.30337425282E+02  0.51100000000E-03 0.  1.
         12    1    3    3    0    0  0.38341515501E+02 -0.16609889606E+01  0.14442550927E+02  0.41005096909E+02  0.00000000000E+00 0. -1.
</event>
<event>
 7    1  0.2000468E-015  0.9000785E+02  0.7816164E-02  0.1186339E+00
        -11   -1    0    0    0    0  0.00000000000E+00  0.00000000000E+00  0.45593999997E+02  0.45594000000E+02  0.51100000000E-03 0. -1.
         11   -1    0    0    0    0 -0.00000000000E+00 -0.00000000000E+00 -0.45593999997E+02  0.45594000000E+02  0.51100000000E-03 0.  1.
    9900012    2    1    2    0    0  0.65594914543E+00 -0.94523051961E+00  0.26272094774E+00  0.90007850724E+02  0.90000113554E+02 0.  0.
         12    1    1    2    0    0 -0.65594914543E+00  0.94523051961E+00 -0.26272094774E+00  0.11801492757E+01  0.00000000000E+00 0. -1.
         11    1    3    3    0    0 -0.24702196670E+02  0.16455570636E+02  0.17532992362E+02  0.34473035067E+02  0.51100000000E-03 0. -1.
        -11    1    3    3    0    0  0.13447837952E+01  0.10910682228E+02  0.51778861767E+01  0.12151622759E+02  0.51100000000E-03 0.  1.
        -12    1    3    3    0    0  0.24013362021E+02 -0.28311483384E+02 -0.22448157591E+02  0.43383192899E+02  0.00000000000E+00 0.  1.
</event>
<event>
 7    1  0.2000468E-015  0.9000765E+02  0.7816164E-02  0.1186339E+00
        -11   -1    0    0    0    0  0.00000000000E+00  0.00000000000E+00  0.45593999997E+02  0.45594000000E+02  0.51100000000E-03 0. -1.
         11   -1    0    0    0    0 -0.00000000000E+00 -0.00000000000E+00 -0.45593999997E+02  0.45594000000E+02  0.51100000000E-03 0.  1.
    9900012    2    1    2    0    0 -0.32275137200E+00 -0.41108939843E+00 -0.10583294046E+01  0.90007650869E+02  0.89999911061E+02 0.  0.
         12    1    1    2    0    0  0.32275137200E+00  0.41108939843E+00  0.10583294046E+01  0.11803491307E+01  0.00000000000E+00 0. -1.
         11    1    3    3    0    0 -0.19876592335E+02 -0.28070728722E+02  0.34374295454E+01  0.34566756515E+02  0.51100000000E-03 0. -1.
        -11    1    3    3    0    0 -0.87737846738E+01 -0.64474183109E+01 -0.11889002687E+00  0.10888647091E+02  0.51100000000E-03 0.  1.
        -12    1    3    3    0    0  0.28327625637E+02  0.34107057634E+02 -0.43768689231E+01  0.44552247263E+02  0.00000000000E+00 0.  1.
</event>
<event>
 7    1  0.2000468E-015  0.9000752E+02  0.7816164E-02  0.1186339E+00
        -11   -1    0    0    0    0  0.00000000000E+00  0.00000000000E+00  0.45593999997E+02  0.45594000000E+02  0.51100000000E-03 0.  1.
         11   -1    0    0    0    0 -0.00000000000E+00 -0.00000000000E+00 -0.45593999997E+02  0.45594000000E+02  0.51100000000E-03 0. -1.
    9900012    2    1    2    0    0 -0.76207306369E+00  0.78413935715E+00  0.44486205680E+00  0.90007520379E+02  0.89999778848E+02 0.  0.
         12    1    1    2    0    0  0.76207306369E+00 -0.78413935715E+00 -0.44486205680E+00  0.11804796209E+01  0.00000000000E+00 0. -1.
         11    1    3    3    0    0 -0.22628981602E+02  0.15333212545E+02 -0.25100782673E+02  0.37111015971E+02  0.51100000000E-03 0. -1.
        -11    1    3    3    0    0 -0.85252254073E+01  0.25289235297E+01 -0.11785611259E+01  0.89701688419E+01  0.51100000000E-03 0.  1.
        -12    1    3    3    0    0  0.30392133946E+02 -0.17077996718E+02  0.26724205856E+02  0.43926335566E+02  0.00000000000E+00 0.  1.
</event>
<event>
 7    1  0.2000468E-015  0.9000772E+02  0.7816164E-02  0.1186339E+00
        -11   -1    0    0    0    0  0.00000000000E+00  0.00000000000E+00  0.45593999997E+02  0.45594000000E+02  0.51100000000E-03 0. -1.
         11   -1    0    0    0    0 -0.00000000000E+00 -0.00000000000E+00 -0.45593999997E+02  0.45594000000E+02  0.51100000000E-03 0.  1.
    9900012    2    1    2    0    0 -0.10690488604E+01  0.37133736047E-01  0.49881362393E+00  0.90007720621E+02  0.89999981734E+02 0.  0.
         12    1    1    2    0    0  0.10690488604E+01 -0.37133736047E-01 -0.49881362393E+00  0.11802793786E+01  0.00000000000E+00 0. -1.
         11    1    3    3    0    0 -0.62437015006E+01 -0.77724425617E+01  0.22650875146E+01  0.10223761221E+02  0.51100000000E-03 0. -1.
        -11    1    3    3    0    0 -0.12102091468E+02 -0.29565141929E+02 -0.16621353153E+02  0.36011492833E+02  0.51100000000E-03 0.  1.
         12    1    3    3    0    0  0.17276744108E+02  0.37374718227E+02  0.14855079262E+02  0.43772466567E+02  0.00000000000E+00 0. -1.
</event>
<event>
 7    1  0.2000468E-015  0.9000794E+02  0.7816164E-02  0.1186339E+00
        -11   -1    0    0    0    0  0.00000000000E+00  0.00000000000E+00  0.45593999997E+02  0.45594000000E+02  0.51100000000E-03 0.  1.
         11   -1    0    0    0    0 -0.00000000000E+00 -0.00000000000E+00 -0.45593999997E+02  0.45594000000E+02  0.51100000000E-03 0. -1.
    9900012    2    1    2    0    0 -0.93832856453E+00  0.69721825105E+00  0.16113722947E+00  0.90007941107E+02  0.90000205129E+02 0.  0.
         12    1    1    2    0    0  0.93832856453E+00 -0.69721825105E+00 -0.16113722947E+00  0.11800588932E+01  0.00000000000E+00 0. -1.
         11    1    3    3    0    0 -0.24493537928E+01  0.60155775434E+01 -0.74108768167E+01  0.98543189839E+01  0.51100000000E-03 0. -1.
        -11    1    3    3    0    0 -0.77147464910E+00  0.19538796824E+02  0.36827139521E+02  0.41696498174E+02  0.51100000000E-03 0.  1.
         12    1    3    3    0    0  0.22824998774E+01 -0.24857156116E+02 -0.29255125475E+02  0.38457123949E+02  0.00000000000E+00 0. -1.
</event>
<event>
 7    1  0.2000468E-015  0.9000775E+02  0.7816164E-02  0.1186339E+00
        -11   -1    0    0    0    0  0.00000000000E+00  0.00000000000E+00  0.45593999997E+02  0.45594000000E+02  0.51100000000E-03 0. -1.
         11   -1    0    0    0    0 -0.00000000000E+00 -0.00000000000E+00 -0.45593999997E+02  0.45594000000E+02  0.51100000000E-03 0.  1.
    9900012    2    1    2    0    0  0.11470431814E+01 -0.23769135145E+00  0.14417154241E+00  0.90007749742E+02  0.90000011238E+02 0.  0.
         12    1    1    2    0    0 -0.11470431814E+01  0.23769135145E+00 -0.14417154241E+00  0.11802502583E+01  0.00000000000E+00 0. -1.
         11    1    3    3    0    0  0.25493634299E+02  0.20235958209E+02  0.28177150344E+02  0.43050797858E+02  0.51100000000E-03 0. -1.
        -11    1    3    3    0    0  0.14126233797E+01 -0.10298169054E+01 -0.96659689115E+01  0.98227787785E+01  0.51100000000E-03 0.  1.
        -12    1    3    3    0    0 -0.25759214498E+02 -0.19443832655E+02 -0.18367009891E+02  0.37134173105E+02  0.00000000000E+00 0.  1.
</event>
<event>
 7    1  0.2000468E-015  0.9000757E+02  0.7816164E-02  0.1186339E+00
        -11   -1    0    0    0    0  0.00000000000E+00  0.00000000000E+00  0.45593999997E+02  0.45594000000E+02  0.51100000000E-03 0.  1.
         11   -1    0    0    0    0 -0.00000000000E+00 -0.00000000000E+00 -0.45593999997E+02  0.45594000000E+02  0.51100000000E-03 0. -1.
    9900012    2    1    2    0    0  0.69275170747E+00  0.69543652303E-01  0.95324053008E+00  0.90007572638E+02  0.89999831797E+02 0.  0.
         12    1    1    2    0    0 -0.69275170747E+00 -0.69543652303E-01 -0.95324053008E+00  0.11804273616E+01  0.00000000000E+00 0. -1.
         11    1    3    3    0    0 -0.10047253455E+02  0.16187593396E+01  0.43526204445E+01  0.11068558569E+02  0.51100000000E-03 0. -1.
        -11    1    3    3    0    0 -0.10790124879E+02  0.14714956329E+02  0.30542837655E+02  0.35578387638E+02  0.51100000000E-03 0.  1.
         12    1    3    3    0    0  0.21530130041E+02 -0.16264172016E+02 -0.33942217570E+02  0.43360626431E+02  0.00000000000E+00 0. -1.
</event>
<event>
 7    1  0.2000468E-015  0.9000767E+02  0.7816164E-02  0.1186339E+00
        -11   -1    0    0    0    0  0.00000000000E+00  0.00000000000E+00  0.45593999997E+02  0.45594000000E+02  0.51100000000E-03 0. -1.
         11   -1    0    0    0    0 -0.00000000000E+00 -0.00000000000E+00 -0.45593999997E+02  0.45594000000E+02  0.51100000000E-03 0.  1.
    9900012    2    1    2    0    0  0.54442440070E+00 -0.83854741673E+00 -0.62738986728E+00  0.90007670494E+02  0.89999930944E+02 0.  0.
         12    1    1    2    0    0 -0.54442440070E+00  0.83854741673E+00  0.62738986728E+00  0.11803295064E+01  0.00000000000E+00 0. -1.
         11    1    3    3    0    0 -0.79312057708E+00 -0.10245985924E+02 -0.33516909656E+01  0.10809398706E+02  0.51100000000E-03 0. -1.
        -11    1    3    3    0    0 -0.17788091744E+02 -0.27664120210E+02 -0.11927562562E+02  0.34985518487E+02  0.51100000000E-03 0.  1.
         12    1    3    3    0    0  0.19125636722E+02  0.37071558716E+02  0.14651863661E+02  0.44212753301E+02  0.00000000000E+00 0. -1.
</event>
<event>
 7    1  0.2000468E-015  0.9000771E+02  0.7816164E-02  0.1186339E+00
        -11   -1    0    0    0    0  0.00000000000E+00  0.00000000000E+00  0.45593999997E+02  0.45594000000E+02  0.51100000000E-03 0.  1.
         11   -1    0    0    0    0 -0.00000000000E+00 -0.00000000000E+00 -0.45593999997E+02  0.45594000000E+02  0.51100000000E-03 0. -1.
    9900012    2    1    2    0    0 -0.15428166765E+00 -0.99036943433E+00  0.62325265192E+00  0.90007712612E+02  0.89999973619E+02 0.  0.
         12    1    1    2    0    0  0.15428166765E+00  0.99036943433E+00 -0.62325265192E+00  0.11802873877E+01  0.00000000000E+00 0. -1.
         11    1    3    3    0    0  0.65475219203E+01 -0.26350250482E+01  0.79640337851E+01  0.10641392517E+02  0.51100000000E-03 0. -1.
        -11    1    3    3    0    0 -0.61768032837E+01  0.12473993618E+02  0.33941068212E+02  0.36684458933E+02  0.51100000000E-03 0.  1.
         12    1    3    3    0    0 -0.52500030426E+00 -0.10829338005E+02 -0.41281849345E+02  0.42681861162E+02  0.00000000000E+00 0. -1.
</event>
<event>
 7    1  0.2000468E-015  0.9000770E+02  0.7816164E-02  0.1186339E+00
        -11   -1    0    0    0    0  0.00000000000E+00  0.00000000000E+00  0.45593999997E+02  0.45594000000E+02  0.51100000000E-03 0.  1.
         11   -1    0    0    0    0 -0.00000000000E+00 -0.00000000000E+00 -0.45593999997E+02  0.45594000000E+02  0.51100000000E-03 0. -1.
    9900012    2    1    2    0    0  0.86890368443E+00  0.71070158188E+00 -0.36471288694E+00  0.90007700953E+02  0.89999961805E+02 0.  0.
         12    1    1    2    0    0 -0.86890368443E+00 -0.71070158188E+00  0.36471288694E+00  0.11802990474E+01  0.00000000000E+00 0. -1.
         11    1    3    3    0    0 -0.17131954822E+02  0.72943407792E+01  0.92197405147E+01  0.20777750091E+02  0.51100000000E-03 0. -1.
        -11    1    3    3    0    0  0.48883545056E+01  0.29142566746E+01  0.27859777056E+02  0.28435120531E+02  0.51100000000E-03 0.  1.
         12    1    3    3    0    0  0.13112504001E+02 -0.94978958719E+01 -0.37444230458E+02  0.40794830331E+02  0.00000000000E+00 0. -1.
</event>
<event>
 7    1  0.2000468E-015  0.9000747E+02  0.7816164E-02  0.1186340E+00
        -11   -1    0    0    0    0  0.00000000000E+00  0.00000000000E+00  0.45593999997E+02  0.45594000000E+02  0.51100000000E-03 0.  1.
         11   -1    0    0    0    0 -0.00000000000E+00 -0.00000000000E+00 -0.45593999997E+02  0.45594000000E+02  0.51100000000E-03 0. -1.
    9900012    2    1    2    0    0  0.50740916145E+00 -0.99045008841E+00  0.39394161703E+00  0.90007472392E+02  0.89999730228E+02 0.  0.
         12    1    1    2    0    0 -0.50740916145E+00  0.99045008841E+00 -0.39394161703E+00  0.11805276076E+01  0.00000000000E+00 0. -1.
         11    1    3    3    0    0 -0.45029959011E+01  0.26260977109E+02 -0.11324532999E+01  0.26668302187E+02  0.51100000000E-03 0. -1.
        -11    1    3    3    0    0  0.17600884059E+02  0.11084272785E+01 -0.19164539809E+02  0.26044180099E+02  0.51100000000E-03 0.  1.
        -12    1    3    3    0    0 -0.12590478996E+02 -0.28359854475E+02  0.20690934726E+02  0.37294990107E+02  0.00000000000E+00 0.  1.
</event>
<event>
 7    1  0.2000468E-015  0.9000785E+02  0.7816164E-02  0.1186339E+00
        -11   -1    0    0    0    0  0.00000000000E+00  0.00000000000E+00  0.45593999997E+02  0.45594000000E+02  0.51100000000E-03 0.  1.
         11   -1    0    0    0    0 -0.00000000000E+00 -0.00000000000E+00 -0.45593999997E+02  0.45594000000E+02  0.51100000000E-03 0. -1.
    9900012    2    1    2    0    0 -0.46605001430E+00  0.60375252887E+00  0.90057016792E+00  0.90007853247E+02  0.90000116109E+02 0.  0.
         12    1    1    2    0    0  0.46605001430E+00 -0.60375252887E+00 -0.90057016792E+00  0.11801467533E+01  0.00000000000E+00 0. -1.
         11    1    3    3    0    0  0.17144950886E+02  0.32466275973E+02 -0.17588370838E+02  0.40710676799E+02  0.51100000000E-03 0. -1.
        -11    1    3    3    0    0 -0.44994500777E+01  0.42448646913E+01  0.66904154917E+01  0.91118377379E+01  0.51100000000E-03 0.  1.
        -12    1    3    3    0    0 -0.13111550822E+02 -0.36107388136E+02  0.11798525514E+02  0.40185338710E+02  0.00000000000E+00 0.  1.
</event>
<event>
 7    1  0.2000468E-015  0.9000773E+02  0.7816164E-02  0.1186339E+00
        -11   -1    0    0    0    0  0.00000000000E+00  0.00000000000E+00  0.45593999997E+02  0.45594000000E+02  0.51100000000E-03 0.  1.
         11   -1    0    0    0    0 -0.00000000000E+00 -0.00000000000E+00 -0.45593999997E+02  0.45594000000E+02  0.51100000000E-03 0. -1.
    9900012    2    1    2    0    0  0.87674267400E+00  0.76604226762E+00 -0.19377096941E+00  0.90007726447E+02  0.89999987636E+02 0.  0.
         12    1    1    2    0    0 -0.87674267400E+00 -0.76604226762E+00  0.19377096941E+00  0.11802735534E+01  0.00000000000E+00 0. -1.
         11    1    3    3    0    0 -0.71855200035E+01  0.51715289955E+00 -0.60921489315E+01  0.94346925602E+01  0.51100000000E-03 0. -1.
        -11    1    3    3    0    0 -0.35954300712E+02 -0.11473396674E+01 -0.10587671225E+01  0.35988180227E+02  0.51100000000E-03 0.  1.
         12    1    3    3    0    0  0.44016563389E+02  0.13962290354E+01  0.69571450846E+01  0.44584853659E+02  0.00000000000E+00 0. -1.
</event>
<event>
 7    1  0.2000468E-015  0.9000772E+02  0.7816164E-02  0.1186339E+00
        -11   -1    0    0    0    0  0.00000000000E+00  0.00000000000E+00  0.45593999997E+02  0.45594000000E+02  0.51100000000E-03 0.  1.
         11   -1    0    0    0    0 -0.00000000000E+00 -0.00000000000E+00 -0.45593999997E+02  0.45594000000E+02  0.51100000000E-03 0. -1.
    9900012    2    1    2    0    0 -0.37903802220E+00 -0.11155778161E+01  0.69831842002E-01  0.90007720299E+02  0.89999981407E+02 0.  0.
         12    1    1    2    0    0  0.37903802220E+00  0.11155778161E+01 -0.69831842002E-01  0.11802797009E+01  0.00000000000E+00 0. -1.
         11    1    3    3    0    0 -0.12988612606E+02  0.14308150733E+02 -0.29887615987E+02  0.35590684518E+02  0.51100000000E-03 0. -1.
        -11    1    3    3    0    0 -0.51060778051E+00  0.13338642371E+01 -0.94887438551E+01  0.95956330858E+01  0.51100000000E-03 0.  1.
        -12    1    3    3    0    0  0.13120182364E+02 -0.16757592786E+02  0.39446191684E+02  0.44821402696E+02  0.00000000000E+00 0.  1.
</event>
<event>
 7    1  0.2000468E-015  0.9000772E+02  0.7816164E-02  0.1186339E+00
        -11   -1    0    0    0    0  0.00000000000E+00  0.00000000000E+00  0.45593999997E+02  0.45594000000E+02  0.51100000000E-03 0. -1.
         11   -1    0    0    0    0 -0.00000000000E+00 -0.00000000000E+00 -0.45593999997E+02  0.45594000000E+02  0.51100000000E-03 0.  1.
    9900012    2    1    2    0    0 -0.67664747659E+00 -0.43459437366E+00 -0.86391303356E+00  0.90007716218E+02  0.89999977272E+02 0.  0.
         12    1    1    2    0    0  0.67664747659E+00  0.43459437366E+00  0.86391303356E+00  0.11802837823E+01  0.00000000000E+00 0. -1.
         11    1    3    3    0    0 -0.75853163372E+01 -0.21777162410E+02  0.21282285034E+02  0.31380208462E+02  0.51100000000E-03 0. -1.
        -11    1    3    3    0    0  0.57883937921E+01 -0.12186030784E+02  0.60682489273E+01  0.14792852810E+02  0.51100000000E-03 0.  1.
        -12    1    3    3    0    0  0.11202750685E+01  0.33528598820E+02 -0.28214446995E+02  0.43834654946E+02  0.00000000000E+00 0.  1.
</event>
<event>
 7    1  0.2000468E-015  0.9000761E+02  0.7816164E-02  0.1186339E+00
        -11   -1    0    0    0    0  0.00000000000E+00  0.00000000000E+00  0.45593999997E+02  0.45594000000E+02  0.51100000000E-03 0.  1.
         11   -1    0    0    0    0 -0.00000000000E+00 -0.00000000000E+00 -0.45593999997E+02  0.45594000000E+02  0.51100000000E-03 0. -1.
    9900012    2    1    2    0    0 -0.81959446251E+00  0.84419744083E+00  0.94395072478E-01  0.90007612423E+02  0.89999872107E+02 0.  0.
         12    1    1    2    0    0  0.81959446251E+00 -0.84419744083E+00 -0.94395072478E-01  0.11803875769E+01  0.00000000000E+00 0. -1.
         11    1    3    3    0    0  0.19473163548E+01 -0.21592932217E+01 -0.95344258604E+01  0.99679418614E+01  0.51100000000E-03 0. -1.
        -11    1    3    3    0    0  0.37780653480E+02 -0.99605835465E+00  0.10706676466E+02  0.39281074716E+02  0.51100000000E-03 0.  1.
         12    1    3    3    0    0 -0.40547564297E+02  0.39995490172E+01 -0.10778555330E+01  0.40758595846E+02  0.00000000000E+00 0. -1.
</event>
<event>
 7    1  0.2000468E-015  0.9000780E+02  0.7816164E-02  0.1186339E+00
        -11   -1    0    0    0    0  0.00000000000E+00  0.00000000000E+00  0.45593999997E+02  0.45594000000E+02  0.51100000000E-03 0. -1.
         11   -1    0    0    0    0 -0.00000000000E+00 -0.00000000000E+00 -0.45593999997E+02  0.45594000000E+02  0.51100000000E-03 0.  1.
    9900012    2    1    2    0    0  0.53195094051E+00  0.10198503137E+01 -0.26419943995E+00  0.90007801792E+02  0.90000063976E+02 0.  0.
         12    1    1    2    0    0 -0.53195094051E+00 -0.10198503137E+01  0.26419943995E+00  0.11801982077E+01  0.00000000000E+00 0. -1.
         11    1    3    3    0    0 -0.13049907406E+02 -0.49718655415E+01 -0.33337547210E+02  0.36144316074E+02  0.51100000000E-03 0. -1.
        -11    1    3    3    0    0 -0.47677695145E+01 -0.10243111636E+01 -0.74069112978E+01  0.88680987105E+01  0.51100000000E-03 0.  1.
        -12    1    3    3    0    0  0.18349627861E+02  0.70160270187E+01  0.40480259068E+02  0.44995387007E+02  0.00000000000E+00 0.  1.
</event>
<event>
 7    1  0.2000468E-015  0.9000776E+02  0.7816164E-02  0.1186339E+00
        -11   -1    0    0    0    0  0.00000000000E+00  0.00000000000E+00  0.45593999997E+02  0.45594000000E+02  0.51100000000E-03 0.  1.
         11   -1    0    0    0    0 -0.00000000000E+00 -0.00000000000E+00 -0.45593999997E+02  0.45594000000E+02  0.51100000000E-03 0. -1.
    9900012    2    1    2    0    0  0.62588616282E+00  0.60690898243E+00  0.79554504924E+00  0.90007761072E+02  0.90000022718E+02 0.  0.
         12    1    1    2    0    0 -0.62588616282E+00 -0.60690898243E+00 -0.79554504924E+00  0.11802389280E+01  0.00000000000E+00 0. -1.
         11    1    3    3    0    0 -0.36706083381E+02  0.18308700384E+02  0.42384390457E+01  0.41237233573E+02  0.51100000000E-03 0. -1.
        -11    1    3    3    0    0  0.52021456560E+01  0.34130097915E+01 -0.79114216729E+01  0.10064867034E+02  0.51100000000E-03 0.  1.
        -12    1    3    3    0    0  0.32129823888E+02 -0.21114801193E+02  0.44685276765E+01  0.38705660466E+02  0.00000000000E+00 0.  1.
</event>
<event>
 7    1  0.2000468E-015  0.9000771E+02  0.7816164E-02  0.1186339E+00
        -11   -1    0    0    0    0  0.00000000000E+00  0.00000000000E+00  0.45593999997E+02  0.45594000000E+02  0.51100000000E-03 0. -1.
         11   -1    0    0    0    0 -0.00000000000E+00 -0.00000000000E+00 -0.45593999997E+02  0.45594000000E+02  0.51100000000E-03 0.  1.
    9900012    2    1    2    0    0 -0.10864997369E+01 -0.28241285756E+00 -0.36449393185E+00  0.90007705746E+02  0.89999966662E+02 0.  0.
         12    1    1    2    0    0  0.10864997369E+01  0.28241285756E+00  0.36449393185E+00  0.11802942543E+01  0.00000000000E+00 0. -1.
         11    1    3    3    0    0 -0.20475391975E+02  0.35745805675E+02  0.66216210263E+01  0.41723496560E+02  0.51100000000E-03 0. -1.
        -11    1    3    3    0    0  0.76522500765E+01 -0.38756956037E+00  0.46932544498E+01  0.89851977713E+01  0.51100000000E-03 0.  1.
        -12    1    3    3    0    0  0.11736642161E+02 -0.35640648972E+02 -0.11679369408E+02  0.39299011415E+02  0.00000000000E+00 0.  1.
</event>
<event>
 7    1  0.2000468E-015  0.9000765E+02  0.7816164E-02  0.1186339E+00
        -11   -1    0    0    0    0  0.00000000000E+00  0.00000000000E+00  0.45593999997E+02  0.45594000000E+02  0.51100000000E-03 0.  1.
         11   -1    0    0    0    0 -0.00000000000E+00 -0.00000000000E+00 -0.45593999997E+02  0.45594000000E+02  0.51100000000E-03 0. -1.
    9900012    2    1    2    0    0  0.55630866444E+00 -0.20035691806E+00  0.10215745629E+01  0.90007645472E+02  0.89999905592E+02 0.  0.
         12    1    1    2    0    0 -0.55630866444E+00  0.20035691806E+00 -0.10215745629E+01  0.11803545283E+01  0.00000000000E+00 0. -1.
         11    1    3    3    0    0  0.95929355128E+01 -0.17666199360E+01 -0.27869469419E+01  0.10144576446E+02  0.51100000000E-03 0. -1.
        -11    1    3    3    0    0 -0.11752025803E+01 -0.11062456775E+02  0.39584305106E+02  0.41117833868E+02  0.51100000000E-03 0.  1.
         12    1    3    3    0    0 -0.78614242680E+01  0.12628719793E+02 -0.35775783601E+02  0.38745235158E+02  0.00000000000E+00 0. -1.
</event>
<event>
 7    1  0.2000468E-015  0.9000773E+02  0.7816164E-02  0.1186339E+00
        -11   -1    0    0    0    0  0.00000000000E+00  0.00000000000E+00  0.45593999997E+02  0.45594000000E+02  0.51100000000E-03 0.  1.
         11   -1    0    0    0    0 -0.00000000000E+00 -0.00000000000E+00 -0.45593999997E+02  0.45594000000E+02  0.51100000000E-03 0. -1.
    9900012    2    1    2    0    0 -0.25662612061E+00 -0.11500746164E+01 -0.67216413210E-01  0.90007726034E+02  0.89999987217E+02 0.  0.
         12    1    1    2    0    0  0.25662612061E+00  0.11500746164E+01  0.67216413210E-01  0.11802739662E+01  0.00000000000E+00 0. -1.
         11    1    3    3    0    0 -0.68232595811E+01  0.52924987843E+01 -0.96066722133E+01  0.12917258454E+02  0.51100000000E-03 0. -1.
        -11    1    3    3    0    0 -0.11135311273E+02  0.32149781909E+02  0.34643465234E+01  0.34199493140E+02  0.51100000000E-03 0.  1.
         12    1    3    3    0    0  0.17701944733E+02 -0.38592355310E+02  0.60751092767E+01  0.42890974440E+02  0.00000000000E+00 0. -1.
</event>
<event>
 7    1  0.2000468E-015  0.9000788E+02  0.7816164E-02  0.1186339E+00
        -11   -1    0    0    0    0  0.00000000000E+00  0.00000000000E+00  0.45593999997E+02  0.45594000000E+02  0.51100000000E-03 0.  1.
         11   -1    0    0    0    0 -0.00000000000E+00 -0.00000000000E+00 -0.45593999997E+02  0.45594000000E+02  0.51100000000E-03 0. -1.
    9900012    2    1    2    0    0  0.38190178576E+00 -0.13136392788E+00  0.11088626389E+01  0.90007880596E+02  0.90000143820E+02 0.  0.
         12    1    1    2    0    0 -0.38190178576E+00  0.13136392788E+00 -0.11088626389E+01  0.11801194039E+01  0.00000000000E+00 0. -1.
         11    1    3    3    0    0 -0.40277257951E+01  0.37329087113E+01 -0.77523652328E+01  0.95003341779E+01  0.51100000000E-03 0. -1.
        -11    1    3    3    0    0 -0.21016334791E+02  0.71984728764E+01  0.35615837623E+02  0.41976091167E+02  0.51100000000E-03 0.  1.
         12    1    3    3    0    0  0.25425962372E+02 -0.11062745516E+02 -0.26754609751E+02  0.38531455252E+02  0.00000000000E+00 0. -1.
</event>
<event>
 7    1  0.2000468E-015  0.9000777E+02  0.7816164E-02  0.1186339E+00
        -11   -1    0    0    0    0  0.00000000000E+00  0.00000000000E+00  0.45593999997E+02  0.45594000000E+02  0.51100000000E-03 0.  1.
         11   -1    0    0    0    0 -0.00000000000E+00 -0.00000000000E+00 -0.45593999997E+02  0.45594000000E+02  0.51100000000E-03 0. -1.
    9900012    2    1    2    0    0  0.11126184701E+01 -0.63745893078E-01  0.38853925861E+00  0.90007768601E+02  0.90000030347E+02 0.  0.
         12    1    1    2    0    0 -0.11126184701E+01  0.63745893078E-01 -0.38853925861E+00  0.11802313987E+01  0.00000000000E+00 0. -1.
         11    1    3    3    0    0 -0.60882311107E+01  0.43554396383E+01 -0.65730545042E+01  0.99620007165E+01  0.51100000000E-03 0. -1.
        -11    1    3    3    0    0 -0.25567149319E+02  0.10755845243E+02 -0.20656344816E+02  0.34583983469E+02  0.51100000000E-03 0.  1.
         12    1    3    3    0    0  0.32767998900E+02 -0.15175030774E+02  0.27617938579E+02  0.45461784415E+02  0.00000000000E+00 0. -1.
</event>
<event>
 7    1  0.2000468E-015  0.9000767E+02  0.7816164E-02  0.1186339E+00
        -11   -1    0    0    0    0  0.00000000000E+00  0.00000000000E+00  0.45593999997E+02  0.45594000000E+02  0.51100000000E-03 0. -1.
         11   -1    0    0    0    0 -0.00000000000E+00 -0.00000000000E+00 -0.45593999997E+02  0.45594000000E+02  0.51100000000E-03 0.  1.
    9900012    2    1    2    0    0 -0.83218076860E+00  0.10185966582E+00 -0.83083669756E+00  0.90007665369E+02  0.89999925752E+02 0.  0.
         12    1    1    2    0    0  0.83218076860E+00 -0.10185966582E+00  0.83083669756E+00  0.11803346310E+01  0.00000000000E+00 0. -1.
         11    1    3    3    0    0  0.11565213253E+02 -0.49055306865E+01  0.33725243372E+02  0.35989032074E+02  0.51100000000E-03 0. -1.
        -11    1    3    3    0    0 -0.76615491086E+01  0.52791219315E+01  0.73424502360E+01  0.11852427551E+02  0.51100000000E-03 0.  1.
        -12    1    3    3    0    0 -0.47358449127E+01 -0.27173157913E+00 -0.41898530306E+02  0.42166205744E+02  0.00000000000E+00 0.  1.
</event>
<event>
 7    1  0.2000468E-015  0.9000739E+02  0.7816164E-02  0.1186340E+00
        -11   -1    0    0    0    0  0.00000000000E+00  0.00000000000E+00  0.45593999997E+02  0.45594000000E+02  0.51100000000E-03 0.  1.
         11   -1    0    0    0    0 -0.00000000000E+00 -0.00000000000E+00 -0.45593999997E+02  0.45594000000E+02  0.51100000000E-03 0. -1.
    9900012    2    1    2    0    0  0.59069982986E+00 -0.13033370567E-01  0.10221283508E+01  0.90007388920E+02  0.89999645653E+02 0.  0.
         12    1    1    2    0    0 -0.59069982986E+00  0.13033370567E-01 -0.10221283508E+01  0.11806110804E+01  0.00000000000E+00 0. -1.
         11    1    3    3    0    0  0.71381529699E+01  0.66386147762E+01  0.39202514605E+01  0.10506798073E+02  0.51100000000E-03 0. -1.
        -11    1    3    3    0    0  0.19772112117E+02  0.29005680033E+02 -0.28653381282E+00  0.35104814394E+02  0.51100000000E-03 0.  1.
         12    1    3    3    0    0 -0.26319565257E+02 -0.35657328180E+02 -0.26115892969E+01  0.44395776453E+02  0.00000000000E+00 0. -1.
</event>
<event>
 7    1  0.2000468E-015  0.9000781E+02  0.7816164E-02  0.1186339E+00
        -11   -1    0    0    0    0  0.00000000000E+00  0.00000000000E+00  0.45593999997E+02  0.45594000000E+02  0.51100000000E-03 0. -1.
         11   -1    0    0    0    0 -0.00000000000E+00 -0.00000000000E+00 -0.45593999997E+02  0.45594000000E+02  0.51100000000E-03 0.  1.
    9900012    2    1    2    0    0  0.10627223519E+00 -0.87744203258E+00 -0.78208496617E+00  0.90007807133E+02  0.90000069387E+02 0.  0.
         12    1    1    2    0    0 -0.10627223519E+00  0.87744203258E+00  0.78208496617E+00  0.11801928668E+01  0.00000000000E+00 0. -1.
         11    1    3    3    0    0  0.14898065591E+02 -0.29100537095E+02  0.26517209248E+02  0.42094607780E+02  0.51100000000E-03 0. -1.
        -11    1    3    3    0    0  0.35570744556E+01  0.68724737157E+01  0.12266049365E+01  0.78350643640E+01  0.51100000000E-03 0.  1.
        -12    1    3    3    0    0 -0.18348867811E+02  0.21350621347E+02 -0.28525899151E+02  0.40078134989E+02  0.00000000000E+00 0.  1.
</event>
<event>
 7    1  0.2000468E-015  0.9000717E+02  0.7816164E-02  0.1186340E+00
        -11   -1    0    0    0    0  0.00000000000E+00  0.00000000000E+00  0.45593999997E+02  0.45594000000E+02  0.51100000000E-03 0. -1.
         11   -1    0    0    0    0 -0.00000000000E+00 -0.00000000000E+00 -0.45593999997E+02  0.45594000000E+02  0.51100000000E-03 0.  1.
    9900012    2    1    2    0    0  0.63202655554E+00 -0.32901533837E+00 -0.94161722974E+00  0.90007173312E+02  0.89999427198E+02 0.  0.
         12    1    1    2    0    0 -0.63202655554E+00  0.32901533837E+00  0.94161722974E+00  0.11808266880E+01  0.00000000000E+00 0. -1.
         11    1    3    3    0    0 -0.81336421151E+01  0.38402307877E+01 -0.22481960828E+01  0.92713479305E+01  0.51100000000E-03 0. -1.
        -11    1    3    3    0    0 -0.28649989808E+01 -0.41024718633E+02  0.68563939457E+01  0.41692276218E+02  0.51100000000E-03 0.  1.
         12    1    3    3    0    0  0.11630667651E+02  0.36855472507E+02 -0.55498150927E+01  0.39043549163E+02  0.00000000000E+00 0. -1.
</event>
<event>
 7    1  0.2000468E-015  0.9000773E+02  0.7816164E-02  0.1186339E+00
        -11   -1    0    0    0    0  0.00000000000E+00  0.00000000000E+00  0.45593999997E+02  0.45594000000E+02  0.51100000000E-03 0.  1.
         11   -1    0    0    0    0 -0.00000000000E+00 -0.00000000000E+00 -0.45593999997E+02  0.45594000000E+02  0.51100000000E-03 0. -1.
    9900012    2    1    2    0    0  0.35384456929E+00  0.61828870850E+00  0.94103528518E+00  0.90007731253E+02  0.89999992506E+02 0.  0.
         12    1    1    2    0    0 -0.35384456929E+00 -0.61828870850E+00 -0.94103528518E+00  0.11802687466E+01  0.00000000000E+00 0. -1.
         11    1    3    3    0    0  0.18463148174E+02  0.31198923689E+02 -0.13460071369E+02  0.38670844333E+02  0.51100000000E-03 0. -1.
        -11    1    3    3    0    0  0.66275445161E+01 -0.11411189856E+02 -0.54494878333E+01  0.14277132700E+02  0.51100000000E-03 0.  1.
        -12    1    3    3    0    0 -0.24736848121E+02 -0.19169445125E+02  0.19850594488E+02  0.37059754221E+02  0.00000000000E+00 0.  1.
</event>
<event>
 7    1  0.2000468E-015  0.9000776E+02  0.7816164E-02  0.1186339E+00
        -11   -1    0    0    0    0  0.00000000000E+00  0.00000000000E+00  0.45593999997E+02  0.45594000000E+02  0.51100000000E-03 0.  1.
         11   -1    0    0    0    0 -0.00000000000E+00 -0.00000000000E+00 -0.45593999997E+02  0.45594000000E+02  0.51100000000E-03 0. -1.
    9900012    2    1    2    0    0 -0.12269814654E+00  0.10515928360E+00  0.11691228964E+01  0.90007762034E+02  0.90000023693E+02 0.  0.
         12    1    1    2    0    0  0.12269814654E+00 -0.10515928360E+00 -0.11691228964E+01  0.11802379663E+01  0.00000000000E+00 0. -1.
         11    1    3    3    0    0 -0.11584846678E+02  0.10061405788E+02 -0.54097125958E+01  0.16269774110E+02  0.51100000000E-03 0. -1.
        -11    1    3    3    0    0 -0.16602154052E+02 -0.98707626128E+01  0.31007259639E+02  0.36530995391E+02  0.51100000000E-03 0.  1.
         12    1    3    3    0    0  0.28064302583E+02 -0.85483891354E-01 -0.24428424147E+02  0.37206992532E+02  0.00000000000E+00 0. -1.
</event>
<event>
 7    1  0.2765331E-015  0.9000772E+02  0.7816164E-02  0.1186339E+00
        -11   -1    0    0    0    0  0.00000000000E+00  0.00000000000E+00  0.45593999997E+02  0.45594000000E+02  0.51100000000E-03 0. -1.
         11   -1    0    0    0    0 -0.00000000000E+00 -0.00000000000E+00 -0.45593999997E+02  0.45594000000E+02  0.51100000000E-03 0.  1.
    9900012    2    1    2    0    0  0.33470373094E-01  0.33597749954E+00 -0.11309518509E+01  0.90007723238E+02  0.89999984385E+02 0.  0.
         12    1    1    2    0    0 -0.33470373094E-01 -0.33597749954E+00  0.11309518509E+01  0.11802767621E+01  0.00000000000E+00 0. -1.
         11    1    3    3    0    0  0.54288855546E+01  0.18416008650E+02  0.33032309373E+02  0.38206748563E+02  0.51100000000E-03 0. -1.
        -11    1    3    3    0    0 -0.65116818925E+01 -0.44651115620E+01  0.56503055708E+01  0.97090254729E+01  0.51100000000E-03 0.  1.
        -12    1    3    3    0    0  0.11162667109E+01 -0.13614919588E+02 -0.39813566794E+02  0.42091949202E+02  0.00000000000E+00 0.  1.
</event>
<event>
 7    1  0.2000468E-015  0.9000765E+02  0.7816164E-02  0.1186339E+00
        -11   -1    0    0    0    0  0.00000000000E+00  0.00000000000E+00  0.45593999997E+02  0.45594000000E+02  0.51100000000E-03 0. -1.
         11   -1    0    0    0    0 -0.00000000000E+00 -0.00000000000E+00 -0.45593999997E+02  0.45594000000E+02  0.51100000000E-03 0.  1.
    9900012    2    1    2    0    0 -0.16450280955E+00  0.98917898162E+00 -0.62265033090E+00  0.90007648499E+02  0.89999908659E+02 0.  0.
         12    1    1    2    0    0  0.16450280955E+00 -0.98917898162E+00  0.62265033090E+00  0.11803515013E+01  0.00000000000E+00 0. -1.
         11    1    3    3    0    0 -0.35902555838E+01  0.33759193353E+02  0.13683174965E+02  0.36603310620E+02  0.51100000000E-03 0. -1.
        -11    1    3    3    0    0  0.23467291280E+01  0.88223589957E+01 -0.61464560783E+01  0.11005456757E+02  0.51100000000E-03 0.  1.
        -12    1    3    3    0    0  0.10790236462E+01 -0.41592373367E+02 -0.81593692176E+01  0.42398881121E+02  0.00000000000E+00 0.  1.
</event>
<event>
 7    1  0.2000468E-015  0.9000777E+02  0.7816164E-02  0.1186339E+00
        -11   -1    0    0    0    0  0.00000000000E+00  0.00000000000E+00  0.45593999997E+02  0.45594000000E+02  0.51100000000E-03 0.  1.
         11   -1    0    0    0    0 -0.00000000000E+00 -0.00000000000E+00 -0.45593999997E+02  0.45594000000E+02  0.51100000000E-03 0. -1.
    9900012    2    1    2    0    0  0.69989847763E+00 -0.33332825061E+00  0.88992965387E+00  0.90007771043E+02  0.90000032821E+02 0.  0.
         12    1    1    2    0    0 -0.69989847763E+00  0.33332825061E+00 -0.88992965387E+00  0.11802289568E+01  0.00000000000E+00 0. -1.
         11    1    3    3    0    0  0.16170537340E+01  0.10528217430E+02 -0.47553986437E+01  0.11664992137E+02  0.51100000000E-03 0. -1.
        -11    1    3    3    0    0  0.17337822869E+02 -0.12626459574E+02 -0.30806295360E+02  0.37537386926E+02  0.51100000000E-03 0.  1.
         12    1    3    3    0    0 -0.18254978125E+02  0.17649138932E+01  0.36451623657E+02  0.40805391980E+02  0.00000000000E+00 0. -1.
</event>
<event>
 7    1  0.2000468E-015  0.9000777E+02  0.7816164E-02  0.1186339E+00
        -11   -1    0    0    0    0  0.00000000000E+00  0.00000000000E+00  0.45593999997E+02  0.45594000000E+02  0.51100000000E-03 0.  1.
         11   -1    0    0    0    0 -0.00000000000E+00 -0.00000000000E+00 -0.45593999997E+02  0.45594000000E+02  0.51100000000E-03 0. -1.
    9900012    2    1    2    0    0 -0.22093303476E+00 -0.10779138834E+01  0.42689101538E+00  0.90007768800E+02  0.90000030548E+02 0.  0.
         12    1    1    2    0    0  0.22093303476E+00  0.10779138834E+01 -0.42689101538E+00  0.11802311997E+01  0.00000000000E+00 0. -1.
         11    1    3    3    0    0 -0.17968744325E+02 -0.60943128209E+01 -0.32365768719E+02  0.37517454690E+02  0.51100000000E-03 0. -1.
        -11    1    3    3    0    0  0.44916458768E+01 -0.84027628371E+01 -0.46219569564E+01  0.10589796615E+02  0.51100000000E-03 0.  1.
        -12    1    3    3    0    0  0.13256165414E+02  0.13419161775E+02  0.37414616691E+02  0.41900517495E+02  0.00000000000E+00 0.  1.
</event>
<event>
 7    1  0.2000468E-015  0.9000776E+02  0.7816164E-02  0.1186339E+00
        -11   -1    0    0    0    0  0.00000000000E+00  0.00000000000E+00  0.45593999997E+02  0.45594000000E+02  0.51100000000E-03 0.  1.
         11   -1    0    0    0    0 -0.00000000000E+00 -0.00000000000E+00 -0.45593999997E+02  0.45594000000E+02  0.51100000000E-03 0. -1.
    9900012    2    1    2    0    0  0.16771582688E+00  0.84066196137E+00  0.81124707952E+00  0.90007761483E+02  0.90000023135E+02 0.  0.
         12    1    1    2    0    0 -0.16771582688E+00 -0.84066196137E+00 -0.81124707952E+00  0.11802385165E+01  0.00000000000E+00 0. -1.
         11    1    3    3    0    0  0.34588652235E+02 -0.25412989325E+02  0.11787237355E+02  0.44509929842E+02  0.51100000000E-03 0. -1.
        -11    1    3    3    0    0 -0.86999397337E+01  0.25404524844E+01 -0.35536192231E+01  0.97350428884E+01  0.51100000000E-03 0.  1.
        -12    1    3    3    0    0 -0.25720996674E+02  0.23713198802E+02 -0.74223710522E+01  0.35762788753E+02  0.00000000000E+00 0.  1.
</event>
<event>
 7    1  0.2000468E-015  0.9000779E+02  0.7816164E-02  0.1186339E+00
        -11   -1    0    0    0    0  0.00000000000E+00  0.00000000000E+00  0.45593999997E+02  0.45594000000E+02  0.51100000000E-03 0. -1.
         11   -1    0    0    0    0 -0.00000000000E+00 -0.00000000000E+00 -0.45593999997E+02  0.45594000000E+02  0.51100000000E-03 0.  1.
    9900012    2    1    2    0    0  0.21006788183E+00  0.82070852329E+00 -0.82170362941E+00  0.90007793302E+02  0.90000055374E+02 0.  0.
         12    1    1    2    0    0 -0.21006788183E+00 -0.82070852329E+00  0.82170362941E+00  0.11802066979E+01  0.00000000000E+00 0. -1.
         11    1    3    3    0    0  0.23574692634E+02 -0.12741485996E+02  0.23587425591E+02  0.35699835356E+02  0.51100000000E-03 0. -1.
        -11    1    3    3    0    0  0.31060971695E+01 -0.22240738581E+01  0.84397096007E+01  0.92640726766E+01  0.51100000000E-03 0.  1.
        -12    1    3    3    0    0 -0.26470721922E+02  0.15786268377E+02 -0.32848838821E+02  0.45043885270E+02  0.00000000000E+00 0.  1.
</event>
<event>
 7    1  0.2000468E-015  0.9000777E+02  0.7816164E-02  0.1186339E+00
        -11   -1    0    0    0    0  0.00000000000E+00  0.00000000000E+00  0.45593999997E+02  0.45594000000E+02  0.51100000000E-03 0.  1.
         11   -1    0    0    0    0 -0.00000000000E+00 -0.00000000000E+00 -0.45593999997E+02  0.45594000000E+02  0.51100000000E-03 0. -1.
    9900012    2    1    2    0    0 -0.79032071338E+00 -0.70409327565E+00  0.52209991271E+00  0.90007770154E+02  0.90000031920E+02 0.  0.
         12    1    1    2    0    0  0.79032071338E+00  0.70409327565E+00 -0.52209991271E+00  0.11802298461E+01  0.00000000000E+00 0. -1.
         11    1    3    3    0    0 -0.32054282507E+01 -0.34235055283E+02  0.72367225508E+01  0.35138069583E+02  0.51100000000E-03 0. -1.
        -11    1    3    3    0    0 -0.65590856832E+00 -0.86270910759E+01 -0.90694146053E+01  0.12534400585E+02  0.51100000000E-03 0.  1.
        -12    1    3    3    0    0  0.30710161057E+01  0.42158053083E+02  0.23547919672E+01  0.42335299986E+02  0.00000000000E+00 0.  1.
</event>
<event>
 7    1  0.2000468E-015  0.9000774E+02  0.7816164E-02  0.1186339E+00
        -11   -1    0    0    0    0  0.00000000000E+00  0.00000000000E+00  0.45593999997E+02  0.45594000000E+02  0.51100000000E-03 0.  1.
         11   -1    0    0    0    0 -0.00000000000E+00 -0.00000000000E+00 -0.45593999997E+02  0.45594000000E+02  0.51100000000E-03 0. -1.
    9900012    2    1    2    0    0 -0.31503239297E+00 -0.10131084029E+01 -0.51707708146E+00  0.90007744624E+02  0.90000006053E+02 0.  0.
         12    1    1    2    0    0  0.31503239297E+00  0.10131084029E+01  0.51707708146E+00  0.11802553761E+01  0.00000000000E+00 0. -1.
         11    1    3    3    0    0  0.16291136718E+01 -0.76344323912E+01  0.98356271956E+01  0.12556995337E+02  0.51100000000E-03 0. -1.
        -11    1    3    3    0    0 -0.25621742536E+02  0.31360201047E+02 -0.14374283921E+02  0.42971571286E+02  0.51100000000E-03 0.  1.
         12    1    3    3    0    0  0.23677596471E+02 -0.24738877059E+02  0.40215796438E+01  0.34479178001E+02  0.00000000000E+00 0. -1.
</event>
<event>
 7    1  0.2000468E-015  0.9000778E+02  0.7816164E-02  0.1186339E+00
        -11   -1    0    0    0    0  0.00000000000E+00  0.00000000000E+00  0.45593999997E+02  0.45594000000E+02  0.51100000000E-03 0. -1.
         11   -1    0    0    0    0 -0.00000000000E+00 -0.00000000000E+00 -0.45593999997E+02  0.45594000000E+02  0.51100000000E-03 0.  1.
    9900012    2    1    2    0    0  0.55145231214E+00 -0.99073768824E+00  0.32751906446E+00  0.90007775633E+02  0.90000037471E+02 0.  0.
         12    1    1    2    0    0 -0.55145231214E+00  0.99073768824E+00 -0.32751906446E+00  0.11802243672E+01  0.00000000000E+00 0. -1.
         11    1    3    3    0    0 -0.80877084722E+01 -0.46299030742E+01  0.61444803322E+00  0.93394099093E+01  0.51100000000E-03 0. -1.
        -11    1    3    3    0    0  0.66955700189E+01 -0.34897966997E+02  0.15767528478E+02  0.38875618490E+02  0.51100000000E-03 0.  1.
         12    1    3    3    0    0  0.19435907655E+01  0.38537132383E+02 -0.16054457447E+02  0.41792747233E+02  0.00000000000E+00 0. -1.
</event>
<event>
 7    1  0.2000468E-015  0.9000768E+02  0.7816164E-02  0.1186339E+00
        -11   -1    0    0    0    0  0.00000000000E+00  0.00000000000E+00  0.45593999997E+02  0.45594000000E+02  0.51100000000E-03 0. -1.
         11   -1    0    0    0    0 -0.00000000000E+00 -0.00000000000E+00 -0.45593999997E+02  0.45594000000E+02  0.51100000000E-03 0.  1.
    9900012    2    1    2    0    0  0.68025598886E+00  0.64260948719E+00  0.71934224049E+00  0.90007682914E+02  0.89999943529E+02 0.  0.
         12    1    1    2    0    0 -0.68025598886E+00 -0.64260948719E+00 -0.71934224049E+00  0.11803170855E+01  0.00000000000E+00 0. -1.
         11    1    3    3    0    0  0.19091048072E+02  0.18968266683E+02  0.13954038967E+02  0.30314657531E+02  0.51100000000E-03 0. -1.
        -11    1    3    3    0    0 -0.68714958375E+01  0.17449150983E+02 -0.11634373366E+02  0.22069185961E+02  0.51100000000E-03 0.  1.
         12    1    3    3    0    0 -0.11539296246E+02 -0.35774808179E+02 -0.16003233600E+01  0.37623839423E+02  0.00000000000E+00 0. -1.
</event>
<event>
 7    1  0.2000468E-015  0.9000773E+02  0.7816164E-02  0.1186339E+00
        -11   -1    0    0    0    0  0.00000000000E+00  0.00000000000E+00  0.45593999997E+02  0.45594000000E+02  0.51100000000E-03 0.  1.
         11   -1    0    0    0    0 -0.00000000000E+00 -0.00000000000E+00 -0.45593999997E+02  0.45594000000E+02  0.51100000000E-03 0. -1.
    9900012    2    1    2    0    0 -0.50098438921E+00  0.10423338038E+01 -0.23579169466E+00  0.90007727642E+02  0.89999988846E+02 0.  0.
         12    1    1    2    0    0  0.50098438921E+00 -0.10423338038E+01  0.23579169466E+00  0.11802723584E+01  0.00000000000E+00 0. -1.
         11    1    3    3    0    0  0.78411772582E+01  0.58600656418E+01 -0.27862766638E+01  0.10177807624E+02  0.51100000000E-03 0. -1.
        -11    1    3    3    0    0  0.27818617934E+02 -0.23933745819E+02 -0.80629555425E+01  0.37572742048E+02  0.51100000000E-03 0.  1.
         12    1    3    3    0    0 -0.36160779581E+02  0.19116013981E+02  0.10613440512E+02  0.42257177969E+02  0.00000000000E+00 0. -1.
</event>
<event>
 7    1  0.2000468E-015  0.9000776E+02  0.7816164E-02  0.1186339E+00
        -11   -1    0    0    0    0  0.00000000000E+00  0.00000000000E+00  0.45593999997E+02  0.45594000000E+02  0.51100000000E-03 0.  1.
         11   -1    0    0    0    0 -0.00000000000E+00 -0.00000000000E+00 -0.45593999997E+02  0.45594000000E+02  0.51100000000E-03 0. -1.
    9900012    2    1    2    0    0 -0.44838163658E+00 -0.66846322764E+00  0.86317362401E+00  0.90007763632E+02  0.90000025312E+02 0.  0.
         12    1    1    2    0    0  0.44838163658E+00  0.66846322764E+00 -0.86317362401E+00  0.11802363678E+01  0.00000000000E+00 0. -1.
         11    1    3    3    0    0 -0.21228914956E+02  0.15885841447E+02 -0.20363249526E+02  0.33431851881E+02  0.51100000000E-03 0. -1.
        -11    1    3    3    0    0  0.52054414028E+01 -0.49986162190E+01 -0.14346751722E+02  0.16059641015E+02  0.51100000000E-03 0.  1.
        -12    1    3    3    0    0  0.15575091917E+02 -0.11555688456E+02  0.35573174872E+02  0.40516270736E+02  0.00000000000E+00 0.  1.
</event>
<event>
 7    1  0.2000468E-015  0.9000773E+02  0.7816164E-02  0.1186339E+00
        -11   -1    0    0    0    0  0.00000000000E+00  0.00000000000E+00  0.45593999997E+02  0.45594000000E+02  0.51100000000E-03 0.  1.
         11   -1    0    0    0    0 -0.00000000000E+00 -0.00000000000E+00 -0.45593999997E+02  0.45594000000E+02  0.51100000000E-03 0. -1.
    9900012    2    1    2    0    0  0.96559783463E+00  0.62682578635E+00  0.26027605974E+00  0.90007731653E+02  0.89999992910E+02 0.  0.
         12    1    1    2    0    0 -0.96559783463E+00 -0.62682578635E+00 -0.26027605974E+00  0.11802683474E+01  0.00000000000E+00 0. -1.
         11    1    3    3    0    0 -0.15083925199E+02 -0.31173342718E+02 -0.15229607852E+02  0.37831773038E+02  0.51100000000E-03 0. -1.
        -11    1    3    3    0    0  0.30452229484E+01 -0.43522467029E+01 -0.61133369139E+01  0.80986617816E+01  0.51100000000E-03 0.  1.
        -12    1    3    3    0    0  0.13004300085E+02  0.36152415207E+02  0.21603220826E+02  0.44077296833E+02  0.00000000000E+00 0.  1.
</event>
<event>
 7    1  0.2000468E-015  0.9000830E+02  0.7816164E-02  0.1186338E+00
        -11   -1    0    0    0    0  0.00000000000E+00  0.00000000000E+00  0.45593999997E+02  0.45594000000E+02  0.51100000000E-03 0.  1.
         11   -1    0    0    0    0 -0.00000000000E+00 -0.00000000000E+00 -0.45593999997E+02  0.45594000000E+02  0.51100000000E-03 0. -1.
    9900012    2    1    2    0    0  0.40459318100E+00  0.87847952994E+00  0.67547122392E+00  0.90008303725E+02  0.90000572532E+02 0.  0.
         12    1    1    2    0    0 -0.40459318100E+00 -0.87847952994E+00 -0.67547122392E+00  0.11796962749E+01  0.00000000000E+00 0. -1.
         11    1    3    3    0    0 -0.99450444084E+00 -0.98306999115E+01 -0.49820323464E+00  0.98934274423E+01  0.51100000000E-03 0. -1.
        -11    1    3    3    0    0 -0.33898835144E+02 -0.13842521515E+02  0.49645394408E+01  0.36951225665E+02  0.51100000000E-03 0.  1.
         12    1    3    3    0    0  0.35297932766E+02  0.24551700956E+02 -0.37908649823E+01  0.43163650618E+02  0.00000000000E+00 0. -1.
</event>
<event>
 7    1  0.2000468E-015  0.9000777E+02  0.7816164E-02  0.1186339E+00
        -11   -1    0    0    0    0  0.00000000000E+00  0.00000000000E+00  0.45593999997E+02  0.45594000000E+02  0.51100000000E-03 0.  1.
         11   -1    0    0    0    0 -0.00000000000E+00 -0.00000000000E+00 -0.45593999997E+02  0.45594000000E+02  0.51100000000E-03 0. -1.
    9900012    2    1    2    0    0  0.36205989926E+00  0.55278319127E+00  0.97789960292E+00  0.90007769404E+02  0.90000031160E+02 0.  0.
         12    1    1    2    0    0 -0.36205989926E+00 -0.55278319127E+00 -0.97789960292E+00  0.11802305964E+01  0.00000000000E+00 0. -1.
         11    1    3    3    0    0 -0.34682595040E+02  0.22441365423E+01 -0.86128907553E+01  0.35806430078E+02  0.51100000000E-03 0. -1.
        -11    1    3    3    0    0 -0.50127703476E+01 -0.22343382808E+01 -0.86013362528E+01  0.10203093634E+02  0.51100000000E-03 0.  1.
        -12    1    3    3    0    0  0.40057425287E+02  0.54298492981E+00  0.18192126611E+02  0.43998245691E+02  0.00000000000E+00 0.  1.
</event>
<event>
 7    1  0.2000468E-015  0.9000765E+02  0.7816164E-02  0.1186339E+00
        -11   -1    0    0    0    0  0.00000000000E+00  0.00000000000E+00  0.45593999997E+02  0.45594000000E+02  0.51100000000E-03 0.  1.
         11   -1    0    0    0    0 -0.00000000000E+00 -0.00000000000E+00 -0.45593999997E+02  0.45594000000E+02  0.51100000000E-03 0. -1.
    9900012    2    1    2    0    0  0.65233245967E+00 -0.96993981159E+00  0.16400470218E+00  0.90007653263E+02  0.89999913487E+02 0.  0.
         12    1    1    2    0    0 -0.65233245967E+00  0.96993981159E+00 -0.16400470218E+00  0.11803467365E+01  0.00000000000E+00 0. -1.
         11    1    3    3    0    0  0.37095914052E+02 -0.29512949152E+01 -0.19418330876E+02  0.41974856227E+02  0.51100000000E-03 0. -1.
        -11    1    3    3    0    0 -0.11684688637E+02 -0.88940783302E+00 -0.52575127272E+01  0.12843848145E+02  0.51100000000E-03 0.  1.
        -12    1    3    3    0    0 -0.24758892956E+02  0.28707629366E+01  0.24839848306E+02  0.35188948891E+02  0.00000000000E+00 0.  1.
</event>
<event>
 7    1  0.2000468E-015  0.9000768E+02  0.7816164E-02  0.1186339E+00
        -11   -1    0    0    0    0  0.00000000000E+00  0.00000000000E+00  0.45593999997E+02  0.45594000000E+02  0.51100000000E-03 0. -1.
         11   -1    0    0    0    0 -0.00000000000E+00 -0.00000000000E+00 -0.45593999997E+02  0.45594000000E+02  0.51100000000E-03 0.  1.
    9900012    2    1    2    0    0  0.76766223133E-01 -0.71865289807E+00 -0.93316506507E+00  0.90007681365E+02  0.89999941959E+02 0.  0.
         12    1    1    2    0    0 -0.76766223133E-01  0.71865289807E+00  0.93316506507E+00  0.11803186348E+01  0.00000000000E+00 0. -1.
         11    1    3    3    0    0  0.81709575280E+01 -0.86920839844E+01  0.93295623323E+01  0.15144556926E+02  0.51100000000E-03 0. -1.
        -11    1    3    3    0    0  0.19774997069E+01 -0.18668480756E+02 -0.33302279174E+02  0.38229105106E+02  0.51100000000E-03 0.  1.
         12    1    3    3    0    0 -0.10071691012E+02  0.26641911842E+02  0.23039551776E+02  0.36634019333E+02  0.00000000000E+00 0. -1.
</event>
<event>
 7    1  0.2000468E-015  0.9000807E+02  0.7816164E-02  0.1186338E+00
        -11   -1    0    0    0    0  0.00000000000E+00  0.00000000000E+00  0.45593999997E+02  0.45594000000E+02  0.51100000000E-03 0. -1.
         11   -1    0    0    0    0 -0.00000000000E+00 -0.00000000000E+00 -0.45593999997E+02  0.45594000000E+02  0.51100000000E-03 0.  1.
    9900012    2    1    2    0    0 -0.89317639522E+00  0.71821904399E+00  0.28042463296E+00  0.90008067526E+02  0.90000333217E+02 0.  0.
         12    1    1    2    0    0  0.89317639522E+00 -0.71821904399E+00 -0.28042463296E+00  0.11799324739E+01  0.00000000000E+00 0. -1.
         11    1    3    3    0    0 -0.35390693585E+02 -0.14332963344E+02 -0.10760798972E+02  0.39670263743E+02  0.51100000000E-03 0. -1.
        -11    1    3    3    0    0  0.19599888566E+01 -0.64518027727E+01  0.90503931796E+01  0.11286138946E+02  0.51100000000E-03 0.  1.
        -12    1    3    3    0    0  0.32537528333E+02  0.21502985160E+02  0.19908304256E+01  0.39051664838E+02  0.00000000000E+00 0.  1.
</event>
<event>
 7    1  0.2000468E-015  0.9000772E+02  0.7816164E-02  0.1186339E+00
        -11   -1    0    0    0    0  0.00000000000E+00  0.00000000000E+00  0.45593999997E+02  0.45594000000E+02  0.51100000000E-03 0.  1.
         11   -1    0    0    0    0 -0.00000000000E+00 -0.00000000000E+00 -0.45593999997E+02  0.45594000000E+02  0.51100000000E-03 0. -1.
    9900012    2    1    2    0    0 -0.52150111124E+00 -0.80319508354E+00  0.68991095085E+00  0.90007719156E+02  0.89999980249E+02 0.  0.
         12    1    1    2    0    0  0.52150111124E+00  0.80319508354E+00 -0.68991095085E+00  0.11802808443E+01  0.00000000000E+00 0. -1.
         11    1    3    3    0    0 -0.11113175643E+01 -0.89335684381E+01 -0.42131924704E+01  0.99395504335E+01  0.51100000000E-03 0. -1.
        -11    1    3    3    0    0  0.35616867054E+02 -0.12097998350E+01  0.19923530302E+02  0.40828567135E+02  0.51100000000E-03 0.  1.
         12    1    3    3    0    0 -0.35027050601E+02  0.93401731895E+01 -0.15020426880E+02  0.39239601587E+02  0.00000000000E+00 0. -1.
</event>
<event>
 7    1  0.2000468E-015  0.9000771E+02  0.7816164E-02  0.1186339E+00
        -11   -1    0    0    0    0  0.00000000000E+00  0.00000000000E+00  0.45593999997E+02  0.45594000000E+02  0.51100000000E-03 0. -1.
         11   -1    0    0    0    0 -0.00000000000E+00 -0.00000000000E+00 -0.45593999997E+02  0.45594000000E+02  0.51100000000E-03 0.  1.
    9900012    2    1    2    0    0 -0.21244204398E+00  0.41098307155E+00 -0.10858408196E+01  0.90007708090E+02  0.89999969037E+02 0.  0.
         12    1    1    2    0    0  0.21244204398E+00 -0.41098307155E+00  0.10858408196E+01  0.11802919099E+01  0.00000000000E+00 0. -1.
         11    1    3    3    0    0 -0.84425034071E+01 -0.11539086883E+01 -0.67515509201E+00  0.85477016618E+01  0.51100000000E-03 0. -1.
        -11    1    3    3    0    0 -0.12631236340E+02 -0.28811059427E+02 -0.22335634588E+02  0.38581159255E+02  0.51100000000E-03 0.  1.
         12    1    3    3    0    0  0.20861297703E+02  0.30375951186E+02  0.21924948861E+02  0.42878847173E+02  0.00000000000E+00 0. -1.
</event>
<event>
 7    1  0.2028053E-015  0.9000772E+02  0.7816164E-02  0.1186339E+00
        -11   -1    0    0    0    0  0.00000000000E+00  0.00000000000E+00  0.45593999997E+02  0.45594000000E+02  0.51100000000E-03 0. -1.
         11   -1    0    0    0    0 -0.00000000000E+00 -0.00000000000E+00 -0.45593999997E+02  0.45594000000E+02  0.51100000000E-03 0.  1.
    9900012    2    1    2    0    0 -0.19798658442E+00  0.15162829653E+00 -0.11536319284E+01  0.90007721874E+02  0.89999983003E+02 0.  0.
         12    1    1    2    0    0  0.19798658442E+00 -0.15162829653E+00  0.11536319284E+01  0.11802781257E+01  0.00000000000E+00 0. -1.
         11    1    3    3    0    0 -0.11331587353E+02  0.28253701774E+02  0.19615830603E+02  0.36214049019E+02  0.51100000000E-03 0. -1.
        -11    1    3    3    0    0  0.94754387232E+00  0.67356304698E+01  0.56971006992E+01  0.88726272239E+01  0.51100000000E-03 0.  1.
        -12    1    3    3    0    0  0.10186056896E+02 -0.34837703947E+02 -0.26466563231E+02  0.44921045631E+02  0.00000000000E+00 0.  1.
</event>
<event>
 7    1  0.2000468E-015  0.9000762E+02  0.7816164E-02  0.1186339E+00
        -11   -1    0    0    0    0  0.00000000000E+00  0.00000000000E+00  0.45593999997E+02  0.45594000000E+02  0.51100000000E-03 0. -1.
         11   -1    0    0    0    0 -0.00000000000E+00 -0.00000000000E+00 -0.45593999997E+02  0.45594000000E+02  0.51100000000E-03 0.  1.
    9900012    2    1    2    0    0 -0.10308588431E+01 -0.36146225469E+00  0.44719166323E+00  0.90007616461E+02  0.89999876198E+02 0.  0.
         12    1    1    2    0    0  0.10308588431E+01  0.36146225469E+00 -0.44719166323E+00  0.11803835392E+01  0.00000000000E+00 0. -1.
         11    1    3    3    0    0 -0.50669663023E+01 -0.80279381357E+01  0.13650777737E+01  0.95909006776E+01  0.51100000000E-03 0. -1.
        -11    1    3    3    0    0 -0.28140463773E+02 -0.21873345295E+02 -0.69783261859E+01  0.36318397161E+02  0.51100000000E-03 0.  1.
         12    1    3    3    0    0  0.32176571232E+02  0.29539821176E+02  0.60604400754E+01  0.44098318622E+02  0.00000000000E+00 0. -1.
</event>
<event>
 7    1  0.2000468E-015  0.9000764E+02  0.7816164E-02  0.1186339E+00
        -11   -1    0    0    0    0  0.00000000000E+00  0.00000000000E+00  0.45593999997E+02  0.45594000000E+02  0.51100000000E-03 0.  1.
         11   -1    0    0    0    0 -0.00000000000E+00 -0.00000000000E+00 -0.45593999997E+02  0.45594000000E+02  0.51100000000E-03 0. -1.
    9900012    2    1    2    0    0  0.62974018521E+00  0.34324430550E+00  0.93747979752E+00  0.90007636613E+02  0.89999896616E+02 0.  0.
         12    1    1    2    0    0 -0.62974018521E+00 -0.34324430550E+00 -0.93747979752E+00  0.11803633868E+01  0.00000000000E+00 0. -1.
         11    1    3    3    0    0  0.14539999411E+02  0.68369240352E+01  0.18747574174E+02  0.24690618680E+02  0.51100000000E-03 0.  1.
        -11    1    3    3    0    0  0.20273336413E+02 -0.17600229623E+02 -0.89322150740E+01  0.28294181707E+02  0.51100000000E-03 0. -1.
         12    1    3    3    0    0 -0.34183595639E+02  0.11106549893E+02 -0.88778793025E+01  0.37022836226E+02  0.00000000000E+00 0. -1.
</event>
<event>
 7    1  0.2000468E-015  0.9000774E+02  0.7816164E-02  0.1186339E+00
        -11   -1    0    0    0    0  0.00000000000E+00  0.00000000000E+00  0.45593999997E+02  0.45594000000E+02  0.51100000000E-03 0. -1.
         11   -1    0    0    0    0 -0.00000000000E+00 -0.00000000000E+00 -0.45593999997E+02  0.45594000000E+02  0.51100000000E-03 0.  1.
    9900012    2    1    2    0    0 -0.83389963347E+00  0.78981796947E+00 -0.27168068728E+00  0.90007740952E+02  0.90000002333E+02 0.  0.
         12    1    1    2    0    0  0.83389963347E+00 -0.78981796947E+00  0.27168068728E+00  0.11802590476E+01  0.00000000000E+00 0. -1.
         11    1    3    3    0    0 -0.16483706992E+02 -0.67779000477E+01  0.20411427265E+01  0.17939308491E+02  0.51100000000E-03 0. -1.
        -11    1    3    3    0    0  0.20744002922E+02 -0.28235246523E+01  0.30658827414E+02  0.37124784813E+02  0.51100000000E-03 0.  1.
         12    1    3    3    0    0 -0.50941955636E+01  0.10391242669E+02 -0.32971650828E+02  0.34943647649E+02  0.00000000000E+00 0. -1.
</event>
<event>
 7    1  0.2000468E-015  0.9000774E+02  0.7816164E-02  0.1186339E+00
        -11   -1    0    0    0    0  0.00000000000E+00  0.00000000000E+00  0.45593999997E+02  0.45594000000E+02  0.51100000000E-03 0.  1.
         11   -1    0    0    0    0 -0.00000000000E+00 -0.00000000000E+00 -0.45593999997E+02  0.45594000000E+02  0.51100000000E-03 0. -1.
    9900012    2    1    2    0    0  0.17081211752E+00  0.74330359025E+00  0.90074030772E+00  0.90007741508E+02  0.90000002896E+02 0.  0.
         12    1    1    2    0    0 -0.17081211752E+00 -0.74330359025E+00 -0.90074030772E+00  0.11802584923E+01  0.00000000000E+00 0. -1.
         11    1    3    3    0    0  0.74910631452E+01  0.36312428902E+01 -0.82526071054E+01  0.11722093511E+02  0.51100000000E-03 0. -1.
        -11    1    3    3    0    0 -0.12234958434E+02  0.31546145745E+02  0.22930234346E+02  0.40873575409E+02  0.51100000000E-03 0.  1.
         12    1    3    3    0    0  0.49147074066E+01 -0.34434085045E+02 -0.13776886933E+02  0.37412072588E+02  0.00000000000E+00 0. -1.
</event>
<event>
 7    1  0.2000468E-015  0.9000768E+02  0.7816164E-02  0.1186339E+00
        -11   -1    0    0    0    0  0.00000000000E+00  0.00000000000E+00  0.45593999997E+02  0.45594000000E+02  0.51100000000E-03 0.  1.
         11   -1    0    0    0    0 -0.00000000000E+00 -0.00000000000E+00 -0.45593999997E+02  0.45594000000E+02  0.51100000000E-03 0. -1.
    9900012    2    1    2    0    0  0.43838769289E+00  0.85820809074E+00  0.68150460347E+00  0.90007680797E+02  0.89999941384E+02 0.  0.
         12    1    1    2    0    0 -0.43838769289E+00 -0.85820809074E+00 -0.68150460347E+00  0.11803192029E+01  0.00000000000E+00 0. -1.
         11    1    3    3    0    0  0.18136524094E+01 -0.26095055386E+02 -0.21599992458E+02  0.33923456857E+02  0.51100000000E-03 0. -1.
        -11    1    3    3    0    0 -0.90256804201E+01 -0.30713552949E+01 -0.82331543925E+01  0.12596863177E+02  0.51100000000E-03 0.  1.
        -12    1    3    3    0    0  0.76504157036E+01  0.30024618771E+02  0.30514651454E+02  0.43487360763E+02  0.00000000000E+00 0.  1.
</event>
<event>
 7    1  0.2000468E-015  0.9000776E+02  0.7816164E-02  0.1186339E+00
        -11   -1    0    0    0    0  0.00000000000E+00  0.00000000000E+00  0.45593999997E+02  0.45594000000E+02  0.51100000000E-03 0. -1.
         11   -1    0    0    0    0 -0.00000000000E+00 -0.00000000000E+00 -0.45593999997E+02  0.45594000000E+02  0.51100000000E-03 0.  1.
    9900012    2    1    2    0    0  0.55998325596E+00  0.95537884607E+00 -0.40822359810E+00  0.90007755749E+02  0.90000017325E+02 0.  0.
         12    1    1    2    0    0 -0.55998325596E+00 -0.95537884607E+00  0.40822359810E+00  0.11802442512E+01  0.00000000000E+00 0. -1.
         11    1    3    3    0    0  0.70019256233E+01 -0.11121914061E+00 -0.59163809783E+01  0.91674912747E+01  0.51100000000E-03 0. -1.
        -11    1    3    3    0    0 -0.32893891425E+02 -0.82268202408E+01 -0.22908571394E+02  0.40920548725E+02  0.51100000000E-03 0.  1.
         12    1    3    3    0    0  0.26451949058E+02  0.92934182275E+01  0.28416728774E+02  0.39919715749E+02  0.00000000000E+00 0. -1.
</event>
<event>
 7    1  0.2000468E-015  0.9000773E+02  0.7816164E-02  0.1186339E+00
        -11   -1    0    0    0    0  0.00000000000E+00  0.00000000000E+00  0.45593999997E+02  0.45594000000E+02  0.51100000000E-03 0.  1.
         11   -1    0    0    0    0 -0.00000000000E+00 -0.00000000000E+00 -0.45593999997E+02  0.45594000000E+02  0.51100000000E-03 0. -1.
    9900012    2    1    2    0    0  0.25785010604E+00 -0.30479254932E+00  0.11106972194E+01  0.90007731603E+02  0.89999992860E+02 0.  0.
         12    1    1    2    0    0 -0.25785010604E+00  0.30479254932E+00 -0.11106972194E+01  0.11802683968E+01  0.00000000000E+00 0. -1.
         11    1    3    3    0    0  0.13860306664E+01  0.99660554851E+01 -0.28671060660E+01  0.10462487295E+02  0.51100000000E-03 0. -1.
        -11    1    3    3    0    0  0.32591623618E+02  0.98562683661E+01 -0.13414056376E+02  0.36596405082E+02  0.51100000000E-03 0.  1.
         12    1    3    3    0    0 -0.33719804179E+02 -0.20127116400E+02  0.17391859661E+02  0.42948839227E+02  0.00000000000E+00 0. -1.
</event>
<event>
 7    1  0.2000468E-015  0.9000772E+02  0.7816164E-02  0.1186339E+00
        -11   -1    0    0    0    0  0.00000000000E+00  0.00000000000E+00  0.45593999997E+02  0.45594000000E+02  0.51100000000E-03 0.  1.
         11   -1    0    0    0    0 -0.00000000000E+00 -0.00000000000E+00 -0.45593999997E+02  0.45594000000E+02  0.51100000000E-03 0. -1.
    9900012    2    1    2    0    0  0.15477104340E+00 -0.72238537919E+00  0.92046660846E+00  0.90007723130E+02  0.89999984276E+02 0.  0.
         12    1    1    2    0    0 -0.15477104340E+00  0.72238537919E+00 -0.92046660846E+00  0.11802768697E+01  0.00000000000E+00 0. -1.
         11    1    3    3    0    0  0.79445895622E+01 -0.72098089224E+00  0.79974365209E+01  0.11295809308E+02  0.51100000000E-03 0. -1.
        -11    1    3    3    0    0 -0.27756610379E+02  0.57854154627E+01  0.26767822904E+02  0.38992522297E+02  0.51100000000E-03 0.  1.
         12    1    3    3    0    0  0.19966791861E+02 -0.57868199497E+01 -0.33844792816E+02  0.39719391525E+02  0.00000000000E+00 0. -1.
</event>
<event>
 7    1  0.2000468E-015  0.9000776E+02  0.7816164E-02  0.1186339E+00
        -11   -1    0    0    0    0  0.00000000000E+00  0.00000000000E+00  0.45593999997E+02  0.45594000000E+02  0.51100000000E-03 0.  1.
         11   -1    0    0    0    0 -0.00000000000E+00 -0.00000000000E+00 -0.45593999997E+02  0.45594000000E+02  0.51100000000E-03 0. -1.
    9900012    2    1    2    0    0  0.26948668976E+00  0.84709911465E+00  0.77638305418E+00  0.90007758231E+02  0.90000019840E+02 0.  0.
         12    1    1    2    0    0 -0.26948668976E+00 -0.84709911465E+00 -0.77638305418E+00  0.11802417688E+01  0.00000000000E+00 0. -1.
         11    1    3    3    0    0  0.16636314527E+01 -0.30214716079E+01  0.11685280972E+02  0.12183708464E+02  0.51100000000E-03 0. -1.
        -11    1    3    3    0    0 -0.33506843762E+02  0.34589704817E+01  0.14695771892E+02  0.36751037638E+02  0.51100000000E-03 0.  1.
         12    1    3    3    0    0  0.32112698999E+02  0.40960024085E+00 -0.25604669809E+02  0.41073012130E+02  0.00000000000E+00 0. -1.
</event>
<event>
 7    1  0.2000468E-015  0.9000772E+02  0.7816164E-02  0.1186339E+00
        -11   -1    0    0    0    0  0.00000000000E+00  0.00000000000E+00  0.45593999997E+02  0.45594000000E+02  0.51100000000E-03 0. -1.
         11   -1    0    0    0    0 -0.00000000000E+00 -0.00000000000E+00 -0.45593999997E+02  0.45594000000E+02  0.51100000000E-03 0.  1.
    9900012    2    1    2    0    0  0.20084411983E+00 -0.10536610659E+01  0.49246833476E+00  0.90007718227E+02  0.89999979308E+02 0.  0.
         12    1    1    2    0    0 -0.20084411983E+00  0.10536610659E+01 -0.49246833476E+00  0.11802817727E+01  0.00000000000E+00 0. -1.
         11    1    3    3    0    0  0.17948620472E+01  0.70823356752E+01 -0.53856687225E+01  0.90766974300E+01  0.51100000000E-03 0. -1.
        -11    1    3    3    0    0  0.13270453036E+02 -0.33737270709E+02 -0.20180831029E+02  0.41491858237E+02  0.51100000000E-03 0.  1.
         12    1    3    3    0    0 -0.14864470964E+02  0.25601273967E+02  0.26058968086E+02  0.39439162561E+02  0.00000000000E+00 0. -1.
</event>
<event>
 7    1  0.2000468E-015  0.9000768E+02  0.7816164E-02  0.1186339E+00
        -11   -1    0    0    0    0  0.00000000000E+00  0.00000000000E+00  0.45593999997E+02  0.45594000000E+02  0.51100000000E-03 0.  1.
         11   -1    0    0    0    0 -0.00000000000E+00 -0.00000000000E+00 -0.45593999997E+02  0.45594000000E+02  0.51100000000E-03 0. -1.
    9900012    2    1    2    0    0  0.94081289376E+00 -0.60754928455E+00  0.37269971481E+00  0.90007682199E+02  0.89999942804E+02 0.  0.
         12    1    1    2    0    0 -0.94081289376E+00  0.60754928455E+00 -0.37269971481E+00  0.11803178011E+01  0.00000000000E+00 0. -1.
         11    1    3    3    0    0 -0.40489590601E+02  0.20619134563E+01  0.87927740451E+01  0.41484591233E+02  0.51100000000E-03 0. -1.
        -11    1    3    3    0    0  0.31301783376E+01  0.72726610910E+01  0.59344102960E+00  0.79398859114E+01  0.51100000000E-03 0.  1.
        -12    1    3    3    0    0  0.38300225157E+02 -0.99421238318E+01 -0.90135153599E+01  0.40583205054E+02  0.00000000000E+00 0.  1.
</event>
<event>
 7    1  0.2000468E-015  0.9000771E+02  0.7816164E-02  0.1186339E+00
        -11   -1    0    0    0    0  0.00000000000E+00  0.00000000000E+00  0.45593999997E+02  0.45594000000E+02  0.51100000000E-03 0.  1.
         11   -1    0    0    0    0 -0.00000000000E+00 -0.00000000000E+00 -0.45593999997E+02  0.45594000000E+02  0.51100000000E-03 0. -1.
    9900012    2    1    2    0    0  0.70044050974E+00  0.82822762584E+00  0.46529833733E+00  0.90007711709E+02  0.89999972703E+02 0.  0.
         12    1    1    2    0    0 -0.70044050974E+00 -0.82822762584E+00 -0.46529833733E+00  0.11802882913E+01  0.00000000000E+00 0. -1.
         11    1    3    3    0    0  0.57544521210E+01  0.25299780566E+02 -0.29379302063E+01  0.26111760761E+02  0.51100000000E-03 0. -1.
        -11    1    3    3    0    0 -0.19583454900E+02 -0.30533802917E+01  0.23779258437E+02  0.30956226661E+02  0.51100000000E-03 0.  1.
         12    1    3    3    0    0  0.14529443289E+02 -0.21418172648E+02 -0.20376029893E+02  0.32939724287E+02  0.00000000000E+00 0. -1.
</event>
<event>
 7    1  0.2000468E-015  0.9000788E+02  0.7816164E-02  0.1186339E+00
        -11   -1    0    0    0    0  0.00000000000E+00  0.00000000000E+00  0.45593999997E+02  0.45594000000E+02  0.51100000000E-03 0. -1.
         11   -1    0    0    0    0 -0.00000000000E+00 -0.00000000000E+00 -0.45593999997E+02  0.45594000000E+02  0.51100000000E-03 0.  1.
    9900012    2    1    2    0    0  0.93526488048E+00  0.59487420705E+00 -0.40507949348E+00  0.90007879195E+02  0.90000142400E+02 0.  0.
         12    1    1    2    0    0 -0.93526488048E+00 -0.59487420705E+00  0.40507949348E+00  0.11801208052E+01  0.00000000000E+00 0. -1.
         11    1    3    3    0    0 -0.22789181114E+01 -0.30938889286E+02  0.13556419899E+02  0.33855351996E+02  0.51100000000E-03 0. -1.
        -11    1    3    3    0    0  0.72443027036E+01 -0.10021937101E+02 -0.86628859609E+00  0.12396354348E+02  0.51100000000E-03 0.  1.
        -12    1    3    3    0    0 -0.40301197117E+01  0.41555700594E+02 -0.13095210797E+02  0.43756172851E+02  0.00000000000E+00 0.  1.
</event>
<event>
 7    1  0.2000468E-015  0.9000754E+02  0.7816164E-02  0.1186339E+00
        -11   -1    0    0    0    0  0.00000000000E+00  0.00000000000E+00  0.45593999997E+02  0.45594000000E+02  0.51100000000E-03 0. -1.
         11   -1    0    0    0    0 -0.00000000000E+00 -0.00000000000E+00 -0.45593999997E+02  0.45594000000E+02  0.51100000000E-03 0.  1.
    9900012    2    1    2    0    0  0.10815831684E+01  0.49274841677E-01 -0.47036271212E+00  0.90007537700E+02  0.89999796398E+02 0.  0.
         12    1    1    2    0    0 -0.10815831684E+01 -0.49274841677E-01  0.47036271212E+00  0.11804622998E+01  0.00000000000E+00 0. -1.
         11    1    3    3    0    0  0.26097297222E+02  0.21891169572E+01  0.98465540965E+01  0.27978845279E+02  0.51100000000E-03 0. -1.
        -11    1    3    3    0    0  0.76132540167E+01  0.13840487390E+02 -0.18964725262E+02  0.24681603117E+02  0.51100000000E-03 0.  1.
        -12    1    3    3    0    0 -0.32628968070E+02 -0.15980329505E+02  0.86478084532E+01  0.37347089304E+02  0.00000000000E+00 0.  1.
</event>
<event>
 7    1  0.2000468E-015  0.9000772E+02  0.7816164E-02  0.1186339E+00
        -11   -1    0    0    0    0  0.00000000000E+00  0.00000000000E+00  0.45593999997E+02  0.45594000000E+02  0.51100000000E-03 0.  1.
         11   -1    0    0    0    0 -0.00000000000E+00 -0.00000000000E+00 -0.45593999997E+02  0.45594000000E+02  0.51100000000E-03 0. -1.
    9900012    2    1    2    0    0 -0.27906054484E+00 -0.11112337057E+01  0.28344562230E+00  0.90007721831E+02  0.89999982959E+02 0.  0.
         12    1    1    2    0    0  0.27906054484E+00  0.11112337057E+01 -0.28344562230E+00  0.11802781694E+01  0.00000000000E+00 0. -1.
         11    1    3    3    0    0  0.28753730289E+01 -0.63370477325E+01 -0.77113361457E+01  0.10387042381E+02  0.51100000000E-03 0. -1.
        -11    1    3    3    0    0 -0.34600891616E+02 -0.13880960085E+02 -0.10087024877E+02  0.38621895663E+02  0.51100000000E-03 0.  1.
         12    1    3    3    0    0  0.31446458042E+02  0.19106774112E+02  0.18081806645E+02  0.40998783786E+02  0.00000000000E+00 0. -1.
</event>
<event>
 7    1  0.2000468E-015  0.9000772E+02  0.7816164E-02  0.1186339E+00
        -11   -1    0    0    0    0  0.00000000000E+00  0.00000000000E+00  0.45593999997E+02  0.45594000000E+02  0.51100000000E-03 0. -1.
         11   -1    0    0    0    0 -0.00000000000E+00 -0.00000000000E+00 -0.45593999997E+02  0.45594000000E+02  0.51100000000E-03 0.  1.
    9900012    2    1    2    0    0 -0.30731972306E+00  0.67140154872E+00 -0.92078519333E+00  0.90007715787E+02  0.89999976835E+02 0.  0.
         12    1    1    2    0    0  0.30731972306E+00 -0.67140154872E+00  0.92078519333E+00  0.11802842133E+01  0.00000000000E+00 0. -1.
         11    1    3    3    0    0 -0.17094795012E+02 -0.25073985623E+01  0.10286447081E+02  0.20107960063E+02  0.51100000000E-03 0. -1.
        -11    1    3    3    0    0  0.34254807675E+02  0.11045934421E+02  0.13670685235E+02  0.38500547414E+02  0.51100000000E-03 0.  1.
         12    1    3    3    0    0 -0.17467332386E+02 -0.78671343103E+01 -0.24877917509E+02  0.31399208311E+02  0.00000000000E+00 0. -1.
</event>
<event>
 7    1  0.2000468E-015  0.9000776E+02  0.7816164E-02  0.1186339E+00
        -11   -1    0    0    0    0  0.00000000000E+00  0.00000000000E+00  0.45593999997E+02  0.45594000000E+02  0.51100000000E-03 0.  1.
         11   -1    0    0    0    0 -0.00000000000E+00 -0.00000000000E+00 -0.45593999997E+02  0.45594000000E+02  0.51100000000E-03 0. -1.
    9900012    2    1    2    0    0  0.62510412934E+00  0.46977488466E+00  0.88404149424E+00  0.90007757238E+02  0.90000018833E+02 0.  0.
         12    1    1    2    0    0 -0.62510412934E+00 -0.46977488466E+00 -0.88404149424E+00  0.11802427625E+01  0.00000000000E+00 0. -1.
         11    1    3    3    0    0  0.36620547151E+00  0.26756002918E+01 -0.19650374890E+02  0.19835074412E+02  0.51100000000E-03 0. -1.
        -11    1    3    3    0    0 -0.29996864697E+02 -0.15150215639E+02  0.15002863572E+02  0.36802538516E+02  0.51100000000E-03 0.  1.
         12    1    3    3    0    0  0.30255763355E+02  0.12944390232E+02  0.55315528121E+01  0.33370144309E+02  0.00000000000E+00 0. -1.
</event>
<event>
 7    1  0.2000468E-015  0.9000789E+02  0.7816164E-02  0.1186339E+00
        -11   -1    0    0    0    0  0.00000000000E+00  0.00000000000E+00  0.45593999997E+02  0.45594000000E+02  0.51100000000E-03 0. -1.
         11   -1    0    0    0    0 -0.00000000000E+00 -0.00000000000E+00 -0.45593999997E+02  0.45594000000E+02  0.51100000000E-03 0.  1.
    9900012    2    1    2    0    0 -0.78110610355E+00 -0.68583120408E+00 -0.55871987624E+00  0.90007890223E+02  0.90000153574E+02 0.  0.
         12    1    1    2    0    0  0.78110610355E+00  0.68583120408E+00  0.55871987624E+00  0.11801097769E+01  0.00000000000E+00 0. -1.
         11    1    3    3    0    0 -0.14645338797E+02 -0.13129274912E+02  0.35660239746E+02  0.40724888056E+02  0.51100000000E-03 0. -1.
        -11    1    3    3    0    0  0.68766364780E+01 -0.46407712369E+01  0.36743857549E+00  0.83042096729E+01  0.51100000000E-03 0.  1.
        -12    1    3    3    0    0  0.69875962152E+01  0.17084214944E+02 -0.36586398198E+02  0.40978792494E+02  0.00000000000E+00 0.  1.
</event>
<event>
 7    1  0.2000468E-015  0.9000773E+02  0.7816164E-02  0.1186339E+00
        -11   -1    0    0    0    0  0.00000000000E+00  0.00000000000E+00  0.45593999997E+02  0.45594000000E+02  0.51100000000E-03 0.  1.
         11   -1    0    0    0    0 -0.00000000000E+00 -0.00000000000E+00 -0.45593999997E+02  0.45594000000E+02  0.51100000000E-03 0. -1.
    9900012    2    1    2    0    0 -0.10318016811E+01 -0.17388333783E+00  0.54605939295E+00  0.90007732664E+02  0.89999993935E+02 0.  0.
         12    1    1    2    0    0  0.10318016811E+01  0.17388333783E+00 -0.54605939295E+00  0.11802673362E+01  0.00000000000E+00 0. -1.
         11    1    3    3    0    0 -0.13288549084E+01 -0.44086416886E+02  0.43621997931E+01  0.44321628992E+02  0.51100000000E-03 0.  1.
        -11    1    3    3    0    0  0.48988713649E+01  0.13303000857E+02 -0.40078475819E+01  0.14731992905E+02  0.51100000000E-03 0. -1.
        -12    1    3    3    0    0 -0.46018181377E+01  0.30609532691E+02  0.19170718174E+00  0.30954110767E+02  0.00000000000E+00 0.  1.
</event>
<event>
 7    1  0.2000468E-015  0.9000768E+02  0.7816164E-02  0.1186339E+00
        -11   -1    0    0    0    0  0.00000000000E+00  0.00000000000E+00  0.45593999997E+02  0.45594000000E+02  0.51100000000E-03 0. -1.
         11   -1    0    0    0    0 -0.00000000000E+00 -0.00000000000E+00 -0.45593999997E+02  0.45594000000E+02  0.51100000000E-03 0.  1.
    9900012    2    1    2    0    0 -0.98321526652E+00  0.48322346809E+00  0.43925781345E+00  0.90007676058E+02  0.89999936582E+02 0.  0.
         12    1    1    2    0    0  0.98321526652E+00 -0.48322346809E+00 -0.43925781345E+00  0.11803239416E+01  0.00000000000E+00 0. -1.
         11    1    3    3    0    0  0.42267592851E+01 -0.37435743501E+01 -0.23301058543E+00  0.56510297436E+01  0.51100000000E-03 0. -1.
        -11    1    3    3    0    0 -0.11328486745E+02 -0.31053179841E+01 -0.40459862951E+02  0.42130489221E+02  0.51100000000E-03 0.  1.
         12    1    3    3    0    0  0.61185121933E+01  0.73321158023E+01  0.41132131350E+02  0.42226157094E+02  0.00000000000E+00 0. -1.
</event>
<event>
 7    1  0.2000468E-015  0.9000772E+02  0.7816164E-02  0.1186339E+00
        -11   -1    0    0    0    0  0.00000000000E+00  0.00000000000E+00  0.45593999997E+02  0.45594000000E+02  0.51100000000E-03 0. -1.
         11   -1    0    0    0    0 -0.00000000000E+00 -0.00000000000E+00 -0.45593999997E+02  0.45594000000E+02  0.51100000000E-03 0.  1.
    9900012    2    1    2    0    0 -0.48484569659E+00 -0.66533084067E+00 -0.84576626345E+00  0.90007719928E+02  0.89999981031E+02 0.  0.
         12    1    1    2    0    0  0.48484569659E+00  0.66533084067E+00  0.84576626345E+00  0.11802800725E+01  0.00000000000E+00 0. -1.
         11    1    3    3    0    0  0.30157481011E+02  0.24366455496E+02 -0.51959603733E+01  0.39117717454E+02  0.51100000000E-03 0. -1.
        -11    1    3    3    0    0  0.19947151112E+01 -0.11265995568E+01  0.98045497259E+01  0.10068630022E+02  0.51100000000E-03 0.  1.
        -12    1    3    3    0    0 -0.32637041819E+02 -0.23905186779E+02 -0.54543556160E+01  0.40821372451E+02  0.00000000000E+00 0.  1.
</event>
<event>
 7    1  0.2000468E-015  0.9000776E+02  0.7816164E-02  0.1186339E+00
        -11   -1    0    0    0    0  0.00000000000E+00  0.00000000000E+00  0.45593999997E+02  0.45594000000E+02  0.51100000000E-03 0.  1.
         11   -1    0    0    0    0 -0.00000000000E+00 -0.00000000000E+00 -0.45593999997E+02  0.45594000000E+02  0.51100000000E-03 0. -1.
    9900012    2    1    2    0    0  0.76439440519E+00 -0.30347222612E+00  0.84650463295E+00  0.90007760917E+02  0.90000022561E+02 0.  0.
         12    1    1    2    0    0 -0.76439440519E+00  0.30347222612E+00 -0.84650463295E+00  0.11802390827E+01  0.00000000000E+00 0. -1.
         11    1    3    3    0    0  0.26464539497E+01  0.39386204872E+02  0.22931883989E+01  0.39541567572E+02  0.51100000000E-03 0. -1.
        -11    1    3    3    0    0 -0.95152516809E+01 -0.20903526334E+01  0.59188853707E+01  0.11399245281E+02  0.51100000000E-03 0.  1.
        -12    1    3    3    0    0  0.76331921364E+01 -0.37599324465E+02 -0.73655691366E+01  0.39066948065E+02  0.00000000000E+00 0.  1.
</event>
<event>
 7    1  0.2000468E-015  0.9000774E+02  0.7816164E-02  0.1186339E+00
        -11   -1    0    0    0    0  0.00000000000E+00  0.00000000000E+00  0.45593999997E+02  0.45594000000E+02  0.51100000000E-03 0.  1.
         11   -1    0    0    0    0 -0.00000000000E+00 -0.00000000000E+00 -0.45593999997E+02  0.45594000000E+02  0.51100000000E-03 0. -1.
    9900012    2    1    2    0    0  0.17775775665E+00  0.78187500756E+00  0.86608219152E+00  0.90007735322E+02  0.89999996628E+02 0.  0.
         12    1    1    2    0    0 -0.17775775665E+00 -0.78187500756E+00 -0.86608219152E+00  0.11802646779E+01  0.00000000000E+00 0. -1.
         11    1    3    3    0    0 -0.24870974017E+02 -0.29438946237E+02 -0.10953979973E+02  0.40065029410E+02  0.51100000000E-03 0. -1.
        -11    1    3    3    0    0 -0.11024450548E+01  0.26789262607E+00  0.10078351995E+02  0.10142008221E+02  0.51100000000E-03 0.  1.
        -12    1    3    3    0    0  0.26151176829E+02  0.29952928618E+02  0.17417101688E+01  0.39800697691E+02  0.00000000000E+00 0.  1.
</event>
<event>
 7    1  0.2000468E-015  0.9000772E+02  0.7816164E-02  0.1186339E+00
        -11   -1    0    0    0    0  0.00000000000E+00  0.00000000000E+00  0.45593999997E+02  0.45594000000E+02  0.51100000000E-03 0. -1.
         11   -1    0    0    0    0 -0.00000000000E+00 -0.00000000000E+00 -0.45593999997E+02  0.45594000000E+02  0.51100000000E-03 0.  1.
    9900012    2    1    2    0    0  0.10995281042E+01  0.32675100891E+00  0.27808481865E+00  0.90007720609E+02  0.89999981721E+02 0.  0.
         12    1    1    2    0    0 -0.10995281042E+01 -0.32675100891E+00 -0.27808481865E+00  0.11802793907E+01  0.00000000000E+00 0. -1.
         11    1    3    3    0    0 -0.40772365835E+02  0.74976545532E+01 -0.14744550029E+02  0.44000027221E+02  0.51100000000E-03 0. -1.
        -11    1    3    3    0    0  0.73448239638E+01 -0.49425440634E+01  0.38014813214E+01  0.96346479633E+01  0.51100000000E-03 0.  1.
        -12    1    3    3    0    0  0.34527069976E+02 -0.22283594809E+01  0.11221153526E+02  0.36373045425E+02  0.00000000000E+00 0.  1.
</event>
<event>
 7    1  0.2000468E-015  0.9000764E+02  0.7816164E-02  0.1186339E+00
        -11   -1    0    0    0    0  0.00000000000E+00  0.00000000000E+00  0.45593999997E+02  0.45594000000E+02  0.51100000000E-03 0.  1.
         11   -1    0    0    0    0 -0.00000000000E+00 -0.00000000000E+00 -0.45593999997E+02  0.45594000000E+02  0.51100000000E-03 0. -1.
    9900012    2    1    2    0    0  0.76831860670E-01  0.80747522411E+00  0.85751460879E+00  0.90007639599E+02  0.89999899641E+02 0.  0.
         12    1    1    2    0    0 -0.76831860670E-01 -0.80747522411E+00 -0.85751460879E+00  0.11803604012E+01  0.00000000000E+00 0. -1.
         11    1    3    3    0    0  0.34464043324E+01  0.27902791366E+01  0.22001907804E+01  0.49501717358E+01  0.51100000000E-03 0. -1.
        -11    1    3    3    0    0  0.34416019747E+02  0.53099456605E+01  0.20895364839E+02  0.40611257185E+02  0.51100000000E-03 0.  1.
         12    1    3    3    0    0 -0.37785592219E+02 -0.72927495730E+01 -0.22238041011E+02  0.44446210678E+02  0.00000000000E+00 0. -1.
</event>
<event>
 7    1  0.2000468E-015  0.9000779E+02  0.7816164E-02  0.1186339E+00
        -11   -1    0    0    0    0  0.00000000000E+00  0.00000000000E+00  0.45593999997E+02  0.45594000000E+02  0.51100000000E-03 0. -1.
         11   -1    0    0    0    0 -0.00000000000E+00 -0.00000000000E+00 -0.45593999997E+02  0.45594000000E+02  0.51100000000E-03 0.  1.
    9900012    2    1    2    0    0  0.92990734324E+00 -0.60873097374E+00 -0.39700700843E+00  0.90007790006E+02  0.90000052034E+02 0.  0.
         12    1    1    2    0    0 -0.92990734324E+00  0.60873097374E+00  0.39700700843E+00  0.11802099941E+01  0.00000000000E+00 0. -1.
         11    1    3    3    0    0  0.12535042512E+02  0.16833105581E+02  0.29199360843E+02  0.35959468965E+02  0.51100000000E-03 0. -1.
        -11    1    3    3    0    0 -0.52761618662E+01  0.27204560428E+01  0.85682157154E+01  0.10423679097E+02  0.51100000000E-03 0.  1.
        -12    1    3    3    0    0 -0.63289733027E+01 -0.20162292598E+02 -0.38164583567E+02  0.43624641944E+02  0.00000000000E+00 0.  1.
</event>
<event>
 7    1  0.2000468E-015  0.9000776E+02  0.7816164E-02  0.1186339E+00
        -11   -1    0    0    0    0  0.00000000000E+00  0.00000000000E+00  0.45593999997E+02  0.45594000000E+02  0.51100000000E-03 0.  1.
         11   -1    0    0    0    0 -0.00000000000E+00 -0.00000000000E+00 -0.45593999997E+02  0.45594000000E+02  0.51100000000E-03 0. -1.
    9900012    2    1    2    0    0 -0.10147002225E+01 -0.53668812021E+00 -0.27444007293E+00  0.90007759332E+02  0.90000020956E+02 0.  0.
         12    1    1    2    0    0  0.10147002225E+01  0.53668812021E+00  0.27444007293E+00  0.11802406677E+01  0.00000000000E+00 0. -1.
         11    1    3    3    0    0 -0.62731091045E+01 -0.21043094700E+01 -0.56160992572E+01  0.86787434177E+01  0.51100000000E-03 0. -1.
        -11    1    3    3    0    0 -0.17184282974E+02 -0.19564714167E+02  0.31521378410E+02  0.40886121348E+02  0.51100000000E-03 0.  1.
         12    1    3    3    0    0  0.22442691856E+02  0.21132335517E+02 -0.26179719226E+02  0.40442894566E+02  0.00000000000E+00 0. -1.
</event>
<event>
 7    1  0.2000468E-015  0.9000770E+02  0.7816164E-02  0.1186339E+00
        -11   -1    0    0    0    0  0.00000000000E+00  0.00000000000E+00  0.45593999997E+02  0.45594000000E+02  0.51100000000E-03 0.  1.
         11   -1    0    0    0    0 -0.00000000000E+00 -0.00000000000E+00 -0.45593999997E+02  0.45594000000E+02  0.51100000000E-03 0. -1.
    9900012    2    1    2    0    0 -0.21385962514E+00 -0.11348642985E+01 -0.24381939552E+00  0.90007703083E+02  0.89999963963E+02 0.  0.
         12    1    1    2    0    0  0.21385962514E+00  0.11348642985E+01  0.24381939552E+00  0.11802969173E+01  0.00000000000E+00 0. -1.
         11    1    3    3    0    0 -0.26010462965E+01  0.39215067838E+00  0.76127568174E+01  0.80543957324E+01  0.51100000000E-03 0. -1.
        -11    1    3    3    0    0 -0.27606420279E+02 -0.75999450065E+01  0.24305620222E+02  0.37558444848E+02  0.51100000000E-03 0.  1.
         12    1    3    3    0    0  0.29993606951E+02  0.60729300296E+01 -0.32162196435E+02  0.44394862502E+02  0.00000000000E+00 0. -1.
</event>
<event>
 7    1  0.2000468E-015  0.9000829E+02  0.7816164E-02  0.1186338E+00
        -11   -1    0    0    0    0  0.00000000000E+00  0.00000000000E+00  0.45593999997E+02  0.45594000000E+02  0.51100000000E-03 0.  1.
         11   -1    0    0    0    0 -0.00000000000E+00 -0.00000000000E+00 -0.45593999997E+02  0.45594000000E+02  0.51100000000E-03 0. -1.
    9900012    2    1    2    0    0  0.78980200082E-02 -0.52913649804E+00  0.10543515563E+01  0.90008294521E+02  0.90000563207E+02 0.  0.
         12    1    1    2    0    0 -0.78980200082E-02  0.52913649804E+00 -0.10543515563E+01  0.11797054788E+01  0.00000000000E+00 0. -1.
         11    1    3    3    0    0 -0.29780840291E+01  0.44470233354E+01  0.80416885791E+01  0.96599045800E+01  0.51100000000E-03 0. -1.
        -11    1    3    3    0    0 -0.10875031877E+02  0.33893707705E+02 -0.14440758601E+02  0.38413347283E+02  0.51100000000E-03 0.  1.
         12    1    3    3    0    0  0.13861013926E+02 -0.38869867538E+02  0.74534215782E+01  0.41935042658E+02  0.00000000000E+00 0. -1.
</event>
<event>
 7    1  0.2000468E-015  0.9000773E+02  0.7816164E-02  0.1186339E+00
        -11   -1    0    0    0    0  0.00000000000E+00  0.00000000000E+00  0.45593999997E+02  0.45594000000E+02  0.51100000000E-03 0. -1.
         11   -1    0    0    0    0 -0.00000000000E+00 -0.00000000000E+00 -0.45593999997E+02  0.45594000000E+02  0.51100000000E-03 0.  1.
    9900012    2    1    2    0    0  0.99650571335E+00  0.43207340302E+00 -0.46188293896E+00  0.90007725917E+02  0.89999987099E+02 0.  0.
         12    1    1    2    0    0 -0.99650571335E+00 -0.43207340302E+00  0.46188293896E+00  0.11802740833E+01  0.00000000000E+00 0. -1.
         11    1    3    3    0    0  0.33024737699E+02 -0.17645785216E+02 -0.55697279131E+01  0.37855368249E+02  0.51100000000E-03 0. -1.
        -11    1    3    3    0    0 -0.20174860192E+01 -0.78718551106E+01 -0.69430710500E+01  0.10688432466E+02  0.51100000000E-03 0.  1.
        -12    1    3    3    0    0 -0.30010745967E+02  0.25949713729E+02  0.12050916024E+02  0.41463925202E+02  0.00000000000E+00 0.  1.
</event>
<event>
 7    1  0.2000468E-015  0.9000771E+02  0.7816164E-02  0.1186339E+00
        -11   -1    0    0    0    0  0.00000000000E+00  0.00000000000E+00  0.45593999997E+02  0.45594000000E+02  0.51100000000E-03 0. -1.
         11   -1    0    0    0    0 -0.00000000000E+00 -0.00000000000E+00 -0.45593999997E+02  0.45594000000E+02  0.51100000000E-03 0.  1.
    9900012    2    1    2    0    0  0.86045324590E+00  0.66127775476E+00 -0.46413040766E+00  0.90007709742E+02  0.89999970711E+02 0.  0.
         12    1    1    2    0    0 -0.86045324590E+00 -0.66127775476E+00  0.46413040766E+00  0.11802902578E+01  0.00000000000E+00 0. -1.
         11    1    3    3    0    0 -0.35823504328E+02  0.11626851810E+02  0.10803696349E+02  0.39181972901E+02  0.51100000000E-03 0. -1.
        -11    1    3    3    0    0  0.12695772704E+01 -0.59842896668E+00  0.87385934261E+01  0.88505908843E+01  0.51100000000E-03 0.  1.
        -12    1    3    3    0    0  0.35414380304E+02 -0.10367145088E+02 -0.20006420182E+02  0.41975145957E+02  0.00000000000E+00 0.  1.
</event>
<event>
 7    1  0.2000468E-015  0.9000767E+02  0.7816164E-02  0.1186339E+00
        -11   -1    0    0    0    0  0.00000000000E+00  0.00000000000E+00  0.45593999997E+02  0.45594000000E+02  0.51100000000E-03 0. -1.
         11   -1    0    0    0    0 -0.00000000000E+00 -0.00000000000E+00 -0.45593999997E+02  0.45594000000E+02  0.51100000000E-03 0.  1.
    9900012    2    1    2    0    0  0.21408133229E+00 -0.96143692088E+00 -0.65037963569E+00  0.90007667233E+02  0.89999927641E+02 0.  0.
         12    1    1    2    0    0 -0.21408133229E+00  0.96143692088E+00  0.65037963569E+00  0.11803327667E+01  0.00000000000E+00 0. -1.
         11    1    3    3    0    0  0.36105873870E+01  0.71470433214E+01  0.22097606601E+01  0.83066005052E+01  0.51100000000E-03 0. -1.
        -11    1    3    3    0    0  0.27984402407E+02 -0.12327544903E+02 -0.27852687134E+02  0.41362631955E+02  0.51100000000E-03 0.  1.
         12    1    3    3    0    0 -0.31380908461E+02  0.42190646611E+01  0.24992546838E+02  0.40338434773E+02  0.00000000000E+00 0. -1.
</event>
<event>
 7    1  0.2000468E-015  0.9000772E+02  0.7816164E-02  0.1186339E+00
        -11   -1    0    0    0    0  0.00000000000E+00  0.00000000000E+00  0.45593999997E+02  0.45594000000E+02  0.51100000000E-03 0. -1.
         11   -1    0    0    0    0 -0.00000000000E+00 -0.00000000000E+00 -0.45593999997E+02  0.45594000000E+02  0.51100000000E-03 0.  1.
    9900012    2    1    2    0    0 -0.37213525826E+00  0.10463757478E+01 -0.39958506551E+00  0.90007722456E+02  0.89999983593E+02 0.  0.
         12    1    1    2    0    0  0.37213525826E+00 -0.10463757478E+01  0.39958506551E+00  0.11802775439E+01  0.00000000000E+00 0. -1.
         11    1    3    3    0    0  0.63151669984E+01 -0.12048420542E+02  0.20939456248E+02  0.24970114136E+02  0.51100000000E-03 0. -1.
        -11    1    3    3    0    0  0.12524585084E+02 -0.82364147303E+01  0.13306371196E+02  0.20044033371E+02  0.51100000000E-03 0.  1.
        -12    1    3    3    0    0 -0.19211887340E+02  0.21331211020E+02 -0.34645412509E+02  0.44993574949E+02  0.00000000000E+00 0.  1.
</event>
<event>
 7    1  0.2000468E-015  0.9000788E+02  0.7816164E-02  0.1186339E+00
        -11   -1    0    0    0    0  0.00000000000E+00  0.00000000000E+00  0.45593999997E+02  0.45594000000E+02  0.51100000000E-03 0. -1.
         11   -1    0    0    0    0 -0.00000000000E+00 -0.00000000000E+00 -0.45593999997E+02  0.45594000000E+02  0.51100000000E-03 0.  1.
    9900012    2    1    2    0    0 -0.52805226700E+00  0.10100587846E+01 -0.30598676610E+00  0.90007878885E+02  0.90000142086E+02 0.  0.
         12    1    1    2    0    0  0.52805226700E+00 -0.10100587846E+01  0.30598676610E+00  0.11801211150E+01  0.00000000000E+00 0. -1.
         11    1    3    3    0    0  0.59672343148E+01  0.85736094876E+00 -0.82829482837E+01  0.10244519788E+02  0.51100000000E-03 0. -1.
        -11    1    3    3    0    0  0.72299997454E+01  0.38210861399E+02  0.47385641597E+01  0.39176482942E+02  0.51100000000E-03 0.  1.
         12    1    3    3    0    0 -0.13725286327E+02 -0.38058163563E+02  0.32383973579E+01  0.40586876155E+02  0.00000000000E+00 0. -1.
</event>
<event>
 7    1  0.2000468E-015  0.9000760E+02  0.7816164E-02  0.1186339E+00
        -11   -1    0    0    0    0  0.00000000000E+00  0.00000000000E+00  0.45593999997E+02  0.45594000000E+02  0.51100000000E-03 0. -1.
         11   -1    0    0    0    0 -0.00000000000E+00 -0.00000000000E+00 -0.45593999997E+02  0.45594000000E+02  0.51100000000E-03 0.  1.
    9900012    2    1    2    0    0  0.10090999091E+01  0.45352691833E+00  0.41153837023E+00  0.90007604675E+02  0.89999864257E+02 0.  0.
         12    1    1    2    0    0 -0.10090999091E+01 -0.45352691833E+00 -0.41153837023E+00  0.11803953246E+01  0.00000000000E+00 0. -1.
         11    1    3    3    0    0  0.86277665871E+01 -0.66049217195E+00 -0.50698659337E+01  0.10028865690E+02  0.51100000000E-03 0. -1.
        -11    1    3    3    0    0  0.11688838146E+02  0.32292123471E+01 -0.33934996640E+02  0.36036658374E+02  0.51100000000E-03 0.  1.
         12    1    3    3    0    0 -0.19307504824E+02 -0.21151932568E+01  0.39416400944E+02  0.43942080611E+02  0.00000000000E+00 0. -1.
</event>
<event>
 7    1  0.2000468E-015  0.9000807E+02  0.7816164E-02  0.1186338E+00
        -11   -1    0    0    0    0  0.00000000000E+00  0.00000000000E+00  0.45593999997E+02  0.45594000000E+02  0.51100000000E-03 0. -1.
         11   -1    0    0    0    0 -0.00000000000E+00 -0.00000000000E+00 -0.45593999997E+02  0.45594000000E+02  0.51100000000E-03 0.  1.
    9900012    2    1    2    0    0 -0.79425546455E+00 -0.74850043339E+00 -0.44847694935E+00  0.90008073640E+02  0.90000339411E+02 0.  0.
         12    1    1    2    0    0  0.79425546455E+00  0.74850043339E+00  0.44847694935E+00  0.11799263604E+01  0.00000000000E+00 0. -1.
         11    1    3    3    0    0 -0.26226770145E+01  0.11130842312E+02  0.41069911565E+01  0.12150780301E+02  0.51100000000E-03 0. -1.
        -11    1    3    3    0    0 -0.94027954114E+01 -0.16253132023E+02 -0.37957098579E+02  0.42347587829E+02  0.51100000000E-03 0.  1.
         12    1    3    3    0    0  0.11231216961E+02  0.43737892773E+01  0.33401630474E+02  0.35509705510E+02  0.00000000000E+00 0. -1.
</event>
<event>
 7    1  0.2000468E-015  0.9000767E+02  0.7816164E-02  0.1186339E+00
        -11   -1    0    0    0    0  0.00000000000E+00  0.00000000000E+00  0.45593999997E+02  0.45594000000E+02  0.51100000000E-03 0.  1.
         11   -1    0    0    0    0 -0.00000000000E+00 -0.00000000000E+00 -0.45593999997E+02  0.45594000000E+02  0.51100000000E-03 0. -1.
    9900012    2    1    2    0    0 -0.61000610594E+00  0.50092779797E+00  0.87757273429E+00  0.90007673769E+02  0.89999934263E+02 0.  0.
         12    1    1    2    0    0  0.61000610594E+00 -0.50092779797E+00 -0.87757273429E+00  0.11803262312E+01  0.00000000000E+00 0. -1.
         11    1    3    3    0    0  0.86980257535E+00 -0.23564223564E+01 -0.93464874715E+01  0.96781253948E+01  0.51100000000E-03 0. -1.
        -11    1    3    3    0    0  0.25308865805E+02 -0.21656702104E+02 -0.14573086382E+02  0.36358304159E+02  0.51100000000E-03 0.  1.
         12    1    3    3    0    0 -0.26788674487E+02  0.24514052259E+02  0.24797146588E+02  0.43971244215E+02  0.00000000000E+00 0. -1.
</event>
<event>
 7    1  0.2000468E-015  0.9000776E+02  0.7816164E-02  0.1186339E+00
        -11   -1    0    0    0    0  0.00000000000E+00  0.00000000000E+00  0.45593999997E+02  0.45594000000E+02  0.51100000000E-03 0. -1.
         11   -1    0    0    0    0 -0.00000000000E+00 -0.00000000000E+00 -0.45593999997E+02  0.45594000000E+02  0.51100000000E-03 0.  1.
    9900012    2    1    2    0    0  0.82854450224E+00  0.76518030157E+00 -0.34783502414E+00  0.90007755919E+02  0.90000017497E+02 0.  0.
         12    1    1    2    0    0 -0.82854450224E+00 -0.76518030157E+00  0.34783502414E+00  0.11802440807E+01  0.00000000000E+00 0. -1.
         11    1    3    3    0    0 -0.52148415303E+01  0.23704687442E+00 -0.86146453108E+01  0.10072878313E+02  0.51100000000E-03 0. -1.
        -11    1    3    3    0    0 -0.11963211796E+02  0.21528739840E+01 -0.32845597755E+02  0.35022658309E+02  0.51100000000E-03 0.  1.
         12    1    3    3    0    0  0.18006597829E+02 -0.16247405569E+01  0.41112408042E+02  0.44912219298E+02  0.00000000000E+00 0. -1.
</event>
<event>
 7    1  0.2000468E-015  0.9000759E+02  0.7816164E-02  0.1186339E+00
        -11   -1    0    0    0    0  0.00000000000E+00  0.00000000000E+00  0.45593999997E+02  0.45594000000E+02  0.51100000000E-03 0.  1.
         11   -1    0    0    0    0 -0.00000000000E+00 -0.00000000000E+00 -0.45593999997E+02  0.45594000000E+02  0.51100000000E-03 0. -1.
    9900012    2    1    2    0    0 -0.84897332986E+00 -0.81468864808E+00  0.94253282097E-01  0.90007594566E+02  0.89999854014E+02 0.  0.
         12    1    1    2    0    0  0.84897332986E+00  0.81468864808E+00 -0.94253282097E-01  0.11804054343E+01  0.00000000000E+00 0. -1.
         11    1    3    3    0    0  0.34713819098E+02  0.35036765809E+01  0.18911739938E+02  0.39686003751E+02  0.51100000000E-03 0. -1.
        -11    1    3    3    0    0 -0.45798090655E+01 -0.57385346841E+01  0.68661650265E+01  0.10052345688E+02  0.51100000000E-03 0.  1.
        -12    1    3    3    0    0 -0.30982983363E+02  0.14201694551E+01 -0.25683651683E+02  0.40269245127E+02  0.00000000000E+00 0.  1.
</event>
<event>
 7    1  0.2339798E-015  0.9000776E+02  0.7816164E-02  0.1186339E+00
        -11   -1    0    0    0    0  0.00000000000E+00  0.00000000000E+00  0.45593999997E+02  0.45594000000E+02  0.51100000000E-03 0.  1.
         11   -1    0    0    0    0 -0.00000000000E+00 -0.00000000000E+00 -0.45593999997E+02  0.45594000000E+02  0.51100000000E-03 0. -1.
    9900012    2    1    2    0    0  0.10325429625E+01 -0.29882361910E-02  0.57167003386E+00  0.90007762513E+02  0.90000024178E+02 0.  0.
         12    1    1    2    0    0 -0.10325429625E+01  0.29882361910E-02 -0.57167003386E+00  0.11802374873E+01  0.00000000000E+00 0. -1.
         11    1    3    3    0    0 -0.34154508035E+02  0.10403017919E+01 -0.17717735489E+02  0.38490658582E+02  0.51100000000E-03 0. -1.
        -11    1    3    3    0    0  0.39960817578E+01 -0.20547299682E+00 -0.91368538960E+01  0.99746171829E+01  0.51100000000E-03 0.  1.
        -12    1    3    3    0    0  0.31190969240E+02 -0.83781703127E+00  0.27426259419E+02  0.41542486748E+02  0.00000000000E+00 0.  1.
</event>
<event>
 7    1  0.2000468E-015  0.9000762E+02  0.7816164E-02  0.1186339E+00
        -11   -1    0    0    0    0  0.00000000000E+00  0.00000000000E+00  0.45593999997E+02  0.45594000000E+02  0.51100000000E-03 0. -1.
         11   -1    0    0    0    0 -0.00000000000E+00 -0.00000000000E+00 -0.45593999997E+02  0.45594000000E+02  0.51100000000E-03 0.  1.
    9900012    2    1    2    0    0 -0.10778197816E+01  0.34352665603E+00 -0.33704606742E+00  0.90007616123E+02  0.89999875856E+02 0.  0.
         12    1    1    2    0    0  0.10778197816E+01 -0.34352665603E+00  0.33704606742E+00  0.11803838767E+01  0.00000000000E+00 0. -1.
         11    1    3    3    0    0  0.36797417070E+01  0.21806728037E-01 -0.99149375331E+01  0.10575772365E+02  0.51100000000E-03 0. -1.
        -11    1    3    3    0    0  0.31956033455E+02 -0.15790398907E+02 -0.65046002426E+01  0.36233059440E+02  0.51100000000E-03 0.  1.
         12    1    3    3    0    0 -0.36713594944E+02  0.16112118835E+02  0.16082491708E+02  0.43198784318E+02  0.00000000000E+00 0. -1.
</event>
<event>
 7    1  0.2000468E-015  0.9000764E+02  0.7816164E-02  0.1186339E+00
        -11   -1    0    0    0    0  0.00000000000E+00  0.00000000000E+00  0.45593999997E+02  0.45594000000E+02  0.51100000000E-03 0. -1.
         11   -1    0    0    0    0 -0.00000000000E+00 -0.00000000000E+00 -0.45593999997E+02  0.45594000000E+02  0.51100000000E-03 0.  1.
    9900012    2    1    2    0    0  0.39809563819E+00 -0.93209656013E+00 -0.60494426826E+00  0.90007643400E+02  0.89999903493E+02 0.  0.
         12    1    1    2    0    0 -0.39809563819E+00  0.93209656013E+00  0.60494426826E+00  0.11803565996E+01  0.00000000000E+00 0. -1.
         11    1    3    3    0    0 -0.63806512368E+00  0.46618657476E+01  0.75896238105E+01  0.89298661354E+01  0.51100000000E-03 0. -1.
        -11    1    3    3    0    0  0.13068443288E+02 -0.37944978281E+02  0.10961263927E+02  0.41602342408E+02  0.51100000000E-03 0.  1.
         12    1    3    3    0    0 -0.12032282526E+02  0.32351015973E+02 -0.19155832006E+02  0.39475434857E+02  0.00000000000E+00 0. -1.
</event>
<event>
 7    1  0.2000468E-015  0.9000786E+02  0.7816164E-02  0.1186339E+00
        -11   -1    0    0    0    0  0.00000000000E+00  0.00000000000E+00  0.45593999997E+02  0.45594000000E+02  0.51100000000E-03 0. -1.
         11   -1    0    0    0    0 -0.00000000000E+00 -0.00000000000E+00 -0.45593999997E+02  0.45594000000E+02  0.51100000000E-03 0.  1.
    9900012    2    1    2    0    0  0.95354622737E+00  0.56378359640E+00 -0.40696278632E+00  0.90007863965E+02  0.90000126969E+02 0.  0.
         12    1    1    2    0    0 -0.95354622737E+00 -0.56378359640E+00  0.40696278632E+00  0.11801360349E+01  0.00000000000E+00 0. -1.
         11    1    3    3    0    0  0.38964571882E+01  0.43043899698E+01 -0.28265591335E+01  0.64575218488E+01  0.51100000000E-03 0. -1.
        -11    1    3    3    0    0  0.14783393359E+02 -0.39764353303E+02  0.74998683055E+01  0.43081324697E+02  0.51100000000E-03 0.  1.
         12    1    3    3    0    0 -0.17726304319E+02  0.36023746930E+02 -0.50802719584E+01  0.40469017419E+02  0.00000000000E+00 0. -1.
</event>
<event>
 7    1  0.2000468E-015  0.9000853E+02  0.7816164E-02  0.1186337E+00
        -11   -1    0    0    0    0  0.00000000000E+00  0.00000000000E+00  0.45593999997E+02  0.45594000000E+02  0.51100000000E-03 0.  1.
         11   -1    0    0    0    0 -0.00000000000E+00 -0.00000000000E+00 -0.45593999997E+02  0.45594000000E+02  0.51100000000E-03 0. -1.
    9900012    2    1    2    0    0  0.92152759385E+00 -0.11192469920E+00  0.72760940356E+00  0.90008527368E+02  0.90000799126E+02 0.  0.
         12    1    1    2    0    0 -0.92152759385E+00  0.11192469920E+00 -0.72760940356E+00  0.11794726316E+01  0.00000000000E+00 0. -1.
         11    1    3    3    0    0 -0.95033541630E+01 -0.64367561541E+01 -0.38753063460E+00  0.11484587515E+02  0.51100000000E-03 0. -1.
        -11    1    3    3    0    0 -0.38942912160E+01  0.28973234909E+01  0.38260369413E+02  0.38567030679E+02  0.51100000000E-03 0.  1.
         12    1    3    3    0    0  0.14319172973E+02  0.34275079640E+01 -0.37145229375E+02  0.39956909175E+02  0.00000000000E+00 0. -1.
</event>
<event>
 7    1  0.2000468E-015  0.9000767E+02  0.7816164E-02  0.1186339E+00
        -11   -1    0    0    0    0  0.00000000000E+00  0.00000000000E+00  0.45593999997E+02  0.45594000000E+02  0.51100000000E-03 0.  1.
         11   -1    0    0    0    0 -0.00000000000E+00 -0.00000000000E+00 -0.45593999997E+02  0.45594000000E+02  0.51100000000E-03 0. -1.
    9900012    2    1    2    0    0  0.91618090444E+00  0.42909093379E-01  0.74292720554E+00  0.90007673997E+02  0.89999934494E+02 0.  0.
         12    1    1    2    0    0 -0.91618090444E+00 -0.42909093379E-01 -0.74292720554E+00  0.11803260027E+01  0.00000000000E+00 0. -1.
         11    1    3    3    0    0 -0.17653262117E+01  0.89193351694E+01 -0.28704209133E+01  0.95346857829E+01  0.51100000000E-03 0. -1.
        -11    1    3    3    0    0 -0.30597342231E+02  0.16569443702E+02  0.13679561516E+02  0.37388156142E+02  0.51100000000E-03 0.  1.
         12    1    3    3    0    0  0.33278849347E+02 -0.25445869778E+02 -0.10066213397E+02  0.43084832073E+02  0.00000000000E+00 0. -1.
</event>
<event>
 7    1  0.2000468E-015  0.9000766E+02  0.7816164E-02  0.1186339E+00
        -11   -1    0    0    0    0  0.00000000000E+00  0.00000000000E+00  0.45593999997E+02  0.45594000000E+02  0.51100000000E-03 0. -1.
         11   -1    0    0    0    0 -0.00000000000E+00 -0.00000000000E+00 -0.45593999997E+02  0.45594000000E+02  0.51100000000E-03 0.  1.
    9900012    2    1    2    0    0 -0.99734711285E+00 -0.37728144666E+00 -0.50611454963E+00  0.90007663399E+02  0.89999923756E+02 0.  0.
         12    1    1    2    0    0  0.99734711285E+00  0.37728144666E+00  0.50611454963E+00  0.11803366007E+01  0.00000000000E+00 0. -1.
         11    1    3    3    0    0  0.90403553961E+01  0.28502616470E+02  0.30396791533E+02  0.42639091302E+02  0.51100000000E-03 0. -1.
        -11    1    3    3    0    0  0.14137765926E+01  0.23977369748E+00 -0.91454225789E+01  0.92571599364E+01  0.51100000000E-03 0.  1.
        -12    1    3    3    0    0 -0.11451479102E+02 -0.29119671614E+02 -0.21757483503E+02  0.38111412161E+02  0.00000000000E+00 0.  1.
</event>
<event>
 7    1  0.2000468E-015  0.9000767E+02  0.7816164E-02  0.1186339E+00
        -11   -1    0    0    0    0  0.00000000000E+00  0.00000000000E+00  0.45593999997E+02  0.45594000000E+02  0.51100000000E-03 0.  1.
         11   -1    0    0    0    0 -0.00000000000E+00 -0.00000000000E+00 -0.45593999997E+02  0.45594000000E+02  0.51100000000E-03 0. -1.
    9900012    2    1    2    0    0  0.91025168984E+00  0.49804380015E+00  0.56265637774E+00  0.90007666164E+02  0.89999926557E+02 0.  0.
         12    1    1    2    0    0 -0.91025168984E+00 -0.49804380015E+00 -0.56265637774E+00  0.11803338363E+01  0.00000000000E+00 0. -1.
         11    1    3    3    0    0 -0.48884641522E+01 -0.21943835953E+01  0.70564884058E+01  0.88603854326E+01  0.51100000000E-03 0. -1.
        -11    1    3    3    0    0 -0.15147795607E+02  0.28441862821E+02 -0.27077250111E+02  0.42090055195E+02  0.51100000000E-03 0.  1.
         12    1    3    3    0    0  0.20946511449E+02 -0.25749435425E+02  0.20583418083E+02  0.39057225536E+02  0.00000000000E+00 0. -1.
</event>
<event>
 7    1  0.2000468E-015  0.9000770E+02  0.7816164E-02  0.1186339E+00
        -11   -1    0    0    0    0  0.00000000000E+00  0.00000000000E+00  0.45593999997E+02  0.45594000000E+02  0.51100000000E-03 0.  1.
         11   -1    0    0    0    0 -0.00000000000E+00 -0.00000000000E+00 -0.45593999997E+02  0.45594000000E+02  0.51100000000E-03 0. -1.
    9900012    2    1    2    0    0 -0.75991290837E-01 -0.10122588009E+01  0.60221300878E+00  0.90007702129E+02  0.89999962997E+02 0.  0.
         12    1    1    2    0    0  0.75991290837E-01  0.10122588009E+01 -0.60221300878E+00  0.11802978710E+01  0.00000000000E+00 0. -1.
         11    1    3    3    0    0 -0.60423874338E+01 -0.51287231366E+01  0.12446725941E+01  0.80226839050E+01  0.51100000000E-03 0. -1.
        -11    1    3    3    0    0  0.10728618361E+02 -0.14494932533E+02  0.36195266801E+02  0.40438887969E+02  0.51100000000E-03 0.  1.
         12    1    3    3    0    0 -0.47622222179E+01  0.18611396868E+02 -0.36837726387E+02  0.41546130255E+02  0.00000000000E+00 0. -1.
</event>
<event>
 7    1  0.2000468E-015  0.9000777E+02  0.7816164E-02  0.1186339E+00
        -11   -1    0    0    0    0  0.00000000000E+00  0.00000000000E+00  0.45593999997E+02  0.45594000000E+02  0.51100000000E-03 0.  1.
         11   -1    0    0    0    0 -0.00000000000E+00 -0.00000000000E+00 -0.45593999997E+02  0.45594000000E+02  0.51100000000E-03 0. -1.
    9900012    2    1    2    0    0 -0.29421447683E+00  0.11295772484E+01  0.17449254649E+00  0.90007765037E+02  0.90000026736E+02 0.  0.
         12    1    1    2    0    0  0.29421447683E+00 -0.11295772484E+01 -0.17449254649E+00  0.11802349628E+01  0.00000000000E+00 0. -1.
         11    1    3    3    0    0  0.29765538137E+02  0.26916590018E+02  0.46920243749E+01  0.40404271703E+02  0.51100000000E-03 0. -1.
        -11    1    3    3    0    0  0.38163829400E+01  0.32590060925E+00 -0.56384958838E+01  0.68164232589E+01  0.51100000000E-03 0.  1.
        -12    1    3    3    0    0 -0.33876135554E+02 -0.26112913379E+02  0.11209640554E+01  0.42787070076E+02  0.00000000000E+00 0.  1.
</event>
<event>
 7    1  0.2000468E-015  0.9000814E+02  0.7816164E-02  0.1186338E+00
        -11   -1    0    0    0    0  0.00000000000E+00  0.00000000000E+00  0.45593999997E+02  0.45594000000E+02  0.51100000000E-03 0. -1.
         11   -1    0    0    0    0 -0.00000000000E+00 -0.00000000000E+00 -0.45593999997E+02  0.45594000000E+02  0.51100000000E-03 0.  1.
    9900012    2    1    2    0    0  0.19141548134E+00 -0.92824408644E+00 -0.70270474836E+00  0.90008139443E+02  0.90000406083E+02 0.  0.
         12    1    1    2    0    0 -0.19141548134E+00  0.92824408644E+00  0.70270474836E+00  0.11798605570E+01  0.00000000000E+00 0. -1.
         11    1    3    3    0    0 -0.30793721422E+01 -0.34189236171E+02  0.24258067667E+02  0.42033798900E+02  0.51100000000E-03 0. -1.
        -11    1    3    3    0    0 -0.26134600220E+01  0.95171907434E+01  0.34760405962E+01  0.10463744617E+02  0.51100000000E-03 0.  1.
        -12    1    3    3    0    0  0.58842476455E+01  0.23743801341E+02 -0.28436813011E+02  0.37510595926E+02  0.00000000000E+00 0.  1.
</event>
<event>
 7    1  0.2000468E-015  0.9000776E+02  0.7816164E-02  0.1186339E+00
        -11   -1    0    0    0    0  0.00000000000E+00  0.00000000000E+00  0.45593999997E+02  0.45594000000E+02  0.51100000000E-03 0. -1.
         11   -1    0    0    0    0 -0.00000000000E+00 -0.00000000000E+00 -0.45593999997E+02  0.45594000000E+02  0.51100000000E-03 0.  1.
    9900012    2    1    2    0    0 -0.11455957267E+01 -0.95771124657E-01  0.26720430477E+00  0.90007762813E+02  0.90000024482E+02 0.  0.
         12    1    1    2    0    0  0.11455957267E+01  0.95771124657E-01 -0.26720430477E+00  0.11802371871E+01  0.00000000000E+00 0. -1.
         11    1    3    3    0    0 -0.56652352942E+01  0.31160054578E+01 -0.12276936384E+02  0.13875429658E+02  0.51100000000E-03 0. -1.
        -11    1    3    3    0    0  0.27647154096E+02  0.85734767621E+01  0.32403514301E+02  0.43449480695E+02  0.51100000000E-03 0.  1.
         12    1    3    3    0    0 -0.23127514528E+02 -0.11785253344E+02 -0.19859373611E+02  0.32682852459E+02  0.00000000000E+00 0. -1.
</event>
<event>
 7    1  0.2000468E-015  0.9000774E+02  0.7816164E-02  0.1186339E+00
        -11   -1    0    0    0    0  0.00000000000E+00  0.00000000000E+00  0.45593999997E+02  0.45594000000E+02  0.51100000000E-03 0.  1.
         11   -1    0    0    0    0 -0.00000000000E+00 -0.00000000000E+00 -0.45593999997E+02  0.45594000000E+02  0.51100000000E-03 0. -1.
    9900012    2    1    2    0    0 -0.51205178641E+00  0.15469406187E+00  0.10520824860E+01  0.90007743739E+02  0.90000005156E+02 0.  0.
         12    1    1    2    0    0  0.51205178641E+00 -0.15469406187E+00 -0.10520824860E+01  0.11802562612E+01  0.00000000000E+00 0. -1.
         11    1    3    3    0    0  0.72093783644E+01 -0.46926764813E+01 -0.37275584780E+00  0.86101856044E+01  0.51100000000E-03 0. -1.
        -11    1    3    3    0    0  0.28432356642E+02 -0.20053379280E+02  0.10953191221E+02  0.36476147315E+02  0.51100000000E-03 0.  1.
         12    1    3    3    0    0 -0.36153786793E+02  0.24900749823E+02 -0.95283528871E+01  0.44921410819E+02  0.00000000000E+00 0. -1.
</event>
<event>
 7    1  0.2000468E-015  0.9000774E+02  0.7816164E-02  0.1186339E+00
        -11   -1    0    0    0    0  0.00000000000E+00  0.00000000000E+00  0.45593999997E+02  0.45594000000E+02  0.51100000000E-03 0. -1.
         11   -1    0    0    0    0 -0.00000000000E+00 -0.00000000000E+00 -0.45593999997E+02  0.45594000000E+02  0.51100000000E-03 0.  1.
    9900012    2    1    2    0    0 -0.16929902773E+00  0.83913975918E+00  0.81253116495E+00  0.90007735373E+02  0.89999996680E+02 0.  0.
         12    1    1    2    0    0  0.16929902773E+00 -0.83913975918E+00 -0.81253116495E+00  0.11802646272E+01  0.00000000000E+00 0. -1.
         11    1    3    3    0    0  0.63568823083E+01  0.10344807864E+02  0.38187759658E+02  0.40071560868E+02  0.51100000000E-03 0. -1.
        -11    1    3    3    0    0 -0.50695876641E+01  0.90987407117E+01 -0.30282404129E+01  0.10847029173E+02  0.51100000000E-03 0.  1.
        -12    1    3    3    0    0 -0.14565936719E+01 -0.18604408816E+02 -0.34346988081E+02  0.39089145331E+02  0.00000000000E+00 0.  1.
</event>
<event>
 7    1  0.2000468E-015  0.9000775E+02  0.7816164E-02  0.1186339E+00
        -11   -1    0    0    0    0  0.00000000000E+00  0.00000000000E+00  0.45593999997E+02  0.45594000000E+02  0.51100000000E-03 0.  1.
         11   -1    0    0    0    0 -0.00000000000E+00 -0.00000000000E+00 -0.45593999997E+02  0.45594000000E+02  0.51100000000E-03 0. -1.
    9900012    2    1    2    0    0 -0.11529256162E+01  0.21941353018E+00  0.12490612878E+00  0.90007753706E+02  0.90000015255E+02 0.  0.
         12    1    1    2    0    0  0.11529256162E+01 -0.21941353018E+00 -0.12490612878E+00  0.11802462941E+01  0.00000000000E+00 0. -1.
         11    1    3    3    0    0  0.27449076957E+02 -0.37527908303E+01 -0.32638774803E+02  0.42811504128E+02  0.51100000000E-03 0. -1.
        -11    1    3    3    0    0 -0.51755788799E+01  0.78039740253E+01  0.48224616730E+01  0.10533032051E+02  0.51100000000E-03 0.  1.
        -12    1    3    3    0    0 -0.23426423693E+02 -0.38317696649E+01  0.27941219259E+02  0.36663217528E+02  0.00000000000E+00 0.  1.
</event>
<event>
 7    1  0.2000468E-015  0.9000768E+02  0.7816164E-02  0.1186339E+00
        -11   -1    0    0    0    0  0.00000000000E+00  0.00000000000E+00  0.45593999997E+02  0.45594000000E+02  0.51100000000E-03 0. -1.
         11   -1    0    0    0    0 -0.00000000000E+00 -0.00000000000E+00 -0.45593999997E+02  0.45594000000E+02  0.51100000000E-03 0.  1.
    9900012    2    1    2    0    0  0.86364289552E+00  0.21462061069E+00 -0.77537261317E+00  0.90007684895E+02  0.89999945536E+02 0.  0.
         12    1    1    2    0    0 -0.86364289552E+00 -0.21462061069E+00  0.77537261317E+00  0.11803151049E+01  0.00000000000E+00 0. -1.
         11    1    3    3    0    0  0.78147338013E+01 -0.72567659885E+00  0.26029940798E+01  0.82687513780E+01  0.51100000000E-03 0. -1.
        -11    1    3    3    0    0 -0.13591448307E+01 -0.32649080778E+02 -0.25225678532E+02  0.41281286414E+02  0.51100000000E-03 0.  1.
         12    1    3    3    0    0 -0.55919460751E+01  0.33589377988E+02  0.21847311839E+02  0.40457647103E+02  0.00000000000E+00 0. -1.
</event>
<event>
 7    1  0.2000468E-015  0.9000771E+02  0.7816164E-02  0.1186339E+00
        -11   -1    0    0    0    0  0.00000000000E+00  0.00000000000E+00  0.45593999997E+02  0.45594000000E+02  0.51100000000E-03 0.  1.
         11   -1    0    0    0    0 -0.00000000000E+00 -0.00000000000E+00 -0.45593999997E+02  0.45594000000E+02  0.51100000000E-03 0. -1.
    9900012    2    1    2    0    0 -0.26379686760E+00  0.10068285643E+01  0.55657900339E+00  0.90007714978E+02  0.89999976016E+02 0.  0.
         12    1    1    2    0    0  0.26379686760E+00 -0.10068285643E+01 -0.55657900339E+00  0.11802850216E+01  0.00000000000E+00 0. -1.
         11    1    3    3    0    0  0.32910494016E+02  0.22000798477E+02  0.67170933543E+01  0.40152896451E+02  0.51100000000E-03 0. -1.
        -11    1    3    3    0    0 -0.51897841206E+01  0.76070615925E+01  0.78482995526E+00  0.92421428040E+01  0.51100000000E-03 0.  1.
        -12    1    3    3    0    0 -0.27984506763E+02 -0.28601031505E+02 -0.69453443062E+01  0.40612675724E+02  0.00000000000E+00 0.  1.
</event>
<event>
 7    1  0.2000468E-015  0.9000774E+02  0.7816164E-02  0.1186339E+00
        -11   -1    0    0    0    0  0.00000000000E+00  0.00000000000E+00  0.45593999997E+02  0.45594000000E+02  0.51100000000E-03 0. -1.
         11   -1    0    0    0    0 -0.00000000000E+00 -0.00000000000E+00 -0.45593999997E+02  0.45594000000E+02  0.51100000000E-03 0.  1.
    9900012    2    1    2    0    0  0.44147929503E+00  0.59922859639E+00  0.91598971103E+00  0.90007738999E+02  0.90000000354E+02 0.  0.
         12    1    1    2    0    0 -0.44147929503E+00 -0.59922859639E+00 -0.91598971103E+00  0.11802610005E+01  0.00000000000E+00 0. -1.
         11    1    3    3    0    0  0.16129146005E+00 -0.24587527935E+01 -0.91486649503E+01  0.94746794599E+01  0.51100000000E-03 0. -1.
        -11    1    3    3    0    0  0.17064154725E+02  0.37713872220E+02  0.50458511482E+01  0.41701104882E+02  0.51100000000E-03 0.  1.
         12    1    3    3    0    0 -0.16783966890E+02 -0.34655890830E+02  0.50188035132E+01  0.38831954657E+02  0.00000000000E+00 0. -1.
</event>
<event>
 7    1  0.2000468E-015  0.9000769E+02  0.7816164E-02  0.1186339E+00
        -11   -1    0    0    0    0  0.00000000000E+00  0.00000000000E+00  0.45593999997E+02  0.45594000000E+02  0.51100000000E-03 0. -1.
         11   -1    0    0    0    0 -0.00000000000E+00 -0.00000000000E+00 -0.45593999997E+02  0.45594000000E+02  0.51100000000E-03 0.  1.
    9900012    2    1    2    0    0 -0.18859789450E+00  0.11087349997E+01 -0.35814617389E+00  0.90007690233E+02  0.89999950944E+02 0.  0.
         12    1    1    2    0    0  0.18859789450E+00 -0.11087349997E+01  0.35814617389E+00  0.11803097675E+01  0.00000000000E+00 0. -1.
         11    1    3    3    0    0 -0.44096968481E+00  0.12748445751E+02  0.14696047403E+02  0.19459987998E+02  0.51100000000E-03 0. -1.
        -11    1    3    3    0    0 -0.12154783958E+02  0.17211179870E+02 -0.29277636384E+02  0.36071366457E+02  0.51100000000E-03 0.  1.
         12    1    3    3    0    0  0.12407155748E+02 -0.28850890621E+02  0.14223442807E+02  0.34476335778E+02  0.00000000000E+00 0. -1.
</event>
<event>
 7    1  0.2000468E-015  0.9000768E+02  0.7816164E-02  0.1186339E+00
        -11   -1    0    0    0    0  0.00000000000E+00  0.00000000000E+00  0.45593999997E+02  0.45594000000E+02  0.51100000000E-03 0.  1.
         11   -1    0    0    0    0 -0.00000000000E+00 -0.00000000000E+00 -0.45593999997E+02  0.45594000000E+02  0.51100000000E-03 0. -1.
    9900012    2    1    2    0    0  0.31577616727E+00 -0.29591363078E+00  0.10981229601E+01  0.90007680763E+02  0.89999941350E+02 0.  0.
         12    1    1    2    0    0 -0.31577616727E+00  0.29591363078E+00 -0.10981229601E+01  0.11803192365E+01  0.00000000000E+00 0. -1.
         11    1    3    3    0    0 -0.25310255882E+02  0.12921113529E+02 -0.26286438333E+02  0.38710994151E+02  0.51100000000E-03 0. -1.
        -11    1    3    3    0    0 -0.64143460748E+01  0.30507171104E+01  0.22712478869E+01  0.74571628438E+01  0.51100000000E-03 0.  1.
        -12    1    3    3    0    0  0.32040378124E+02 -0.16267744271E+02  0.25113313406E+02  0.43839523768E+02  0.00000000000E+00 0.  1.
</event>
<event>
 7    1  0.2000468E-015  0.9000779E+02  0.7816164E-02  0.1186339E+00
        -11   -1    0    0    0    0  0.00000000000E+00  0.00000000000E+00  0.45593999997E+02  0.45594000000E+02  0.51100000000E-03 0.  1.
         11   -1    0    0    0    0 -0.00000000000E+00 -0.00000000000E+00 -0.45593999997E+02  0.45594000000E+02  0.51100000000E-03 0. -1.
    9900012    2    1    2    0    0 -0.97556026261E+00  0.66414468393E+00 -0.97100269503E-02  0.90007788039E+02  0.90000050042E+02 0.  0.
         12    1    1    2    0    0  0.97556026261E+00 -0.66414468393E+00  0.97100269503E-02  0.11802119605E+01  0.00000000000E+00 0. -1.
         11    1    3    3    0    0 -0.42081639365E+01 -0.76519148643E+01 -0.14861022026E+01  0.88582698550E+01  0.51100000000E-03 0. -1.
        -11    1    3    3    0    0  0.36280808523E+02  0.13160303115E+02 -0.17891207809E+02  0.42539228511E+02  0.51100000000E-03 0.  1.
         12    1    3    3    0    0 -0.33048204849E+02 -0.48442435670E+01  0.19367599985E+02  0.38610289673E+02  0.00000000000E+00 0. -1.
</event>
<event>
 7    1  0.2000468E-015  0.9000785E+02  0.7816164E-02  0.1186339E+00
        -11   -1    0    0    0    0  0.00000000000E+00  0.00000000000E+00  0.45593999997E+02  0.45594000000E+02  0.51100000000E-03 0.  1.
         11   -1    0    0    0    0 -0.00000000000E+00 -0.00000000000E+00 -0.45593999997E+02  0.45594000000E+02  0.51100000000E-03 0. -1.
    9900012    2    1    2    0    0 -0.65100809657E+00  0.97395335405E+00 -0.14268216308E+00  0.90007849638E+02  0.90000112453E+02 0.  0.
         12    1    1    2    0    0  0.65100809657E+00 -0.97395335405E+00  0.14268216308E+00  0.11801503622E+01  0.00000000000E+00 0. -1.
         11    1    3    3    0    0 -0.37799223993E+02  0.12685265158E+01  0.29014428739E+01  0.37931634093E+02  0.51100000000E-03 0. -1.
        -11    1    3    3    0    0 -0.18209555997E+01  0.46318090955E+00  0.10611633831E+02  0.10776696557E+02  0.51100000000E-03 0.  1.
        -12    1    3    3    0    0  0.38969171496E+02 -0.75775407128E+00 -0.13655758868E+02  0.41299518987E+02  0.00000000000E+00 0.  1.
</event>
<event>
 7    1  0.2000468E-015  0.9000804E+02  0.7816164E-02  0.1186338E+00
        -11   -1    0    0    0    0  0.00000000000E+00  0.00000000000E+00  0.45593999997E+02  0.45594000000E+02  0.51100000000E-03 0.  1.
         11   -1    0    0    0    0 -0.00000000000E+00 -0.00000000000E+00 -0.45593999997E+02  0.45594000000E+02  0.51100000000E-03 0. -1.
    9900012    2    1    2    0    0  0.57861790204E+00 -0.55637021445E-01  0.10268441540E+01  0.90008041072E+02  0.90000306414E+02 0.  0.
         12    1    1    2    0    0 -0.57861790204E+00  0.55637021445E-01 -0.10268441540E+01  0.11799589278E+01  0.00000000000E+00 0. -1.
         11    1    3    3    0    0 -0.14872736490E+02 -0.32885317895E+02 -0.21573066527E+02  0.42048063254E+02  0.51100000000E-03 0. -1.
        -11    1    3    3    0    0  0.40841432238E+01 -0.38595999282E+00  0.97455618689E+01  0.10573796262E+02  0.51100000000E-03 0.  1.
        -12    1    3    3    0    0  0.11367211169E+02  0.33215640867E+02  0.12854348812E+02  0.37386181556E+02  0.00000000000E+00 0.  1.
</event>
<event>
 7    1  0.2000468E-015  0.9000773E+02  0.7816164E-02  0.1186339E+00
        -11   -1    0    0    0    0  0.00000000000E+00  0.00000000000E+00  0.45593999997E+02  0.45594000000E+02  0.51100000000E-03 0. -1.
         11   -1    0    0    0    0 -0.00000000000E+00 -0.00000000000E+00 -0.45593999997E+02  0.45594000000E+02  0.51100000000E-03 0.  1.
    9900012    2    1    2    0    0  0.87859269827E+00  0.32808140990E+00 -0.71656985256E+00  0.90007731008E+02  0.89999992257E+02 0.  0.
         12    1    1    2    0    0 -0.87859269827E+00 -0.32808140990E+00  0.71656985256E+00  0.11802689925E+01  0.00000000000E+00 0. -1.
         11    1    3    3    0    0 -0.74923366393E+01 -0.20046909181E+02  0.31844372284E+02  0.38367665064E+02  0.51100000000E-03 0. -1.
        -11    1    3    3    0    0  0.65350291003E+01 -0.45630158376E+01  0.26976525204E+01  0.84145735636E+01  0.51100000000E-03 0.  1.
        -12    1    3    3    0    0  0.18359002373E+01  0.24938006429E+02 -0.35258594657E+02  0.43225492380E+02  0.00000000000E+00 0.  1.
</event>
<event>
 7    1  0.2000468E-015  0.9000781E+02  0.7816164E-02  0.1186339E+00
        -11   -1    0    0    0    0  0.00000000000E+00  0.00000000000E+00  0.45593999997E+02  0.45594000000E+02  0.51100000000E-03 0.  1.
         11   -1    0    0    0    0 -0.00000000000E+00 -0.00000000000E+00 -0.45593999997E+02  0.45594000000E+02  0.51100000000E-03 0. -1.
    9900012    2    1    2    0    0 -0.45547131639E+00  0.90673274483E+00 -0.60267621221E+00  0.90007814842E+02  0.90000077198E+02 0.  0.
         12    1    1    2    0    0  0.45547131639E+00 -0.90673274483E+00  0.60267621221E+00  0.11801851581E+01  0.00000000000E+00 0. -1.
         11    1    3    3    0    0  0.73107781568E+01 -0.59244090465E+01  0.30643025587E+01  0.98962644589E+01  0.51100000000E-03 0. -1.
        -11    1    3    3    0    0  0.15394357951E+02 -0.29940098170E+02  0.89955324265E+01  0.34847027693E+02  0.51100000000E-03 0.  1.
         12    1    3    3    0    0 -0.23160607424E+02  0.36771239961E+02 -0.12662511197E+02  0.45264522690E+02  0.00000000000E+00 0. -1.
</event>
<event>
 7    1  0.2000468E-015  0.9000788E+02  0.7816164E-02  0.1186339E+00
        -11   -1    0    0    0    0  0.00000000000E+00  0.00000000000E+00  0.45593999997E+02  0.45594000000E+02  0.51100000000E-03 0. -1.
         11   -1    0    0    0    0 -0.00000000000E+00 -0.00000000000E+00 -0.45593999997E+02  0.45594000000E+02  0.51100000000E-03 0.  1.
    9900012    2    1    2    0    0  0.75131147075E+00 -0.45648958741E+00  0.78728732839E+00  0.90007884325E+02  0.90000147598E+02 0.  0.
         12    1    1    2    0    0 -0.75131147075E+00  0.45648958741E+00 -0.78728732839E+00  0.11801156752E+01  0.00000000000E+00 0. -1.
         11    1    3    3    0    0  0.10087094094E+02 -0.30932660959E+01 -0.27729946825E+01  0.10909044971E+02  0.51100000000E-03 0. -1.
        -11    1    3    3    0    0  0.28704998477E+02 -0.16474663254E+02 -0.97361195555E+01  0.34499036090E+02  0.51100000000E-03 0.  1.
         12    1    3    3    0    0 -0.38040781101E+02  0.19111439762E+02  0.13296401566E+02  0.44599803264E+02  0.00000000000E+00 0. -1.
</event>
<event>
 7    1  0.2000468E-015  0.9000729E+02  0.7816164E-02  0.1186340E+00
        -11   -1    0    0    0    0  0.00000000000E+00  0.00000000000E+00  0.45593999997E+02  0.45594000000E+02  0.51100000000E-03 0.  1.
         11   -1    0    0    0    0 -0.00000000000E+00 -0.00000000000E+00 -0.45593999997E+02  0.45594000000E+02  0.51100000000E-03 0. -1.
    9900012    2    1    2    0    0  0.69216742652E-01  0.85027999498E+00 -0.81628420958E+00  0.90007285412E+02  0.89999540778E+02 0.  0.
         12    1    1    2    0    0 -0.69216742652E-01 -0.85027999498E+00  0.81628420958E+00  0.11807145879E+01  0.00000000000E+00 0. -1.
         11    1    3    3    0    0 -0.17793944030E+02  0.32966292153E+02 -0.11439177743E+02  0.39169575567E+02  0.51100000000E-03 0. -1.
        -11    1    3    3    0    0  0.34572841500E+01  0.66151689659E+01  0.53405195139E+01  0.91779313073E+01  0.51100000000E-03 0.  1.
        -12    1    3    3    0    0  0.14405876622E+02 -0.38731181124E+02  0.52823740193E+01  0.41659778537E+02  0.00000000000E+00 0.  1.
</event>
<event>
 7    1  0.2678217E-015  0.9000773E+02  0.7816164E-02  0.1186339E+00
        -11   -1    0    0    0    0  0.00000000000E+00  0.00000000000E+00  0.45593999997E+02  0.45594000000E+02  0.51100000000E-03 0.  1.
         11   -1    0    0    0    0 -0.00000000000E+00 -0.00000000000E+00 -0.45593999997E+02  0.45594000000E+02  0.51100000000E-03 0. -1.
    9900012    2    1    2    0    0  0.63556020731E+00  0.79332052243E+00  0.59979080685E+00  0.90007727472E+02  0.89999988675E+02 0.  0.
         12    1    1    2    0    0 -0.63556020731E+00 -0.79332052243E+00 -0.59979080685E+00  0.11802725280E+01  0.00000000000E+00 0. -1.
         11    1    3    3    0    0 -0.23807227598E+02 -0.22003001293E+01 -0.29207882536E+02  0.37745540254E+02  0.51100000000E-03 0. -1.
        -11    1    3    3    0    0  0.16558539159E+01  0.78510530639E+01 -0.56651147812E+01  0.98221388785E+01  0.51100000000E-03 0.  1.
        -12    1    3    3    0    0  0.22786933889E+02 -0.48574324122E+01  0.35472788124E+02  0.42440048339E+02  0.00000000000E+00 0.  1.
</event>
<event>
 7    1  0.2000468E-015  0.9000770E+02  0.7816164E-02  0.1186339E+00
        -11   -1    0    0    0    0  0.00000000000E+00  0.00000000000E+00  0.45593999997E+02  0.45594000000E+02  0.51100000000E-03 0.  1.
         11   -1    0    0    0    0 -0.00000000000E+00 -0.00000000000E+00 -0.45593999997E+02  0.45594000000E+02  0.51100000000E-03 0. -1.
    9900012    2    1    2    0    0 -0.36173592963E+00 -0.10374867530E+01  0.43114313665E+00  0.90007696628E+02  0.89999957424E+02 0.  0.
         12    1    1    2    0    0  0.36173592963E+00  0.10374867530E+01 -0.43114313665E+00  0.11803033719E+01  0.00000000000E+00 0. -1.
         11    1    3    3    0    0  0.44712314591E+01 -0.96953793011E+01 -0.31324860886E+02  0.33094398323E+02  0.51100000000E-03 0. -1.
        -11    1    3    3    0    0  0.59799432576E+01 -0.17556410902E+02  0.93361105346E+01  0.20764157707E+02  0.51100000000E-03 0.  1.
        -12    1    3    3    0    0 -0.10812910646E+02  0.26214303450E+02  0.22419893488E+02  0.36149140599E+02  0.00000000000E+00 0.  1.
</event>
<event>
 7    1  0.2000468E-015  0.9000861E+02  0.7816164E-02  0.1186337E+00
        -11   -1    0    0    0    0  0.00000000000E+00  0.00000000000E+00  0.45593999997E+02  0.45594000000E+02  0.51100000000E-03 0.  1.
         11   -1    0    0    0    0 -0.00000000000E+00 -0.00000000000E+00 -0.45593999997E+02  0.45594000000E+02  0.51100000000E-03 0. -1.
    9900012    2    1    2    0    0 -0.22885966497E+00 -0.10880606367E+01  0.39331932437E+00  0.90008613386E+02  0.90000886278E+02 0.  0.
         12    1    1    2    0    0  0.22885966497E+00  0.10880606367E+01 -0.39331932437E+00  0.11793866145E+01  0.00000000000E+00 0. -1.
         11    1    3    3    0    0  0.82765055899E+01  0.31160736221E+01  0.17185528502E+01  0.90091000526E+01  0.51100000000E-03 0. -1.
        -11    1    3    3    0    0  0.33643372677E+02  0.92012519833E+01 -0.92067475067E+01  0.36073588165E+02  0.51100000000E-03 0.  1.
         12    1    3    3    0    0 -0.42148737932E+02 -0.13405386242E+02  0.78815139809E+01  0.44925925168E+02  0.00000000000E+00 0. -1.
</event>
<event>
 7    1  0.2000468E-015  0.9000740E+02  0.7816164E-02  0.1186340E+00
        -11   -1    0    0    0    0  0.00000000000E+00  0.00000000000E+00  0.45593999997E+02  0.45594000000E+02  0.51100000000E-03 0.  1.
         11   -1    0    0    0    0 -0.00000000000E+00 -0.00000000000E+00 -0.45593999997E+02  0.45594000000E+02  0.51100000000E-03 0. -1.
    9900012    2    1    2    0    0 -0.27705836073E+00 -0.72415410357E+00  0.89030897047E+00  0.90007402455E+02  0.89999659367E+02 0.  0.
         12    1    1    2    0    0  0.27705836073E+00  0.72415410357E+00 -0.89030897047E+00  0.11805975453E+01  0.00000000000E+00 0. -1.
         11    1    3    3    0    0 -0.12650191448E+02 -0.40194811134E+02  0.62349089936E+01  0.42597233199E+02  0.51100000000E-03 0. -1.
        -11    1    3    3    0    0  0.55773415386E+01  0.80801582169E+00 -0.58889629815E+01  0.81510437040E+01  0.51100000000E-03 0.  1.
        -12    1    3    3    0    0  0.67957915487E+01  0.38662641209E+02  0.54436295836E+00  0.39259125552E+02  0.00000000000E+00 0.  1.
</event>
<event>
 7    1  0.2230510E-015  0.9000786E+02  0.7816164E-02  0.1186339E+00
        -11   -1    0    0    0    0  0.00000000000E+00  0.00000000000E+00  0.45593999997E+02  0.45594000000E+02  0.51100000000E-03 0.  1.
         11   -1    0    0    0    0 -0.00000000000E+00 -0.00000000000E+00 -0.45593999997E+02  0.45594000000E+02  0.51100000000E-03 0. -1.
    9900012    2    1    2    0    0  0.83006710108E+00  0.61937021039E+00  0.56576569921E+00  0.90007863704E+02  0.90000126705E+02 0.  0.
         12    1    1    2    0    0 -0.83006710108E+00 -0.61937021039E+00 -0.56576569921E+00  0.11801362956E+01  0.00000000000E+00 0. -1.
         11    1    3    3    0    0  0.57524826966E+01  0.28176111396E+02 -0.25808094745E+02  0.38639902500E+02  0.51100000000E-03 0. -1.
        -11    1    3    3    0    0 -0.47435685426E+01  0.75119839012E+01  0.38092039992E+01  0.96665081606E+01  0.51100000000E-03 0.  1.
        -12    1    3    3    0    0 -0.17884705294E+00 -0.35068725087E+02  0.22564656445E+02  0.41701453044E+02  0.00000000000E+00 0.  1.
</event>
<event>
 7    1  0.2000468E-015  0.9000762E+02  0.7816164E-02  0.1186339E+00
        -11   -1    0    0    0    0  0.00000000000E+00  0.00000000000E+00  0.45593999997E+02  0.45594000000E+02  0.51100000000E-03 0.  1.
         11   -1    0    0    0    0 -0.00000000000E+00 -0.00000000000E+00 -0.45593999997E+02  0.45594000000E+02  0.51100000000E-03 0. -1.
    9900012    2    1    2    0    0 -0.60090134208E+00 -0.38187652515E+00  0.94147466016E+00  0.90007624365E+02  0.89999884207E+02 0.  0.
         12    1    1    2    0    0  0.60090134208E+00  0.38187652515E+00 -0.94147466016E+00  0.11803756347E+01  0.00000000000E+00 0. -1.
         11    1    3    3    0    0 -0.17433705320E+02 -0.24069087433E+01 -0.23074826970E+02  0.29020250358E+02  0.51100000000E-03 0. -1.
        -11    1    3    3    0    0  0.23408121449E+02  0.21004976592E+02  0.24964103259E+01  0.31549663329E+02  0.51100000000E-03 0.  1.
         12    1    3    3    0    0 -0.65753174711E+01 -0.18979944373E+02  0.21519891304E+02  0.29437710679E+02  0.00000000000E+00 0. -1.
</event>
<event>
 7    1  0.2000468E-015  0.9000774E+02  0.7816164E-02  0.1186339E+00
        -11   -1    0    0    0    0  0.00000000000E+00  0.00000000000E+00  0.45593999997E+02  0.45594000000E+02  0.51100000000E-03 0.  1.
         11   -1    0    0    0    0 -0.00000000000E+00 -0.00000000000E+00 -0.45593999997E+02  0.45594000000E+02  0.51100000000E-03 0. -1.
    9900012    2    1    2    0    0  0.11585345669E+01  0.80589599984E-01 -0.21054031979E+00  0.90007735516E+02  0.89999996825E+02 0.  0.
         12    1    1    2    0    0 -0.11585345669E+01 -0.80589599984E-01  0.21054031979E+00  0.11802644842E+01  0.00000000000E+00 0. -1.
         11    1    3    3    0    0 -0.15456700057E+01 -0.82329816608E+01 -0.47597392776E+01  0.96346354910E+01  0.51100000000E-03 0. -1.
        -11    1    3    3    0    0  0.28849238867E+02 -0.23663811430E+02  0.10203100081E+02  0.38682784364E+02  0.51100000000E-03 0.  1.
         12    1    3    3    0    0 -0.26145034295E+02  0.31977382690E+02 -0.56539011235E+01  0.41690315661E+02  0.00000000000E+00 0. -1.
</event>
<event>
 7    1  0.2000468E-015  0.9000802E+02  0.7816164E-02  0.1186338E+00
        -11   -1    0    0    0    0  0.00000000000E+00  0.00000000000E+00  0.45593999997E+02  0.45594000000E+02  0.51100000000E-03 0. -1.
         11   -1    0    0    0    0 -0.00000000000E+00 -0.00000000000E+00 -0.45593999997E+02  0.45594000000E+02  0.51100000000E-03 0.  1.
    9900012    2    1    2    0    0 -0.81386521213E+00 -0.78213252257E+00  0.34387722511E+00  0.90008017198E+02  0.90000282225E+02 0.  0.
         12    1    1    2    0    0  0.81386521213E+00  0.78213252257E+00 -0.34387722511E+00  0.11799828017E+01  0.00000000000E+00 0. -1.
         11    1    3    3    0    0  0.88536592903E+01  0.14874572017E+01  0.38453422118E+02  0.39487535813E+02  0.51100000000E-03 0. -1.
        -11    1    3    3    0    0  0.99293869118E+00  0.48875221434E+01  0.40653173044E+01  0.64343301900E+01  0.51100000000E-03 0.  1.
        -12    1    3    3    0    0 -0.10660463194E+02 -0.71571118677E+01 -0.42174862198E+02  0.44086151195E+02  0.00000000000E+00 0.  1.
</event>
<event>
 7    1  0.2000468E-015  0.9000778E+02  0.7816164E-02  0.1186339E+00
        -11   -1    0    0    0    0  0.00000000000E+00  0.00000000000E+00  0.45593999997E+02  0.45594000000E+02  0.51100000000E-03 0.  1.
         11   -1    0    0    0    0 -0.00000000000E+00 -0.00000000000E+00 -0.45593999997E+02  0.45594000000E+02  0.51100000000E-03 0. -1.
    9900012    2    1    2    0    0 -0.94563869045E+00  0.30240390834E+00  0.63815168044E+00  0.90007780434E+02  0.90000042336E+02 0.  0.
         12    1    1    2    0    0  0.94563869045E+00 -0.30240390834E+00 -0.63815168044E+00  0.11802195660E+01  0.00000000000E+00 0. -1.
         11    1    3    3    0    0  0.79102250635E+01  0.26258865163E-02  0.52517776091E+01  0.94948847159E+01  0.51100000000E-03 0. -1.
        -11    1    3    3    0    0  0.27594849184E+02  0.81571897525E+01  0.20697501635E+02  0.35445761670E+02  0.51100000000E-03 0.  1.
         12    1    3    3    0    0 -0.36450712938E+02 -0.78574117307E+01 -0.25311127563E+02  0.45067134048E+02  0.00000000000E+00 0. -1.
</event>
<event>
 7    1  0.2000468E-015  0.9000782E+02  0.7816164E-02  0.1186339E+00
        -11   -1    0    0    0    0  0.00000000000E+00  0.00000000000E+00  0.45593999997E+02  0.45594000000E+02  0.51100000000E-03 0.  1.
         11   -1    0    0    0    0 -0.00000000000E+00 -0.00000000000E+00 -0.45593999997E+02  0.45594000000E+02  0.51100000000E-03 0. -1.
    9900012    2    1    2    0    0  0.39215456147E-01  0.62331446472E+00  0.10013865224E+01  0.90007816226E+02  0.90000078600E+02 0.  0.
         12    1    1    2    0    0 -0.39215456147E-01 -0.62331446472E+00 -0.10013865224E+01  0.11801837743E+01  0.00000000000E+00 0. -1.
         11    1    3    3    0    0  0.94128720399E+01 -0.29075006265E+01 -0.21195862216E+02  0.23373495573E+02  0.51100000000E-03 0. -1.
        -11    1    3    3    0    0  0.24527319297E+02  0.10027597317E+02  0.17602924054E+02  0.31812026583E+02  0.51100000000E-03 0.  1.
        -12    1    3    3    0    0 -0.33900975881E+02 -0.64967822262E+01  0.45943246850E+01  0.34822294069E+02  0.00000000000E+00 0.  1.
</event>
<event>
 7    1  0.2000468E-015  0.9000780E+02  0.7816164E-02  0.1186339E+00
        -11   -1    0    0    0    0  0.00000000000E+00  0.00000000000E+00  0.45593999997E+02  0.45594000000E+02  0.51100000000E-03 0.  1.
         11   -1    0    0    0    0 -0.00000000000E+00 -0.00000000000E+00 -0.45593999997E+02  0.45594000000E+02  0.51100000000E-03 0. -1.
    9900012    2    1    2    0    0 -0.86845335179E+00 -0.37134853239E+00  0.70764249811E+00  0.90007801346E+02  0.90000063524E+02 0.  0.
         12    1    1    2    0    0  0.86845335179E+00  0.37134853239E+00 -0.70764249811E+00  0.11801986536E+01  0.00000000000E+00 0. -1.
         11    1    3    3    0    0 -0.70559517806E+01 -0.17746602506E+01  0.64667692559E+01  0.97342169385E+01  0.51100000000E-03 0. -1.
        -11    1    3    3    0    0 -0.46397385022E+01 -0.27289633724E+02  0.24664227425E+02  0.37075266646E+02  0.51100000000E-03 0.  1.
         12    1    3    3    0    0  0.10827236931E+02  0.28692945442E+02 -0.30423354183E+02  0.43198317762E+02  0.00000000000E+00 0. -1.
</event>
<event>
 7    1  0.2000468E-015  0.9000711E+02  0.7816164E-02  0.1186340E+00
        -11   -1    0    0    0    0  0.00000000000E+00  0.00000000000E+00  0.45593999997E+02  0.45594000000E+02  0.51100000000E-03 0.  1.
         11   -1    0    0    0    0 -0.00000000000E+00 -0.00000000000E+00 -0.45593999997E+02  0.45594000000E+02  0.51100000000E-03 0. -1.
    9900012    2    1    2    0    0 -0.29020757783E-01  0.11285489046E+01 -0.34645995660E+00  0.90007110786E+02  0.89999363846E+02 0.  0.
         12    1    1    2    0    0  0.29020757783E-01 -0.11285489046E+01  0.34645995660E+00  0.11808892141E+01  0.00000000000E+00 0. -1.
         11    1    3    3    0    0  0.53706165917E+01 -0.11844148437E+02 -0.14730573437E+01  0.13088058411E+02  0.51100000000E-03 0. -1.
        -11    1    3    3    0    0 -0.28232334007E+02 -0.14413971512E+02  0.19079749933E+02  0.36998163684E+02  0.51100000000E-03 0.  1.
         12    1    3    3    0    0  0.22832696658E+02  0.27386668853E+02 -0.17953152546E+02  0.39920888691E+02  0.00000000000E+00 0. -1.
</event>
<event>
 7    1  0.2000468E-015  0.9000772E+02  0.7816164E-02  0.1186339E+00
        -11   -1    0    0    0    0  0.00000000000E+00  0.00000000000E+00  0.45593999997E+02  0.45594000000E+02  0.51100000000E-03 0.  1.
         11   -1    0    0    0    0 -0.00000000000E+00 -0.00000000000E+00 -0.45593999997E+02  0.45594000000E+02  0.51100000000E-03 0. -1.
    9900012    2    1    2    0    0  0.75508688131E+00 -0.69099358769E+00  0.58773712013E+00  0.90007718992E+02  0.89999980082E+02 0.  0.
         12    1    1    2    0    0 -0.75508688131E+00  0.69099358769E+00 -0.58773712013E+00  0.11802810085E+01  0.00000000000E+00 0. -1.
         11    1    3    3    0    0 -0.38177854609E+02 -0.18427865679E+01 -0.20348614451E+01  0.38276430166E+02  0.51100000000E-03 0. -1.
        -11    1    3    3    0    0 -0.34162804272E+01  0.32836352780E+01  0.76838568342E+01  0.90274519498E+01  0.51100000000E-03 0.  1.
        -12    1    3    3    0    0  0.42349221918E+02 -0.21318422978E+01 -0.50612582690E+01  0.42703836876E+02  0.00000000000E+00 0.  1.
</event>
<event>
 7    1  0.2000468E-015  0.9000775E+02  0.7816164E-02  0.1186339E+00
        -11   -1    0    0    0    0  0.00000000000E+00  0.00000000000E+00  0.45593999997E+02  0.45594000000E+02  0.51100000000E-03 0.  1.
         11   -1    0    0    0    0 -0.00000000000E+00 -0.00000000000E+00 -0.45593999997E+02  0.45594000000E+02  0.51100000000E-03 0. -1.
    9900012    2    1    2    0    0 -0.89023605365E+00 -0.70964535447E+00  0.31125405222E+00  0.90007747550E+02  0.90000009018E+02 0.  0.
         12    1    1    2    0    0  0.89023605365E+00  0.70964535447E+00 -0.31125405222E+00  0.11802524498E+01  0.00000000000E+00 0. -1.
         11    1    3    3    0    0  0.14472870439E+02 -0.27118619248E+02  0.21225656245E+02  0.37355213451E+02  0.51100000000E-03 0. -1.
        -11    1    3    3    0    0 -0.64486570914E+00 -0.94742741939E+01 -0.32731700445E+01  0.10044469408E+02  0.51100000000E-03 0.  1.
        -12    1    3    3    0    0 -0.14718240783E+02  0.35883248088E+02 -0.17641232148E+02  0.42608064692E+02  0.00000000000E+00 0.  1.
</event>
<event>
 7    1  0.2000468E-015  0.9000779E+02  0.7816164E-02  0.1186339E+00
        -11   -1    0    0    0    0  0.00000000000E+00  0.00000000000E+00  0.45593999997E+02  0.45594000000E+02  0.51100000000E-03 0.  1.
         11   -1    0    0    0    0 -0.00000000000E+00 -0.00000000000E+00 -0.45593999997E+02  0.45594000000E+02  0.51100000000E-03 0. -1.
    9900012    2    1    2    0    0  0.66681614017E+00  0.74968117733E+00 -0.62147914244E+00  0.90007787326E+02  0.90000049318E+02 0.  0.
         12    1    1    2    0    0 -0.66681614017E+00 -0.74968117733E+00  0.62147914244E+00  0.11802126744E+01  0.00000000000E+00 0. -1.
         11    1    3    3    0    0  0.27065382067E+00  0.63189938503E+01 -0.85077342615E+01  0.10601154621E+02  0.51100000000E-03 0. -1.
        -11    1    3    3    0    0  0.34139556564E+02 -0.29246186826E+01  0.24085590835E+02  0.41882913019E+02  0.51100000000E-03 0.  1.
         12    1    3    3    0    0 -0.33743394244E+02 -0.26446939904E+01 -0.16199335716E+02  0.37523719686E+02  0.00000000000E+00 0. -1.
</event>
<event>
 7    1  0.2000468E-015  0.9000791E+02  0.7816164E-02  0.1186339E+00
        -11   -1    0    0    0    0  0.00000000000E+00  0.00000000000E+00  0.45593999997E+02  0.45594000000E+02  0.51100000000E-03 0.  1.
         11   -1    0    0    0    0 -0.00000000000E+00 -0.00000000000E+00 -0.45593999997E+02  0.45594000000E+02  0.51100000000E-03 0. -1.
    9900012    2    1    2    0    0 -0.88447779969E+00 -0.77979356225E+00 -0.47280590489E-01  0.90007909142E+02  0.90000172743E+02 0.  0.
         12    1    1    2    0    0  0.88447779969E+00  0.77979356225E+00  0.47280590489E-01  0.11800908576E+01  0.00000000000E+00 0. -1.
         11    1    3    3    0    0  0.10107388505E+02 -0.22518539801E+02  0.15938958710E+02  0.29381870978E+02  0.51100000000E-03 0. -1.
        -11    1    3    3    0    0  0.98409226916E+01  0.94005581172E+01  0.15681004551E+02  0.20763144182E+02  0.51100000000E-03 0.  1.
        -12    1    3    3    0    0 -0.20832788996E+02  0.12338188121E+02 -0.31667243852E+02  0.39862893982E+02  0.00000000000E+00 0.  1.
</event>
<event>
 7    1  0.2000468E-015  0.9000781E+02  0.7816164E-02  0.1186339E+00
        -11   -1    0    0    0    0  0.00000000000E+00  0.00000000000E+00  0.45593999997E+02  0.45594000000E+02  0.51100000000E-03 0.  1.
         11   -1    0    0    0    0 -0.00000000000E+00 -0.00000000000E+00 -0.45593999997E+02  0.45594000000E+02  0.51100000000E-03 0. -1.
    9900012    2    1    2    0    0  0.75200161047E+00  0.84119827329E-01 -0.90568181151E+00  0.90007812680E+02  0.90000075007E+02 0.  0.
         12    1    1    2    0    0 -0.75200161047E+00 -0.84119827329E-01  0.90568181151E+00  0.11801873204E+01  0.00000000000E+00 0. -1.
         11    1    3    3    0    0 -0.10399474998E+02 -0.15218746105E+02  0.29847173439E+02  0.35080095151E+02  0.51100000000E-03 0. -1.
        -11    1    3    3    0    0 -0.11065788205E+02 -0.61105205093E+01 -0.20900313361E+01  0.12812429931E+02  0.51100000000E-03 0.  1.
        -12    1    3    3    0    0  0.22217264813E+02  0.21413386442E+02 -0.28662823914E+02  0.42115287598E+02  0.00000000000E+00 0.  1.
</event>
<event>
 7    1  0.2000468E-015  0.9000753E+02  0.7816164E-02  0.1186339E+00
        -11   -1    0    0    0    0  0.00000000000E+00  0.00000000000E+00  0.45593999997E+02  0.45594000000E+02  0.51100000000E-03 0.  1.
         11   -1    0    0    0    0 -0.00000000000E+00 -0.00000000000E+00 -0.45593999997E+02  0.45594000000E+02  0.51100000000E-03 0. -1.
    9900012    2    1    2    0    0 -0.12765532653E+00  0.10846754221E+01 -0.44798228239E+00  0.90007531966E+02  0.89999790588E+02 0.  0.
         12    1    1    2    0    0  0.12765532653E+00 -0.10846754221E+01  0.44798228239E+00  0.11804680339E+01  0.00000000000E+00 0. -1.
         11    1    3    3    0    0  0.13024677615E+02 -0.45906067179E+01 -0.31667395717E+02  0.34547646067E+02  0.51100000000E-03 0. -1.
        -11    1    3    3    0    0  0.43682744125E+01 -0.38327187186E+01 -0.89182970551E+01  0.10644603175E+02  0.51100000000E-03 0.  1.
        -12    1    3    3    0    0 -0.17520607354E+02  0.95080008585E+01  0.40137710489E+02  0.44815282725E+02  0.00000000000E+00 0.  1.
</event>
<event>
 7    1  0.2000468E-015  0.9000777E+02  0.7816164E-02  0.1186339E+00
        -11   -1    0    0    0    0  0.00000000000E+00  0.00000000000E+00  0.45593999997E+02  0.45594000000E+02  0.51100000000E-03 0. -1.
         11   -1    0    0    0    0 -0.00000000000E+00 -0.00000000000E+00 -0.45593999997E+02  0.45594000000E+02  0.51100000000E-03 0.  1.
    9900012    2    1    2    0    0 -0.71200032389E+00  0.52365302167E+00 -0.78216829565E+00  0.90007769433E+02  0.90000031190E+02 0.  0.
         12    1    1    2    0    0  0.71200032389E+00 -0.52365302167E+00  0.78216829565E+00  0.11802305669E+01  0.00000000000E+00 0. -1.
         11    1    3    3    0    0  0.80179353314E+01  0.13335186140E+02  0.31794434416E+02  0.35397747618E+02  0.51100000000E-03 0. -1.
        -11    1    3    3    0    0  0.14165785657E+01  0.42553217290E+01  0.81492780340E+01  0.93018917746E+01  0.51100000000E-03 0.  1.
        -12    1    3    3    0    0 -0.10146514221E+02 -0.17066854847E+02 -0.40725880746E+02  0.45308130040E+02  0.00000000000E+00 0.  1.
</event>
<event>
 7    1  0.2000468E-015  0.9000774E+02  0.7816164E-02  0.1186339E+00
        -11   -1    0    0    0    0  0.00000000000E+00  0.00000000000E+00  0.45593999997E+02  0.45594000000E+02  0.51100000000E-03 0.  1.
         11   -1    0    0    0    0 -0.00000000000E+00 -0.00000000000E+00 -0.45593999997E+02  0.45594000000E+02  0.51100000000E-03 0. -1.
    9900012    2    1    2    0    0 -0.63731056404E+00 -0.75265910711E+00  0.64835091738E+00  0.90007737572E+02  0.89999998908E+02 0.  0.
         12    1    1    2    0    0  0.63731056404E+00  0.75265910711E+00 -0.64835091738E+00  0.11802624279E+01  0.00000000000E+00 0. -1.
         11    1    3    3    0    0  0.18818222377E+02  0.30488202183E+02 -0.20671717111E+02  0.41363943892E+02  0.51100000000E-03 0. -1.
        -11    1    3    3    0    0 -0.74013528717E+01  0.13775531707E+01  0.90409690373E+01  0.11765066870E+02  0.51100000000E-03 0.  1.
        -12    1    3    3    0    0 -0.12054180069E+02 -0.32618414461E+02  0.12279098991E+02  0.36878726809E+02  0.00000000000E+00 0.  1.
</event>
<event>
 7    1  0.2000468E-015  0.9000660E+02  0.7816164E-02  0.1186341E+00
        -11   -1    0    0    0    0  0.00000000000E+00  0.00000000000E+00  0.45593999997E+02  0.45594000000E+02  0.51100000000E-03 0.  1.
         11   -1    0    0    0    0 -0.00000000000E+00 -0.00000000000E+00 -0.45593999997E+02  0.45594000000E+02  0.51100000000E-03 0. -1.
    9900012    2    1    2    0    0  0.31876615534E+00 -0.10916860918E+01 -0.31985157332E+00  0.90006604463E+02  0.89998850835E+02 0.  0.
         12    1    1    2    0    0 -0.31876615534E+00  0.10916860918E+01  0.31985157332E+00  0.11813955365E+01  0.00000000000E+00 0. -1.
         11    1    3    3    0    0  0.43289988220E+02 -0.35072824203E+01 -0.41405328705E+01  0.43628753395E+02  0.51100000000E-03 0. -1.
        -11    1    3    3    0    0 -0.61653626856E+01  0.67188454083E+01  0.15692410371E+01  0.92529507920E+01  0.51100000000E-03 0.  1.
        -12    1    3    3    0    0 -0.36805859379E+02 -0.43032490797E+01  0.22514402600E+01  0.37124900276E+02  0.00000000000E+00 0.  1.
</event>
<event>
 7    1  0.2000468E-015  0.9000720E+02  0.7816164E-02  0.1186340E+00
        -11   -1    0    0    0    0  0.00000000000E+00  0.00000000000E+00  0.45593999997E+02  0.45594000000E+02  0.51100000000E-03 0.  1.
         11   -1    0    0    0    0 -0.00000000000E+00 -0.00000000000E+00 -0.45593999997E+02  0.45594000000E+02  0.51100000000E-03 0. -1.
    9900012    2    1    2    0    0 -0.28911020875E+00  0.39215444678E-01  0.11441873220E+01  0.90007200613E+02  0.89999454860E+02 0.  0.
         12    1    1    2    0    0  0.28911020875E+00 -0.39215444678E-01 -0.11441873220E+01  0.11807993867E+01  0.00000000000E+00 0. -1.
         11    1    3    3    0    0  0.56062453027E+01 -0.20828528106E+02 -0.32194281916E+02  0.38752152944E+02  0.51100000000E-03 0. -1.
        -11    1    3    3    0    0 -0.37779055464E+01  0.39261794828E+01 -0.61603322474E+01  0.82241807682E+01  0.51100000000E-03 0.  1.
        -12    1    3    3    0    0 -0.21174499651E+01  0.16941564068E+02  0.39498801486E+02  0.43030866901E+02  0.00000000000E+00 0.  1.
</event>
<event>
 7    1  0.2000468E-015  0.9000775E+02  0.7816164E-02  0.1186339E+00
        -11   -1    0    0    0    0  0.00000000000E+00  0.00000000000E+00  0.45593999997E+02  0.45594000000E+02  0.51100000000E-03 0.  1.
         11   -1    0    0    0    0 -0.00000000000E+00 -0.00000000000E+00 -0.45593999997E+02  0.45594000000E+02  0.51100000000E-03 0. -1.
    9900012    2    1    2    0    0  0.30751254371E+00  0.10326643961E+01  0.48170634333E+00  0.90007745485E+02  0.90000006925E+02 0.  0.
         12    1    1    2    0    0 -0.30751254371E+00 -0.10326643961E+01 -0.48170634333E+00  0.11802545153E+01  0.00000000000E+00 0. -1.
         11    1    3    3    0    0  0.24318345003E+02 -0.24224812479E+02 -0.42402627306E+01  0.34586171682E+02  0.51100000000E-03 0. -1.
        -11    1    3    3    0    0  0.10096469125E+02 -0.32879653524E+01 -0.55718977094E+00  0.10632961283E+02  0.51100000000E-03 0.  1.
        -12    1    3    3    0    0 -0.34107301584E+02  0.28545442228E+02  0.52791588449E+01  0.44788612520E+02  0.00000000000E+00 0.  1.
</event>
<event>
 7    1  0.2000468E-015  0.9000766E+02  0.7816164E-02  0.1186339E+00
        -11   -1    0    0    0    0  0.00000000000E+00  0.00000000000E+00  0.45593999997E+02  0.45594000000E+02  0.51100000000E-03 0. -1.
         11   -1    0    0    0    0 -0.00000000000E+00 -0.00000000000E+00 -0.45593999997E+02  0.45594000000E+02  0.51100000000E-03 0.  1.
    9900012    2    1    2    0    0  0.50929130511E+00  0.90143700805E+00 -0.56676743073E+00  0.90007664610E+02  0.89999924983E+02 0.  0.
         12    1    1    2    0    0 -0.50929130511E+00 -0.90143700805E+00  0.56676743073E+00  0.11803353902E+01  0.00000000000E+00 0. -1.
         11    1    3    3    0    0 -0.94319350710E+01  0.81807706293E+01  0.18498191495E+01  0.12621736743E+02  0.51100000000E-03 0. -1.
        -11    1    3    3    0    0 -0.71721781944E+00  0.31969039696E+02 -0.14280536037E+02  0.35020959585E+02  0.51100000000E-03 0.  1.
         12    1    3    3    0    0  0.10658444196E+02 -0.39248373318E+02  0.11863949457E+02  0.42364968281E+02  0.00000000000E+00 0. -1.
</event>
<event>
 7    1  0.2000468E-015  0.9000780E+02  0.7816164E-02  0.1186339E+00
        -11   -1    0    0    0    0  0.00000000000E+00  0.00000000000E+00  0.45593999997E+02  0.45594000000E+02  0.51100000000E-03 0.  1.
         11   -1    0    0    0    0 -0.00000000000E+00 -0.00000000000E+00 -0.45593999997E+02  0.45594000000E+02  0.51100000000E-03 0. -1.
    9900012    2    1    2    0    0 -0.38911376952E+00 -0.47450433867E+00  0.10081261906E+01  0.90007795649E+02  0.90000057752E+02 0.  0.
         12    1    1    2    0    0  0.38911376952E+00  0.47450433867E+00 -0.10081261906E+01  0.11802043507E+01  0.00000000000E+00 0. -1.
         11    1    3    3    0    0  0.17160212562E+02 -0.25968650018E+02  0.16145338055E+02  0.35064449520E+02  0.51100000000E-03 0. -1.
        -11    1    3    3    0    0  0.38134380856E+01  0.61588794813E+01  0.12865140487E+02  0.14764347141E+02  0.51100000000E-03 0.  1.
        -12    1    3    3    0    0 -0.21362764417E+02  0.19335266199E+02 -0.28002352351E+02  0.40178998988E+02  0.00000000000E+00 0.  1.
</event>
<event>
 7    1  0.2000468E-015  0.9000772E+02  0.7816164E-02  0.1186339E+00
        -11   -1    0    0    0    0  0.00000000000E+00  0.00000000000E+00  0.45593999997E+02  0.45594000000E+02  0.51100000000E-03 0. -1.
         11   -1    0    0    0    0 -0.00000000000E+00 -0.00000000000E+00 -0.45593999997E+02  0.45594000000E+02  0.51100000000E-03 0.  1.
    9900012    2    1    2    0    0  0.35129985533E+00 -0.11157166904E+01  0.15758654422E+00  0.90007716627E+02  0.89999977687E+02 0.  0.
         12    1    1    2    0    0 -0.35129985533E+00  0.11157166904E+01 -0.15758654422E+00  0.11802833729E+01  0.00000000000E+00 0. -1.
         11    1    3    3    0    0  0.32609633989E+02 -0.74218515861E+01  0.12608519048E+02  0.35741388651E+02  0.51100000000E-03 0. -1.
        -11    1    3    3    0    0  0.82549122767E+01 -0.25027843676E-01  0.50562261322E+01  0.96803732392E+01  0.51100000000E-03 0.  1.
        -12    1    3    3    0    0 -0.40513246410E+02  0.63311627395E+01 -0.17507158636E+02  0.44585954737E+02  0.00000000000E+00 0.  1.
</event>
<event>
 7    1  0.2000468E-015  0.9000772E+02  0.7816164E-02  0.1186339E+00
        -11   -1    0    0    0    0  0.00000000000E+00  0.00000000000E+00  0.45593999997E+02  0.45594000000E+02  0.51100000000E-03 0. -1.
         11   -1    0    0    0    0 -0.00000000000E+00 -0.00000000000E+00 -0.45593999997E+02  0.45594000000E+02  0.51100000000E-03 0.  1.
    9900012    2    1    2    0    0  0.57227686568E+00  0.10254726610E+01 -0.11818056153E+00  0.90007719680E+02  0.89999980779E+02 0.  0.
         12    1    1    2    0    0 -0.57227686568E+00 -0.10254726610E+01  0.11818056153E+00  0.11802803204E+01  0.00000000000E+00 0. -1.
         11    1    3    3    0    0  0.26532083704E+01 -0.11537503552E+01 -0.11720947261E+02  0.12072748631E+02  0.51100000000E-03 0. -1.
        -11    1    3    3    0    0  0.27294105265E+01 -0.24142277730E+02 -0.23496868460E+02  0.33799439101E+02  0.51100000000E-03 0.  1.
         12    1    3    3    0    0 -0.48103420312E+01  0.26321500746E+02  0.35099635160E+02  0.44135531948E+02  0.00000000000E+00 0. -1.
</event>
<event>
 7    1  0.2000468E-015  0.9000770E+02  0.7816164E-02  0.1186339E+00
        -11   -1    0    0    0    0  0.00000000000E+00  0.00000000000E+00  0.45593999997E+02  0.45594000000E+02  0.51100000000E-03 0.  1.
         11   -1    0    0    0    0 -0.00000000000E+00 -0.00000000000E+00 -0.45593999997E+02  0.45594000000E+02  0.51100000000E-03 0. -1.
    9900012    2    1    2    0    0  0.58007880032E+00 -0.28916804221E+00  0.98640549915E+00  0.90007701148E+02  0.89999962003E+02 0.  0.
         12    1    1    2    0    0 -0.58007880032E+00  0.28916804221E+00 -0.98640549915E+00  0.11802988520E+01  0.00000000000E+00 0. -1.
         11    1    3    3    0    0 -0.24358822181E+01  0.61258921895E+01 -0.62010366814E+01  0.90505764172E+01  0.51100000000E-03 0. -1.
        -11    1    3    3    0    0 -0.12528066143E+02  0.31138985095E+02  0.19080444617E+02  0.38608965294E+02  0.51100000000E-03 0.  1.
         12    1    3    3    0    0  0.15544027161E+02 -0.37554045326E+02 -0.11893002437E+02  0.42348159437E+02  0.00000000000E+00 0. -1.
</event>
<event>
 7    1  0.2612764E-015  0.9000774E+02  0.7816164E-02  0.1186339E+00
        -11   -1    0    0    0    0  0.00000000000E+00  0.00000000000E+00  0.45593999997E+02  0.45594000000E+02  0.51100000000E-03 0.  1.
         11   -1    0    0    0    0 -0.00000000000E+00 -0.00000000000E+00 -0.45593999997E+02  0.45594000000E+02  0.51100000000E-03 0. -1.
    9900012    2    1    2    0    0 -0.50255807821E+00 -0.79073140389E+00  0.71777030992E+00  0.90007739439E+02  0.90000000799E+02 0.  0.
         12    1    1    2    0    0  0.50255807821E+00  0.79073140389E+00 -0.71777030992E+00  0.11802605614E+01  0.00000000000E+00 0. -1.
         11    1    3    3    0    0  0.10151340619E+01 -0.27076046129E+02 -0.29385785294E+02  0.39970828722E+02  0.51100000000E-03 0. -1.
        -11    1    3    3    0    0 -0.63832323325E+00  0.72874877190E+01 -0.58476111554E+01  0.93653344997E+01  0.51100000000E-03 0.  1.
        -12    1    3    3    0    0 -0.87936890688E+00  0.18997827006E+02  0.35951166759E+02  0.40671576217E+02  0.00000000000E+00 0.  1.
</event>
<event>
 7    1  0.2000468E-015  0.9000780E+02  0.7816164E-02  0.1186339E+00
        -11   -1    0    0    0    0  0.00000000000E+00  0.00000000000E+00  0.45593999997E+02  0.45594000000E+02  0.51100000000E-03 0.  1.
         11   -1    0    0    0    0 -0.00000000000E+00 -0.00000000000E+00 -0.45593999997E+02  0.45594000000E+02  0.51100000000E-03 0. -1.
    9900012    2    1    2    0    0 -0.40380683807E+00  0.10216099969E+01 -0.43143004936E+00  0.90007797121E+02  0.90000059243E+02 0.  0.
         12    1    1    2    0    0  0.40380683807E+00 -0.10216099969E+01  0.43143004936E+00  0.11802028791E+01  0.00000000000E+00 0. -1.
         11    1    3    3    0    0 -0.65314956395E+01  0.88902883213E+00  0.78821086434E+01  0.10275137200E+02  0.51100000000E-03 0. -1.
        -11    1    3    3    0    0  0.22022491390E+02 -0.14707621323E+02  0.27281443081E+02  0.38020802054E+02  0.51100000000E-03 0.  1.
         12    1    3    3    0    0 -0.15894802589E+02  0.14840202487E+02 -0.35594981774E+02  0.41711857867E+02  0.00000000000E+00 0. -1.
</event>
<event>
 7    1  0.2000468E-015  0.9000772E+02  0.7816164E-02  0.1186339E+00
        -11   -1    0    0    0    0  0.00000000000E+00  0.00000000000E+00  0.45593999997E+02  0.45594000000E+02  0.51100000000E-03 0. -1.
         11   -1    0    0    0    0 -0.00000000000E+00 -0.00000000000E+00 -0.45593999997E+02  0.45594000000E+02  0.51100000000E-03 0.  1.
    9900012    2    1    2    0    0 -0.11161118274E+01 -0.24968964345E+00  0.29154575723E+00  0.90007724838E+02  0.89999986006E+02 0.  0.
         12    1    1    2    0    0  0.11161118274E+01  0.24968964345E+00 -0.29154575723E+00  0.11802751619E+01  0.00000000000E+00 0. -1.
         11    1    3    3    0    0 -0.31234217283E+01 -0.12147876429E+02  0.12273898303E+01  0.12602902487E+02  0.51100000000E-03 0. -1.
        -11    1    3    3    0    0  0.21916977020E+02 -0.44658848465E+01  0.29821512988E+02  0.37277615888E+02  0.51100000000E-03 0.  1.
         12    1    3    3    0    0 -0.19909667119E+02  0.16364071632E+02 -0.30757357061E+02  0.40127206463E+02  0.00000000000E+00 0. -1.
</event>
<event>
 7    1  0.2000468E-015  0.9000713E+02  0.7816164E-02  0.1186340E+00
        -11   -1    0    0    0    0  0.00000000000E+00  0.00000000000E+00  0.45593999997E+02  0.45594000000E+02  0.51100000000E-03 0. -1.
         11   -1    0    0    0    0 -0.00000000000E+00 -0.00000000000E+00 -0.45593999997E+02  0.45594000000E+02  0.51100000000E-03 0.  1.
    9900012    2    1    2    0    0 -0.10575502717E+01  0.51675773372E+00  0.94919735773E-01  0.90007127065E+02  0.89999380340E+02 0.  0.
         12    1    1    2    0    0  0.10575502717E+01 -0.51675773372E+00 -0.94919735773E-01  0.11808729350E+01  0.00000000000E+00 0. -1.
         11    1    3    3    0    0  0.13011905675E+01 -0.90194938167E+01 -0.33455055220E+01  0.97075626736E+01  0.51100000000E-03 0. -1.
        -11    1    3    3    0    0  0.19268214495E+02 -0.26977066377E+02 -0.11828691803E+02  0.35198638470E+02  0.51100000000E-03 0.  1.
         12    1    3    3    0    0 -0.21626955334E+02  0.36513317927E+02  0.15269117061E+02  0.45100925921E+02  0.00000000000E+00 0. -1.
</event>
<event>
 7    1  0.2000468E-015  0.9000777E+02  0.7816164E-02  0.1186339E+00
        -11   -1    0    0    0    0  0.00000000000E+00  0.00000000000E+00  0.45593999997E+02  0.45594000000E+02  0.51100000000E-03 0.  1.
         11   -1    0    0    0    0 -0.00000000000E+00 -0.00000000000E+00 -0.45593999997E+02  0.45594000000E+02  0.51100000000E-03 0. -1.
    9900012    2    1    2    0    0 -0.10349511325E+01 -0.51484623281E+00  0.23822236721E+00  0.90007771045E+02  0.90000032823E+02 0.  0.
         12    1    1    2    0    0  0.10349511325E+01  0.51484623281E+00 -0.23822236721E+00  0.11802289551E+01  0.00000000000E+00 0. -1.
         11    1    3    3    0    0 -0.14010672674E+02  0.38774185464E+01  0.42370381728E+00  0.14543481308E+02  0.51100000000E-03 0. -1.
        -11    1    3    3    0    0 -0.25919235100E+02  0.12294919446E+02  0.12482582352E+02  0.31285566237E+02  0.51100000000E-03 0.  1.
         12    1    3    3    0    0  0.38894956642E+02 -0.16687184226E+02 -0.12668063802E+02  0.44178723499E+02  0.00000000000E+00 0. -1.
</event>
<event>
 7    1  0.2000468E-015  0.9000770E+02  0.7816164E-02  0.1186339E+00
        -11   -1    0    0    0    0  0.00000000000E+00  0.00000000000E+00  0.45593999997E+02  0.45594000000E+02  0.51100000000E-03 0.  1.
         11   -1    0    0    0    0 -0.00000000000E+00 -0.00000000000E+00 -0.45593999997E+02  0.45594000000E+02  0.51100000000E-03 0. -1.
    9900012    2    1    2    0    0  0.18235836931E+00 -0.36914191749E+00  0.11061616822E+01  0.90007697498E+02  0.89999958305E+02 0.  0.
         12    1    1    2    0    0 -0.18235836931E+00  0.36914191749E+00 -0.11061616822E+01  0.11803025024E+01  0.00000000000E+00 0. -1.
         11    1    3    3    0    0  0.16809923558E+01  0.50740813323E+00 -0.11606454913E+02  0.11738526067E+02  0.51100000000E-03 0. -1.
        -11    1    3    3    0    0  0.11015281314E+02  0.31399386794E+02 -0.12391250628E+02  0.35507759797E+02  0.51100000000E-03 0.  1.
         12    1    3    3    0    0 -0.12513915300E+02 -0.32275936844E+02  0.25103867223E+02  0.42761411633E+02  0.00000000000E+00 0. -1.
</event>
<event>
 7    1  0.2000468E-015  0.9000799E+02  0.7816164E-02  0.1186339E+00
        -11   -1    0    0    0    0  0.00000000000E+00  0.00000000000E+00  0.45593999997E+02  0.45594000000E+02  0.51100000000E-03 0.  1.
         11   -1    0    0    0    0 -0.00000000000E+00 -0.00000000000E+00 -0.45593999997E+02  0.45594000000E+02  0.51100000000E-03 0. -1.
    9900012    2    1    2    0    0 -0.79346520244E+00 -0.54106413906E+00  0.68562239010E+00  0.90007993436E+02  0.90000258149E+02 0.  0.
         12    1    1    2    0    0  0.79346520244E+00  0.54106413906E+00 -0.68562239010E+00  0.11800065643E+01  0.00000000000E+00 0. -1.
         11    1    3    3    0    0  0.16180831889E+02 -0.25606588865E+02 -0.30016923238E+02  0.42644253949E+02  0.51100000000E-03 0. -1.
        -11    1    3    3    0    0 -0.88861719309E+01 -0.36259141576E+00  0.45043377518E+01  0.99691816597E+01  0.51100000000E-03 0.  1.
        -12    1    3    3    0    0 -0.80881251606E+01  0.25428116142E+02  0.26198207876E+02  0.37394557827E+02  0.00000000000E+00 0.  1.
</event>
<event>
 7    1  0.2000468E-015  0.9000775E+02  0.7816164E-02  0.1186339E+00
        -11   -1    0    0    0    0  0.00000000000E+00  0.00000000000E+00  0.45593999997E+02  0.45594000000E+02  0.51100000000E-03 0. -1.
         11   -1    0    0    0    0 -0.00000000000E+00 -0.00000000000E+00 -0.45593999997E+02  0.45594000000E+02  0.51100000000E-03 0.  1.
    9900012    2    1    2    0    0  0.10783920314E+01  0.45561525668E+00  0.14993973691E+00  0.90007747247E+02  0.90000008711E+02 0.  0.
         12    1    1    2    0    0 -0.10783920314E+01 -0.45561525668E+00 -0.14993973691E+00  0.11802527527E+01  0.00000000000E+00 0. -1.
         11    1    3    3    0    0  0.60955365199E+01  0.22098882356E+01 -0.35330694081E+01  0.73838845592E+01  0.51100000000E-03 0. -1.
        -11    1    3    3    0    0  0.21137575273E+02 -0.28105183789E+01 -0.31948432718E+02  0.38410915836E+02  0.51100000000E-03 0.  1.
         12    1    3    3    0    0 -0.26154719761E+02  0.10562453999E+01  0.35631441863E+02  0.44212946852E+02  0.00000000000E+00 0. -1.
</event>
<event>
 7    1  0.2000468E-015  0.9000774E+02  0.7816164E-02  0.1186339E+00
        -11   -1    0    0    0    0  0.00000000000E+00  0.00000000000E+00  0.45593999997E+02  0.45594000000E+02  0.51100000000E-03 0.  1.
         11   -1    0    0    0    0 -0.00000000000E+00 -0.00000000000E+00 -0.45593999997E+02  0.45594000000E+02  0.51100000000E-03 0. -1.
    9900012    2    1    2    0    0 -0.11415732381E+00 -0.11589629484E+01  0.19177840494E+00  0.90007743262E+02  0.90000004673E+02 0.  0.
         12    1    1    2    0    0  0.11415732381E+00  0.11589629484E+01 -0.19177840494E+00  0.11802567378E+01  0.00000000000E+00 0. -1.
         11    1    3    3    0    0 -0.30456250361E+02  0.10616105820E+02 -0.24316977707E+02  0.40393072350E+02  0.51100000000E-03 0. -1.
        -11    1    3    3    0    0 -0.42626490659E+01  0.12355594893E+01  0.79522364502E+01  0.91068572588E+01  0.51100000000E-03 0.  1.
        -12    1    3    3    0    0  0.34604742103E+02 -0.13010628258E+02  0.16556519662E+02  0.40507813653E+02  0.00000000000E+00 0.  1.
</event>
<event>
 7    1  0.2000468E-015  0.9000776E+02  0.7816164E-02  0.1186339E+00
        -11   -1    0    0    0    0  0.00000000000E+00  0.00000000000E+00  0.45593999997E+02  0.45594000000E+02  0.51100000000E-03 0.  1.
         11   -1    0    0    0    0 -0.00000000000E+00 -0.00000000000E+00 -0.45593999997E+02  0.45594000000E+02  0.51100000000E-03 0. -1.
    9900012    2    1    2    0    0 -0.68859284352E+00  0.92436504919E+00  0.25369094375E+00  0.90007758523E+02  0.90000020136E+02 0.  0.
         12    1    1    2    0    0  0.68859284352E+00 -0.92436504919E+00 -0.25369094375E+00  0.11802414767E+01  0.00000000000E+00 0. -1.
         11    1    3    3    0    0 -0.96035354063E+01  0.16714139439E+02  0.13819312945E+02  0.23718426592E+02  0.51100000000E-03 0. -1.
        -11    1    3    3    0    0 -0.26706474183E+01  0.17439079134E+02  0.13235263607E+02  0.22055068389E+02  0.51100000000E-03 0.  1.
        -12    1    3    3    0    0  0.11585589981E+02 -0.33228853523E+02 -0.26800885608E+02  0.44234263542E+02  0.00000000000E+00 0.  1.
</event>
<event>
 7    1  0.2000468E-015  0.9000779E+02  0.7816164E-02  0.1186339E+00
        -11   -1    0    0    0    0  0.00000000000E+00  0.00000000000E+00  0.45593999997E+02  0.45594000000E+02  0.51100000000E-03 0.  1.
         11   -1    0    0    0    0 -0.00000000000E+00 -0.00000000000E+00 -0.45593999997E+02  0.45594000000E+02  0.51100000000E-03 0. -1.
    9900012    2    1    2    0    0  0.63427203533E+00 -0.15332065090E+00  0.98341160950E+00  0.90007785346E+02  0.90000047312E+02 0.  0.
         12    1    1    2    0    0 -0.63427203533E+00  0.15332065090E+00 -0.98341160950E+00  0.11802146544E+01  0.00000000000E+00 0. -1.
         11    1    3    3    0    0  0.76741621022E+01 -0.17906648942E+02 -0.33241196076E+02  0.38529442730E+02  0.51100000000E-03 0. -1.
        -11    1    3    3    0    0  0.85232547729E+01  0.52315808439E+01 -0.19181068233E+01  0.10183046897E+02  0.51100000000E-03 0.  1.
        -12    1    3    3    0    0 -0.15563144840E+02  0.12521747447E+02  0.36142714509E+02  0.41295295719E+02  0.00000000000E+00 0.  1.
</event>
<event>
 7    1  0.2000468E-015  0.9000746E+02  0.7816164E-02  0.1186340E+00
        -11   -1    0    0    0    0  0.00000000000E+00  0.00000000000E+00  0.45593999997E+02  0.45594000000E+02  0.51100000000E-03 0. -1.
         11   -1    0    0    0    0 -0.00000000000E+00 -0.00000000000E+00 -0.45593999997E+02  0.45594000000E+02  0.51100000000E-03 0.  1.
    9900012    2    1    2    0    0 -0.10377528056E+01 -0.82815346094E-01  0.55666694646E+00  0.90007463107E+02  0.89999720819E+02 0.  0.
         12    1    1    2    0    0  0.10377528056E+01  0.82815346094E-01 -0.55666694646E+00  0.11805368932E+01  0.00000000000E+00 0. -1.
         11    1    3    3    0    0 -0.11204778040E+01 -0.11118173115E+02 -0.55453188666E+01  0.12474766752E+02  0.51100000000E-03 0. -1.
        -11    1    3    3    0    0  0.75955354869E+00 -0.20921892947E+01 -0.34645752344E+02  0.34717176345E+02  0.51100000000E-03 0.  1.
         12    1    3    3    0    0 -0.67682855022E+00  0.13127547064E+02  0.40747738157E+02  0.42815520010E+02  0.00000000000E+00 0. -1.
</event>
<event>
 7    1  0.2000468E-015  0.9000775E+02  0.7816164E-02  0.1186339E+00
        -11   -1    0    0    0    0  0.00000000000E+00  0.00000000000E+00  0.45593999997E+02  0.45594000000E+02  0.51100000000E-03 0.  1.
         11   -1    0    0    0    0 -0.00000000000E+00 -0.00000000000E+00 -0.45593999997E+02  0.45594000000E+02  0.51100000000E-03 0. -1.
    9900012    2    1    2    0    0  0.82173763057E-03  0.11796745709E+01 -0.36779830392E-01  0.90007751923E+02  0.90000013448E+02 0.  0.
         12    1    1    2    0    0 -0.82173763058E-03 -0.11796745709E+01  0.36779830392E-01  0.11802480775E+01  0.00000000000E+00 0. -1.
         11    1    3    3    0    0 -0.37634838288E+02  0.17656541763E+02  0.42245280590E+01  0.41784939363E+02  0.51100000000E-03 0. -1.
        -11    1    3    3    0    0  0.26063477678E+01  0.17091136505E+01 -0.79918960005E+01  0.85781419959E+01  0.51100000000E-03 0.  1.
        -12    1    3    3    0    0  0.35029312258E+02 -0.18185980843E+02  0.37305881111E+01  0.39644670564E+02  0.00000000000E+00 0.  1.
</event>
<event>
 7    1  0.2000468E-015  0.9000790E+02  0.7816164E-02  0.1186339E+00
        -11   -1    0    0    0    0  0.00000000000E+00  0.00000000000E+00  0.45593999997E+02  0.45594000000E+02  0.51100000000E-03 0.  1.
         11   -1    0    0    0    0 -0.00000000000E+00 -0.00000000000E+00 -0.45593999997E+02  0.45594000000E+02  0.51100000000E-03 0. -1.
    9900012    2    1    2    0    0 -0.95585128498E-01  0.11720220507E+01 -0.99331411943E-01  0.90007898761E+02  0.90000162225E+02 0.  0.
         12    1    1    2    0    0  0.95585128498E-01 -0.11720220507E+01  0.99331411943E-01  0.11801012386E+01  0.00000000000E+00 0. -1.
         11    1    3    3    0    0 -0.32213726514E+02 -0.58490458338E+01 -0.14690753359E+02  0.35885285948E+02  0.51100000000E-03 0. -1.
        -11    1    3    3    0    0 -0.88716763472E+01  0.51417014961E+01 -0.82999398837E+00  0.10287498518E+02  0.51100000000E-03 0.  1.
        -12    1    3    3    0    0  0.40989817732E+02  0.18793663883E+01  0.15421415936E+02  0.43835114295E+02  0.00000000000E+00 0.  1.
</event>
<event>
 7    1  0.2000468E-015  0.9000775E+02  0.7816164E-02  0.1186339E+00
        -11   -1    0    0    0    0  0.00000000000E+00  0.00000000000E+00  0.45593999997E+02  0.45594000000E+02  0.51100000000E-03 0.  1.
         11   -1    0    0    0    0 -0.00000000000E+00 -0.00000000000E+00 -0.45593999997E+02  0.45594000000E+02  0.51100000000E-03 0. -1.
    9900012    2    1    2    0    0 -0.10529476323E+01 -0.28154040213E+00  0.45279471281E+00  0.90007751396E+02  0.90000012915E+02 0.  0.
         12    1    1    2    0    0  0.10529476323E+01  0.28154040213E+00 -0.45279471281E+00  0.11802486036E+01  0.00000000000E+00 0. -1.
         11    1    3    3    0    0  0.19431174838E+02 -0.26663022522E+02  0.29571115801E+01  0.33124489955E+02  0.51100000000E-03 0. -1.
        -11    1    3    3    0    0  0.14088267968E+02  0.13861887969E+01 -0.10897896884E+01  0.14198184939E+02  0.51100000000E-03 0.  1.
        -12    1    3    3    0    0 -0.34572390439E+02  0.24995293323E+02 -0.14145271789E+01  0.42685076503E+02  0.00000000000E+00 0.  1.
</event>
<event>
 7    1  0.2000468E-015  0.9000767E+02  0.7816164E-02  0.1186339E+00
        -11   -1    0    0    0    0  0.00000000000E+00  0.00000000000E+00  0.45593999997E+02  0.45594000000E+02  0.51100000000E-03 0. -1.
         11   -1    0    0    0    0 -0.00000000000E+00 -0.00000000000E+00 -0.45593999997E+02  0.45594000000E+02  0.51100000000E-03 0.  1.
    9900012    2    1    2    0    0 -0.59038792832E+00  0.98071087479E+00  0.28780839197E+00  0.90007667252E+02  0.89999927660E+02 0.  0.
         12    1    1    2    0    0  0.59038792832E+00 -0.98071087479E+00 -0.28780839197E+00  0.11803327481E+01  0.00000000000E+00 0. -1.
         11    1    3    3    0    0 -0.11477256759E+02  0.32816523755E+01  0.39064357347E+02  0.40847529671E+02  0.51100000000E-03 0. -1.
        -11    1    3    3    0    0  0.11320048610E+02 -0.40392142709E+01 -0.18151970080E+01  0.12155397686E+02  0.51100000000E-03 0.  1.
        -12    1    3    3    0    0 -0.43317977937E+00  0.17382727701E+01 -0.36961351947E+02  0.37004739895E+02  0.00000000000E+00 0.  1.
</event>
<event>
 7    1  0.2000468E-015  0.9000779E+02  0.7816164E-02  0.1186339E+00
        -11   -1    0    0    0    0  0.00000000000E+00  0.00000000000E+00  0.45593999997E+02  0.45594000000E+02  0.51100000000E-03 0.  1.
         11   -1    0    0    0    0 -0.00000000000E+00 -0.00000000000E+00 -0.45593999997E+02  0.45594000000E+02  0.51100000000E-03 0. -1.
    9900012    2    1    2    0    0 -0.69896780347E+00 -0.93401614734E+00  0.17873069562E+00  0.90007793740E+02  0.90000055818E+02 0.  0.
         12    1    1    2    0    0  0.69896780347E+00  0.93401614734E+00 -0.17873069562E+00  0.11802062597E+01  0.00000000000E+00 0. -1.
         11    1    3    3    0    0 -0.55761916049E+01 -0.90751299604E+01  0.65107292538E+00  0.10671260133E+02  0.51100000000E-03 0. -1.
        -11    1    3    3    0    0  0.28111963843E+02 -0.24518222382E+02 -0.89688013442E+01  0.38364894600E+02  0.51100000000E-03 0.  1.
         12    1    3    3    0    0 -0.23234740041E+02  0.32659336195E+02  0.84964591144E+01  0.40971639007E+02  0.00000000000E+00 0. -1.
</event>
<event>
 7    1  0.2000468E-015  0.9000774E+02  0.7816164E-02  0.1186339E+00
        -11   -1    0    0    0    0  0.00000000000E+00  0.00000000000E+00  0.45593999997E+02  0.45594000000E+02  0.51100000000E-03 0. -1.
         11   -1    0    0    0    0 -0.00000000000E+00 -0.00000000000E+00 -0.45593999997E+02  0.45594000000E+02  0.51100000000E-03 0.  1.
    9900012    2    1    2    0    0  0.63825718276E-01  0.11728568712E+01  0.11554271976E+00  0.90007738553E+02  0.89999999902E+02 0.  0.
         12    1    1    2    0    0 -0.63825718276E-01 -0.11728568712E+01 -0.11554271976E+00  0.11802614467E+01  0.00000000000E+00 0. -1.
         11    1    3    3    0    0  0.10743490755E+02 -0.15901679957E+02  0.15696894524E+02  0.24792710965E+02  0.51100000000E-03 0. -1.
        -11    1    3    3    0    0  0.81910278505E+01  0.29247636570E+02  0.92356298051E+01  0.31746087008E+02  0.51100000000E-03 0.  1.
        -12    1    3    3    0    0 -0.18870692887E+02 -0.12173099742E+02 -0.24816981610E+02  0.33468940580E+02  0.00000000000E+00 0.  1.
</event>
<event>
 7    1  0.2000468E-015  0.9000783E+02  0.7816164E-02  0.1186339E+00
        -11   -1    0    0    0    0  0.00000000000E+00  0.00000000000E+00  0.45593999997E+02  0.45594000000E+02  0.51100000000E-03 0. -1.
         11   -1    0    0    0    0 -0.00000000000E+00 -0.00000000000E+00 -0.45593999997E+02  0.45594000000E+02  0.51100000000E-03 0.  1.
    9900012    2    1    2    0    0 -0.75198877934E+00  0.36178321283E+00 -0.83451608048E+00  0.90007834204E+02  0.90000096815E+02 0.  0.
         12    1    1    2    0    0  0.75198877934E+00 -0.36178321283E+00  0.83451608048E+00  0.11801657959E+01  0.00000000000E+00 0. -1.
         11    1    3    3    0    0  0.11413812218E+01  0.80229945855E+00 -0.60057507358E+01  0.61656692805E+01  0.51100000000E-03 0. -1.
        -11    1    3    3    0    0 -0.33345653325E+02  0.17335743364E+02 -0.17217903578E+02  0.41339046887E+02  0.51100000000E-03 0.  1.
         12    1    3    3    0    0  0.31452283324E+02 -0.17776259610E+02  0.22389138233E+02  0.42503118036E+02  0.00000000000E+00 0. -1.
</event>
<event>
 7    1  0.2000468E-015  0.9000779E+02  0.7816164E-02  0.1186339E+00
        -11   -1    0    0    0    0  0.00000000000E+00  0.00000000000E+00  0.45593999997E+02  0.45594000000E+02  0.51100000000E-03 0. -1.
         11   -1    0    0    0    0 -0.00000000000E+00 -0.00000000000E+00 -0.45593999997E+02  0.45594000000E+02  0.51100000000E-03 0.  1.
    9900012    2    1    2    0    0  0.25428033537E+00  0.10971426519E+01 -0.35286961031E+00  0.90007789235E+02  0.90000051253E+02 0.  0.
         12    1    1    2    0    0 -0.25428033537E+00 -0.10971426519E+01  0.35286961031E+00  0.11802107649E+01  0.00000000000E+00 0. -1.
         11    1    3    3    0    0  0.27604874299E+02 -0.24392414075E+02 -0.11596024880E+02  0.38619771396E+02  0.51100000000E-03 0. -1.
        -11    1    3    3    0    0 -0.31470939036E+01 -0.13494933188E+01 -0.92346501866E+01  0.98490657722E+01  0.51100000000E-03 0.  1.
        -12    1    3    3    0    0 -0.24203500060E+02  0.26839050045E+02  0.20477805456E+02  0.41538952066E+02  0.00000000000E+00 0.  1.
</event>
<event>
 7    1  0.2000468E-015  0.9000772E+02  0.7816164E-02  0.1186339E+00
        -11   -1    0    0    0    0  0.00000000000E+00  0.00000000000E+00  0.45593999997E+02  0.45594000000E+02  0.51100000000E-03 0. -1.
         11   -1    0    0    0    0 -0.00000000000E+00 -0.00000000000E+00 -0.45593999997E+02  0.45594000000E+02  0.51100000000E-03 0.  1.
    9900012    2    1    2    0    0  0.68737347319E+00 -0.52835808564E+00  0.80088341690E+00  0.90007720878E+02  0.89999981994E+02 0.  0.
         12    1    1    2    0    0 -0.68737347319E+00  0.52835808564E+00 -0.80088341690E+00  0.11802791220E+01  0.00000000000E+00 0. -1.
         11    1    3    3    0    0  0.13204193913E+02 -0.26872163247E+02  0.19005760258E+02  0.35463824071E+02  0.51100000000E-03 0. -1.
        -11    1    3    3    0    0  0.53960784156E+01 -0.65806518365E+01  0.55577717083E+01  0.10164224884E+02  0.51100000000E-03 0.  1.
        -12    1    3    3    0    0 -0.17912898855E+02  0.32924456998E+02 -0.23762648549E+02  0.44379671924E+02  0.00000000000E+00 0.  1.
</event>
<event>
 7    1  0.2000468E-015  0.9000770E+02  0.7816164E-02  0.1186339E+00
        -11   -1    0    0    0    0  0.00000000000E+00  0.00000000000E+00  0.45593999997E+02  0.45594000000E+02  0.51100000000E-03 0. -1.
         11   -1    0    0    0    0 -0.00000000000E+00 -0.00000000000E+00 -0.45593999997E+02  0.45594000000E+02  0.51100000000E-03 0.  1.
    9900012    2    1    2    0    0 -0.90465955017E+00  0.55661071258E+00  0.51465820663E+00  0.90007704504E+02  0.89999965404E+02 0.  0.
         12    1    1    2    0    0  0.90465955017E+00 -0.55661071258E+00 -0.51465820663E+00  0.11802954955E+01  0.00000000000E+00 0. -1.
         11    1    3    3    0    0  0.57332518252E+01 -0.62147510436E+01  0.35719175711E+01  0.91788835063E+01  0.51100000000E-03 0. -1.
        -11    1    3    3    0    0  0.25163168077E+02  0.30312946472E+02  0.69781073894E+01  0.40009420572E+02  0.51100000000E-03 0.  1.
         12    1    3    3    0    0 -0.31801079453E+02 -0.23541584716E+02 -0.10035366754E+02  0.40819400426E+02  0.00000000000E+00 0. -1.
</event>
<event>
 7    1  0.2000468E-015  0.9000775E+02  0.7816164E-02  0.1186339E+00
        -11   -1    0    0    0    0  0.00000000000E+00  0.00000000000E+00  0.45593999997E+02  0.45594000000E+02  0.51100000000E-03 0. -1.
         11   -1    0    0    0    0 -0.00000000000E+00 -0.00000000000E+00 -0.45593999997E+02  0.45594000000E+02  0.51100000000E-03 0.  1.
    9900012    2    1    2    0    0 -0.10630365335E+01  0.39803046803E+00 -0.32327625535E+00  0.90007753220E+02  0.90000014762E+02 0.  0.
         12    1    1    2    0    0  0.10630365335E+01 -0.39803046803E+00  0.32327625535E+00  0.11802467803E+01  0.00000000000E+00 0. -1.
         11    1    3    3    0    0  0.33803168992E+02  0.27416775133E+02  0.30019029801E+01  0.43627344801E+02  0.51100000000E-03 0. -1.
        -11    1    3    3    0    0 -0.45312405683E+01 -0.76588582943E+01 -0.52687120326E+01  0.10341642916E+02  0.51100000000E-03 0.  1.
        -12    1    3    3    0    0 -0.30334964957E+02 -0.19359886371E+02  0.19435327972E+01  0.36038765503E+02  0.00000000000E+00 0.  1.
</event>
<event>
 7    1  0.2000468E-015  0.9000769E+02  0.7816164E-02  0.1186339E+00
        -11   -1    0    0    0    0  0.00000000000E+00  0.00000000000E+00  0.45593999997E+02  0.45594000000E+02  0.51100000000E-03 0.  1.
         11   -1    0    0    0    0 -0.00000000000E+00 -0.00000000000E+00 -0.45593999997E+02  0.45594000000E+02  0.51100000000E-03 0. -1.
    9900012    2    1    2    0    0  0.36163480194E+00 -0.81124737135E+00  0.77732609318E+00  0.90007687379E+02  0.89999948053E+02 0.  0.
         12    1    1    2    0    0 -0.36163480194E+00  0.81124737135E+00 -0.77732609318E+00  0.11803126207E+01  0.00000000000E+00 0. -1.
         11    1    3    3    0    0  0.74342849522E+01 -0.14265961008E+01  0.74243308287E+01  0.10603040022E+02  0.51100000000E-03 0. -1.
        -11    1    3    3    0    0  0.13073556776E+02 -0.34055591564E+02  0.68073537192E+01  0.37108506686E+02  0.51100000000E-03 0.  1.
         12    1    3    3    0    0 -0.20146206926E+02  0.34670940293E+02 -0.13454358455E+02  0.42296140672E+02  0.00000000000E+00 0. -1.
</event>
<event>
 7    1  0.2000468E-015  0.9000779E+02  0.7816164E-02  0.1186339E+00
        -11   -1    0    0    0    0  0.00000000000E+00  0.00000000000E+00  0.45593999997E+02  0.45594000000E+02  0.51100000000E-03 0.  1.
         11   -1    0    0    0    0 -0.00000000000E+00 -0.00000000000E+00 -0.45593999997E+02  0.45594000000E+02  0.51100000000E-03 0. -1.
    9900012    2    1    2    0    0 -0.71472305478E-01  0.98364124794E+00  0.64826482270E+00  0.90007785750E+02  0.90000047722E+02 0.  0.
         12    1    1    2    0    0  0.71472305478E-01 -0.98364124794E+00 -0.64826482270E+00  0.11802142498E+01  0.00000000000E+00 0. -1.
         11    1    3    3    0    0  0.28594119238E+02 -0.19092417775E+02  0.15750566189E+02  0.37818307829E+02  0.51100000000E-03 0. -1.
        -11    1    3    3    0    0  0.59304993664E+01 -0.40578986675E+01 -0.51735111507E+01  0.88545232632E+01  0.51100000000E-03 0.  1.
        -12    1    3    3    0    0 -0.34596090910E+02  0.24133957691E+02 -0.99287902157E+01  0.43334954658E+02  0.00000000000E+00 0.  1.
</event>
<event>
 7    1  0.2000468E-015  0.9000773E+02  0.7816164E-02  0.1186339E+00
        -11   -1    0    0    0    0  0.00000000000E+00  0.00000000000E+00  0.45593999997E+02  0.45594000000E+02  0.51100000000E-03 0.  1.
         11   -1    0    0    0    0 -0.00000000000E+00 -0.00000000000E+00 -0.45593999997E+02  0.45594000000E+02  0.51100000000E-03 0. -1.
    9900012    2    1    2    0    0 -0.25707524587E+00  0.16232844106E+00  0.11404336005E+01  0.90007734351E+02  0.89999995645E+02 0.  0.
         12    1    1    2    0    0  0.25707524587E+00 -0.16232844106E+00 -0.11404336005E+01  0.11802656489E+01  0.00000000000E+00 0. -1.
         11    1    3    3    0    0  0.29692263490E+02 -0.29395574074E+02 -0.12434286289E+02  0.43592909539E+02  0.51100000000E-03 0. -1.
        -11    1    3    3    0    0 -0.65144457098E+01  0.74610569163E+01 -0.27845549889E+01  0.10288786127E+02  0.51100000000E-03 0.  1.
        -12    1    3    3    0    0 -0.23434893026E+02  0.22096845599E+02  0.16359274878E+02  0.36126038685E+02  0.00000000000E+00 0.  1.
</event>
<event>
 7    1  0.2000468E-015  0.9000761E+02  0.7816164E-02  0.1186339E+00
        -11   -1    0    0    0    0  0.00000000000E+00  0.00000000000E+00  0.45593999997E+02  0.45594000000E+02  0.51100000000E-03 0. -1.
         11   -1    0    0    0    0 -0.00000000000E+00 -0.00000000000E+00 -0.45593999997E+02  0.45594000000E+02  0.51100000000E-03 0.  1.
    9900012    2    1    2    0    0 -0.94149838451E+00 -0.67436733720E+00  0.22834142805E+00  0.90007605862E+02  0.89999865459E+02 0.  0.
         12    1    1    2    0    0  0.94149838451E+00  0.67436733720E+00 -0.22834142805E+00  0.11803941381E+01  0.00000000000E+00 0. -1.
         11    1    3    3    0    0  0.21387310682E+00 -0.80500484650E+01 -0.46719684527E+01  0.93100113576E+01  0.51100000000E-03 0. -1.
        -11    1    3    3    0    0 -0.39907678145E+02 -0.40182330105E+01  0.10691829787E+01  0.40123710247E+02  0.51100000000E-03 0.  1.
         12    1    3    3    0    0  0.38752306654E+02  0.11393914138E+02  0.38311269020E+01  0.40573884257E+02  0.00000000000E+00 0. -1.
</event>
<event>
 7    1  0.3149774E-015  0.9000778E+02  0.7816164E-02  0.1186339E+00
        -11   -1    0    0    0    0  0.00000000000E+00  0.00000000000E+00  0.45593999997E+02  0.45594000000E+02  0.51100000000E-03 0.  1.
         11   -1    0    0    0    0 -0.00000000000E+00 -0.00000000000E+00 -0.45593999997E+02  0.45594000000E+02  0.51100000000E-03 0. -1.
    9900012    2    1    2    0    0 -0.58870346841E-01 -0.92577211185E+00  0.72965208229E+00  0.90007783121E+02  0.90000045058E+02 0.  0.
         12    1    1    2    0    0  0.58870346841E-01  0.92577211185E+00 -0.72965208229E+00  0.11802168792E+01  0.00000000000E+00 0. -1.
         11    1    3    3    0    0  0.65836408848E+01 -0.35521542661E+02 -0.96961819778E+01  0.37405083418E+02  0.51100000000E-03 0. -1.
        -11    1    3    3    0    0  0.80012749028E+01 -0.49358204710E+01  0.20423393038E+01  0.96204923930E+01  0.51100000000E-03 0.  1.
        -12    1    3    3    0    0 -0.14643786134E+02  0.39531591020E+02  0.83834947563E+01  0.42982207310E+02  0.00000000000E+00 0.  1.
</event>
<event>
 7    1  0.2000468E-015  0.9000771E+02  0.7816164E-02  0.1186339E+00
        -11   -1    0    0    0    0  0.00000000000E+00  0.00000000000E+00  0.45593999997E+02  0.45594000000E+02  0.51100000000E-03 0.  1.
         11   -1    0    0    0    0 -0.00000000000E+00 -0.00000000000E+00 -0.45593999997E+02  0.45594000000E+02  0.51100000000E-03 0. -1.
    9900012    2    1    2    0    0  0.82919362041E+00  0.72022267628E+00  0.43219218820E+00  0.90007714928E+02  0.89999975965E+02 0.  0.
         12    1    1    2    0    0 -0.82919362041E+00 -0.72022267628E+00 -0.43219218820E+00  0.11802850720E+01  0.00000000000E+00 0. -1.
         11    1    3    3    0    0  0.15232916156E+02  0.93505814126E+01 -0.31962555691E+02  0.36620760150E+02  0.51100000000E-03 0. -1.
        -11    1    3    3    0    0 -0.13094752202E+02 -0.68712864499E+01 -0.52395403391E+01  0.15688846227E+02  0.51100000000E-03 0.  1.
        -12    1    3    3    0    0 -0.13089703339E+01 -0.17590722865E+01  0.37634288218E+02  0.37698108551E+02  0.00000000000E+00 0.  1.
</event>
<event>
 7    1  0.2000468E-015  0.9000781E+02  0.7816164E-02  0.1186339E+00
        -11   -1    0    0    0    0  0.00000000000E+00  0.00000000000E+00  0.45593999997E+02  0.45594000000E+02  0.51100000000E-03 0. -1.
         11   -1    0    0    0    0 -0.00000000000E+00 -0.00000000000E+00 -0.45593999997E+02  0.45594000000E+02  0.51100000000E-03 0.  1.
    9900012    2    1    2    0    0 -0.64493911360E+00  0.13528163401E+00 -0.97907861100E+00  0.90007812512E+02  0.90000074837E+02 0.  0.
         12    1    1    2    0    0  0.64493911360E+00 -0.13528163401E+00  0.97907861100E+00  0.11801874882E+01  0.00000000000E+00 0. -1.
         11    1    3    3    0    0 -0.14190487669E+02  0.90794421160E+01 -0.91123027774E+01  0.19153074730E+02  0.51100000000E-03 0. -1.
        -11    1    3    3    0    0 -0.19161118105E+02  0.15452060040E+02 -0.95257085851E+01  0.26394198810E+02  0.51100000000E-03 0.  1.
        -12    1    3    3    0    0  0.32706666661E+02 -0.24396220522E+02  0.17658932751E+02  0.44460538972E+02  0.00000000000E+00 0.  1.
</event>
<event>
 7    1  0.2000468E-015  0.9000773E+02  0.7816164E-02  0.1186339E+00
        -11   -1    0    0    0    0  0.00000000000E+00  0.00000000000E+00  0.45593999997E+02  0.45594000000E+02  0.51100000000E-03 0. -1.
         11   -1    0    0    0    0 -0.00000000000E+00 -0.00000000000E+00 -0.45593999997E+02  0.45594000000E+02  0.51100000000E-03 0.  1.
    9900012    2    1    2    0    0 -0.78833253465E+00 -0.85693310490E+00  0.19297387375E+00  0.90007728232E+02  0.89999989444E+02 0.  0.
         12    1    1    2    0    0  0.78833253465E+00  0.85693310490E+00 -0.19297387375E+00  0.11802717685E+01  0.00000000000E+00 0. -1.
         11    1    3    3    0    0 -0.37341510029E+02 -0.50030018633E+01 -0.59092743169E+00  0.37679803535E+02  0.51100000000E-03 0. -1.
        -11    1    3    3    0    0 -0.95225587330E-01 -0.58489931092E+01 -0.11081728393E+02  0.12530941415E+02  0.51100000000E-03 0.  1.
        -12    1    3    3    0    0  0.36648403082E+02  0.99950618676E+01  0.11865629699E+02  0.39796983282E+02  0.00000000000E+00 0.  1.
</event>
<event>
 7    1  0.2000468E-015  0.9000776E+02  0.7816164E-02  0.1186339E+00
        -11   -1    0    0    0    0  0.00000000000E+00  0.00000000000E+00  0.45593999997E+02  0.45594000000E+02  0.51100000000E-03 0. -1.
         11   -1    0    0    0    0 -0.00000000000E+00 -0.00000000000E+00 -0.45593999997E+02  0.45594000000E+02  0.51100000000E-03 0.  1.
    9900012    2    1    2    0    0 -0.29925912420E+00 -0.94601536473E+00  0.63911114892E+00  0.90007760976E+02  0.90000022621E+02 0.  0.
         12    1    1    2    0    0  0.29925912420E+00  0.94601536473E+00 -0.63911114892E+00  0.11802390243E+01  0.00000000000E+00 0. -1.
         11    1    3    3    0    0  0.18132342396E+02  0.71266779373E+01  0.32640409812E+02  0.38012731185E+02  0.51100000000E-03 0. -1.
        -11    1    3    3    0    0 -0.95406238261E+00 -0.68131053715E+01  0.66430939905E+01  0.95634375546E+01  0.51100000000E-03 0.  1.
        -12    1    3    3    0    0 -0.17477539138E+02 -0.12595879306E+01 -0.38644392654E+02  0.42431592236E+02  0.00000000000E+00 0.  1.
</event>
<event>
 7    1  0.2000468E-015  0.9000774E+02  0.7816164E-02  0.1186339E+00
        -11   -1    0    0    0    0  0.00000000000E+00  0.00000000000E+00  0.45593999997E+02  0.45594000000E+02  0.51100000000E-03 0.  1.
         11   -1    0    0    0    0 -0.00000000000E+00 -0.00000000000E+00 -0.45593999997E+02  0.45594000000E+02  0.51100000000E-03 0. -1.
    9900012    2    1    2    0    0  0.54875087507E+00 -0.31002884354E+00  0.99787731426E+00  0.90007743866E+02  0.90000005285E+02 0.  0.
         12    1    1    2    0    0 -0.54875087507E+00  0.31002884354E+00 -0.99787731426E+00  0.11802561337E+01  0.00000000000E+00 0. -1.
         11    1    3    3    0    0  0.87439359630E+01 -0.19544359660E+01  0.64533333833E+01  0.11041818151E+02  0.51100000000E-03 0. -1.
        -11    1    3    3    0    0  0.25007283882E+02 -0.19606639086E+02  0.14329558399E+02  0.34858582696E+02  0.51100000000E-03 0.  1.
         12    1    3    3    0    0 -0.33202468970E+02  0.21251046209E+02 -0.19785014468E+02  0.44107343019E+02  0.00000000000E+00 0. -1.
</event>
<event>
 7    1  0.2000468E-015  0.9000767E+02  0.7816164E-02  0.1186339E+00
        -11   -1    0    0    0    0  0.00000000000E+00  0.00000000000E+00  0.45593999997E+02  0.45594000000E+02  0.51100000000E-03 0.  1.
         11   -1    0    0    0    0 -0.00000000000E+00 -0.00000000000E+00 -0.45593999997E+02  0.45594000000E+02  0.51100000000E-03 0. -1.
    9900012    2    1    2    0    0  0.66922314379E+00  0.63263249653E+00 -0.73830146960E+00  0.90007672693E+02  0.89999933172E+02 0.  0.
         12    1    1    2    0    0 -0.66922314379E+00 -0.63263249653E+00  0.73830146960E+00  0.11803273071E+01  0.00000000000E+00 0. -1.
         11    1    3    3    0    0 -0.57691545330E+01 -0.61273758252E+00  0.77516176301E+01  0.96822604549E+01  0.51100000000E-03 0. -1.
        -11    1    3    3    0    0  0.19172790853E+02 -0.35312859076E+02 -0.10595674770E+02  0.41555532114E+02  0.51100000000E-03 0.  1.
         12    1    3    3    0    0 -0.12734413176E+02  0.36558229155E+02  0.21057556706E+01  0.38769880124E+02  0.00000000000E+00 0. -1.
</event>
<event>
 7    1  0.2141945E-015  0.9000775E+02  0.7816164E-02  0.1186339E+00
        -11   -1    0    0    0    0  0.00000000000E+00  0.00000000000E+00  0.45593999997E+02  0.45594000000E+02  0.51100000000E-03 0. -1.
         11   -1    0    0    0    0 -0.00000000000E+00 -0.00000000000E+00 -0.45593999997E+02  0.45594000000E+02  0.51100000000E-03 0.  1.
    9900012    2    1    2    0    0 -0.94933420989E+00 -0.36798738270E+00 -0.59694324137E+00  0.90007749438E+02  0.90000010930E+02 0.  0.
         12    1    1    2    0    0  0.94933420989E+00  0.36798738270E+00  0.59694324137E+00  0.11802505621E+01  0.00000000000E+00 0. -1.
         11    1    3    3    0    0  0.14026891911E+02 -0.27121324575E+02  0.25935586051E+02  0.40062133835E+02  0.51100000000E-03 0. -1.
        -11    1    3    3    0    0 -0.77140251847E+01  0.11929422331E+01  0.45642987630E+01  0.90422408274E+01  0.51100000000E-03 0.  1.
        -12    1    3    3    0    0 -0.72622009365E+01  0.25560394959E+02 -0.31096828055E+02  0.40903374775E+02  0.00000000000E+00 0.  1.
</event>
<event>
 7    1  0.3043243E-015  0.9000777E+02  0.7816164E-02  0.1186339E+00
        -11   -1    0    0    0    0  0.00000000000E+00  0.00000000000E+00  0.45593999997E+02  0.45594000000E+02  0.51100000000E-03 0. -1.
         11   -1    0    0    0    0 -0.00000000000E+00 -0.00000000000E+00 -0.45593999997E+02  0.45594000000E+02  0.51100000000E-03 0.  1.
    9900012    2    1    2    0    0  0.82677592083E+00  0.26460845641E+00 -0.79960457250E+00  0.90007769713E+02  0.90000031473E+02 0.  0.
         12    1    1    2    0    0 -0.82677592083E+00 -0.26460845641E+00  0.79960457250E+00  0.11802302872E+01  0.00000000000E+00 0. -1.
         11    1    3    3    0    0  0.20066350517E+02  0.11258793925E+02  0.27441268940E+02  0.35811200832E+02  0.51100000000E-03 0. -1.
        -11    1    3    3    0    0  0.66076529673E+01 -0.11260607118E+01  0.68011254096E+01  0.95490521813E+01  0.51100000000E-03 0.  1.
        -12    1    3    3    0    0 -0.25847227564E+02 -0.98681247563E+01 -0.35041998923E+02  0.44647516699E+02  0.00000000000E+00 0.  1.
</event>
<event>
 7    1  0.2000468E-015  0.9000765E+02  0.7816164E-02  0.1186339E+00
        -11   -1    0    0    0    0  0.00000000000E+00  0.00000000000E+00  0.45593999997E+02  0.45594000000E+02  0.51100000000E-03 0. -1.
         11   -1    0    0    0    0 -0.00000000000E+00 -0.00000000000E+00 -0.45593999997E+02  0.45594000000E+02  0.51100000000E-03 0.  1.
    9900012    2    1    2    0    0  0.11207144427E+01  0.35317204878E+00  0.11174884379E+00  0.90007652948E+02  0.89999913167E+02 0.  0.
         12    1    1    2    0    0 -0.11207144427E+01 -0.35317204878E+00 -0.11174884379E+00  0.11803470516E+01  0.00000000000E+00 0. -1.
         11    1    3    3    0    0 -0.23150081824E+01  0.71794895171E+01 -0.33953852846E+01  0.82724225051E+01  0.51100000000E-03 0. -1.
        -11    1    3    3    0    0 -0.31831818533E+02  0.80865948098E+01 -0.18374071050E+02  0.37633285452E+02  0.51100000000E-03 0.  1.
         12    1    3    3    0    0  0.35267541158E+02 -0.14912912278E+02  0.21881205178E+02  0.44101944991E+02  0.00000000000E+00 0. -1.
</event>
<event>
 7    1  0.2000468E-015  0.9000787E+02  0.7816164E-02  0.1186339E+00
        -11   -1    0    0    0    0  0.00000000000E+00  0.00000000000E+00  0.45593999997E+02  0.45594000000E+02  0.51100000000E-03 0.  1.
         11   -1    0    0    0    0 -0.00000000000E+00 -0.00000000000E+00 -0.45593999997E+02  0.45594000000E+02  0.51100000000E-03 0. -1.
    9900012    2    1    2    0    0  0.39192227957E+00 -0.10904468303E+01  0.22366741072E+00  0.90007870993E+02  0.90000134090E+02 0.  0.
         12    1    1    2    0    0 -0.39192227957E+00  0.10904468303E+01 -0.22366741072E+00  0.11801290071E+01  0.00000000000E+00 0. -1.
         11    1    3    3    0    0  0.56168137296E+01 -0.84653708714E+01 -0.29854639791E+00  0.10163672106E+02  0.51100000000E-03 0. -1.
        -11    1    3    3    0    0 -0.33096291498E+02 -0.21091227558E+02  0.57476230862E+01  0.39664084034E+02  0.51100000000E-03 0.  1.
         12    1    3    3    0    0  0.27871400048E+02  0.28466151599E+02 -0.52254092775E+01  0.40180114853E+02  0.00000000000E+00 0. -1.
</event>
<event>
 7    1  0.2000468E-015  0.9000773E+02  0.7816164E-02  0.1186339E+00
        -11   -1    0    0    0    0  0.00000000000E+00  0.00000000000E+00  0.45593999997E+02  0.45594000000E+02  0.51100000000E-03 0.  1.
         11   -1    0    0    0    0 -0.00000000000E+00 -0.00000000000E+00 -0.45593999997E+02  0.45594000000E+02  0.51100000000E-03 0. -1.
    9900012    2    1    2    0    0 -0.40494018870E+00 -0.21429396200E+00  0.10877225543E+01  0.90007729347E+02  0.89999990575E+02 0.  0.
         12    1    1    2    0    0  0.40494018870E+00  0.21429396200E+00 -0.10877225543E+01  0.11802706527E+01  0.00000000000E+00 0. -1.
         11    1    3    3    0    0 -0.67424890764E+01 -0.36367782496E+01  0.47608427660E-01  0.76609125961E+01  0.51100000000E-03 0. -1.
        -11    1    3    3    0    0 -0.19776623840E+02 -0.32099968506E+02  0.52109425528E+01  0.38061486455E+02  0.51100000000E-03 0.  1.
         12    1    3    3    0    0  0.26114172728E+02  0.35522452793E+02 -0.41708284261E+01  0.44285330297E+02  0.00000000000E+00 0. -1.
</event>
<event>
 7    1  0.2000468E-015  0.9000751E+02  0.7816164E-02  0.1186340E+00
        -11   -1    0    0    0    0  0.00000000000E+00  0.00000000000E+00  0.45593999997E+02  0.45594000000E+02  0.51100000000E-03 0. -1.
         11   -1    0    0    0    0 -0.00000000000E+00 -0.00000000000E+00 -0.45593999997E+02  0.45594000000E+02  0.51100000000E-03 0.  1.
    9900012    2    1    2    0    0  0.11145339234E+01  0.37495044486E-01  0.38725252382E+00  0.90007510160E+02  0.89999768494E+02 0.  0.
         12    1    1    2    0    0 -0.11145339234E+01 -0.37495044486E-01 -0.38725252382E+00  0.11804898398E+01  0.00000000000E+00 0. -1.
         11    1    3    3    0    0  0.24790057873E+02  0.32259226987E+02  0.11514477721E+02  0.42282240865E+02  0.51100000000E-03 0. -1.
        -11    1    3    3    0    0 -0.58868141198E+01 -0.46152264336E+00  0.51631925169E+01  0.78438600739E+01  0.51100000000E-03 0.  1.
        -12    1    3    3    0    0 -0.17788709830E+02 -0.31760209299E+02 -0.16290417715E+02  0.39881409221E+02  0.00000000000E+00 0.  1.
</event>
<event>
 7    1  0.2000468E-015  0.9000775E+02  0.7816164E-02  0.1186339E+00
        -11   -1    0    0    0    0  0.00000000000E+00  0.00000000000E+00  0.45593999997E+02  0.45594000000E+02  0.51100000000E-03 0. -1.
         11   -1    0    0    0    0 -0.00000000000E+00 -0.00000000000E+00 -0.45593999997E+02  0.45594000000E+02  0.51100000000E-03 0.  1.
    9900012    2    1    2    0    0 -0.64885297998E+00 -0.79902087805E+00 -0.57753472670E+00  0.90007749639E+02  0.90000011135E+02 0.  0.
         12    1    1    2    0    0  0.64885297998E+00  0.79902087805E+00  0.57753472670E+00  0.11802503606E+01  0.00000000000E+00 0. -1.
         11    1    3    3    0    0 -0.43389473741E+01 -0.78409700237E+01  0.34933008729E+01  0.96182340623E+01  0.51100000000E-03 0. -1.
        -11    1    3    3    0    0 -0.37630149978E+02  0.92412931780E+01 -0.44987439859E+01  0.39008568093E+02  0.51100000000E-03 0.  1.
         12    1    3    3    0    0  0.41320244372E+02 -0.21993440323E+01  0.42790838632E+00  0.41380947484E+02  0.00000000000E+00 0. -1.
</event>
<event>
 7    1  0.2000468E-015  0.9000783E+02  0.7816164E-02  0.1186339E+00
        -11   -1    0    0    0    0  0.00000000000E+00  0.00000000000E+00  0.45593999997E+02  0.45594000000E+02  0.51100000000E-03 0.  1.
         11   -1    0    0    0    0 -0.00000000000E+00 -0.00000000000E+00 -0.45593999997E+02  0.45594000000E+02  0.51100000000E-03 0. -1.
    9900012    2    1    2    0    0  0.86978595668E+00 -0.58313815001E+00  0.54426253426E+00  0.90007830767E+02  0.90000093333E+02 0.  0.
         12    1    1    2    0    0 -0.86978595668E+00  0.58313815001E+00 -0.54426253426E+00  0.11801692331E+01  0.00000000000E+00 0. -1.
         11    1    3    3    0    0  0.21281827776E+02  0.38053209935E+02 -0.54573137560E+01  0.43940246398E+02  0.51100000000E-03 0. -1.
        -11    1    3    3    0    0 -0.85435595301E+00 -0.11929066408E+02 -0.17028213011E+01  0.12080237998E+02  0.51100000000E-03 0.  1.
        -12    1    3    3    0    0 -0.19557685866E+02 -0.26707281678E+02  0.77043975914E+01  0.33987346370E+02  0.00000000000E+00 0.  1.
</event>
<event>
 7    1  0.2000468E-015  0.9000778E+02  0.7816164E-02  0.1186339E+00
        -11   -1    0    0    0    0  0.00000000000E+00  0.00000000000E+00  0.45593999997E+02  0.45594000000E+02  0.51100000000E-03 0.  1.
         11   -1    0    0    0    0 -0.00000000000E+00 -0.00000000000E+00 -0.45593999997E+02  0.45594000000E+02  0.51100000000E-03 0. -1.
    9900012    2    1    2    0    0  0.47554902680E+00  0.82884092017E+00 -0.69267719300E+00  0.90007777207E+02  0.90000039066E+02 0.  0.
         12    1    1    2    0    0 -0.47554902680E+00 -0.82884092017E+00  0.69267719300E+00  0.11802227932E+01  0.00000000000E+00 0. -1.
         11    1    3    3    0    0 -0.61065728671E+01 -0.40628075951E+01 -0.66960335098E+01  0.99314401152E+01  0.51100000000E-03 0. -1.
        -11    1    3    3    0    0 -0.12632438076E+02 -0.89784884942E+01 -0.31847975355E+02  0.35418713724E+02  0.51100000000E-03 0.  1.
         12    1    3    3    0    0  0.19214559970E+02  0.13870137009E+02  0.37851331672E+02  0.44657623368E+02  0.00000000000E+00 0. -1.
</event>
<event>
 7    1  0.2000468E-015  0.9000766E+02  0.7816164E-02  0.1186339E+00
        -11   -1    0    0    0    0  0.00000000000E+00  0.00000000000E+00  0.45593999997E+02  0.45594000000E+02  0.51100000000E-03 0.  1.
         11   -1    0    0    0    0 -0.00000000000E+00 -0.00000000000E+00 -0.45593999997E+02  0.45594000000E+02  0.51100000000E-03 0. -1.
    9900012    2    1    2    0    0  0.91180011826E+00  0.83784846211E-01 -0.74484745076E+00  0.90007662302E+02  0.89999922644E+02 0.  0.
         12    1    1    2    0    0 -0.91180011826E+00 -0.83784846211E-01  0.74484745076E+00  0.11803376979E+01  0.00000000000E+00 0. -1.
         11    1    3    3    0    0  0.18195845319E+02  0.13727913784E+02 -0.32316311554E+02  0.39546028833E+02  0.51100000000E-03 0. -1.
        -11    1    3    3    0    0  0.90486094212E+01  0.11372990627E+01  0.62945727397E+01  0.11081174480E+02  0.51100000000E-03 0.  1.
        -12    1    3    3    0    0 -0.26332654622E+02 -0.14781428001E+02  0.25276891364E+02  0.39380458989E+02  0.00000000000E+00 0.  1.
</event>
<event>
 7    1  0.2000468E-015  0.9000772E+02  0.7816164E-02  0.1186339E+00
        -11   -1    0    0    0    0  0.00000000000E+00  0.00000000000E+00  0.45593999997E+02  0.45594000000E+02  0.51100000000E-03 0.  1.
         11   -1    0    0    0    0 -0.00000000000E+00 -0.00000000000E+00 -0.45593999997E+02  0.45594000000E+02  0.51100000000E-03 0. -1.
    9900012    2    1    2    0    0 -0.69848867231E+00 -0.57401921441E+00  0.75872571683E+00  0.90007724948E+02  0.89999986118E+02 0.  0.
         12    1    1    2    0    0  0.69848867231E+00  0.57401921441E+00 -0.75872571683E+00  0.11802750515E+01  0.00000000000E+00 0. -1.
         11    1    3    3    0    0 -0.36790573381E+01  0.82023645000E+01 -0.27354813427E+01  0.93966539111E+01  0.51100000000E-03 0. -1.
        -11    1    3    3    0    0  0.36081748831E+02  0.97334898276E+01 -0.12563297367E+02  0.39426765831E+02  0.51100000000E-03 0.  1.
         12    1    3    3    0    0 -0.33101180165E+02 -0.18509873542E+02  0.16057504427E+02  0.41184305206E+02  0.00000000000E+00 0. -1.
</event>
<event>
 7    1  0.2000468E-015  0.9000774E+02  0.7816164E-02  0.1186339E+00
        -11   -1    0    0    0    0  0.00000000000E+00  0.00000000000E+00  0.45593999997E+02  0.45594000000E+02  0.51100000000E-03 0. -1.
         11   -1    0    0    0    0 -0.00000000000E+00 -0.00000000000E+00 -0.45593999997E+02  0.45594000000E+02  0.51100000000E-03 0.  1.
    9900012    2    1    2    0    0  0.45286456312E+00 -0.87861609701E+00  0.64495170933E+00  0.90007739323E+02  0.90000000682E+02 0.  0.
         12    1    1    2    0    0 -0.45286456312E+00  0.87861609701E+00 -0.64495170933E+00  0.11802606771E+01  0.00000000000E+00 0. -1.
         11    1    3    3    0    0  0.28124562753E+02  0.64119981279E+01  0.21755522460E+02  0.36130423576E+02  0.51100000000E-03 0. -1.
        -11    1    3    3    0    0 -0.62044453018E+01  0.91852485168E+01  0.83477479940E+01  0.13876196476E+02  0.51100000000E-03 0.  1.
        -12    1    3    3    0    0 -0.21467252888E+02 -0.16475862742E+02 -0.29458318745E+02  0.40001119270E+02  0.00000000000E+00 0.  1.
</event>
<event>
 7    1  0.2000468E-015  0.9000780E+02  0.7816164E-02  0.1186339E+00
        -11   -1    0    0    0    0  0.00000000000E+00  0.00000000000E+00  0.45593999997E+02  0.45594000000E+02  0.51100000000E-03 0.  1.
         11   -1    0    0    0    0 -0.00000000000E+00 -0.00000000000E+00 -0.45593999997E+02  0.45594000000E+02  0.51100000000E-03 0. -1.
    9900012    2    1    2    0    0  0.14794073158E+00 -0.87164717309E+00  0.78180173393E+00  0.90007801201E+02  0.90000063377E+02 0.  0.
         12    1    1    2    0    0 -0.14794073158E+00  0.87164717309E+00 -0.78180173393E+00  0.11801987992E+01  0.00000000000E+00 0. -1.
         11    1    3    3    0    0  0.37435082448E+01 -0.27277303759E+01  0.37662202944E+01  0.59698226564E+01  0.51100000000E-03 0. -1.
        -11    1    3    3    0    0  0.33589972263E+02 -0.58638857742E+01  0.20112494598E+02  0.39587672731E+02  0.51100000000E-03 0.  1.
         12    1    3    3    0    0 -0.37185539777E+02  0.77199689770E+01 -0.23096913158E+02  0.44450305814E+02  0.00000000000E+00 0. -1.
</event>
<event>
 7    1  0.2000468E-015  0.9000775E+02  0.7816164E-02  0.1186339E+00
        -11   -1    0    0    0    0  0.00000000000E+00  0.00000000000E+00  0.45593999997E+02  0.45594000000E+02  0.51100000000E-03 0.  1.
         11   -1    0    0    0    0 -0.00000000000E+00 -0.00000000000E+00 -0.45593999997E+02  0.45594000000E+02  0.51100000000E-03 0. -1.
    9900012    2    1    2    0    0 -0.18397698000E+00  0.86839846417E+00  0.77783469647E+00  0.90007749926E+02  0.90000011425E+02 0.  0.
         12    1    1    2    0    0  0.18397698000E+00 -0.86839846417E+00 -0.77783469647E+00  0.11802500738E+01  0.00000000000E+00 0. -1.
         11    1    3    3    0    0 -0.98606858733E+01  0.33737158015E+02  0.17447243144E+02  0.39240734580E+02  0.51100000000E-03 0. -1.
        -11    1    3    3    0    0  0.10982033519E+02 -0.49473028483E+00  0.46983823390E+01  0.11955108328E+02  0.51100000000E-03 0.  1.
        -12    1    3    3    0    0 -0.13053246254E+01 -0.32374029266E+02 -0.21367790787E+02  0.38811907018E+02  0.00000000000E+00 0.  1.
</event>
<event>
 7    1  0.2000468E-015  0.9000775E+02  0.7816164E-02  0.1186339E+00
        -11   -1    0    0    0    0  0.00000000000E+00  0.00000000000E+00  0.45593999997E+02  0.45594000000E+02  0.51100000000E-03 0.  1.
         11   -1    0    0    0    0 -0.00000000000E+00 -0.00000000000E+00 -0.45593999997E+02  0.45594000000E+02  0.51100000000E-03 0. -1.
    9900012    2    1    2    0    0 -0.41590719883E+00  0.10683317747E+01 -0.28049346980E+00  0.90007750804E+02  0.90000012314E+02 0.  0.
         12    1    1    2    0    0  0.41590719883E+00 -0.10683317747E+01  0.28049346980E+00  0.11802491964E+01  0.00000000000E+00 0. -1.
         11    1    3    3    0    0  0.60878046032E+01  0.12237158059E+00 -0.62014520410E+01  0.86910498427E+01  0.51100000000E-03 0. -1.
        -11    1    3    3    0    0  0.25499060968E+02 -0.21039945007E+02  0.21549415652E+02  0.39462117422E+02  0.51100000000E-03 0.  1.
         12    1    3    3    0    0 -0.32002772770E+02  0.21985905202E+02 -0.15628457081E+02  0.41854583539E+02  0.00000000000E+00 0. -1.
</event>
<event>
 8    1  0.2000468E-015  0.9000807E+02  0.7816164E-02  0.1186338E+00
        -11   -1    0    0    0    0  0.00000000000E+00  0.00000000000E+00  0.45593999997E+02  0.45594000000E+02  0.51100000000E-03 0.  1.
         11   -1    0    0    0    0 -0.00000000000E+00 -0.00000000000E+00 -0.45593999997E+02  0.45594000000E+02  0.51100000000E-03 0. -1.
    9900012    2    1    2    0    0  0.23985662381E+00  0.31663705619E+00  0.11110571421E+01  0.90008068562E+02  0.90000334266E+02 0.  0.
         23    2    3    3    0    0  0.45914953476E+01 -0.13806142024E+02 -0.20923819169E+02  0.63476475647E+02  0.58135749456E+02 0.  0.
         12    1    1    2    0    0 -0.23985662381E+00 -0.31663705619E+00 -0.11110571421E+01  0.11799314380E+01  0.00000000000E+00 0. -1.
         11    1    4    4    0    0  0.11849210287E+01 -0.36717951687E+02 -0.11885055645E+02  0.38611741244E+02  0.51100000000E-03 0. -1.
        -11    1    4    4    0    0  0.34065743189E+01  0.22911809663E+02 -0.90387635242E+01  0.24864734403E+02  0.51100000000E-03 0.  1.
        -12    1    3    3    0    0 -0.43516387238E+01  0.14122779081E+02  0.22034876311E+02  0.26531592915E+02  0.00000000000E+00 0.  1.
</event>
<event>
 7    1  0.2000468E-015  0.9000780E+02  0.7816164E-02  0.1186339E+00
        -11   -1    0    0    0    0  0.00000000000E+00  0.00000000000E+00  0.45593999997E+02  0.45594000000E+02  0.51100000000E-03 0.  1.
         11   -1    0    0    0    0 -0.00000000000E+00 -0.00000000000E+00 -0.45593999997E+02  0.45594000000E+02  0.51100000000E-03 0. -1.
    9900012    2    1    2    0    0 -0.86386774343E+00 -0.76653573861E+00  0.24293213703E+00  0.90007804872E+02  0.90000067096E+02 0.  0.
         12    1    1    2    0    0  0.86386774343E+00  0.76653573861E+00 -0.24293213703E+00  0.11801951279E+01  0.00000000000E+00 0. -1.
         11    1    3    3    0    0 -0.91533729910E+00 -0.26628609345E+02 -0.28392578176E+02  0.38936604549E+02  0.51100000000E-03 0. -1.
        -11    1    3    3    0    0  0.74158188236E+00  0.15265711065E+01 -0.73947652025E+01  0.75870228478E+01  0.51100000000E-03 0.  1.
        -12    1    3    3    0    0 -0.69011232670E+00  0.24335502500E+02  0.36030275516E+02  0.43484177475E+02  0.00000000000E+00 0.  1.
</event>
<event>
 7    1  0.2000468E-015  0.9000772E+02  0.7816164E-02  0.1186339E+00
        -11   -1    0    0    0    0  0.00000000000E+00  0.00000000000E+00  0.45593999997E+02  0.45594000000E+02  0.51100000000E-03 0.  1.
         11   -1    0    0    0    0 -0.00000000000E+00 -0.00000000000E+00 -0.45593999997E+02  0.45594000000E+02  0.51100000000E-03 0. -1.
    9900012    2    1    2    0    0 -0.85898101650E+00 -0.66913215905E+00 -0.45548268495E+00  0.90007724308E+02  0.89999985469E+02 0.  0.
         12    1    1    2    0    0  0.85898101650E+00  0.66913215905E+00  0.45548268495E+00  0.11802756921E+01  0.00000000000E+00 0. -1.
         11    1    3    3    0    0  0.52126251606E+01  0.63453052658E+01  0.11706888832E+01  0.82948702644E+01  0.51100000000E-03 0. -1.
        -11    1    3    3    0    0  0.26793148644E+02  0.23734660501E+02 -0.67185102846E+01  0.36419023931E+02  0.51100000000E-03 0.  1.
         12    1    3    3    0    0 -0.32864754821E+02 -0.30749097926E+02  0.50923387165E+01  0.45293830113E+02  0.00000000000E+00 0. -1.
</event>
<event>
 7    1  0.2000468E-015  0.9000738E+02  0.7816164E-02  0.1186340E+00
        -11   -1    0    0    0    0  0.00000000000E+00  0.00000000000E+00  0.45593999997E+02  0.45594000000E+02  0.51100000000E-03 0. -1.
         11   -1    0    0    0    0 -0.00000000000E+00 -0.00000000000E+00 -0.45593999997E+02  0.45594000000E+02  0.51100000000E-03 0.  1.
    9900012    2    1    2    0    0 -0.39235944349E+00  0.10923749969E+01  0.21594107363E+00  0.90007381681E+02  0.89999638319E+02 0.  0.
         12    1    1    2    0    0  0.39235944349E+00 -0.10923749969E+01 -0.21594107363E+00  0.11806183185E+01  0.00000000000E+00 0. -1.
         11    1    3    3    0    0  0.25689231368E+02  0.25708678790E+02 -0.10360512860E+01  0.36358577749E+02  0.51100000000E-03 0. -1.
        -11    1    3    3    0    0  0.82875144020E+01  0.34550254035E+01 -0.18388504239E+01  0.91652314016E+01  0.51100000000E-03 0.  1.
        -12    1    3    3    0    0 -0.34369105213E+02 -0.28071329197E+02  0.30908427836E+01  0.44483572531E+02  0.00000000000E+00 0.  1.
</event>
<event>
 7    1  0.2000468E-015  0.9000769E+02  0.7816164E-02  0.1186339E+00
        -11   -1    0    0    0    0  0.00000000000E+00  0.00000000000E+00  0.45593999997E+02  0.45594000000E+02  0.51100000000E-03 0. -1.
         11   -1    0    0    0    0 -0.00000000000E+00 -0.00000000000E+00 -0.45593999997E+02  0.45594000000E+02  0.51100000000E-03 0.  1.
    9900012    2    1    2    0    0  0.42688076737E-01  0.83708578287E+00 -0.83101939059E+00  0.90007691520E+02  0.89999952248E+02 0.  0.
         12    1    1    2    0    0 -0.42688076737E-01 -0.83708578287E+00  0.83101939059E+00  0.11803084797E+01  0.00000000000E+00 0. -1.
         11    1    3    3    0    0  0.19212025279E+02 -0.23928269878E+02 -0.44848699473E+01  0.31012547031E+02  0.51100000000E-03 0. -1.
        -11    1    3    3    0    0  0.15429185311E+02  0.17036164611E+02 -0.20983622465E+01  0.23080160060E+02  0.51100000000E-03 0.  1.
         12    1    3    3    0    0 -0.34598522514E+02  0.77291910494E+01  0.57522128032E+01  0.35914984429E+02  0.00000000000E+00 0. -1.
</event>
<event>
 7    1  0.2000468E-015  0.9000766E+02  0.7816164E-02  0.1186339E+00
        -11   -1    0    0    0    0  0.00000000000E+00  0.00000000000E+00  0.45593999997E+02  0.45594000000E+02  0.51100000000E-03 0. -1.
         11   -1    0    0    0    0 -0.00000000000E+00 -0.00000000000E+00 -0.45593999997E+02  0.45594000000E+02  0.51100000000E-03 0.  1.
    9900012    2    1    2    0    0  0.10259495781E+01  0.43798813062E+00  0.38572800590E+00  0.90007664355E+02  0.89999924725E+02 0.  0.
         12    1    1    2    0    0 -0.10259495781E+01 -0.43798813062E+00 -0.38572800590E+00  0.11803356446E+01  0.00000000000E+00 0. -1.
         11    1    3    3    0    0  0.60800754133E+00  0.98730924685E+01  0.33662508516E+01  0.10448888607E+02  0.51100000000E-03 0. -1.
        -11    1    3    3    0    0 -0.11438674335E+02 -0.38912838725E+02  0.14768672696E+02  0.43164406421E+02  0.51100000000E-03 0.  1.
         12    1    3    3    0    0  0.11856616372E+02  0.29477734388E+02 -0.17749195541E+02  0.36394369328E+02  0.00000000000E+00 0. -1.
</event>
<event>
 7    1  0.2000468E-015  0.9000779E+02  0.7816164E-02  0.1186339E+00
        -11   -1    0    0    0    0  0.00000000000E+00  0.00000000000E+00  0.45593999997E+02  0.45594000000E+02  0.51100000000E-03 0.  1.
         11   -1    0    0    0    0 -0.00000000000E+00 -0.00000000000E+00 -0.45593999997E+02  0.45594000000E+02  0.51100000000E-03 0. -1.
    9900012    2    1    2    0    0  0.93713201372E+00  0.36010116009E+00  0.62048778061E+00  0.90007790551E+02  0.90000052587E+02 0.  0.
         12    1    1    2    0    0 -0.93713201372E+00 -0.36010116009E+00 -0.62048778061E+00  0.11802094486E+01  0.00000000000E+00 0. -1.
         11    1    3    3    0    0 -0.12114383228E+02 -0.13992858850E+02 -0.62187254759E+01  0.19525135763E+02  0.51100000000E-03 0. -1.
        -11    1    3    3    0    0 -0.60471307428E+01 -0.13882246234E+02  0.26944164027E+02  0.30907483335E+02  0.51100000000E-03 0.  1.
        -12    1    3    3    0    0  0.19098645984E+02  0.28235206243E+02 -0.20104950771E+02  0.39575171453E+02  0.00000000000E+00 0.  1.
</event>
<event>
 7    1  0.2000468E-015  0.9000775E+02  0.7816164E-02  0.1186339E+00
        -11   -1    0    0    0    0  0.00000000000E+00  0.00000000000E+00  0.45593999997E+02  0.45594000000E+02  0.51100000000E-03 0. -1.
         11   -1    0    0    0    0 -0.00000000000E+00 -0.00000000000E+00 -0.45593999997E+02  0.45594000000E+02  0.51100000000E-03 0.  1.
    9900012    2    1    2    0    0 -0.23256062488E+00  0.11502249375E+01 -0.12603866885E+00  0.90007751044E+02  0.90000012558E+02 0.  0.
         12    1    1    2    0    0  0.23256062488E+00 -0.11502249375E+01  0.12603866885E+00  0.11802489556E+01  0.00000000000E+00 0. -1.
         11    1    3    3    0    0 -0.25431683584E+01  0.88942544471E+01 -0.12379184036E+02  0.15453791287E+02  0.51100000000E-03 0. -1.
        -11    1    3    3    0    0 -0.22921777211E+02  0.49397012725E+01 -0.20613619960E+02  0.31220663787E+02  0.51100000000E-03 0.  1.
         12    1    3    3    0    0  0.25232384945E+02 -0.12683730782E+02  0.32866765328E+02  0.43333295971E+02  0.00000000000E+00 0. -1.
</event>
<event>
 7    1  0.2000468E-015  0.9000775E+02  0.7816164E-02  0.1186339E+00
        -11   -1    0    0    0    0  0.00000000000E+00  0.00000000000E+00  0.45593999997E+02  0.45594000000E+02  0.51100000000E-03 0.  1.
         11   -1    0    0    0    0 -0.00000000000E+00 -0.00000000000E+00 -0.45593999997E+02  0.45594000000E+02  0.51100000000E-03 0. -1.
    9900012    2    1    2    0    0 -0.58776712692E+00  0.69072251917E+00  0.75525605237E+00  0.90007754475E+02  0.90000016034E+02 0.  0.
         12    1    1    2    0    0  0.58776712692E+00 -0.69072251917E+00 -0.75525605237E+00  0.11802455247E+01  0.00000000000E+00 0. -1.
         11    1    3    3    0    0  0.50156691225E+01 -0.73763213790E+01  0.66896051593E+01  0.11149792432E+02  0.51100000000E-03 0. -1.
        -11    1    3    3    0    0  0.19001463277E+02  0.19080622843E+02  0.25749385189E+02  0.37257973812E+02  0.51100000000E-03 0.  1.
         12    1    3    3    0    0 -0.24604899526E+02 -0.11013578945E+02 -0.31683734296E+02  0.41599988231E+02  0.00000000000E+00 0. -1.
</event>
<event>
 7    1  0.2000468E-015  0.9000765E+02  0.7816164E-02  0.1186339E+00
        -11   -1    0    0    0    0  0.00000000000E+00  0.00000000000E+00  0.45593999997E+02  0.45594000000E+02  0.51100000000E-03 0.  1.
         11   -1    0    0    0    0 -0.00000000000E+00 -0.00000000000E+00 -0.45593999997E+02  0.45594000000E+02  0.51100000000E-03 0. -1.
    9900012    2    1    2    0    0  0.81684800882E+00  0.38317381661E+00  0.76103091380E+00  0.90007647978E+02  0.89999908132E+02 0.  0.
         12    1    1    2    0    0 -0.81684800882E+00 -0.38317381661E+00 -0.76103091380E+00  0.11803520216E+01  0.00000000000E+00 0. -1.
         11    1    3    3    0    0  0.90132870439E+00 -0.81221481553E+01 -0.24902505216E+01  0.85430107112E+01  0.51100000000E-03 0. -1.
        -11    1    3    3    0    0  0.17492073262E+02  0.40289423316E+02 -0.50369826599E+01  0.44210648635E+02  0.51100000000E-03 0.  1.
         12    1    3    3    0    0 -0.17576553958E+02 -0.31784101344E+02  0.82882640953E+01  0.37253988632E+02  0.00000000000E+00 0. -1.
</event>
<event>
 7    1  0.2000468E-015  0.9000770E+02  0.7816164E-02  0.1186339E+00
        -11   -1    0    0    0    0  0.00000000000E+00  0.00000000000E+00  0.45593999997E+02  0.45594000000E+02  0.51100000000E-03 0. -1.
         11   -1    0    0    0    0 -0.00000000000E+00 -0.00000000000E+00 -0.45593999997E+02  0.45594000000E+02  0.51100000000E-03 0.  1.
    9900012    2    1    2    0    0 -0.12257175485E+00 -0.11528973224E+01 -0.22116644044E+00  0.90007698909E+02  0.89999959735E+02 0.  0.
         12    1    1    2    0    0  0.12257175485E+00  0.11528973224E+01  0.22116644044E+00  0.11803010910E+01  0.00000000000E+00 0. -1.
         11    1    3    3    0    0 -0.24684079205E+01 -0.14974681440E+02  0.32831358400E+02  0.36169492898E+02  0.51100000000E-03 0. -1.
        -11    1    3    3    0    0 -0.41816288774E+01 -0.77775307003E+01  0.45890779662E+01  0.99516652226E+01  0.51100000000E-03 0.  1.
        -12    1    3    3    0    0  0.65274650430E+01  0.21599314818E+02 -0.37641602806E+02  0.43886540788E+02  0.00000000000E+00 0.  1.
</event>
<event>
 7    1  0.2000468E-015  0.9000778E+02  0.7816164E-02  0.1186339E+00
        -11   -1    0    0    0    0  0.00000000000E+00  0.00000000000E+00  0.45593999997E+02  0.45594000000E+02  0.51100000000E-03 0.  1.
         11   -1    0    0    0    0 -0.00000000000E+00 -0.00000000000E+00 -0.45593999997E+02  0.45594000000E+02  0.51100000000E-03 0. -1.
    9900012    2    1    2    0    0 -0.87161451715E+00 -0.79139880066E+00  0.83017617376E-01  0.90007781438E+02  0.90000043353E+02 0.  0.
         12    1    1    2    0    0  0.87161451715E+00  0.79139880066E+00 -0.83017617376E-01  0.11802185615E+01  0.00000000000E+00 0. -1.
         11    1    3    3    0    0  0.97685128479E+01  0.82578923747E+01 -0.70469800507E+00  0.12810668572E+02  0.51100000000E-03 0. -1.
        -11    1    3    3    0    0  0.11037895797E+02 -0.68427744937E+01  0.34608336806E+02  0.36964789775E+02  0.51100000000E-03 0.  1.
         12    1    3    3    0    0 -0.21678023162E+02 -0.22065166817E+01 -0.33820621183E+02  0.40232323091E+02  0.00000000000E+00 0. -1.
</event>
<event>
 7    1  0.2000468E-015  0.9000770E+02  0.7816164E-02  0.1186339E+00
        -11   -1    0    0    0    0  0.00000000000E+00  0.00000000000E+00  0.45593999997E+02  0.45594000000E+02  0.51100000000E-03 0. -1.
         11   -1    0    0    0    0 -0.00000000000E+00 -0.00000000000E+00 -0.45593999997E+02  0.45594000000E+02  0.51100000000E-03 0.  1.
    9900012    2    1    2    0    0  0.97338492447E+00  0.24815077940E+00  0.61970922472E+00  0.90007704891E+02  0.89999965796E+02 0.  0.
         12    1    1    2    0    0 -0.97338492447E+00 -0.24815077940E+00 -0.61970922472E+00  0.11802951087E+01  0.00000000000E+00 0. -1.
         11    1    3    3    0    0 -0.14170317360E+02  0.52484745722E+00 -0.11440619979E+02  0.18219800896E+02  0.51100000000E-03 0. -1.
        -11    1    3    3    0    0  0.97691766862E+01  0.33141240756E+01 -0.28710652589E+02  0.30507733509E+02  0.51100000000E-03 0.  1.
         12    1    3    3    0    0  0.53745255985E+01 -0.35908207534E+01  0.40770981792E+02  0.41280170486E+02  0.00000000000E+00 0. -1.
</event>
<event>
 7    1  0.2000468E-015  0.9000777E+02  0.7816164E-02  0.1186339E+00
        -11   -1    0    0    0    0  0.00000000000E+00  0.00000000000E+00  0.45593999997E+02  0.45594000000E+02  0.51100000000E-03 0. -1.
         11   -1    0    0    0    0 -0.00000000000E+00 -0.00000000000E+00 -0.45593999997E+02  0.45594000000E+02  0.51100000000E-03 0.  1.
    9900012    2    1    2    0    0 -0.37424184796E+00  0.47812664129E+00 -0.10120716964E+01  0.90007766479E+02  0.90000028196E+02 0.  0.
         12    1    1    2    0    0  0.37424184796E+00 -0.47812664129E+00  0.10120716964E+01  0.11802335212E+01  0.00000000000E+00 0. -1.
         11    1    3    3    0    0 -0.29326373422E+01 -0.77476510806E+01 -0.22635673934E+01  0.85877934682E+01  0.51100000000E-03 0. -1.
        -11    1    3    3    0    0  0.22131004798E+01  0.28126763231E+02 -0.32003053323E+02  0.42663896281E+02  0.51100000000E-03 0.  1.
         12    1    3    3    0    0  0.34529501438E+00 -0.19900985510E+02  0.33254549020E+02  0.38756076729E+02  0.00000000000E+00 0. -1.
</event>
<event>
 7    1  0.2091535E-015  0.9000781E+02  0.7816164E-02  0.1186339E+00
        -11   -1    0    0    0    0  0.00000000000E+00  0.00000000000E+00  0.45593999997E+02  0.45594000000E+02  0.51100000000E-03 0.  1.
         11   -1    0    0    0    0 -0.00000000000E+00 -0.00000000000E+00 -0.45593999997E+02  0.45594000000E+02  0.51100000000E-03 0. -1.
    9900012    2    1    2    0    0 -0.60826579328E+00  0.54690634580E+00  0.85073313581E+00  0.90007813280E+02  0.90000075615E+02 0.  0.
         12    1    1    2    0    0  0.60826579328E+00 -0.54690634580E+00 -0.85073313581E+00  0.11801867203E+01  0.00000000000E+00 0. -1.
         11    1    3    3    0    0  0.79474995060E+01 -0.12952970065E+02 -0.32659081007E+02  0.36021628980E+02  0.51100000000E-03 0. -1.
        -11    1    3    3    0    0  0.79968273265E+01 -0.43606347603E+01 -0.34377766516E+01  0.97356402650E+01  0.51100000000E-03 0.  1.
        -12    1    3    3    0    0 -0.16552592626E+02  0.17860511171E+02  0.36947590794E+02  0.44250544035E+02  0.00000000000E+00 0.  1.
</event>
<event>
 7    1  0.2000468E-015  0.9000794E+02  0.7816164E-02  0.1186339E+00
        -11   -1    0    0    0    0  0.00000000000E+00  0.00000000000E+00  0.45593999997E+02  0.45594000000E+02  0.51100000000E-03 0.  1.
         11   -1    0    0    0    0 -0.00000000000E+00 -0.00000000000E+00 -0.45593999997E+02  0.45594000000E+02  0.51100000000E-03 0. -1.
    9900012    2    1    2    0    0  0.49334552844E-01 -0.70354111253E+00 -0.94611926249E+00  0.90007938284E+02  0.90000202269E+02 0.  0.
         12    1    1    2    0    0 -0.49334552844E-01  0.70354111253E+00  0.94611926249E+00  0.11800617162E+01  0.00000000000E+00 0. -1.
         11    1    3    3    0    0  0.30766838887E+02 -0.75757083919E+01 -0.18005660314E+02  0.36444389641E+02  0.51100000000E-03 0. -1.
        -11    1    3    3    0    0  0.84863769514E+01  0.19072888769E+01 -0.30586295005E+01  0.92201713272E+01  0.51100000000E-03 0.  1.
        -12    1    3    3    0    0 -0.39203881285E+02  0.49648784025E+01  0.20118170552E+02  0.44343377315E+02  0.00000000000E+00 0.  1.
</event>
<event>
 7    1  0.2000468E-015  0.9000730E+02  0.7816164E-02  0.1186340E+00
        -11   -1    0    0    0    0  0.00000000000E+00  0.00000000000E+00  0.45593999997E+02  0.45594000000E+02  0.51100000000E-03 0. -1.
         11   -1    0    0    0    0 -0.00000000000E+00 -0.00000000000E+00 -0.45593999997E+02  0.45594000000E+02  0.51100000000E-03 0.  1.
    9900012    2    1    2    0    0  0.68388490497E+00 -0.58275288020E+00 -0.76599142844E+00  0.90007304294E+02  0.89999559909E+02 0.  0.
         12    1    1    2    0    0 -0.68388490497E+00  0.58275288020E+00  0.76599142844E+00  0.11806957064E+01  0.00000000000E+00 0. -1.
         11    1    3    3    0    0  0.24001187758E+02 -0.10275039367E+02  0.14155130359E+02  0.29698504399E+02  0.51100000000E-03 0. -1.
        -11    1    3    3    0    0  0.16689698728E+02 -0.16283483273E+01 -0.57873359133E+01  0.17739527027E+02  0.51100000000E-03 0.  1.
        -12    1    3    3    0    0 -0.40007001581E+02  0.11320634814E+02 -0.91337858744E+01  0.42569272868E+02  0.00000000000E+00 0.  1.
</event>
<event>
 7    1  0.2000468E-015  0.9000690E+02  0.7816164E-02  0.1186341E+00
        -11   -1    0    0    0    0  0.00000000000E+00  0.00000000000E+00  0.45593999997E+02  0.45594000000E+02  0.51100000000E-03 0.  1.
         11   -1    0    0    0    0 -0.00000000000E+00 -0.00000000000E+00 -0.45593999997E+02  0.45594000000E+02  0.51100000000E-03 0. -1.
    9900012    2    1    2    0    0  0.25192105569E+00  0.62674767716E+00  0.96888140323E+00  0.90006895414E+02  0.89999145630E+02 0.  0.
         12    1    1    2    0    0 -0.25192105569E+00 -0.62674767716E+00 -0.96888140323E+00  0.11811045858E+01  0.00000000000E+00 0. -1.
         11    1    3    3    0    0 -0.70602603735E+01 -0.39224809095E+00  0.74978300797E+01  0.10306240404E+02  0.51100000000E-03 0. -1.
        -11    1    3    3    0    0  0.23293150767E+02  0.26642288825E+02  0.18991446795E+02  0.40162886825E+02  0.51100000000E-03 0.  1.
         12    1    3    3    0    0 -0.15980969338E+02 -0.25623293057E+02 -0.25520395471E+02  0.39537768185E+02  0.00000000000E+00 0. -1.
</event>
<event>
 7    1  0.2000468E-015  0.9000721E+02  0.7816164E-02  0.1186340E+00
        -11   -1    0    0    0    0  0.00000000000E+00  0.00000000000E+00  0.45593999997E+02  0.45594000000E+02  0.51100000000E-03 0.  1.
         11   -1    0    0    0    0 -0.00000000000E+00 -0.00000000000E+00 -0.45593999997E+02  0.45594000000E+02  0.51100000000E-03 0. -1.
    9900012    2    1    2    0    0 -0.48814900555E+00  0.10652524340E+01 -0.14566359581E+00  0.90007207858E+02  0.89999462200E+02 0.  0.
         12    1    1    2    0    0  0.48814900555E+00 -0.10652524340E+01  0.14566359581E+00  0.11807921421E+01  0.00000000000E+00 0. -1.
         11    1    3    3    0    0 -0.18911050281E+02 -0.31951531511E+02  0.40780592211E+01  0.37351823997E+02  0.51100000000E-03 0. -1.
        -11    1    3    3    0    0 -0.85234479397E+01  0.41926641772E+01  0.68052384682E+01  0.11684984748E+02  0.51100000000E-03 0.  1.
        -12    1    3    3    0    0  0.26946349215E+02  0.28824119768E+02 -0.11028961285E+02  0.40970399113E+02  0.00000000000E+00 0.  1.
</event>
<event>
 7    1  0.2000468E-015  0.9000762E+02  0.7816164E-02  0.1186339E+00
        -11   -1    0    0    0    0  0.00000000000E+00  0.00000000000E+00  0.45593999997E+02  0.45594000000E+02  0.51100000000E-03 0.  1.
         11   -1    0    0    0    0 -0.00000000000E+00 -0.00000000000E+00 -0.45593999997E+02  0.45594000000E+02  0.51100000000E-03 0. -1.
    9900012    2    1    2    0    0 -0.22497081812E+00 -0.23276806236E+00  0.11351195647E+01  0.90007623252E+02  0.89999883079E+02 0.  0.
         12    1    1    2    0    0  0.22497081812E+00  0.23276806236E+00 -0.11351195647E+01  0.11803767475E+01  0.00000000000E+00 0. -1.
         11    1    3    3    0    0  0.20264649363E+01 -0.28069393244E+01 -0.42028350945E+02  0.42170697788E+02  0.51100000000E-03 0. -1.
        -11    1    3    3    0    0 -0.45233809955E+01 -0.74740961281E+01  0.10902131705E+02  0.13970668006E+02  0.51100000000E-03 0.  1.
        -12    1    3    3    0    0  0.22719452411E+01  0.10048267390E+02  0.32261338805E+02  0.33866257458E+02  0.00000000000E+00 0.  1.
</event>
<event>
 7    1  0.2000468E-015  0.9000777E+02  0.7816164E-02  0.1186339E+00
        -11   -1    0    0    0    0  0.00000000000E+00  0.00000000000E+00  0.45593999997E+02  0.45594000000E+02  0.51100000000E-03 0.  1.
         11   -1    0    0    0    0 -0.00000000000E+00 -0.00000000000E+00 -0.45593999997E+02  0.45594000000E+02  0.51100000000E-03 0. -1.
    9900012    2    1    2    0    0 -0.47329851851E+00 -0.97806414527E+00  0.46079111400E+00  0.90007767222E+02  0.90000028949E+02 0.  0.
         12    1    1    2    0    0  0.47329851851E+00  0.97806414527E+00 -0.46079111400E+00  0.11802327782E+01  0.00000000000E+00 0. -1.
         11    1    3    3    0    0 -0.60032348001E+01 -0.39200315256E+01  0.10630186256E+02  0.12822103389E+02  0.51100000000E-03 0. -1.
        -11    1    3    3    0    0  0.10188905876E+02  0.12978623848E+02  0.30695432259E+02  0.34849218668E+02  0.51100000000E-03 0.  1.
         12    1    3    3    0    0 -0.46589695949E+01 -0.10036656467E+02 -0.40864827401E+02  0.42336445165E+02  0.00000000000E+00 0. -1.
</event>
<event>
 7    1  0.2000468E-015  0.9000810E+02  0.7816164E-02  0.1186338E+00
        -11   -1    0    0    0    0  0.00000000000E+00  0.00000000000E+00  0.45593999997E+02  0.45594000000E+02  0.51100000000E-03 0.  1.
         11   -1    0    0    0    0 -0.00000000000E+00 -0.00000000000E+00 -0.45593999997E+02  0.45594000000E+02  0.51100000000E-03 0. -1.
    9900012    2    1    2    0    0  0.17591950521E+00  0.10883699013E+01  0.42031544607E+00  0.90008100941E+02  0.90000367073E+02 0.  0.
         12    1    1    2    0    0 -0.17591950521E+00 -0.10883699013E+01 -0.42031544607E+00  0.11798990586E+01  0.00000000000E+00 0. -1.
         11    1    3    3    0    0 -0.48667422155E+01 -0.91933877698E+00 -0.85235569892E+01  0.98580620605E+01  0.51100000000E-03 0. -1.
        -11    1    3    3    0    0 -0.33550753665E+02 -0.36104779639E+01  0.20487997541E+02  0.39477166389E+02  0.51100000000E-03 0.  1.
         12    1    3    3    0    0  0.38593415386E+02  0.56181866422E+01 -0.11544125106E+02  0.40672872492E+02  0.00000000000E+00 0. -1.
</event>
<event>
 7    1  0.2000468E-015  0.9000773E+02  0.7816164E-02  0.1186339E+00
        -11   -1    0    0    0    0  0.00000000000E+00  0.00000000000E+00  0.45593999997E+02  0.45594000000E+02  0.51100000000E-03 0.  1.
         11   -1    0    0    0    0 -0.00000000000E+00 -0.00000000000E+00 -0.45593999997E+02  0.45594000000E+02  0.51100000000E-03 0. -1.
    9900012    2    1    2    0    0  0.68449503806E+00 -0.87397583746E+00 -0.40083211271E+00  0.90007731554E+02  0.89999992811E+02 0.  0.
         12    1    1    2    0    0 -0.68449503806E+00  0.87397583746E+00  0.40083211271E+00  0.11802684458E+01  0.00000000000E+00 0. -1.
         11    1    3    3    0    0 -0.82404766435E+01  0.13604407650E+01 -0.43808434383E+01  0.94312270612E+01  0.51100000000E-03 0. -1.
        -11    1    3    3    0    0 -0.17107902402E+02  0.32524739788E+02 -0.16460601567E+01  0.36786526571E+02  0.51100000000E-03 0.  1.
         12    1    3    3    0    0  0.26032874084E+02 -0.34759156391E+02  0.56260714823E+01  0.43789977922E+02  0.00000000000E+00 0. -1.
</event>
<event>
 7    1  0.2000468E-015  0.9000772E+02  0.7816164E-02  0.1186339E+00
        -11   -1    0    0    0    0  0.00000000000E+00  0.00000000000E+00  0.45593999997E+02  0.45594000000E+02  0.51100000000E-03 0. -1.
         11   -1    0    0    0    0 -0.00000000000E+00 -0.00000000000E+00 -0.45593999997E+02  0.45594000000E+02  0.51100000000E-03 0.  1.
    9900012    2    1    2    0    0  0.48824849216E+00  0.47890513595E+00 -0.96193900474E+00  0.90007718945E+02  0.89999980035E+02 0.  0.
         12    1    1    2    0    0 -0.48824849216E+00 -0.47890513595E+00  0.96193900474E+00  0.11802810547E+01  0.00000000000E+00 0. -1.
         11    1    3    3    0    0 -0.20713382219E+02 -0.76141537881E+01  0.27159788701E+02  0.34995337738E+02  0.51100000000E-03 0. -1.
        -11    1    3    3    0    0 -0.10635628260E+02 -0.28810958860E+01  0.18450452748E+00  0.11020496549E+02  0.51100000000E-03 0.  1.
        -12    1    3    3    0    0  0.31837258972E+02  0.10974154810E+02 -0.28306232233E+02  0.43991884659E+02  0.00000000000E+00 0.  1.
</event>
<event>
 7    1  0.2000468E-015  0.9000765E+02  0.7816164E-02  0.1186339E+00
        -11   -1    0    0    0    0  0.00000000000E+00  0.00000000000E+00  0.45593999997E+02  0.45594000000E+02  0.51100000000E-03 0. -1.
         11   -1    0    0    0    0 -0.00000000000E+00 -0.00000000000E+00 -0.45593999997E+02  0.45594000000E+02  0.51100000000E-03 0.  1.
    9900012    2    1    2    0    0 -0.16451214638E+00 -0.36865327360E+00 -0.11091679316E+01  0.90007651330E+02  0.89999911527E+02 0.  0.
         12    1    1    2    0    0  0.16451214638E+00  0.36865327360E+00  0.11091679316E+01  0.11803486701E+01  0.00000000000E+00 0. -1.
         11    1    3    3    0    0 -0.49348752996E+01 -0.35643906256E+02 -0.10687089697E+02  0.37537380488E+02  0.51100000000E-03 0. -1.
        -11    1    3    3    0    0 -0.63006498496E+01 -0.57602365903E+01  0.45428857116E+01  0.96703839093E+01  0.51100000000E-03 0.  1.
        -12    1    3    3    0    0  0.11071013003E+02  0.41035489573E+02  0.50350360538E+01  0.42799886933E+02  0.00000000000E+00 0.  1.
</event>
<event>
 7    1  0.2000468E-015  0.9000773E+02  0.7816164E-02  0.1186339E+00
        -11   -1    0    0    0    0  0.00000000000E+00  0.00000000000E+00  0.45593999997E+02  0.45594000000E+02  0.51100000000E-03 0. -1.
         11   -1    0    0    0    0 -0.00000000000E+00 -0.00000000000E+00 -0.45593999997E+02  0.45594000000E+02  0.51100000000E-03 0.  1.
    9900012    2    1    2    0    0 -0.26087829537E+00  0.81641167778E+00  0.81144805730E+00  0.90007731614E+02  0.89999992872E+02 0.  0.
         12    1    1    2    0    0  0.26087829537E+00 -0.81641167778E+00 -0.81144805730E+00  0.11802683857E+01  0.00000000000E+00 0. -1.
         11    1    3    3    0    0 -0.24210134958E+02  0.15194053031E+01  0.28656473446E+02  0.37545075546E+02  0.51100000000E-03 0. -1.
        -11    1    3    3    0    0 -0.43801340336E+00 -0.49441262914E+01  0.76919889686E+01  0.91543943044E+01  0.51100000000E-03 0.  1.
        -12    1    3    3    0    0  0.24387270066E+02  0.42411326661E+01 -0.35537014357E+02  0.43308261764E+02  0.00000000000E+00 0.  1.
</event>
<event>
 7    1  0.2000468E-015  0.9000773E+02  0.7816164E-02  0.1186339E+00
        -11   -1    0    0    0    0  0.00000000000E+00  0.00000000000E+00  0.45593999997E+02  0.45594000000E+02  0.51100000000E-03 0. -1.
         11   -1    0    0    0    0 -0.00000000000E+00 -0.00000000000E+00 -0.45593999997E+02  0.45594000000E+02  0.51100000000E-03 0.  1.
    9900012    2    1    2    0    0  0.10724109096E+01  0.49125977996E+00  0.40560462875E-01  0.90007726099E+02  0.89999987283E+02 0.  0.
         12    1    1    2    0    0 -0.10724109096E+01 -0.49125977996E+00 -0.40560462875E-01  0.11802739011E+01  0.00000000000E+00 0. -1.
         11    1    3    3    0    0  0.89044661484E+01 -0.25733535360E+00  0.29392110009E+01  0.93805490480E+01  0.51100000000E-03 0. -1.
        -11    1    3    3    0    0  0.20096422228E+02 -0.10872286910E+02 -0.31555157047E+02  0.38958962326E+02  0.51100000000E-03 0.  1.
         12    1    3    3    0    0 -0.27928477467E+02  0.11620882044E+02  0.28656506509E+02  0.41668214725E+02  0.00000000000E+00 0. -1.
</event>
<event>
 7    1  0.2000468E-015  0.9000739E+02  0.7816164E-02  0.1186340E+00
        -11   -1    0    0    0    0  0.00000000000E+00  0.00000000000E+00  0.45593999997E+02  0.45594000000E+02  0.51100000000E-03 0.  1.
         11   -1    0    0    0    0 -0.00000000000E+00 -0.00000000000E+00 -0.45593999997E+02  0.45594000000E+02  0.51100000000E-03 0. -1.
    9900012    2    1    2    0    0 -0.30602840815E-01  0.99065487561E+00  0.64149466880E+00  0.90007386165E+02  0.89999642862E+02 0.  0.
         12    1    1    2    0    0  0.30602840815E-01 -0.99065487561E+00 -0.64149466880E+00  0.11806138346E+01  0.00000000000E+00 0. -1.
         11    1    3    3    0    0 -0.70041565208E+01 -0.15233997159E+01  0.84358704982E+01  0.11069908156E+02  0.51100000000E-03 0. -1.
        -11    1    3    3    0    0 -0.31702581119E+02  0.70203561355E+01 -0.19994787402E+02  0.38133064043E+02  0.51100000000E-03 0.  1.
         12    1    3    3    0    0  0.38676134798E+02 -0.45063015440E+01  0.12200411572E+02  0.40804413966E+02  0.00000000000E+00 0. -1.
</event>
<event>
 7    1  0.2000468E-015  0.9000775E+02  0.7816164E-02  0.1186339E+00
        -11   -1    0    0    0    0  0.00000000000E+00  0.00000000000E+00  0.45593999997E+02  0.45594000000E+02  0.51100000000E-03 0. -1.
         11   -1    0    0    0    0 -0.00000000000E+00 -0.00000000000E+00 -0.45593999997E+02  0.45594000000E+02  0.51100000000E-03 0.  1.
    9900012    2    1    2    0    0 -0.18345587342E+00 -0.89889703771E+00 -0.74250690173E+00  0.90007750687E+02  0.90000012196E+02 0.  0.
         12    1    1    2    0    0  0.18345587342E+00  0.89889703771E+00  0.74250690173E+00  0.11802493131E+01  0.00000000000E+00 0. -1.
         11    1    3    3    0    0  0.25447712113E+01 -0.78665184001E+01 -0.38791347402E+01  0.91326698643E+01  0.51100000000E-03 0. -1.
        -11    1    3    3    0    0 -0.34645442500E+02 -0.17635517898E+02 -0.65611831585E+01  0.39425465149E+02  0.51100000000E-03 0.  1.
         12    1    3    3    0    0  0.31917215415E+02  0.24603139261E+02  0.96978109970E+01  0.41449615673E+02  0.00000000000E+00 0. -1.
</event>
<event>
 7    1  0.2000468E-015  0.9000777E+02  0.7816164E-02  0.1186339E+00
        -11   -1    0    0    0    0  0.00000000000E+00  0.00000000000E+00  0.45593999997E+02  0.45594000000E+02  0.51100000000E-03 0.  1.
         11   -1    0    0    0    0 -0.00000000000E+00 -0.00000000000E+00 -0.45593999997E+02  0.45594000000E+02  0.51100000000E-03 0. -1.
    9900012    2    1    2    0    0  0.26904193508E+00 -0.10428564532E+01  0.48271520085E+00  0.90007768197E+02  0.90000029937E+02 0.  0.
         12    1    1    2    0    0 -0.26904193508E+00  0.10428564532E+01 -0.48271520085E+00  0.11802318034E+01  0.00000000000E+00 0. -1.
         11    1    3    3    0    0 -0.17301742932E+02  0.29669099301E+02 -0.22546628613E+02  0.41084744418E+02  0.51100000000E-03 0. -1.
        -11    1    3    3    0    0  0.66143942754E+01 -0.59919919821E+01 -0.47892960934E+01  0.10128748041E+02  0.51100000000E-03 0.  1.
        -12    1    3    3    0    0  0.10956390592E+02 -0.24719963772E+02  0.27818639908E+02  0.38794275737E+02  0.00000000000E+00 0.  1.
</event>
<event>
 7    1  0.2000468E-015  0.9000767E+02  0.7816164E-02  0.1186339E+00
        -11   -1    0    0    0    0  0.00000000000E+00  0.00000000000E+00  0.45593999997E+02  0.45594000000E+02  0.51100000000E-03 0.  1.
         11   -1    0    0    0    0 -0.00000000000E+00 -0.00000000000E+00 -0.45593999997E+02  0.45594000000E+02  0.51100000000E-03 0. -1.
    9900012    2    1    2    0    0 -0.30863510821E+00  0.36911266563E+00  0.10778162125E+01  0.90007666328E+02  0.89999926723E+02 0.  0.
         12    1    1    2    0    0  0.30863510821E+00 -0.36911266563E+00 -0.10778162125E+01  0.11803336722E+01  0.00000000000E+00 0. -1.
         11    1    3    3    0    0  0.24637653333E+01 -0.19910626469E+02 -0.31054943711E+02  0.36971782689E+02  0.51100000000E-03 0. -1.
        -11    1    3    3    0    0 -0.43902079228E+00 -0.34453811403E+01 -0.66554984379E+01  0.75072664916E+01  0.51100000000E-03 0.  1.
        -12    1    3    3    0    0 -0.23333796492E+01  0.23725120275E+02  0.38788258361E+02  0.45528617148E+02  0.00000000000E+00 0.  1.
</event>
<event>
 7    1  0.2000468E-015  0.9000783E+02  0.7816164E-02  0.1186339E+00
        -11   -1    0    0    0    0  0.00000000000E+00  0.00000000000E+00  0.45593999997E+02  0.45594000000E+02  0.51100000000E-03 0. -1.
         11   -1    0    0    0    0 -0.00000000000E+00 -0.00000000000E+00 -0.45593999997E+02  0.45594000000E+02  0.51100000000E-03 0.  1.
    9900012    2    1    2    0    0 -0.10524082456E+01  0.53387260730E+00  0.14928185685E-01  0.90007828010E+02  0.90000090539E+02 0.  0.
         12    1    1    2    0    0  0.10524082456E+01 -0.53387260730E+00 -0.14928185685E-01  0.11801719904E+01  0.00000000000E+00 0. -1.
         11    1    3    3    0    0 -0.35002584533E+02 -0.27421222060E+01 -0.25845440736E+02  0.43596868755E+02  0.51100000000E-03 0. -1.
        -11    1    3    3    0    0  0.54304931754E+01  0.74064374125E+01  0.31119978863E+01  0.96969120023E+01  0.51100000000E-03 0.  1.
        -12    1    3    3    0    0  0.28519683112E+02 -0.41304425992E+01  0.22748371035E+02  0.36714047252E+02  0.00000000000E+00 0.  1.
</event>
<event>
 7    1  0.2000468E-015  0.9000794E+02  0.7816164E-02  0.1186339E+00
        -11   -1    0    0    0    0  0.00000000000E+00  0.00000000000E+00  0.45593999997E+02  0.45594000000E+02  0.51100000000E-03 0. -1.
         11   -1    0    0    0    0 -0.00000000000E+00 -0.00000000000E+00 -0.45593999997E+02  0.45594000000E+02  0.51100000000E-03 0.  1.
    9900012    2    1    2    0    0  0.48938069803E+00  0.59493296409E+00 -0.89392643607E+00  0.90007939335E+02  0.90000203334E+02 0.  0.
         12    1    1    2    0    0 -0.48938069803E+00 -0.59493296409E+00  0.89392643607E+00  0.11800606647E+01  0.00000000000E+00 0. -1.
         11    1    3    3    0    0 -0.50439579981E+01 -0.73960177878E+01 -0.35304281494E+00  0.89591981167E+01  0.51100000000E-03 0. -1.
        -11    1    3    3    0    0 -0.37118225239E+02 -0.42334469662E+00  0.40145490698E+01  0.37337092416E+02  0.51100000000E-03 0.  1.
         12    1    3    3    0    0  0.42651563935E+02  0.84142954485E+01 -0.45554326909E+01  0.43711648802E+02  0.00000000000E+00 0. -1.
</event>
<event>
 7    1  0.2000468E-015  0.9000768E+02  0.7816164E-02  0.1186339E+00
        -11   -1    0    0    0    0  0.00000000000E+00  0.00000000000E+00  0.45593999997E+02  0.45594000000E+02  0.51100000000E-03 0.  1.
         11   -1    0    0    0    0 -0.00000000000E+00 -0.00000000000E+00 -0.45593999997E+02  0.45594000000E+02  0.51100000000E-03 0. -1.
    9900012    2    1    2    0    0 -0.49283353250E+00  0.33005736107E+00  0.10204540565E+01  0.90007682571E+02  0.89999943181E+02 0.  0.
         12    1    1    2    0    0  0.49283353250E+00 -0.33005736107E+00 -0.10204540565E+01  0.11803174293E+01  0.00000000000E+00 0. -1.
         11    1    3    3    0    0 -0.55990110181E+01 -0.36168269093E+02 -0.71164924160E+01  0.37284542080E+02  0.51100000000E-03 0. -1.
        -11    1    3    3    0    0 -0.46281766117E+01 -0.55249183959E+01  0.62600683557E+01  0.95463709392E+01  0.51100000000E-03 0.  1.
        -12    1    3    3    0    0  0.97343540972E+01  0.42023244850E+02  0.18768781168E+01  0.43176769551E+02  0.00000000000E+00 0.  1.
</event>
<event>
 7    1  0.2000468E-015  0.9000684E+02  0.7816164E-02  0.1186341E+00
        -11   -1    0    0    0    0  0.00000000000E+00  0.00000000000E+00  0.45593999997E+02  0.45594000000E+02  0.51100000000E-03 0.  1.
         11   -1    0    0    0    0 -0.00000000000E+00 -0.00000000000E+00 -0.45593999997E+02  0.45594000000E+02  0.51100000000E-03 0. -1.
    9900012    2    1    2    0    0  0.48278316089E+00 -0.45273561082E-01  0.10770393983E+01  0.90006838224E+02  0.89999087684E+02 0.  0.
         12    1    1    2    0    0 -0.48278316089E+00  0.45273561082E-01 -0.10770393983E+01  0.11811617761E+01  0.00000000000E+00 0. -1.
         11    1    3    3    0    0  0.34336327641E+02  0.15489280769E+02 -0.21298109156E+01  0.37728468156E+02  0.51100000000E-03 0. -1.
        -11    1    3    3    0    0  0.74434822248E+01 -0.50609051823E+01  0.35412657424E+01  0.96725773305E+01  0.51100000000E-03 0.  1.
        -12    1    3    3    0    0 -0.41297026705E+02 -0.10473649148E+02 -0.33441542843E+00  0.42605792738E+02  0.00000000000E+00 0.  1.
</event>
<event>
 7    1  0.2000468E-015  0.9000758E+02  0.7816164E-02  0.1186339E+00
        -11   -1    0    0    0    0  0.00000000000E+00  0.00000000000E+00  0.45593999997E+02  0.45594000000E+02  0.51100000000E-03 0.  1.
         11   -1    0    0    0    0 -0.00000000000E+00 -0.00000000000E+00 -0.45593999997E+02  0.45594000000E+02  0.51100000000E-03 0. -1.
    9900012    2    1    2    0    0 -0.11032033545E+01 -0.41127912273E+00  0.84728712854E-01  0.90007581806E+02  0.89999841086E+02 0.  0.
         12    1    1    2    0    0  0.11032033545E+01  0.41127912273E+00 -0.84728712854E-01  0.11804181941E+01  0.00000000000E+00 0. -1.
         11    1    3    3    0    0 -0.12992097533E+02  0.30187302570E+02 -0.13254682800E+02  0.35436625843E+02  0.51100000000E-03 0. -1.
        -11    1    3    3    0    0 -0.58761578478E+01  0.82129278780E+01  0.10504801167E+01  0.10153074614E+02  0.51100000000E-03 0.  1.
        -12    1    3    3    0    0  0.17765052027E+02 -0.38811509570E+02  0.12288931396E+02  0.44417881349E+02  0.00000000000E+00 0.  1.
</event>
<event>
 7    1  0.2000468E-015  0.9000771E+02  0.7816164E-02  0.1186339E+00
        -11   -1    0    0    0    0  0.00000000000E+00  0.00000000000E+00  0.45593999997E+02  0.45594000000E+02  0.51100000000E-03 0.  1.
         11   -1    0    0    0    0 -0.00000000000E+00 -0.00000000000E+00 -0.45593999997E+02  0.45594000000E+02  0.51100000000E-03 0. -1.
    9900012    2    1    2    0    0  0.11872679352E+00  0.90089548794E+00  0.75324739818E+00  0.90007707505E+02  0.89999968444E+02 0.  0.
         12    1    1    2    0    0 -0.11872679352E+00 -0.90089548794E+00 -0.75324739818E+00  0.11802924953E+01  0.00000000000E+00 0. -1.
         11    1    3    3    0    0  0.14936425521E+02 -0.13499444015E+02 -0.24916386622E+01  0.20286450146E+02  0.51100000000E-03 0. -1.
        -11    1    3    3    0    0  0.18190929783E+02 -0.10679856117E+02  0.15856700979E+02  0.26389471750E+02  0.51100000000E-03 0.  1.
        -12    1    3    3    0    0 -0.33008628510E+02  0.25080195620E+02 -0.12611814919E+02  0.43331785608E+02  0.00000000000E+00 0.  1.
</event>
<event>
 7    1  0.2000468E-015  0.9000774E+02  0.7816164E-02  0.1186339E+00
        -11   -1    0    0    0    0  0.00000000000E+00  0.00000000000E+00  0.45593999997E+02  0.45594000000E+02  0.51100000000E-03 0.  1.
         11   -1    0    0    0    0 -0.00000000000E+00 -0.00000000000E+00 -0.45593999997E+02  0.45594000000E+02  0.51100000000E-03 0. -1.
    9900012    2    1    2    0    0 -0.77506925695E+00 -0.86618088321E+00  0.20497838358E+00  0.90007738244E+02  0.89999999589E+02 0.  0.
         12    1    1    2    0    0  0.77506925695E+00  0.86618088321E+00 -0.20497838358E+00  0.11802617562E+01  0.00000000000E+00 0. -1.
         11    1    3    3    0    0  0.18945526774E+02  0.19497042946E+02 -0.19507136498E+02  0.33460365255E+02  0.51100000000E-03 0. -1.
        -11    1    3    3    0    0 -0.17277224326E+01 -0.21358725586E+02 -0.85151621697E+01  0.23058364437E+02  0.51100000000E-03 0.  1.
        -12    1    3    3    0    0 -0.17992873599E+02  0.99550175712E+00  0.28227277051E+02  0.33489008552E+02  0.00000000000E+00 0.  1.
</event>
<event>
 7    1  0.2000468E-015  0.9000780E+02  0.7816164E-02  0.1186339E+00
        -11   -1    0    0    0    0  0.00000000000E+00  0.00000000000E+00  0.45593999997E+02  0.45594000000E+02  0.51100000000E-03 0.  1.
         11   -1    0    0    0    0 -0.00000000000E+00 -0.00000000000E+00 -0.45593999997E+02  0.45594000000E+02  0.51100000000E-03 0. -1.
    9900012    2    1    2    0    0  0.10595988744E+01  0.21916395841E+00  0.47126421487E+00  0.90007799773E+02  0.90000061930E+02 0.  0.
         12    1    1    2    0    0 -0.10595988744E+01 -0.21916395841E+00 -0.47126421487E+00  0.11802002269E+01  0.00000000000E+00 0. -1.
         11    1    3    3    0    0 -0.12597631587E+02  0.10999116682E+01  0.11673295929E+02  0.17209763665E+02  0.51100000000E-03 0. -1.
        -11    1    3    3    0    0 -0.42588602872E+00 -0.10618584674E+02  0.28038418767E+02  0.29984806929E+02  0.51100000000E-03 0.  1.
         12    1    3    3    0    0  0.14083116490E+02  0.97378369639E+01 -0.39240450481E+02  0.42813229179E+02  0.00000000000E+00 0. -1.
</event>
<event>
 7    1  0.2000468E-015  0.9000774E+02  0.7816164E-02  0.1186339E+00
        -11   -1    0    0    0    0  0.00000000000E+00  0.00000000000E+00  0.45593999997E+02  0.45594000000E+02  0.51100000000E-03 0.  1.
         11   -1    0    0    0    0 -0.00000000000E+00 -0.00000000000E+00 -0.45593999997E+02  0.45594000000E+02  0.51100000000E-03 0. -1.
    9900012    2    1    2    0    0  0.85603860084E+00 -0.64970132206E+00  0.48795726353E+00  0.90007738934E+02  0.90000000287E+02 0.  0.
         12    1    1    2    0    0 -0.85603860084E+00  0.64970132206E+00 -0.48795726353E+00  0.11802610665E+01  0.00000000000E+00 0. -1.
         11    1    3    3    0    0  0.47419630274E+01  0.53552964012E+01 -0.82174074205E+01  0.10894548998E+02  0.51100000000E-03 0. -1.
        -11    1    3    3    0    0 -0.23032136391E+02  0.28120491747E+02  0.15289299319E+02  0.39433539490E+02  0.51100000000E-03 0.  1.
         12    1    3    3    0    0  0.19146211964E+02 -0.34125489470E+02 -0.65839346350E+01  0.39679650445E+02  0.00000000000E+00 0. -1.
</event>
<event>
 7    1  0.2000468E-015  0.9000762E+02  0.7816164E-02  0.1186339E+00
        -11   -1    0    0    0    0  0.00000000000E+00  0.00000000000E+00  0.45593999997E+02  0.45594000000E+02  0.51100000000E-03 0.  1.
         11   -1    0    0    0    0 -0.00000000000E+00 -0.00000000000E+00 -0.45593999997E+02  0.45594000000E+02  0.51100000000E-03 0. -1.
    9900012    2    1    2    0    0 -0.39673741497E+00 -0.74051102350E+00  0.82917523473E+00  0.90007623483E+02  0.89999883313E+02 0.  0.
         12    1    1    2    0    0  0.39673741497E+00  0.74051102350E+00 -0.82917523473E+00  0.11803765172E+01  0.00000000000E+00 0. -1.
         11    1    3    3    0    0  0.26767716867E+02  0.15640699293E+02 -0.28211437192E+02  0.41916909826E+02  0.51100000000E-03 0. -1.
        -11    1    3    3    0    0 -0.94710417315E+01  0.35245289143E+01  0.23287445924E+01  0.10370438139E+02  0.51100000000E-03 0.  1.
        -12    1    3    3    0    0 -0.17693412551E+02 -0.19905739231E+02  0.26711867834E+02  0.37720275519E+02  0.00000000000E+00 0.  1.
</event>
<event>
 7    1  0.2000468E-015  0.9000773E+02  0.7816164E-02  0.1186339E+00
        -11   -1    0    0    0    0  0.00000000000E+00  0.00000000000E+00  0.45593999997E+02  0.45594000000E+02  0.51100000000E-03 0. -1.
         11   -1    0    0    0    0 -0.00000000000E+00 -0.00000000000E+00 -0.45593999997E+02  0.45594000000E+02  0.51100000000E-03 0.  1.
    9900012    2    1    2    0    0 -0.59579145012E+00 -0.84822749531E+00 -0.56443508472E+00  0.90007727023E+02  0.89999988220E+02 0.  0.
         12    1    1    2    0    0  0.59579145012E+00  0.84822749531E+00  0.56443508472E+00  0.11802729772E+01  0.00000000000E+00 0. -1.
         11    1    3    3    0    0 -0.53994664039E+01 -0.57040514151E+01  0.64141855433E+00  0.78804732102E+01  0.51100000000E-03 0. -1.
        -11    1    3    3    0    0  0.21598549463E+02 -0.20770332077E+01 -0.36481883227E+02  0.42446898708E+02  0.51100000000E-03 0.  1.
         12    1    3    3    0    0 -0.16794874509E+02  0.69328571275E+01  0.35276029588E+02  0.39680355105E+02  0.00000000000E+00 0. -1.
</event>
<event>
 7    1  0.2124192E-015  0.9000767E+02  0.7816164E-02  0.1186339E+00
        -11   -1    0    0    0    0  0.00000000000E+00  0.00000000000E+00  0.45593999997E+02  0.45594000000E+02  0.51100000000E-03 0.  1.
         11   -1    0    0    0    0 -0.00000000000E+00 -0.00000000000E+00 -0.45593999997E+02  0.45594000000E+02  0.51100000000E-03 0. -1.
    9900012    2    1    2    0    0  0.10124260324E+01 -0.56903266532E+00  0.21064903076E+00  0.90007670529E+02  0.89999930980E+02 0.  0.
         12    1    1    2    0    0 -0.10124260324E+01  0.56903266532E+00 -0.21064903076E+00  0.11803294707E+01  0.00000000000E+00 0. -1.
         11    1    3    3    0    0  0.23559760318E+01 -0.60558140529E-01 -0.37830808880E+02  0.37904147413E+02  0.51100000000E-03 0. -1.
        -11    1    3    3    0    0 -0.11875486142E+01 -0.84815221743E+01 -0.39001604156E+01  0.94105122939E+01  0.51100000000E-03 0.  1.
        -12    1    3    3    0    0 -0.15600138516E+00  0.79730476495E+01  0.41941618326E+02  0.42693010822E+02  0.00000000000E+00 0.  1.
</event>
<event>
 7    1  0.2000468E-015  0.9000771E+02  0.7816164E-02  0.1186339E+00
        -11   -1    0    0    0    0  0.00000000000E+00  0.00000000000E+00  0.45593999997E+02  0.45594000000E+02  0.51100000000E-03 0.  1.
         11   -1    0    0    0    0 -0.00000000000E+00 -0.00000000000E+00 -0.45593999997E+02  0.45594000000E+02  0.51100000000E-03 0. -1.
    9900012    2    1    2    0    0  0.29061028622E-01 -0.99255497878E+00 -0.63802068936E+00  0.90007711760E+02  0.89999972755E+02 0.  0.
         12    1    1    2    0    0 -0.29061028622E-01  0.99255497878E+00  0.63802068936E+00  0.11802882399E+01  0.00000000000E+00 0. -1.
         11    1    3    3    0    0 -0.15264991023E+01 -0.43117000272E+01  0.87726892488E+01  0.98934843989E+01  0.51100000000E-03 0. -1.
        -11    1    3    3    0    0  0.15702740219E+02  0.18821010703E+01  0.32344564220E+02  0.36004016300E+02  0.51100000000E-03 0.  1.
         12    1    3    3    0    0 -0.14147180088E+02  0.14370439781E+01 -0.41755274159E+02  0.44110211062E+02  0.00000000000E+00 0. -1.
</event>
<event>
 8    1  0.2000468E-015  0.9000771E+02  0.7816164E-02  0.1186339E+00
        -11   -1    0    0    0    0  0.00000000000E+00  0.00000000000E+00  0.45593999997E+02  0.45594000000E+02  0.51100000000E-03 0.  1.
         11   -1    0    0    0    0 -0.00000000000E+00 -0.00000000000E+00 -0.45593999997E+02  0.45594000000E+02  0.51100000000E-03 0. -1.
    9900012    2    1    2    0    0  0.60471416154E+00  0.93519109642E+00  0.39091434386E+00  0.90007713752E+02  0.89999974773E+02 0.  0.
         23    2    3    3    0    0 -0.22143164441E+02  0.10506881574E+02 -0.13261365755E+02  0.61803671640E+02  0.55164442484E+02 0.  0.
         12    1    1    2    0    0 -0.60471416154E+00 -0.93519109642E+00 -0.39091434386E+00  0.11802862484E+01  0.00000000000E+00 0. -1.
         11    1    4    4    0    0 -0.31783586903E+02 -0.37748248155E+01 -0.25287515562E+02  0.40790981140E+02  0.51100000000E-03 0. -1.
        -11    1    4    4    0    0  0.96404224613E+01  0.14281706389E+02  0.12026149807E+02  0.21012690500E+02  0.51100000000E-03 0.  1.
        -12    1    3    3    0    0  0.22747878603E+02 -0.95716904774E+01  0.13652280099E+02  0.28204042112E+02  0.00000000000E+00 0.  1.
</event>
<event>
 7    1  0.2000468E-015  0.9000774E+02  0.7816164E-02  0.1186339E+00
        -11   -1    0    0    0    0  0.00000000000E+00  0.00000000000E+00  0.45593999997E+02  0.45594000000E+02  0.51100000000E-03 0.  1.
         11   -1    0    0    0    0 -0.00000000000E+00 -0.00000000000E+00 -0.45593999997E+02  0.45594000000E+02  0.51100000000E-03 0. -1.
    9900012    2    1    2    0    0 -0.91922605755E+00  0.25737158447E+00  0.69411537337E+00  0.90007740355E+02  0.90000001728E+02 0.  0.
         12    1    1    2    0    0  0.91922605755E+00 -0.25737158447E+00 -0.69411537337E+00  0.11802596447E+01  0.00000000000E+00 0. -1.
         11    1    3    3    0    0 -0.73156054033E+01 -0.57935962041E+01  0.99034704575E+01  0.13607445269E+02  0.51100000000E-03 0. -1.
        -11    1    3    3    0    0  0.21957258209E+01  0.37683023328E+02  0.10136349405E+02  0.39084230049E+02  0.51100000000E-03 0.  1.
         12    1    3    3    0    0  0.42006535249E+01 -0.31632055539E+02 -0.19345704489E+02  0.37316065037E+02  0.00000000000E+00 0. -1.
</event>
<event>
 7    1  0.2120697E-015  0.9000768E+02  0.7816164E-02  0.1186339E+00
        -11   -1    0    0    0    0  0.00000000000E+00  0.00000000000E+00  0.45593999997E+02  0.45594000000E+02  0.51100000000E-03 0.  1.
         11   -1    0    0    0    0 -0.00000000000E+00 -0.00000000000E+00 -0.45593999997E+02  0.45594000000E+02  0.51100000000E-03 0. -1.
    9900012    2    1    2    0    0  0.96548276156E+00  0.48461456773E+00 -0.47554997626E+00  0.90007679695E+02  0.89999940267E+02 0.  0.
         12    1    1    2    0    0 -0.96548276156E+00 -0.48461456773E+00  0.47554997626E+00  0.11803203049E+01  0.00000000000E+00 0. -1.
         11    1    3    3    0    0 -0.42264039140E+01 -0.35272046810E+02 -0.14532189497E+02  0.38381822626E+02  0.51100000000E-03 0. -1.
        -11    1    3    3    0    0 -0.30763044601E+01 -0.49199561042E+01  0.76875632377E+01  0.96316273803E+01  0.51100000000E-03 0.  1.
        -12    1    3    3    0    0  0.82681911357E+01  0.40676617482E+02  0.63690762835E+01  0.41994229689E+02  0.00000000000E+00 0.  1.
</event>
<event>
 7    1  0.2000468E-015  0.9000779E+02  0.7816164E-02  0.1186339E+00
        -11   -1    0    0    0    0  0.00000000000E+00  0.00000000000E+00  0.45593999997E+02  0.45594000000E+02  0.51100000000E-03 0.  1.
         11   -1    0    0    0    0 -0.00000000000E+00 -0.00000000000E+00 -0.45593999997E+02  0.45594000000E+02  0.51100000000E-03 0. -1.
    9900012    2    1    2    0    0 -0.88054250923E+00  0.32110369860E-01  0.78518561346E+00  0.90007787039E+02  0.90000049028E+02 0.  0.
         12    1    1    2    0    0  0.88054250923E+00 -0.32110369860E-01 -0.78518561346E+00  0.11802129613E+01  0.00000000000E+00 0. -1.
         11    1    3    3    0    0  0.17975769938E+00  0.16605553738E+01 -0.84324454882E+01  0.85962721079E+01  0.51100000000E-03 0. -1.
        -11    1    3    3    0    0  0.16850416182E+02  0.25134276203E+02 -0.21331993206E+02  0.37023267011E+02  0.51100000000E-03 0.  1.
         12    1    3    3    0    0 -0.17910716391E+02 -0.26762721207E+02  0.30549624307E+02  0.44388247920E+02  0.00000000000E+00 0. -1.
</event>
<event>
 7    1  0.2000468E-015  0.9000787E+02  0.7816164E-02  0.1186339E+00
        -11   -1    0    0    0    0  0.00000000000E+00  0.00000000000E+00  0.45593999997E+02  0.45594000000E+02  0.51100000000E-03 0.  1.
         11   -1    0    0    0    0 -0.00000000000E+00 -0.00000000000E+00 -0.45593999997E+02  0.45594000000E+02  0.51100000000E-03 0. -1.
    9900012    2    1    2    0    0  0.97769006346E+00  0.57259468774E+00  0.33008531853E+00  0.90007873374E+02  0.90000136502E+02 0.  0.
         12    1    1    2    0    0 -0.97769006346E+00 -0.57259468774E+00 -0.33008531853E+00  0.11801266263E+01  0.00000000000E+00 0. -1.
         11    1    3    3    0    0  0.12927517362E+02 -0.60957114504E+01 -0.37339808123E+02  0.39981741760E+02  0.51100000000E-03 0. -1.
        -11    1    3    3    0    0 -0.44468199684E-01 -0.36145812502E+01 -0.40561006847E+01  0.54331508409E+01  0.51100000000E-03 0.  1.
        -12    1    3    3    0    0 -0.11905359099E+02  0.10282887388E+02  0.41725994127E+02  0.44592980772E+02  0.00000000000E+00 0.  1.
</event>
<event>
 7    1  0.2000468E-015  0.9000758E+02  0.7816164E-02  0.1186339E+00
        -11   -1    0    0    0    0  0.00000000000E+00  0.00000000000E+00  0.45593999997E+02  0.45594000000E+02  0.51100000000E-03 0. -1.
         11   -1    0    0    0    0 -0.00000000000E+00 -0.00000000000E+00 -0.45593999997E+02  0.45594000000E+02  0.51100000000E-03 0.  1.
    9900012    2    1    2    0    0  0.97330403241E+00 -0.50402284386E+00 -0.43822069743E+00  0.90007577556E+02  0.89999836780E+02 0.  0.
         12    1    1    2    0    0 -0.97330403241E+00  0.50402284386E+00  0.43822069743E+00  0.11804224440E+01  0.00000000000E+00 0. -1.
         11    1    3    3    0    0  0.18054019649E+02  0.20545618306E+02 -0.27655803468E+02  0.38896189052E+02  0.51100000000E-03 0. -1.
        -11    1    3    3    0    0 -0.52471944959E+01 -0.10732065679E+01 -0.75785518031E+01  0.92800468807E+01  0.51100000000E-03 0.  1.
        -12    1    3    3    0    0 -0.11833521120E+02 -0.19976434582E+02  0.34796134574E+02  0.41831341623E+02  0.00000000000E+00 0.  1.
</event>
<event>
 7    1  0.2000468E-015  0.9000781E+02  0.7816164E-02  0.1186339E+00
        -11   -1    0    0    0    0  0.00000000000E+00  0.00000000000E+00  0.45593999997E+02  0.45594000000E+02  0.51100000000E-03 0.  1.
         11   -1    0    0    0    0 -0.00000000000E+00 -0.00000000000E+00 -0.45593999997E+02  0.45594000000E+02  0.51100000000E-03 0. -1.
    9900012    2    1    2    0    0  0.72954496026E+00  0.25226055114E+00  0.89273972164E+00  0.90007807030E+02  0.90000069283E+02 0.  0.
         12    1    1    2    0    0 -0.72954496026E+00 -0.25226055114E+00 -0.89273972164E+00  0.11801929695E+01  0.00000000000E+00 0. -1.
         11    1    3    3    0    0  0.54887154299E+01 -0.34772560109E+02  0.68858475798E+01  0.35870208123E+02  0.51100000000E-03 0. -1.
        -11    1    3    3    0    0 -0.52803892331E+01 -0.85523252654E+01 -0.28339045185E+01  0.10442978166E+02  0.51100000000E-03 0.  1.
        -12    1    3    3    0    0  0.52121876346E+00  0.43577145926E+02 -0.31592033396E+01  0.43694620742E+02  0.00000000000E+00 0.  1.
</event>
<event>
 7    1  0.2000468E-015  0.9000777E+02  0.7816164E-02  0.1186339E+00
        -11   -1    0    0    0    0  0.00000000000E+00  0.00000000000E+00  0.45593999997E+02  0.45594000000E+02  0.51100000000E-03 0. -1.
         11   -1    0    0    0    0 -0.00000000000E+00 -0.00000000000E+00 -0.45593999997E+02  0.45594000000E+02  0.51100000000E-03 0.  1.
    9900012    2    1    2    0    0  0.51156940237E+00 -0.56952050284E+00 -0.89827251061E+00  0.90007766820E+02  0.90000028542E+02 0.  0.
         12    1    1    2    0    0 -0.51156940237E+00  0.56952050284E+00  0.89827251061E+00  0.11802331803E+01  0.00000000000E+00 0. -1.
         11    1    3    3    0    0  0.49875434937E+01 -0.73359669930E+01 -0.36872745774E+01  0.96066641397E+01  0.51100000000E-03 0. -1.
        -11    1    3    3    0    0 -0.77414701678E+01 -0.31409836736E+02 -0.17779520518E+02  0.36913677062E+02  0.51100000000E-03 0.  1.
         12    1    3    3    0    0  0.32654960765E+01  0.38176283226E+02  0.20568522584E+02  0.43487425618E+02  0.00000000000E+00 0. -1.
</event>
<event>
 7    1  0.2000468E-015  0.9000774E+02  0.7816164E-02  0.1186339E+00
        -11   -1    0    0    0    0  0.00000000000E+00  0.00000000000E+00  0.45593999997E+02  0.45594000000E+02  0.51100000000E-03 0. -1.
         11   -1    0    0    0    0 -0.00000000000E+00 -0.00000000000E+00 -0.45593999997E+02  0.45594000000E+02  0.51100000000E-03 0.  1.
    9900012    2    1    2    0    0 -0.80789101825E+00  0.39732318350E+00 -0.76319407645E+00  0.90007737822E+02  0.89999999162E+02 0.  0.
         12    1    1    2    0    0  0.80789101825E+00 -0.39732318350E+00  0.76319407645E+00  0.11802621776E+01  0.00000000000E+00 0. -1.
         11    1    3    3    0    0 -0.31719796505E+01  0.81454241391E+01  0.86154647337E+00  0.87836013056E+01  0.51100000000E-03 0. -1.
        -11    1    3    3    0    0  0.16265358534E+02  0.32065736647E+02 -0.11801920115E+02  0.37842551098E+02  0.51100000000E-03 0.  1.
         12    1    3    3    0    0 -0.13901269902E+02 -0.39813837603E+02  0.10177179566E+02  0.43381585419E+02  0.00000000000E+00 0. -1.
</event>
<event>
 7    1  0.2000468E-015  0.9000783E+02  0.7816164E-02  0.1186339E+00
        -11   -1    0    0    0    0  0.00000000000E+00  0.00000000000E+00  0.45593999997E+02  0.45594000000E+02  0.51100000000E-03 0.  1.
         11   -1    0    0    0    0 -0.00000000000E+00 -0.00000000000E+00 -0.45593999997E+02  0.45594000000E+02  0.51100000000E-03 0. -1.
    9900012    2    1    2    0    0 -0.11355080717E+00  0.16662697013E+00  0.11628147878E+01  0.90007831976E+02  0.90000094558E+02 0.  0.
         12    1    1    2    0    0  0.11355080717E+00 -0.16662697013E+00 -0.11628147878E+01  0.11801680235E+01  0.00000000000E+00 0. -1.
         11    1    3    3    0    0 -0.35408482597E+02 -0.12889159704E+02  0.34982919590E+01  0.37843481930E+02  0.51100000000E-03 0. -1.
        -11    1    3    3    0    0 -0.22885666432E-01 -0.88318612750E+01  0.47284035627E+01  0.10017988713E+02  0.51100000000E-03 0.  1.
        -12    1    3    3    0    0  0.35317817456E+02  0.21887647949E+02 -0.70638807338E+01  0.42146361334E+02  0.00000000000E+00 0.  1.
</event>
<event>
 7    1  0.2000468E-015  0.9000786E+02  0.7816164E-02  0.1186339E+00
        -11   -1    0    0    0    0  0.00000000000E+00  0.00000000000E+00  0.45593999997E+02  0.45594000000E+02  0.51100000000E-03 0.  1.
         11   -1    0    0    0    0 -0.00000000000E+00 -0.00000000000E+00 -0.45593999997E+02  0.45594000000E+02  0.51100000000E-03 0. -1.
    9900012    2    1    2    0    0 -0.49846823064E+00 -0.70847759106E-01  0.10673530473E+01  0.90007859115E+02  0.90000122055E+02 0.  0.
         12    1    1    2    0    0  0.49846823064E+00  0.70847759106E-01 -0.10673530473E+01  0.11801408855E+01  0.00000000000E+00 0. -1.
         11    1    3    3    0    0 -0.17118632467E+01 -0.14397412465E+01 -0.40112390471E+02  0.40174708465E+02  0.51100000000E-03 0. -1.
        -11    1    3    3    0    0 -0.46340807332E-01 -0.12215776744E+02  0.99565952953E+01  0.15759477754E+02  0.51100000000E-03 0.  1.
        -12    1    3    3    0    0  0.12597358234E+01  0.13584670231E+02  0.31223148223E+02  0.34073672896E+02  0.00000000000E+00 0.  1.
</event>
<event>
 7    1  0.2000468E-015  0.9000773E+02  0.7816164E-02  0.1186339E+00
        -11   -1    0    0    0    0  0.00000000000E+00  0.00000000000E+00  0.45593999997E+02  0.45594000000E+02  0.51100000000E-03 0. -1.
         11   -1    0    0    0    0 -0.00000000000E+00 -0.00000000000E+00 -0.45593999997E+02  0.45594000000E+02  0.51100000000E-03 0.  1.
    9900012    2    1    2    0    0 -0.80479474905E+00  0.52054906812E+00 -0.68875371959E+00  0.90007725622E+02  0.89999986801E+02 0.  0.
         12    1    1    2    0    0  0.80479474905E+00 -0.52054906812E+00  0.68875371959E+00  0.11802743777E+01  0.00000000000E+00 0. -1.
         11    1    3    3    0    0  0.80483239777E+01  0.33658541520E+01  0.23255795193E+01  0.90284446824E+01  0.51100000000E-03 0. -1.
        -11    1    3    3    0    0  0.31629838281E+02  0.16079422819E+02  0.41371603306E+01  0.35722690320E+02  0.51100000000E-03 0.  1.
         12    1    3    3    0    0 -0.40482957007E+02 -0.18924727903E+02 -0.71514935695E+01  0.45256590620E+02  0.00000000000E+00 0. -1.
</event>
<event>
 7    1  0.2000468E-015  0.9000771E+02  0.7816164E-02  0.1186339E+00
        -11   -1    0    0    0    0  0.00000000000E+00  0.00000000000E+00  0.45593999997E+02  0.45594000000E+02  0.51100000000E-03 0. -1.
         11   -1    0    0    0    0 -0.00000000000E+00 -0.00000000000E+00 -0.45593999997E+02  0.45594000000E+02  0.51100000000E-03 0.  1.
    9900012    2    1    2    0    0  0.11275753787E-01 -0.11647549023E+01 -0.19053922846E+00  0.90007709221E+02  0.89999970183E+02 0.  0.
         12    1    1    2    0    0 -0.11275753787E-01  0.11647549023E+01  0.19053922846E+00  0.11802907789E+01  0.00000000000E+00 0. -1.
         11    1    3    3    0    0  0.53643379024E+01 -0.51370276703E+01 -0.57746327386E+01  0.94080581388E+01  0.51100000000E-03 0. -1.
        -11    1    3    3    0    0 -0.22668729096E+02  0.14507500459E+02 -0.29592959009E+02  0.40001025881E+02  0.51100000000E-03 0.  1.
         12    1    3    3    0    0  0.17315666947E+02 -0.10535227691E+02  0.35177052519E+02  0.40598625201E+02  0.00000000000E+00 0. -1.
</event>
<event>
 7    1  0.2000468E-015  0.9000773E+02  0.7816164E-02  0.1186339E+00
        -11   -1    0    0    0    0  0.00000000000E+00  0.00000000000E+00  0.45593999997E+02  0.45594000000E+02  0.51100000000E-03 0.  1.
         11   -1    0    0    0    0 -0.00000000000E+00 -0.00000000000E+00 -0.45593999997E+02  0.45594000000E+02  0.51100000000E-03 0. -1.
    9900012    2    1    2    0    0  0.93169432909E+00  0.49617776824E+00  0.52801437213E+00  0.90007726355E+02  0.89999987543E+02 0.  0.
         12    1    1    2    0    0 -0.93169432909E+00 -0.49617776824E+00 -0.52801437213E+00  0.11802736453E+01  0.00000000000E+00 0. -1.
         11    1    3    3    0    0 -0.20502909645E+01 -0.61944822930E+01  0.63865878087E+01  0.91303783063E+01  0.51100000000E-03 0. -1.
        -11    1    3    3    0    0  0.16634607548E+02  0.99076843887E+01  0.33721931108E+02  0.38884971598E+02  0.51100000000E-03 0.  1.
         12    1    3    3    0    0 -0.13652622254E+02 -0.32170243275E+01 -0.39580504545E+02  0.41992376451E+02  0.00000000000E+00 0. -1.
</event>
<event>
 7    1  0.2000468E-015  0.9000782E+02  0.7816164E-02  0.1186339E+00
        -11   -1    0    0    0    0  0.00000000000E+00  0.00000000000E+00  0.45593999997E+02  0.45594000000E+02  0.51100000000E-03 0. -1.
         11   -1    0    0    0    0 -0.00000000000E+00 -0.00000000000E+00 -0.45593999997E+02  0.45594000000E+02  0.51100000000E-03 0.  1.
    9900012    2    1    2    0    0 -0.11371421112E+01 -0.22393254219E+00  0.22266789010E+00  0.90007822491E+02  0.90000084947E+02 0.  0.
         12    1    1    2    0    0  0.11371421112E+01  0.22393254219E+00 -0.22266789010E+00  0.11801775095E+01  0.00000000000E+00 0. -1.
         11    1    3    3    0    0 -0.45520641078E+01 -0.14173058768E+02 -0.76245991947E+01  0.16725172514E+02  0.51100000000E-03 0. -1.
        -11    1    3    3    0    0 -0.19804545905E+02  0.32615700722E+02 -0.87936805480E+01  0.39157793476E+02  0.51100000000E-03 0.  1.
         12    1    3    3    0    0  0.23219467902E+02 -0.18666574496E+02  0.16640947633E+02  0.34124856500E+02  0.00000000000E+00 0. -1.
</event>
<event>
 7    1  0.2000468E-015  0.9000793E+02  0.7816164E-02  0.1186339E+00
        -11   -1    0    0    0    0  0.00000000000E+00  0.00000000000E+00  0.45593999997E+02  0.45594000000E+02  0.51100000000E-03 0. -1.
         11   -1    0    0    0    0 -0.00000000000E+00 -0.00000000000E+00 -0.45593999997E+02  0.45594000000E+02  0.51100000000E-03 0.  1.
    9900012    2    1    2    0    0 -0.77381483445E+00 -0.23001736110E+00  0.86074065225E+00  0.90007927182E+02  0.90000191021E+02 0.  0.
         12    1    1    2    0    0  0.77381483445E+00  0.23001736110E+00 -0.86074065225E+00  0.11800728176E+01  0.00000000000E+00 0. -1.
         11    1    3    3    0    0 -0.46022251803E+01 -0.14231503611E+02  0.84820076699E+01  0.17194784849E+02  0.51100000000E-03 0. -1.
        -11    1    3    3    0    0 -0.25944538137E+02 -0.14998371521E+02  0.23874398314E+01  0.30062768945E+02  0.51100000000E-03 0.  1.
         12    1    3    3    0    0  0.29772948483E+02  0.28999857770E+02 -0.10008706849E+02  0.42750373388E+02  0.00000000000E+00 0. -1.
</event>
<event>
 7    1  0.2000468E-015  0.9000777E+02  0.7816164E-02  0.1186339E+00
        -11   -1    0    0    0    0  0.00000000000E+00  0.00000000000E+00  0.45593999997E+02  0.45594000000E+02  0.51100000000E-03 0.  1.
         11   -1    0    0    0    0 -0.00000000000E+00 -0.00000000000E+00 -0.45593999997E+02  0.45594000000E+02  0.51100000000E-03 0. -1.
    9900012    2    1    2    0    0 -0.63369239106E+00  0.83331291340E-01  0.99218108120E+00  0.90007773984E+02  0.90000035801E+02 0.  0.
         12    1    1    2    0    0  0.63369239106E+00 -0.83331291340E-01 -0.99218108120E+00  0.11802260159E+01  0.00000000000E+00 0. -1.
         11    1    3    3    0    0  0.32900435263E+02  0.69153400215E+01 -0.14859719344E+02  0.36756928971E+02  0.51100000000E-03 0. -1.
        -11    1    3    3    0    0  0.12321477938E+01 -0.45338476907E+01 -0.92047782907E+01  0.10334500796E+02  0.51100000000E-03 0.  1.
        -12    1    3    3    0    0 -0.34766275448E+02 -0.22981610394E+01  0.25056678716E+02  0.42916344217E+02  0.00000000000E+00 0.  1.
</event>
<event>
 7    1  0.2000468E-015  0.9000774E+02  0.7816164E-02  0.1186339E+00
        -11   -1    0    0    0    0  0.00000000000E+00  0.00000000000E+00  0.45593999997E+02  0.45594000000E+02  0.51100000000E-03 0.  1.
         11   -1    0    0    0    0 -0.00000000000E+00 -0.00000000000E+00 -0.45593999997E+02  0.45594000000E+02  0.51100000000E-03 0. -1.
    9900012    2    1    2    0    0  0.56416244576E+00 -0.64711563127E+00  0.80992373910E+00  0.90007739703E+02  0.90000001067E+02 0.  0.
         12    1    1    2    0    0 -0.56416244576E+00  0.64711563127E+00 -0.80992373910E+00  0.11802602970E+01  0.00000000000E+00 0. -1.
         11    1    3    3    0    0 -0.52926423349E+01  0.53042420495E+01 -0.86495949010E+01  0.11443886526E+02  0.51100000000E-03 0. -1.
        -11    1    3    3    0    0  0.14026226609E+01  0.78370810489E+01  0.42102868958E+02  0.42849022911E+02  0.51100000000E-03 0.  1.
         12    1    3    3    0    0  0.44541821197E+01 -0.13788438730E+02 -0.32643350318E+02  0.35714830266E+02  0.00000000000E+00 0. -1.
</event>
<event>
 7    1  0.2000468E-015  0.9000777E+02  0.7816164E-02  0.1186339E+00
        -11   -1    0    0    0    0  0.00000000000E+00  0.00000000000E+00  0.45593999997E+02  0.45594000000E+02  0.51100000000E-03 0. -1.
         11   -1    0    0    0    0 -0.00000000000E+00 -0.00000000000E+00 -0.45593999997E+02  0.45594000000E+02  0.51100000000E-03 0.  1.
    9900012    2    1    2    0    0 -0.98572296791E+00  0.59450519777E+00 -0.26050158318E+00  0.90007768127E+02  0.90000029866E+02 0.  0.
         12    1    1    2    0    0  0.98572296791E+00 -0.59450519777E+00  0.26050158318E+00  0.11802318732E+01  0.00000000000E+00 0. -1.
         11    1    3    3    0    0  0.16022726010E+02 -0.39309735879E+02  0.22681686829E+01  0.42510324312E+02  0.51100000000E-03 0. -1.
        -11    1    3    3    0    0  0.42193706818E+01  0.88239515961E+01 -0.94363183508E+00  0.98262735573E+01  0.51100000000E-03 0.  1.
        -12    1    3    3    0    0 -0.21227819660E+02  0.31080289481E+02 -0.15850384310E+01  0.37671170257E+02  0.00000000000E+00 0.  1.
</event>
<event>
 7    1  0.2000468E-015  0.9000771E+02  0.7816164E-02  0.1186339E+00
        -11   -1    0    0    0    0  0.00000000000E+00  0.00000000000E+00  0.45593999997E+02  0.45594000000E+02  0.51100000000E-03 0. -1.
         11   -1    0    0    0    0 -0.00000000000E+00 -0.00000000000E+00 -0.45593999997E+02  0.45594000000E+02  0.51100000000E-03 0.  1.
    9900012    2    1    2    0    0  0.78576836350E+00  0.58300854644E+00 -0.66011205159E+00  0.90007712405E+02  0.89999973409E+02 0.  0.
         12    1    1    2    0    0 -0.78576836350E+00 -0.58300854644E+00  0.66011205159E+00  0.11802875950E+01  0.00000000000E+00 0. -1.
         11    1    3    3    0    0  0.11287615138E+02 -0.29237638268E+02  0.26020849195E+02  0.40734927765E+02  0.51100000000E-03 0. -1.
        -11    1    3    3    0    0 -0.61326277054E+01  0.62749588017E+01  0.45767190377E+01  0.98959884775E+01  0.51100000000E-03 0.  1.
        -12    1    3    3    0    0 -0.43692190688E+01  0.23545688013E+02 -0.31257680284E+02  0.39376796162E+02  0.00000000000E+00 0.  1.
</event>
<event>
 7    1  0.2000468E-015  0.9000778E+02  0.7816164E-02  0.1186339E+00
        -11   -1    0    0    0    0  0.00000000000E+00  0.00000000000E+00  0.45593999997E+02  0.45594000000E+02  0.51100000000E-03 0. -1.
         11   -1    0    0    0    0 -0.00000000000E+00 -0.00000000000E+00 -0.45593999997E+02  0.45594000000E+02  0.51100000000E-03 0.  1.
    9900012    2    1    2    0    0  0.71766063911E+00 -0.56988823506E+00 -0.74371748385E+00  0.90007777526E+02  0.90000039389E+02 0.  0.
         12    1    1    2    0    0 -0.71766063911E+00  0.56988823506E+00  0.74371748385E+00  0.11802224744E+01  0.00000000000E+00 0. -1.
         11    1    3    3    0    0 -0.21228249305E+02 -0.26425745651E+01  0.32237849985E+02  0.38689801509E+02  0.51100000000E-03 0. -1.
        -11    1    3    3    0    0  0.86548175682E+01 -0.22820198562E+01  0.54096842826E+01  0.10458401697E+02  0.51100000000E-03 0.  1.
        -12    1    3    3    0    0  0.13291092376E+02  0.43547061863E+01 -0.38391251752E+02  0.40859574319E+02  0.00000000000E+00 0.  1.
</event>
<event>
 7    1  0.2000468E-015  0.9000784E+02  0.7816164E-02  0.1186339E+00
        -11   -1    0    0    0    0  0.00000000000E+00  0.00000000000E+00  0.45593999997E+02  0.45594000000E+02  0.51100000000E-03 0. -1.
         11   -1    0    0    0    0 -0.00000000000E+00 -0.00000000000E+00 -0.45593999997E+02  0.45594000000E+02  0.51100000000E-03 0.  1.
    9900012    2    1    2    0    0  0.10582502056E+01  0.51860710618E+00  0.62644746552E-01  0.90007842725E+02  0.90000105449E+02 0.  0.
         12    1    1    2    0    0 -0.10582502056E+01 -0.51860710618E+00 -0.62644746552E-01  0.11801572745E+01  0.00000000000E+00 0. -1.
         11    1    3    3    0    0  0.16818823533E+02 -0.30004317045E+02  0.10777893971E+02  0.36045732966E+02  0.51100000000E-03 0. -1.
        -11    1    3    3    0    0 -0.81678114924E+00 -0.92545940799E+01  0.22061844993E+01  0.95489210561E+01  0.51100000000E-03 0.  1.
        -12    1    3    3    0    0 -0.14943792178E+02  0.39777518231E+02 -0.12921433724E+02  0.44413188703E+02  0.00000000000E+00 0.  1.
</event>
<event>
 7    1  0.2000468E-015  0.9000774E+02  0.7816164E-02  0.1186339E+00
        -11   -1    0    0    0    0  0.00000000000E+00  0.00000000000E+00  0.45593999997E+02  0.45594000000E+02  0.51100000000E-03 0.  1.
         11   -1    0    0    0    0 -0.00000000000E+00 -0.00000000000E+00 -0.45593999997E+02  0.45594000000E+02  0.51100000000E-03 0. -1.
    9900012    2    1    2    0    0  0.49150582268E+00  0.95796741579E+00  0.48346212253E+00  0.90007739365E+02  0.90000000724E+02 0.  0.
         12    1    1    2    0    0 -0.49150582268E+00 -0.95796741579E+00 -0.48346212253E+00  0.11802606354E+01  0.00000000000E+00 0. -1.
         11    1    3    3    0    0  0.45640270156E+01  0.23508547810E+02 -0.24591676970E+02  0.34325394961E+02  0.51100000000E-03 0. -1.
        -11    1    3    3    0    0 -0.31503043663E+01  0.76422616185E+01 -0.75679865633E+01  0.11207274474E+02  0.51100000000E-03 0.  1.
        -12    1    3    3    0    0 -0.92221682665E+00 -0.30192842013E+02  0.32643125656E+02  0.44475069930E+02  0.00000000000E+00 0.  1.
</event>
<event>
 7    1  0.2000468E-015  0.9000777E+02  0.7816164E-02  0.1186339E+00
        -11   -1    0    0    0    0  0.00000000000E+00  0.00000000000E+00  0.45593999997E+02  0.45594000000E+02  0.51100000000E-03 0.  1.
         11   -1    0    0    0    0 -0.00000000000E+00 -0.00000000000E+00 -0.45593999997E+02  0.45594000000E+02  0.51100000000E-03 0. -1.
    9900012    2    1    2    0    0 -0.39146597520E+00  0.11134077047E+01  0.53351999393E-02  0.90007766637E+02  0.90000028357E+02 0.  0.
         12    1    1    2    0    0  0.39146597520E+00 -0.11134077047E+01 -0.53351999393E-02  0.11802333629E+01  0.00000000000E+00 0. -1.
         11    1    3    3    0    0  0.87474368981E+01  0.32810091017E+01 -0.24811427442E+00  0.93458137134E+01  0.51100000000E-03 0. -1.
        -11    1    3    3    0    0  0.54849662461E+01 -0.28569810452E+02 -0.27226185635E+02  0.39844499099E+02  0.51100000000E-03 0.  1.
         12    1    3    3    0    0 -0.14623869119E+02  0.26402209055E+02  0.27479635109E+02  0.40817453825E+02  0.00000000000E+00 0. -1.
</event>
<event>
 7    1  0.2000468E-015  0.9000745E+02  0.7816164E-02  0.1186340E+00
        -11   -1    0    0    0    0  0.00000000000E+00  0.00000000000E+00  0.45593999997E+02  0.45594000000E+02  0.51100000000E-03 0.  1.
         11   -1    0    0    0    0 -0.00000000000E+00 -0.00000000000E+00 -0.45593999997E+02  0.45594000000E+02  0.51100000000E-03 0. -1.
    9900012    2    1    2    0    0  0.10180306082E+01  0.28947990430E+00  0.52299633165E+00  0.90007445005E+02  0.89999702478E+02 0.  0.
         12    1    1    2    0    0 -0.10180306082E+01 -0.28947990430E+00 -0.52299633165E+00  0.11805549954E+01  0.00000000000E+00 0. -1.
         11    1    3    3    0    0 -0.50993346628E+01 -0.42228618223E+01  0.22737150765E+01  0.70003968804E+01  0.51100000000E-03 0. -1.
        -11    1    3    3    0    0 -0.22660818377E+02 -0.23191787780E+02  0.19421938952E+02  0.37796605970E+02  0.51100000000E-03 0.  1.
         12    1    3    3    0    0  0.28778183648E+02  0.27704129506E+02 -0.21172657697E+02  0.45210442154E+02  0.00000000000E+00 0. -1.
</event>
<event>
 7    1  0.2000468E-015  0.9000772E+02  0.7816164E-02  0.1186339E+00
        -11   -1    0    0    0    0  0.00000000000E+00  0.00000000000E+00  0.45593999997E+02  0.45594000000E+02  0.51100000000E-03 0. -1.
         11   -1    0    0    0    0 -0.00000000000E+00 -0.00000000000E+00 -0.45593999997E+02  0.45594000000E+02  0.51100000000E-03 0.  1.
    9900012    2    1    2    0    0  0.27070778276E+00 -0.94851061475E+00 -0.64816003234E+00  0.90007717611E+02  0.89999978684E+02 0.  0.
         12    1    1    2    0    0 -0.27070778276E+00  0.94851061475E+00  0.64816003234E+00  0.11802823889E+01  0.00000000000E+00 0. -1.
         11    1    3    3    0    0 -0.24326289155E+02  0.28126541401E+02  0.34409257363E+01  0.37345825006E+02  0.51100000000E-03 0. -1.
        -11    1    3    3    0    0 -0.37869621484E+01  0.53957806853E+01 -0.45442501094E+01  0.80066060747E+01  0.51100000000E-03 0.  1.
        -12    1    3    3    0    0  0.28383959086E+02 -0.34470832701E+02  0.45516434075E+00  0.44655286530E+02  0.00000000000E+00 0.  1.
</event>
<event>
 7    1  0.2000468E-015  0.9000780E+02  0.7816164E-02  0.1186339E+00
        -11   -1    0    0    0    0  0.00000000000E+00  0.00000000000E+00  0.45593999997E+02  0.45594000000E+02  0.51100000000E-03 0.  1.
         11   -1    0    0    0    0 -0.00000000000E+00 -0.00000000000E+00 -0.45593999997E+02  0.45594000000E+02  0.51100000000E-03 0. -1.
    9900012    2    1    2    0    0  0.71222649061E+00 -0.85672825395E+00  0.38938045242E+00  0.90007802130E+02  0.90000064318E+02 0.  0.
         12    1    1    2    0    0 -0.71222649061E+00  0.85672825395E+00 -0.38938045242E+00  0.11801978698E+01  0.00000000000E+00 0. -1.
         11    1    3    3    0    0 -0.10299426806E+02 -0.91625980344E+01  0.35997279653E+01  0.14247436154E+02  0.51100000000E-03 0. -1.
        -11    1    3    3    0    0  0.37280761766E+02 -0.12907218041E+02  0.78596969664E+01  0.40227183745E+02  0.51100000000E-03 0.  1.
         12    1    3    3    0    0 -0.26269108470E+02  0.21213087821E+02 -0.11070044479E+02  0.35533182231E+02  0.00000000000E+00 0. -1.
</event>
<event>
 7    1  0.2000468E-015  0.9000766E+02  0.7816164E-02  0.1186339E+00
        -11   -1    0    0    0    0  0.00000000000E+00  0.00000000000E+00  0.45593999997E+02  0.45594000000E+02  0.51100000000E-03 0.  1.
         11   -1    0    0    0    0 -0.00000000000E+00 -0.00000000000E+00 -0.45593999997E+02  0.45594000000E+02  0.51100000000E-03 0. -1.
    9900012    2    1    2    0    0  0.34447245754E+00 -0.34932979212E+00  0.10735473781E+01  0.90007662527E+02  0.89999922872E+02 0.  0.
         12    1    1    2    0    0 -0.34447245754E+00  0.34932979212E+00 -0.10735473781E+01  0.11803374732E+01  0.00000000000E+00 0. -1.
         11    1    3    3    0    0 -0.17350010447E+02  0.72702439489E+01 -0.30461444711E+02  0.35801940223E+02  0.51100000000E-03 0. -1.
        -11    1    3    3    0    0 -0.35698846063E+01  0.11261417579E+02  0.96405815392E-01  0.11814097356E+02  0.51100000000E-03 0.  1.
        -12    1    3    3    0    0  0.21264367511E+02 -0.18880991320E+02  0.31438586274E+02  0.42391624948E+02  0.00000000000E+00 0.  1.
</event>
<event>
 7    1  0.2000468E-015  0.9000773E+02  0.7816164E-02  0.1186339E+00
        -11   -1    0    0    0    0  0.00000000000E+00  0.00000000000E+00  0.45593999997E+02  0.45594000000E+02  0.51100000000E-03 0.  1.
         11   -1    0    0    0    0 -0.00000000000E+00 -0.00000000000E+00 -0.45593999997E+02  0.45594000000E+02  0.51100000000E-03 0. -1.
    9900012    2    1    2    0    0 -0.11431279290E+01 -0.27078073528E+00  0.11388480212E+00  0.90007731634E+02  0.89999992891E+02 0.  0.
         12    1    1    2    0    0  0.11431279290E+01  0.27078073528E+00 -0.11388480212E+00  0.11802683665E+01  0.00000000000E+00 0. -1.
         11    1    3    3    0    0  0.86026592888E+01  0.14530730093E+00  0.51337889990E+01  0.10019114272E+02  0.51100000000E-03 0. -1.
        -11    1    3    3    0    0  0.34776343084E+02  0.42890483341E+01 -0.12926204289E+01  0.35063668401E+02  0.51100000000E-03 0.  1.
         12    1    3    3    0    0 -0.44522130301E+02 -0.47051363703E+01 -0.37272837680E+01  0.44924948961E+02  0.00000000000E+00 0. -1.
</event>
<event>
 7    1  0.2000468E-015  0.9000796E+02  0.7816164E-02  0.1186339E+00
        -11   -1    0    0    0    0  0.00000000000E+00  0.00000000000E+00  0.45593999997E+02  0.45594000000E+02  0.51100000000E-03 0.  1.
         11   -1    0    0    0    0 -0.00000000000E+00 -0.00000000000E+00 -0.45593999997E+02  0.45594000000E+02  0.51100000000E-03 0. -1.
    9900012    2    1    2    0    0 -0.23095831580E+00  0.11363108642E+01 -0.21895450213E+00  0.90007963900E+02  0.90000228223E+02 0.  0.
         12    1    1    2    0    0  0.23095831580E+00 -0.11363108642E+01  0.21895450213E+00  0.11800361002E+01  0.00000000000E+00 0. -1.
         11    1    3    3    0    0 -0.35474029021E+01  0.72353039334E+01  0.45791488721E+01  0.92683490985E+01  0.51100000000E-03 0. -1.
        -11    1    3    3    0    0 -0.22779513099E+02  0.23486468390E+02  0.15690442200E+02  0.36286504257E+02  0.51100000000E-03 0.  1.
         12    1    3    3    0    0  0.26095957685E+02 -0.29585461460E+02 -0.20488545575E+02  0.44453110544E+02  0.00000000000E+00 0. -1.
</event>
<event>
 7    1  0.2000468E-015  0.9000768E+02  0.7816164E-02  0.1186339E+00
        -11   -1    0    0    0    0  0.00000000000E+00  0.00000000000E+00  0.45593999997E+02  0.45594000000E+02  0.51100000000E-03 0.  1.
         11   -1    0    0    0    0 -0.00000000000E+00 -0.00000000000E+00 -0.45593999997E+02  0.45594000000E+02  0.51100000000E-03 0. -1.
    9900012    2    1    2    0    0 -0.83966990308E-02  0.11594244893E+01  0.22093508215E+00  0.90007683110E+02  0.89999943727E+02 0.  0.
         12    1    1    2    0    0  0.83966990308E-02 -0.11594244893E+01 -0.22093508215E+00  0.11803168903E+01  0.00000000000E+00 0. -1.
         11    1    3    3    0    0 -0.99410553664E+01 -0.84081534536E+00 -0.27082944710E+01  0.10337621170E+02  0.51100000000E-03 0. -1.
        -11    1    3    3    0    0  0.12548585728E+01  0.19240655189E+02  0.36309369368E+02  0.41111407009E+02  0.51100000000E-03 0.  1.
         12    1    3    3    0    0  0.86778000946E+01 -0.17240415354E+02 -0.33380139814E+02  0.38558654931E+02  0.00000000000E+00 0. -1.
</event>
<event>
 7    1  0.2000468E-015  0.9000717E+02  0.7816164E-02  0.1186340E+00
        -11   -1    0    0    0    0  0.00000000000E+00  0.00000000000E+00  0.45593999997E+02  0.45594000000E+02  0.51100000000E-03 0. -1.
         11   -1    0    0    0    0 -0.00000000000E+00 -0.00000000000E+00 -0.45593999997E+02  0.45594000000E+02  0.51100000000E-03 0.  1.
    9900012    2    1    2    0    0 -0.47545570079E+00  0.15432554571E+00 -0.10698059212E+01  0.90007170120E+02  0.89999423963E+02 0.  0.
         12    1    1    2    0    0  0.47545570079E+00 -0.15432554571E+00  0.10698059212E+01  0.11808298805E+01  0.00000000000E+00 0. -1.
         11    1    3    3    0    0 -0.11257061474E+02 -0.23563752331E+02 -0.33613326300E+02  0.42565567800E+02  0.51100000000E-03 0. -1.
        -11    1    3    3    0    0 -0.11756524769E+01 -0.30815565820E+01  0.97216060580E+01  0.10265854778E+02  0.51100000000E-03 0.  1.
        -12    1    3    3    0    0  0.11957258250E+02  0.26799634459E+02  0.22821914321E+02  0.37175747541E+02  0.00000000000E+00 0.  1.
</event>
<event>
 7    1  0.2000468E-015  0.9000781E+02  0.7816164E-02  0.1186339E+00
        -11   -1    0    0    0    0  0.00000000000E+00  0.00000000000E+00  0.45593999997E+02  0.45594000000E+02  0.51100000000E-03 0.  1.
         11   -1    0    0    0    0 -0.00000000000E+00 -0.00000000000E+00 -0.45593999997E+02  0.45594000000E+02  0.51100000000E-03 0. -1.
    9900012    2    1    2    0    0 -0.95623207148E+00 -0.81209725367E-01  0.68693635080E+00  0.90007806650E+02  0.90000068897E+02 0.  0.
         12    1    1    2    0    0  0.95623207148E+00  0.81209725367E-01 -0.68693635080E+00  0.11801933503E+01  0.00000000000E+00 0. -1.
         11    1    3    3    0    0  0.12901074402E+02 -0.34035297973E+01  0.16088218776E+02  0.20901017187E+02  0.51100000000E-03 0. -1.
        -11    1    3    3    0    0  0.16101037249E+02 -0.17443844623E+02  0.88389165110E+01  0.25330960525E+02  0.51100000000E-03 0.  1.
         12    1    3    3    0    0 -0.29958343723E+02  0.20766164695E+02 -0.24240198936E+02  0.43775828938E+02  0.00000000000E+00 0. -1.
</event>
<event>
 7    1  0.2000468E-015  0.9000771E+02  0.7816164E-02  0.1186339E+00
        -11   -1    0    0    0    0  0.00000000000E+00  0.00000000000E+00  0.45593999997E+02  0.45594000000E+02  0.51100000000E-03 0.  1.
         11   -1    0    0    0    0 -0.00000000000E+00 -0.00000000000E+00 -0.45593999997E+02  0.45594000000E+02  0.51100000000E-03 0. -1.
    9900012    2    1    2    0    0 -0.13600436194E-01  0.11801185752E+01  0.14637435971E-01  0.90007712290E+02  0.89999973292E+02 0.  0.
         12    1    1    2    0    0  0.13600436194E-01 -0.11801185752E+01 -0.14637435971E-01  0.11802877098E+01  0.00000000000E+00 0. -1.
         11    1    3    3    0    0  0.17685955157E+02  0.18361029446E+01  0.18265525823E+02  0.25491051718E+02  0.51100000000E-03 0. -1.
        -11    1    3    3    0    0  0.10778262958E+02 -0.17435246765E+02  0.83055120102E+01  0.22116516728E+02  0.51100000000E-03 0.  1.
         12    1    3    3    0    0 -0.28477818552E+02  0.16779262396E+02 -0.26556400397E+02  0.42400143845E+02  0.00000000000E+00 0. -1.
</event>
<event>
 7    1  0.2000468E-015  0.9000766E+02  0.7816164E-02  0.1186339E+00
        -11   -1    0    0    0    0  0.00000000000E+00  0.00000000000E+00  0.45593999997E+02  0.45594000000E+02  0.51100000000E-03 0.  1.
         11   -1    0    0    0    0 -0.00000000000E+00 -0.00000000000E+00 -0.45593999997E+02  0.45594000000E+02  0.51100000000E-03 0. -1.
    9900012    2    1    2    0    0  0.11706419802E+01 -0.13660863828E+00 -0.64356558419E-01  0.90007658383E+02  0.89999918674E+02 0.  0.
         12    1    1    2    0    0 -0.11706419802E+01  0.13660863828E+00  0.64356558419E-01  0.11803416169E+01  0.00000000000E+00 0. -1.
         11    1    3    3    0    0  0.66698984931E+01 -0.27667596985E+01 -0.58536165845E+01  0.92955544491E+01  0.51100000000E-03 0. -1.
        -11    1    3    3    0    0  0.15927306549E+02 -0.11973923991E+02  0.35848383362E+02  0.41014150480E+02  0.51100000000E-03 0.  1.
         12    1    3    3    0    0 -0.21426563062E+02  0.14604075051E+02 -0.30059123336E+02  0.39697953454E+02  0.00000000000E+00 0. -1.
</event>
<event>
 7    1  0.2000468E-015  0.9000773E+02  0.7816164E-02  0.1186339E+00
        -11   -1    0    0    0    0  0.00000000000E+00  0.00000000000E+00  0.45593999997E+02  0.45594000000E+02  0.51100000000E-03 0. -1.
         11   -1    0    0    0    0 -0.00000000000E+00 -0.00000000000E+00 -0.45593999997E+02  0.45594000000E+02  0.51100000000E-03 0.  1.
    9900012    2    1    2    0    0 -0.73794064312E+00 -0.66835653016E+00 -0.63386175393E+00  0.90007729875E+02  0.89999991110E+02 0.  0.
         12    1    1    2    0    0  0.73794064312E+00  0.66835653016E+00  0.63386175393E+00  0.11802701247E+01  0.00000000000E+00 0. -1.
         11    1    3    3    0    0 -0.88349915391E+01 -0.34851989932E+01 -0.18657934682E+01  0.96790946398E+01  0.51100000000E-03 0. -1.
        -11    1    3    3    0    0  0.20861575234E+02  0.16933572189E+02 -0.32151787863E+02  0.41900938550E+02  0.51100000000E-03 0.  1.
         12    1    3    3    0    0 -0.12764524338E+02 -0.14116729726E+02  0.33383719577E+02  0.38427696685E+02  0.00000000000E+00 0. -1.
</event>
<event>
 7    1  0.2000468E-015  0.9000767E+02  0.7816164E-02  0.1186339E+00
        -11   -1    0    0    0    0  0.00000000000E+00  0.00000000000E+00  0.45593999997E+02  0.45594000000E+02  0.51100000000E-03 0.  1.
         11   -1    0    0    0    0 -0.00000000000E+00 -0.00000000000E+00 -0.45593999997E+02  0.45594000000E+02  0.51100000000E-03 0. -1.
    9900012    2    1    2    0    0  0.10649431139E+01  0.50743196810E+00  0.39947816082E-01  0.90007666629E+02  0.89999927029E+02 0.  0.
         12    1    1    2    0    0 -0.10649431139E+01 -0.50743196810E+00 -0.39947816082E-01  0.11803333708E+01  0.00000000000E+00 0. -1.
         11    1    3    3    0    0  0.29977794183E+02  0.12992294194E+02 -0.19337468401E+02  0.37965846980E+02  0.51100000000E-03 0. -1.
        -11    1    3    3    0    0 -0.74796375529E+01 -0.39705425682E+01 -0.11012432588E+02  0.13891863013E+02  0.51100000000E-03 0.  1.
        -12    1    3    3    0    0 -0.21433213516E+02 -0.85143196575E+01  0.30389848806E+02  0.38149956636E+02  0.00000000000E+00 0.  1.
</event>
<event>
 7    1  0.2000468E-015  0.9000768E+02  0.7816164E-02  0.1186339E+00
        -11   -1    0    0    0    0  0.00000000000E+00  0.00000000000E+00  0.45593999997E+02  0.45594000000E+02  0.51100000000E-03 0.  1.
         11   -1    0    0    0    0 -0.00000000000E+00 -0.00000000000E+00 -0.45593999997E+02  0.45594000000E+02  0.51100000000E-03 0. -1.
    9900012    2    1    2    0    0 -0.40272401481E+00  0.11072586966E+01  0.70393205943E-01  0.90007676461E+02  0.89999936990E+02 0.  0.
         12    1    1    2    0    0  0.40272401481E+00 -0.11072586966E+01 -0.70393205943E-01  0.11803235390E+01  0.00000000000E+00 0. -1.
         11    1    3    3    0    0  0.41281931509E+01  0.86386765592E+01 -0.46001194110E+01  0.10622137744E+02  0.51100000000E-03 0. -1.
        -11    1    3    3    0    0  0.17247368088E+02  0.30361466303E+02 -0.28632986899E+01  0.35035536555E+02  0.51100000000E-03 0.  1.
         12    1    3    3    0    0 -0.21778285254E+02 -0.37892884166E+02  0.75338113069E+01  0.44350002162E+02  0.00000000000E+00 0. -1.
</event>
<event>
 7    1  0.2000468E-015  0.9000761E+02  0.7816164E-02  0.1186339E+00
        -11   -1    0    0    0    0  0.00000000000E+00  0.00000000000E+00  0.45593999997E+02  0.45594000000E+02  0.51100000000E-03 0.  1.
         11   -1    0    0    0    0 -0.00000000000E+00 -0.00000000000E+00 -0.45593999997E+02  0.45594000000E+02  0.51100000000E-03 0. -1.
    9900012    2    1    2    0    0  0.33932055218E+00 -0.93658065792E+00 -0.63323844274E+00  0.90007613330E+02  0.89999873026E+02 0.  0.
         12    1    1    2    0    0 -0.33932055218E+00  0.93658065792E+00  0.63323844274E+00  0.11803866702E+01  0.00000000000E+00 0. -1.
         11    1    3    3    0    0  0.22192653445E+02 -0.22442500547E+02  0.15805615481E+02  0.35298685227E+02  0.51100000000E-03 0. -1.
        -11    1    3    3    0    0  0.11618492015E+02  0.13036155842E+01  0.13255270419E+01  0.11766299015E+02  0.51100000000E-03 0.  1.
        -12    1    3    3    0    0 -0.33471824908E+02  0.20202304305E+02 -0.17764380965E+02  0.42942629088E+02  0.00000000000E+00 0.  1.
</event>
<event>
 7    1  0.2000468E-015  0.9000770E+02  0.7816164E-02  0.1186339E+00
        -11   -1    0    0    0    0  0.00000000000E+00  0.00000000000E+00  0.45593999997E+02  0.45594000000E+02  0.51100000000E-03 0. -1.
         11   -1    0    0    0    0 -0.00000000000E+00 -0.00000000000E+00 -0.45593999997E+02  0.45594000000E+02  0.51100000000E-03 0.  1.
    9900012    2    1    2    0    0 -0.57714410782E+00 -0.53328350082E+00 -0.88068795162E+00  0.90007704325E+02  0.89999965222E+02 0.  0.
         12    1    1    2    0    0  0.57714410782E+00  0.53328350082E+00  0.88068795162E+00  0.11802956755E+01  0.00000000000E+00 0. -1.
         11    1    3    3    0    0  0.48312081678E+01  0.47908763036E+01  0.89288720806E+01  0.11225766121E+02  0.51100000000E-03 0. -1.
        -11    1    3    3    0    0  0.33866487194E+02  0.48483986065E+01  0.69071555991E+01  0.34902073328E+02  0.51100000000E-03 0.  1.
         12    1    3    3    0    0 -0.39274839469E+02 -0.10172558411E+02 -0.16716715631E+02  0.43879864875E+02  0.00000000000E+00 0. -1.
</event>
<event>
 7    1  0.2000468E-015  0.9000772E+02  0.7816164E-02  0.1186339E+00
        -11   -1    0    0    0    0  0.00000000000E+00  0.00000000000E+00  0.45593999997E+02  0.45594000000E+02  0.51100000000E-03 0.  1.
         11   -1    0    0    0    0 -0.00000000000E+00 -0.00000000000E+00 -0.45593999997E+02  0.45594000000E+02  0.51100000000E-03 0. -1.
    9900012    2    1    2    0    0 -0.38849792857E+00  0.18224015373E+00  0.10995100629E+01  0.90007718469E+02  0.89999979553E+02 0.  0.
         12    1    1    2    0    0  0.38849792857E+00 -0.18224015373E+00 -0.10995100629E+01  0.11802815310E+01  0.00000000000E+00 0. -1.
         11    1    3    3    0    0 -0.13091291607E+02  0.81922267307E+01 -0.31171553384E+02  0.34787357407E+02  0.51100000000E-03 0. -1.
        -11    1    3    3    0    0 -0.52745873563E+01  0.47474010417E+01 -0.71377807654E+01  0.10065137999E+02  0.51100000000E-03 0.  1.
        -12    1    3    3    0    0  0.17977381035E+02 -0.12757387619E+02  0.39408844212E+02  0.45155223063E+02  0.00000000000E+00 0.  1.
</event>
<event>
 7    1  0.2000468E-015  0.9000768E+02  0.7816164E-02  0.1186339E+00
        -11   -1    0    0    0    0  0.00000000000E+00  0.00000000000E+00  0.45593999997E+02  0.45594000000E+02  0.51100000000E-03 0.  1.
         11   -1    0    0    0    0 -0.00000000000E+00 -0.00000000000E+00 -0.45593999997E+02  0.45594000000E+02  0.51100000000E-03 0. -1.
    9900012    2    1    2    0    0  0.12459476473E+00 -0.52843658921E+00  0.10480382120E+01  0.90007680900E+02  0.89999941488E+02 0.  0.
         12    1    1    2    0    0 -0.12459476473E+00  0.52843658921E+00 -0.10480382120E+01  0.11803191001E+01  0.00000000000E+00 0. -1.
         11    1    3    3    0    0  0.35016346558E+01  0.58833097255E+01  0.81019555139E+01  0.10607377715E+02  0.51100000000E-03 0. -1.
        -11    1    3    3    0    0  0.65805843966E+01  0.35158036219E+02  0.15294757580E+01  0.35801269505E+02  0.51100000000E-03 0.  1.
         12    1    3    3    0    0 -0.99576242877E+01 -0.41569782534E+02 -0.85833930599E+01  0.43599033680E+02  0.00000000000E+00 0. -1.
</event>
<event>
 7    1  0.2000468E-015  0.9000758E+02  0.7816164E-02  0.1186339E+00
        -11   -1    0    0    0    0  0.00000000000E+00  0.00000000000E+00  0.45593999997E+02  0.45594000000E+02  0.51100000000E-03 0.  1.
         11   -1    0    0    0    0 -0.00000000000E+00 -0.00000000000E+00 -0.45593999997E+02  0.45594000000E+02  0.51100000000E-03 0. -1.
    9900012    2    1    2    0    0 -0.66529984008E-01  0.28711849647E+00  0.11430296374E+01  0.90007584810E+02  0.89999844129E+02 0.  0.
         12    1    1    2    0    0  0.66529984008E-01 -0.28711849647E+00 -0.11430296374E+01  0.11804151904E+01  0.00000000000E+00 0. -1.
         11    1    3    3    0    0 -0.45990172090E+01  0.90262090034E+01 -0.15837497211E+01  0.10253373674E+02  0.51100000000E-03 0. -1.
        -11    1    3    3    0    0  0.31561007970E+02  0.19851719450E+02 -0.96414975514E+01  0.38511640636E+02  0.51100000000E-03 0.  1.
         12    1    3    3    0    0 -0.27028520745E+02 -0.28590809957E+02  0.12368276910E+02  0.41242570499E+02  0.00000000000E+00 0. -1.
</event>
<event>
 7    1  0.2000468E-015  0.9000775E+02  0.7816164E-02  0.1186339E+00
        -11   -1    0    0    0    0  0.00000000000E+00  0.00000000000E+00  0.45593999997E+02  0.45594000000E+02  0.51100000000E-03 0. -1.
         11   -1    0    0    0    0 -0.00000000000E+00 -0.00000000000E+00 -0.45593999997E+02  0.45594000000E+02  0.51100000000E-03 0.  1.
    9900012    2    1    2    0    0  0.83974641878E+00  0.32589171944E+00 -0.76263011165E+00  0.90007752506E+02  0.90000014039E+02 0.  0.
         12    1    1    2    0    0 -0.83974641878E+00 -0.32589171944E+00  0.76263011165E+00  0.11802474943E+01  0.00000000000E+00 0. -1.
         11    1    3    3    0    0 -0.16508690272E+02 -0.24452713719E+02  0.60831111507E+01  0.30124347366E+02  0.51100000000E-03 0. -1.
        -11    1    3    3    0    0 -0.12184363855E+02  0.42241040537E+01 -0.18062884733E+02  0.22193908686E+02  0.51100000000E-03 0.  1.
        -12    1    3    3    0    0  0.29532800546E+02  0.20554501385E+02  0.11217143471E+02  0.37689496453E+02  0.00000000000E+00 0.  1.
</event>
<event>
 7    1  0.2000468E-015  0.9000771E+02  0.7816164E-02  0.1186339E+00
        -11   -1    0    0    0    0  0.00000000000E+00  0.00000000000E+00  0.45593999997E+02  0.45594000000E+02  0.51100000000E-03 0.  1.
         11   -1    0    0    0    0 -0.00000000000E+00 -0.00000000000E+00 -0.45593999997E+02  0.45594000000E+02  0.51100000000E-03 0. -1.
    9900012    2    1    2    0    0 -0.36667015680E+00 -0.53971343140E+00  0.98353748276E+00  0.90007710386E+02  0.89999971364E+02 0.  0.
         12    1    1    2    0    0  0.36667015680E+00  0.53971343140E+00 -0.98353748276E+00  0.11802896136E+01  0.00000000000E+00 0. -1.
         11    1    3    3    0    0  0.69106074859E+01 -0.62302927467E+01 -0.34191232560E+01  0.99127921210E+01  0.51100000000E-03 0. -1.
        -11    1    3    3    0    0  0.19021846230E+02  0.13975704255E+02  0.32867409412E+02  0.40465016312E+02  0.51100000000E-03 0.  1.
         12    1    3    3    0    0 -0.26299123873E+02 -0.82851249394E+01 -0.28464748674E+02  0.39629901953E+02  0.00000000000E+00 0. -1.
</event>
<event>
 7    1  0.2000468E-015  0.9000787E+02  0.7816164E-02  0.1186339E+00
        -11   -1    0    0    0    0  0.00000000000E+00  0.00000000000E+00  0.45593999997E+02  0.45594000000E+02  0.51100000000E-03 0.  1.
         11   -1    0    0    0    0 -0.00000000000E+00 -0.00000000000E+00 -0.45593999997E+02  0.45594000000E+02  0.51100000000E-03 0. -1.
    9900012    2    1    2    0    0 -0.77957424088E+00 -0.43683363711E+00  0.77081156633E+00  0.90007868611E+02  0.90000131677E+02 0.  0.
         12    1    1    2    0    0  0.77957424088E+00  0.43683363711E+00 -0.77081156633E+00  0.11801313886E+01  0.00000000000E+00 0. -1.
         11    1    3    3    0    0  0.35797612020E+02  0.16674559651E+02  0.67979402996E+01  0.40071460648E+02  0.51100000000E-03 0. -1.
        -11    1    3    3    0    0 -0.31284089920E+01  0.60761405075E+01 -0.62127854195E+01  0.92360775883E+01  0.51100000000E-03 0.  1.
        -12    1    3    3    0    0 -0.33448777269E+02 -0.23187533795E+02  0.18565668620E+00  0.40700330375E+02  0.00000000000E+00 0.  1.
</event>
<event>
 7    1  0.2407471E-015  0.9000779E+02  0.7816164E-02  0.1186339E+00
        -11   -1    0    0    0    0  0.00000000000E+00  0.00000000000E+00  0.45593999997E+02  0.45594000000E+02  0.51100000000E-03 0.  1.
         11   -1    0    0    0    0 -0.00000000000E+00 -0.00000000000E+00 -0.45593999997E+02  0.45594000000E+02  0.51100000000E-03 0. -1.
    9900012    2    1    2    0    0  0.11163826891E+01  0.75436964588E-01 -0.37534477654E+00  0.90007794617E+02  0.90000056706E+02 0.  0.
         12    1    1    2    0    0 -0.11163826891E+01 -0.75436964588E-01  0.37534477654E+00  0.11802053827E+01  0.00000000000E+00 0. -1.
         11    1    3    3    0    0  0.35048349966E+02 -0.22747314661E+01  0.15415421047E+02  0.38356178705E+02  0.51100000000E-03 0. -1.
        -11    1    3    3    0    0  0.95265740680E+00 -0.48970702160E+01  0.75559373694E+01  0.90543383318E+01  0.51100000000E-03 0.  1.
        -12    1    3    3    0    0 -0.34884624683E+02  0.72472386467E+01 -0.23346703193E+02  0.42597277580E+02  0.00000000000E+00 0.  1.
</event>
<event>
 7    1  0.2000468E-015  0.9000798E+02  0.7816164E-02  0.1186339E+00
        -11   -1    0    0    0    0  0.00000000000E+00  0.00000000000E+00  0.45593999997E+02  0.45594000000E+02  0.51100000000E-03 0. -1.
         11   -1    0    0    0    0 -0.00000000000E+00 -0.00000000000E+00 -0.45593999997E+02  0.45594000000E+02  0.51100000000E-03 0.  1.
    9900012    2    1    2    0    0  0.49052100532E+00 -0.70298258262E+00 -0.81095635351E+00  0.90007980689E+02  0.90000245233E+02 0.  0.
         12    1    1    2    0    0 -0.49052100532E+00  0.70298258262E+00  0.81095635351E+00  0.11800193115E+01  0.00000000000E+00 0. -1.
         11    1    3    3    0    0  0.16609780109E+01  0.32294643626E+02  0.64321060964E+01  0.32970818067E+02  0.51100000000E-03 0. -1.
        -11    1    3    3    0    0 -0.14298801262E+02  0.91323151883E+00  0.93062334067E+01  0.17084955072E+02  0.51100000000E-03 0.  1.
        -12    1    3    3    0    0  0.13128344256E+02 -0.33910857728E+02 -0.16549295857E+02  0.39952207550E+02  0.00000000000E+00 0.  1.
</event>
<event>
 7    1  0.2000468E-015  0.9000777E+02  0.7816164E-02  0.1186339E+00
        -11   -1    0    0    0    0  0.00000000000E+00  0.00000000000E+00  0.45593999997E+02  0.45594000000E+02  0.51100000000E-03 0.  1.
         11   -1    0    0    0    0 -0.00000000000E+00 -0.00000000000E+00 -0.45593999997E+02  0.45594000000E+02  0.51100000000E-03 0. -1.
    9900012    2    1    2    0    0  0.48466187770E+00  0.10713455717E+01 -0.10135344229E+00  0.90007766553E+02  0.90000028271E+02 0.  0.
         12    1    1    2    0    0 -0.48466187770E+00 -0.10713455717E+01  0.10135344229E+00  0.11802334472E+01  0.00000000000E+00 0. -1.
         11    1    3    3    0    0  0.31065150516E+01  0.34341200200E+02 -0.11118850921E+02  0.36229784888E+02  0.51100000000E-03 0. -1.
        -11    1    3    3    0    0 -0.15471696227E+01  0.93995773256E+01 -0.59167924050E+00  0.95444157667E+01  0.51100000000E-03 0.  1.
        -12    1    3    3    0    0 -0.10746835512E+01 -0.42669431954E+02  0.11609176720E+02  0.44233565899E+02  0.00000000000E+00 0.  1.
</event>
<event>
 7    1  0.2000468E-015  0.9000780E+02  0.7816164E-02  0.1186339E+00
        -11   -1    0    0    0    0  0.00000000000E+00  0.00000000000E+00  0.45593999997E+02  0.45594000000E+02  0.51100000000E-03 0. -1.
         11   -1    0    0    0    0 -0.00000000000E+00 -0.00000000000E+00 -0.45593999997E+02  0.45594000000E+02  0.51100000000E-03 0.  1.
    9900012    2    1    2    0    0 -0.28620003343E+00 -0.51696404446E+00 -0.10216246855E+01  0.90007796933E+02  0.90000059052E+02 0.  0.
         12    1    1    2    0    0  0.28620003343E+00  0.51696404446E+00  0.10216246855E+01  0.11802030674E+01  0.00000000000E+00 0. -1.
         11    1    3    3    0    0  0.15579286726E+02  0.34366209505E+02  0.39463350453E+01  0.37938424996E+02  0.51100000000E-03 0. -1.
        -11    1    3    3    0    0 -0.14308956316E+01  0.57927645875E+01 -0.65742276587E+01  0.88782911331E+01  0.51100000000E-03 0.  1.
        -12    1    3    3    0    0 -0.14434591128E+02 -0.40675938137E+02  0.16062679279E+01  0.43191080804E+02  0.00000000000E+00 0.  1.
</event>
<event>
 7    1  0.2000468E-015  0.9000773E+02  0.7816164E-02  0.1186339E+00
        -11   -1    0    0    0    0  0.00000000000E+00  0.00000000000E+00  0.45593999997E+02  0.45594000000E+02  0.51100000000E-03 0. -1.
         11   -1    0    0    0    0 -0.00000000000E+00 -0.00000000000E+00 -0.45593999997E+02  0.45594000000E+02  0.51100000000E-03 0.  1.
    9900012    2    1    2    0    0  0.68236549020E-01 -0.55800199582E+00 -0.10377966361E+01  0.90007727018E+02  0.89999988215E+02 0.  0.
         12    1    1    2    0    0 -0.68236549020E-01  0.55800199582E+00  0.10377966361E+01  0.11802729819E+01  0.00000000000E+00 0. -1.
         11    1    3    3    0    0 -0.15676201807E+01  0.77586144690E-01  0.30036037926E+01  0.33889657190E+01  0.51100000000E-03 0. -1.
        -11    1    3    3    0    0 -0.39521135540E+02  0.48931144985E+01  0.12766988745E+02  0.41819358265E+02  0.51100000000E-03 0.  1.
         12    1    3    3    0    0  0.41156992270E+02 -0.55287026390E+01 -0.16808389173E+02  0.44799403034E+02  0.00000000000E+00 0. -1.
</event>
<event>
 7    1  0.2000468E-015  0.9000781E+02  0.7816164E-02  0.1186339E+00
        -11   -1    0    0    0    0  0.00000000000E+00  0.00000000000E+00  0.45593999997E+02  0.45594000000E+02  0.51100000000E-03 0.  1.
         11   -1    0    0    0    0 -0.00000000000E+00 -0.00000000000E+00 -0.45593999997E+02  0.45594000000E+02  0.51100000000E-03 0. -1.
    9900012    2    1    2    0    0  0.97322797884E+00  0.52630831545E+00  0.41068885947E+00  0.90007814218E+02  0.90000076565E+02 0.  0.
         12    1    1    2    0    0 -0.97322797884E+00 -0.52630831545E+00 -0.41068885947E+00  0.11801857824E+01  0.00000000000E+00 0. -1.
         11    1    3    3    0    0  0.22575110880E+02  0.11243069305E+02 -0.10124476645E+01  0.25240191940E+02  0.51100000000E-03 0. -1.
        -11    1    3    3    0    0  0.12412489277E+02 -0.21231364439E+02 -0.11159703698E+02  0.27007030805E+02  0.51100000000E-03 0.  1.
         12    1    3    3    0    0 -0.34014372178E+02  0.10514603450E+02  0.12582840222E+02  0.37760591473E+02  0.00000000000E+00 0. -1.
</event>
<event>
 7    1  0.2000468E-015  0.9000786E+02  0.7816164E-02  0.1186339E+00
        -11   -1    0    0    0    0  0.00000000000E+00  0.00000000000E+00  0.45593999997E+02  0.45594000000E+02  0.51100000000E-03 0.  1.
         11   -1    0    0    0    0 -0.00000000000E+00 -0.00000000000E+00 -0.45593999997E+02  0.45594000000E+02  0.51100000000E-03 0. -1.
    9900012    2    1    2    0    0  0.91244690984E+00 -0.26624910124E+00  0.69949539372E+00  0.90007855198E+02  0.90000118087E+02 0.  0.
         12    1    1    2    0    0 -0.91244690984E+00  0.26624910124E+00 -0.69949539372E+00  0.11801448017E+01  0.00000000000E+00 0. -1.
         11    1    3    3    0    0  0.23607513387E+02  0.29789815136E+02 -0.16996203935E+02  0.41636747263E+02  0.51100000000E-03 0. -1.
        -11    1    3    3    0    0 -0.34478759696E+01  0.26861536283E+01  0.80895283339E+01  0.91947669325E+01  0.51100000000E-03 0.  1.
        -12    1    3    3    0    0 -0.19247190508E+02 -0.32742217866E+02  0.96061709945E+01  0.39176341003E+02  0.00000000000E+00 0.  1.
</event>
<event>
 7    1  0.2000468E-015  0.9000771E+02  0.7816164E-02  0.1186339E+00
        -11   -1    0    0    0    0  0.00000000000E+00  0.00000000000E+00  0.45593999997E+02  0.45594000000E+02  0.51100000000E-03 0. -1.
         11   -1    0    0    0    0 -0.00000000000E+00 -0.00000000000E+00 -0.45593999997E+02  0.45594000000E+02  0.51100000000E-03 0.  1.
    9900012    2    1    2    0    0  0.89671045514E-01 -0.99317873637E+00 -0.63137326533E+00  0.90007713129E+02  0.89999974142E+02 0.  0.
         12    1    1    2    0    0 -0.89671045514E-01  0.99317873637E+00  0.63137326533E+00  0.11802868715E+01  0.00000000000E+00 0. -1.
         11    1    3    3    0    0  0.95330565130E+01 -0.48638578007E+01  0.18480798103E+02  0.21355940110E+02  0.51100000000E-03 0. -1.
        -11    1    3    3    0    0  0.13358035411E+02 -0.18169878317E+02 -0.27774704179E+02  0.35777308180E+02  0.51100000000E-03 0.  1.
         12    1    3    3    0    0 -0.22801420879E+02  0.22040557381E+02  0.86625328103E+01  0.32874464839E+02  0.00000000000E+00 0. -1.
</event>
<event>
 7    1  0.2000468E-015  0.9000764E+02  0.7816164E-02  0.1186339E+00
        -11   -1    0    0    0    0  0.00000000000E+00  0.00000000000E+00  0.45593999997E+02  0.45594000000E+02  0.51100000000E-03 0.  1.
         11   -1    0    0    0    0 -0.00000000000E+00 -0.00000000000E+00 -0.45593999997E+02  0.45594000000E+02  0.51100000000E-03 0. -1.
    9900012    2    1    2    0    0  0.11000356787E+01  0.71687933439E-01  0.42194995343E+00  0.90007635896E+02  0.89999895890E+02 0.  0.
         12    1    1    2    0    0 -0.11000356787E+01 -0.71687933439E-01 -0.42194995343E+00  0.11803641037E+01  0.00000000000E+00 0. -1.
         11    1    3    3    0    0 -0.80172459102E+01 -0.76222825656E+00  0.55604489130E+01  0.97865119566E+01  0.51100000000E-03 0. -1.
        -11    1    3    3    0    0 -0.59091514999E+00 -0.23312903077E+02  0.29051017084E+02  0.37253217639E+02  0.51100000000E-03 0.  1.
         12    1    3    3    0    0  0.97081967389E+01  0.24146819267E+02 -0.34189516043E+02  0.42967906301E+02  0.00000000000E+00 0. -1.
</event>
<event>
 7    1  0.2000468E-015  0.9000786E+02  0.7816164E-02  0.1186339E+00
        -11   -1    0    0    0    0  0.00000000000E+00  0.00000000000E+00  0.45593999997E+02  0.45594000000E+02  0.51100000000E-03 0. -1.
         11   -1    0    0    0    0 -0.00000000000E+00 -0.00000000000E+00 -0.45593999997E+02  0.45594000000E+02  0.51100000000E-03 0.  1.
    9900012    2    1    2    0    0  0.19145016987E+00  0.10854401032E+01  0.42178547775E+00  0.90007857477E+02  0.90000120396E+02 0.  0.
         12    1    1    2    0    0 -0.19145016987E+00 -0.10854401032E+01 -0.42178547775E+00  0.11801425229E+01  0.00000000000E+00 0. -1.
         11    1    3    3    0    0 -0.20811367907E+02 -0.36536893716E+02  0.44492038487E+01  0.42283011385E+02  0.51100000000E-03 0. -1.
        -11    1    3    3    0    0  0.86162367987E+00  0.46623025923E+01 -0.75739457173E+01  0.89355534142E+01  0.51100000000E-03 0.  1.
        -12    1    3    3    0    0  0.20141194397E+02  0.32960031227E+02  0.35465273463E+01  0.38789292678E+02  0.00000000000E+00 0.  1.
</event>
<event>
 7    1  0.2000468E-015  0.9000781E+02  0.7816164E-02  0.1186339E+00
        -11   -1    0    0    0    0  0.00000000000E+00  0.00000000000E+00  0.45593999997E+02  0.45594000000E+02  0.51100000000E-03 0. -1.
         11   -1    0    0    0    0 -0.00000000000E+00 -0.00000000000E+00 -0.45593999997E+02  0.45594000000E+02  0.51100000000E-03 0.  1.
    9900012    2    1    2    0    0  0.22858437802E+00 -0.22997824084E+00 -0.11347714908E+01  0.90007810547E+02  0.90000072846E+02 0.  0.
         12    1    1    2    0    0 -0.22858437802E+00  0.22997824084E+00  0.11347714908E+01  0.11801894532E+01  0.00000000000E+00 0. -1.
         11    1    3    3    0    0  0.90920808195E+01  0.30228789651E+01  0.15501198730E+00  0.95826802014E+01  0.51100000000E-03 0. -1.
        -11    1    3    3    0    0  0.74802382113E+00  0.37668897573E+02  0.46879637961E+01  0.37966859085E+02  0.51100000000E-03 0.  1.
         12    1    3    3    0    0 -0.96115202626E+01 -0.40921754779E+02 -0.59777472741E+01  0.42458271260E+02  0.00000000000E+00 0. -1.
</event>
<event>
 7    1  0.2000468E-015  0.9000772E+02  0.7816164E-02  0.1186339E+00
        -11   -1    0    0    0    0  0.00000000000E+00  0.00000000000E+00  0.45593999997E+02  0.45594000000E+02  0.51100000000E-03 0. -1.
         11   -1    0    0    0    0 -0.00000000000E+00 -0.00000000000E+00 -0.45593999997E+02  0.45594000000E+02  0.51100000000E-03 0.  1.
    9900012    2    1    2    0    0  0.13386081556E+00 -0.11690083679E+01 -0.92524745487E-01  0.90007720325E+02  0.89999981434E+02 0.  0.
         12    1    1    2    0    0 -0.13386081556E+00  0.11690083679E+01  0.92524745487E-01  0.11802796748E+01  0.00000000000E+00 0. -1.
         11    1    3    3    0    0 -0.13753537437E+01  0.87203580182E+01  0.38127294634E+02  0.39136004373E+02  0.51100000000E-03 0. -1.
        -11    1    3    3    0    0  0.73296337877E+01 -0.42566200893E+01  0.29025974317E+01  0.89592085676E+01  0.51100000000E-03 0.  1.
        -12    1    3    3    0    0 -0.58204192284E+01 -0.56327462968E+01 -0.41122416812E+02  0.41912507385E+02  0.00000000000E+00 0.  1.
</event>
<event>
 7    1  0.2000468E-015  0.9000769E+02  0.7816164E-02  0.1186339E+00
        -11   -1    0    0    0    0  0.00000000000E+00  0.00000000000E+00  0.45593999997E+02  0.45594000000E+02  0.51100000000E-03 0. -1.
         11   -1    0    0    0    0 -0.00000000000E+00 -0.00000000000E+00 -0.45593999997E+02  0.45594000000E+02  0.51100000000E-03 0.  1.
    9900012    2    1    2    0    0 -0.11464055523E+01  0.24225079484E+00 -0.14216603591E+00  0.90007685500E+02  0.89999946148E+02 0.  0.
         12    1    1    2    0    0  0.11464055523E+01 -0.24225079484E+00  0.14216603591E+00  0.11803145003E+01  0.00000000000E+00 0. -1.
         11    1    3    3    0    0  0.99455196507E+01 -0.37341159039E+02  0.95483772410E+01  0.39805113085E+02  0.51100000000E-03 0. -1.
        -11    1    3    3    0    0 -0.86076039159E+01 -0.21838642444E+01  0.10323853311E+01  0.89401301973E+01  0.51100000000E-03 0.  1.
        -12    1    3    3    0    0 -0.24843212870E+01  0.39767274078E+02 -0.10722928608E+02  0.41262442218E+02  0.00000000000E+00 0.  1.
</event>
<event>
 7    1  0.2000468E-015  0.9000777E+02  0.7816164E-02  0.1186339E+00
        -11   -1    0    0    0    0  0.00000000000E+00  0.00000000000E+00  0.45593999997E+02  0.45594000000E+02  0.51100000000E-03 0.  1.
         11   -1    0    0    0    0 -0.00000000000E+00 -0.00000000000E+00 -0.45593999997E+02  0.45594000000E+02  0.51100000000E-03 0. -1.
    9900012    2    1    2    0    0  0.13991411733E+00  0.17366286495E+00  0.11589711554E+01  0.90007767442E+02  0.90000029173E+02 0.  0.
         12    1    1    2    0    0 -0.13991411733E+00 -0.17366286495E+00 -0.11589711554E+01  0.11802325576E+01  0.00000000000E+00 0. -1.
         11    1    3    3    0    0 -0.73744810163E+01 -0.34327380980E+02 -0.98119933716E+01  0.36455826275E+02  0.51100000000E-03 0. -1.
        -11    1    3    3    0    0  0.77973031543E+01 -0.72279379043E+01  0.32133429712E+01  0.11107051640E+02  0.51100000000E-03 0.  1.
        -12    1    3    3    0    0 -0.28290802067E+00  0.41728981749E+02  0.77576215558E+01  0.42444889527E+02  0.00000000000E+00 0.  1.
</event>
<event>
 7    1  0.2000468E-015  0.9000766E+02  0.7816164E-02  0.1186339E+00
        -11   -1    0    0    0    0  0.00000000000E+00  0.00000000000E+00  0.45593999997E+02  0.45594000000E+02  0.51100000000E-03 0.  1.
         11   -1    0    0    0    0 -0.00000000000E+00 -0.00000000000E+00 -0.45593999997E+02  0.45594000000E+02  0.51100000000E-03 0. -1.
    9900012    2    1    2    0    0 -0.25279320040E+00 -0.11475477135E+01  0.11155199027E+00  0.90007655134E+02  0.89999915381E+02 0.  0.
         12    1    1    2    0    0  0.25279320040E+00  0.11475477135E+01 -0.11155199027E+00  0.11803448663E+01  0.00000000000E+00 0. -1.
         11    1    3    3    0    0 -0.15172787390E+01  0.77377684329E+01 -0.23114070841E+01  0.82169214468E+01  0.51100000000E-03 0. -1.
        -11    1    3    3    0    0  0.25820672084E+00 -0.50470983230E+01  0.41855281239E+02  0.42159274662E+02  0.51100000000E-03 0.  1.
         12    1    3    3    0    0  0.10062788177E+01 -0.38382178234E+01 -0.39432322165E+02  0.39631459025E+02  0.00000000000E+00 0. -1.
</event>
<event>
 7    1  0.2000468E-015  0.9000768E+02  0.7816164E-02  0.1186339E+00
        -11   -1    0    0    0    0  0.00000000000E+00  0.00000000000E+00  0.45593999997E+02  0.45594000000E+02  0.51100000000E-03 0. -1.
         11   -1    0    0    0    0 -0.00000000000E+00 -0.00000000000E+00 -0.45593999997E+02  0.45594000000E+02  0.51100000000E-03 0.  1.
    9900012    2    1    2    0    0  0.10776135035E+00  0.11295323430E+01 -0.32510880485E+00  0.90007681586E+02  0.89999942183E+02 0.  0.
         12    1    1    2    0    0 -0.10776135035E+00 -0.11295323430E+01  0.32510880485E+00  0.11803184136E+01  0.00000000000E+00 0. -1.
         11    1    3    3    0    0  0.14166482756E+02 -0.15255296882E+02  0.28846688948E+02  0.35574496204E+02  0.51100000000E-03 0. -1.
        -11    1    3    3    0    0  0.40084040796E+00 -0.53175125919E+01  0.76419814278E+01  0.93186100681E+01  0.51100000000E-03 0.  1.
        -12    1    3    3    0    0 -0.14459561814E+02  0.21702341817E+02 -0.36813779181E+02  0.45114575314E+02  0.00000000000E+00 0.  1.
</event>
<event>
 7    1  0.2000468E-015  0.9000780E+02  0.7816164E-02  0.1186339E+00
        -11   -1    0    0    0    0  0.00000000000E+00  0.00000000000E+00  0.45593999997E+02  0.45594000000E+02  0.51100000000E-03 0. -1.
         11   -1    0    0    0    0 -0.00000000000E+00 -0.00000000000E+00 -0.45593999997E+02  0.45594000000E+02  0.51100000000E-03 0.  1.
    9900012    2    1    2    0    0 -0.10029645514E+01  0.36688341304E+00 -0.50233379029E+00  0.90007796388E+02  0.90000058500E+02 0.  0.
         12    1    1    2    0    0  0.10029645514E+01 -0.36688341304E+00  0.50233379029E+00  0.11802036125E+01  0.00000000000E+00 0. -1.
         11    1    3    3    0    0  0.15478221378E+02 -0.69103044194E+01 -0.12240103729E+01  0.16994877047E+02  0.51100000000E-03 0. -1.
        -11    1    3    3    0    0 -0.35725567476E+01 -0.18308689044E+02 -0.27213012683E+02  0.32992716102E+02  0.51100000000E-03 0.  1.
         12    1    3    3    0    0 -0.12908629181E+02  0.25585876877E+02  0.27934689266E+02  0.40020203239E+02  0.00000000000E+00 0. -1.
</event>
<event>
 7    1  0.2000468E-015  0.9000779E+02  0.7816164E-02  0.1186339E+00
        -11   -1    0    0    0    0  0.00000000000E+00  0.00000000000E+00  0.45593999997E+02  0.45594000000E+02  0.51100000000E-03 0.  1.
         11   -1    0    0    0    0 -0.00000000000E+00 -0.00000000000E+00 -0.45593999997E+02  0.45594000000E+02  0.51100000000E-03 0. -1.
    9900012    2    1    2    0    0 -0.11361868486E+00 -0.87991622581E+00 -0.77829199515E+00  0.90007788070E+02  0.90000050073E+02 0.  0.
         12    1    1    2    0    0  0.11361868486E+00  0.87991622581E+00  0.77829199515E+00  0.11802119300E+01  0.00000000000E+00 0. -1.
         11    1    3    3    0    0  0.16589510214E+02 -0.64992071883E+01  0.68557237205E+01  0.19090638837E+02  0.51100000000E-03 0. -1.
        -11    1    3    3    0    0  0.12181672599E+02 -0.24343647220E+02  0.44430817153E+01  0.27581647569E+02  0.51100000000E-03 0.  1.
         12    1    3    3    0    0 -0.28884801498E+02  0.29962938182E+02 -0.12077097431E+02  0.43335501663E+02  0.00000000000E+00 0. -1.
</event>
<event>
 7    1  0.2000468E-015  0.9000770E+02  0.7816164E-02  0.1186339E+00
        -11   -1    0    0    0    0  0.00000000000E+00  0.00000000000E+00  0.45593999997E+02  0.45594000000E+02  0.51100000000E-03 0.  1.
         11   -1    0    0    0    0 -0.00000000000E+00 -0.00000000000E+00 -0.45593999997E+02  0.45594000000E+02  0.51100000000E-03 0. -1.
    9900012    2    1    2    0    0  0.95940071203E+00 -0.18795519399E-01  0.68724886846E+00  0.90007697494E+02  0.89999958301E+02 0.  0.
         12    1    1    2    0    0 -0.95940071203E+00  0.18795519399E-01 -0.68724886846E+00  0.11803025057E+01  0.00000000000E+00 0. -1.
         11    1    3    3    0    0 -0.10439479018E+01  0.41188637313E+01  0.36880626598E+01  0.56264262283E+01  0.51100000000E-03 0. -1.
        -11    1    3    3    0    0 -0.24894448754E+02  0.18792083924E+02 -0.27331499254E+02  0.41471518524E+02  0.51100000000E-03 0.  1.
         12    1    3    3    0    0  0.26897797368E+02 -0.22929743175E+02  0.24330685463E+02  0.42909752742E+02  0.00000000000E+00 0. -1.
</event>
<event>
 7    1  0.2000468E-015  0.9000766E+02  0.7816164E-02  0.1186339E+00
        -11   -1    0    0    0    0  0.00000000000E+00  0.00000000000E+00  0.45593999997E+02  0.45594000000E+02  0.51100000000E-03 0.  1.
         11   -1    0    0    0    0 -0.00000000000E+00 -0.00000000000E+00 -0.45593999997E+02  0.45594000000E+02  0.51100000000E-03 0. -1.
    9900012    2    1    2    0    0  0.88954564946E+00 -0.57786503341E+00 -0.51767943355E+00  0.90007656213E+02  0.89999916475E+02 0.  0.
         12    1    1    2    0    0 -0.88954564946E+00  0.57786503341E+00  0.51767943355E+00  0.11803437869E+01  0.00000000000E+00 0. -1.
         11    1    3    3    0    0 -0.53158346961E+01  0.27853096107E+02 -0.16966308689E+02  0.33044041703E+02  0.51100000000E-03 0. -1.
        -11    1    3    3    0    0  0.74301973241E+00  0.70603267828E+01 -0.10072088076E+02  0.12322631662E+02  0.51100000000E-03 0.  1.
        -12    1    3    3    0    0  0.54623606132E+01 -0.35491287923E+02  0.26520717331E+02  0.44640982849E+02  0.00000000000E+00 0.  1.
</event>
<event>
 8    1  0.2000468E-015  0.9000765E+02  0.7816164E-02  0.1186339E+00
        -11   -1    0    0    0    0  0.00000000000E+00  0.00000000000E+00  0.45593999997E+02  0.45594000000E+02  0.51100000000E-03 0.  1.
         11   -1    0    0    0    0 -0.00000000000E+00 -0.00000000000E+00 -0.45593999997E+02  0.45594000000E+02  0.51100000000E-03 0. -1.
    9900012    2    1    2    0    0 -0.65583370303E+00  0.79603094638E+00  0.57398106559E+00  0.90007645232E+02  0.89999905349E+02 0.  0.
         23    2    3    3    0    0 -0.11254520823E+02 -0.14430073319E+02 -0.16011545910E+02  0.65122988818E+02  0.60413101354E+02 0.  0.
         12    1    1    2    0    0  0.65583370303E+00 -0.79603094638E+00 -0.57398106559E+00  0.11803547676E+01  0.00000000000E+00 0. -1.
         11    1    4    4    0    0 -0.30258191023E+02  0.64716699582E+01  0.29763044056E+01  0.31085350637E+02  0.51100000000E-03 0. -1.
        -11    1    4    4    0    0  0.19003670200E+02 -0.20901743278E+02 -0.18987850316E+02  0.34037638182E+02  0.51100000000E-03 0.  1.
        -12    1    3    3    0    0  0.10598687120E+02  0.15226104266E+02  0.16585526976E+02  0.24884656414E+02  0.00000000000E+00 0.  1.
</event>
<event>
 7    1  0.2000468E-015  0.9000776E+02  0.7816164E-02  0.1186339E+00
        -11   -1    0    0    0    0  0.00000000000E+00  0.00000000000E+00  0.45593999997E+02  0.45594000000E+02  0.51100000000E-03 0. -1.
         11   -1    0    0    0    0 -0.00000000000E+00 -0.00000000000E+00 -0.45593999997E+02  0.45594000000E+02  0.51100000000E-03 0.  1.
    9900012    2    1    2    0    0 -0.95540795290E+00  0.47553365178E+00  0.50401407560E+00  0.90007759855E+02  0.90000021486E+02 0.  0.
         12    1    1    2    0    0  0.95540795290E+00 -0.47553365178E+00 -0.50401407560E+00  0.11802401446E+01  0.00000000000E+00 0. -1.
         11    1    3    3    0    0  0.38278147741E+02  0.95961572122E+00  0.16522600888E+02  0.41702923125E+02  0.51100000000E-03 0. -1.
        -11    1    3    3    0    0 -0.74649162381E+01  0.76426163832E+01  0.20297303525E+01  0.10874482295E+02  0.51100000000E-03 0.  1.
        -12    1    3    3    0    0 -0.31768639456E+02 -0.81266984526E+01 -0.18048317165E+02  0.37430354435E+02  0.00000000000E+00 0.  1.
</event>
<event>
 7    1  0.2000468E-015  0.9000764E+02  0.7816164E-02  0.1186339E+00
        -11   -1    0    0    0    0  0.00000000000E+00  0.00000000000E+00  0.45593999997E+02  0.45594000000E+02  0.51100000000E-03 0. -1.
         11   -1    0    0    0    0 -0.00000000000E+00 -0.00000000000E+00 -0.45593999997E+02  0.45594000000E+02  0.51100000000E-03 0.  1.
    9900012    2    1    2    0    0 -0.11287759956E+01  0.34115041256E+00 -0.52224169895E-01  0.90007641488E+02  0.89999901556E+02 0.  0.
         12    1    1    2    0    0  0.11287759956E+01 -0.34115041256E+00  0.52224169895E-01  0.11803585117E+01  0.00000000000E+00 0. -1.
         11    1    3    3    0    0  0.10519176544E+02 -0.62048373839E+00  0.20213431134E+01  0.10729580769E+02  0.51100000000E-03 0. -1.
        -11    1    3    3    0    0  0.33159814292E+01  0.37765827054E+02 -0.89604277037E+01  0.38955650307E+02  0.51100000000E-03 0.  1.
         12    1    3    3    0    0 -0.14963933969E+02 -0.36804192903E+02  0.68868604204E+01  0.40322410413E+02  0.00000000000E+00 0. -1.
</event>
<event>
 7    1  0.2000468E-015  0.9000775E+02  0.7816164E-02  0.1186339E+00
        -11   -1    0    0    0    0  0.00000000000E+00  0.00000000000E+00  0.45593999997E+02  0.45594000000E+02  0.51100000000E-03 0.  1.
         11   -1    0    0    0    0 -0.00000000000E+00 -0.00000000000E+00 -0.45593999997E+02  0.45594000000E+02  0.51100000000E-03 0. -1.
    9900012    2    1    2    0    0 -0.64336846382E+00 -0.98079343471E+00 -0.13077297198E+00  0.90007754131E+02  0.90000015685E+02 0.  0.
         12    1    1    2    0    0  0.64336846382E+00  0.98079343471E+00  0.13077297198E+00  0.11802458693E+01  0.00000000000E+00 0. -1.
         11    1    3    3    0    0  0.71150549278E+01  0.65253631553E+01  0.35863829866E+01  0.10298859846E+02  0.51100000000E-03 0. -1.
        -11    1    3    3    0    0 -0.26402110012E+01 -0.11532019212E+02  0.36808731921E+02  0.38663172750E+02  0.51100000000E-03 0.  1.
         12    1    3    3    0    0 -0.51182123904E+01  0.40258626219E+01 -0.40525887879E+02  0.41045721535E+02  0.00000000000E+00 0. -1.
</event>
<event>
 7    1  0.2000468E-015  0.9000772E+02  0.7816164E-02  0.1186339E+00
        -11   -1    0    0    0    0  0.00000000000E+00  0.00000000000E+00  0.45593999997E+02  0.45594000000E+02  0.51100000000E-03 0.  1.
         11   -1    0    0    0    0 -0.00000000000E+00 -0.00000000000E+00 -0.45593999997E+02  0.45594000000E+02  0.51100000000E-03 0. -1.
    9900012    2    1    2    0    0 -0.82750972654E+00  0.16678778888E+00  0.82490543333E+00  0.90007720589E+02  0.89999981701E+02 0.  0.
         12    1    1    2    0    0  0.82750972654E+00 -0.16678778888E+00 -0.82490543333E+00  0.11802794110E+01  0.00000000000E+00 0. -1.
         11    1    3    3    0    0 -0.26245115395E+01  0.36387595959E+02 -0.90771365520E+01  0.37594409275E+02  0.51100000000E-03 0. -1.
        -11    1    3    3    0    0 -0.31148151061E+01  0.71413419195E+01  0.77403600055E+00  0.78294297077E+01  0.51100000000E-03 0.  1.
        -12    1    3    3    0    0  0.49118169191E+01 -0.43362150090E+02  0.91280059847E+01  0.44583881606E+02  0.00000000000E+00 0.  1.
</event>
<event>
 7    1  0.2000468E-015  0.9000772E+02  0.7816164E-02  0.1186339E+00
        -11   -1    0    0    0    0  0.00000000000E+00  0.00000000000E+00  0.45593999997E+02  0.45594000000E+02  0.51100000000E-03 0.  1.
         11   -1    0    0    0    0 -0.00000000000E+00 -0.00000000000E+00 -0.45593999997E+02  0.45594000000E+02  0.51100000000E-03 0. -1.
    9900012    2    1    2    0    0 -0.84198922328E+00 -0.80833019905E+00 -0.17525314783E+00  0.90007721546E+02  0.89999982671E+02 0.  0.
         12    1    1    2    0    0  0.84198922328E+00  0.80833019905E+00  0.17525314783E+00  0.11802784539E+01  0.00000000000E+00 0. -1.
         11    1    3    3    0    0 -0.39895814245E+01 -0.10901638726E+02  0.39747686195E+00  0.11615527322E+02  0.51100000000E-03 0. -1.
        -11    1    3    3    0    0  0.12914725126E+01 -0.34110631013E+02 -0.93347728170E+00  0.34147831988E+02  0.51100000000E-03 0.  1.
         12    1    3    3    0    0  0.18561196887E+01  0.44203939540E+02  0.36074727191E+00  0.44244362237E+02  0.00000000000E+00 0. -1.
</event>
<event>
 7    1  0.2556179E-015  0.9000757E+02  0.7816164E-02  0.1186339E+00
        -11   -1    0    0    0    0  0.00000000000E+00  0.00000000000E+00  0.45593999997E+02  0.45594000000E+02  0.51100000000E-03 0. -1.
         11   -1    0    0    0    0 -0.00000000000E+00 -0.00000000000E+00 -0.45593999997E+02  0.45594000000E+02  0.51100000000E-03 0.  1.
    9900012    2    1    2    0    0 -0.22254149843E+00 -0.28563257779E+00 -0.11235274998E+01  0.90007565872E+02  0.89999824941E+02 0.  0.
         12    1    1    2    0    0  0.22254149843E+00  0.28563257779E+00  0.11235274998E+01  0.11804341281E+01  0.00000000000E+00 0. -1.
         11    1    3    3    0    0 -0.11968336963E+02  0.33118872296E+02  0.14707400279E+02  0.38162919373E+02  0.51100000000E-03 0. -1.
        -11    1    3    3    0    0  0.82550566651E+01  0.42934452240E+01  0.27068225840E+01  0.96905377146E+01  0.51100000000E-03 0.  1.
        -12    1    3    3    0    0  0.34907387997E+01 -0.37697950098E+02 -0.18537750363E+02  0.42154108785E+02  0.00000000000E+00 0.  1.
</event>
<event>
 7    1  0.2000468E-015  0.9000730E+02  0.7816164E-02  0.1186340E+00
        -11   -1    0    0    0    0  0.00000000000E+00  0.00000000000E+00  0.45593999997E+02  0.45594000000E+02  0.51100000000E-03 0. -1.
         11   -1    0    0    0    0 -0.00000000000E+00 -0.00000000000E+00 -0.45593999997E+02  0.45594000000E+02  0.51100000000E-03 0.  1.
    9900012    2    1    2    0    0  0.57177412274E+00 -0.99784970849E+00  0.26726535995E+00  0.90007296625E+02  0.89999552139E+02 0.  0.
         12    1    1    2    0    0 -0.57177412274E+00  0.99784970849E+00 -0.26726535995E+00  0.11807033754E+01  0.00000000000E+00 0. -1.
         11    1    3    3    0    0  0.30398752313E+02 -0.10673376225E+02  0.23590238015E+02  0.39931246313E+02  0.51100000000E-03 0. -1.
        -11    1    3    3    0    0  0.65028821097E+01  0.12450963463E+01 -0.60745659880E+01  0.89854378217E+01  0.51100000000E-03 0.  1.
        -12    1    3    3    0    0 -0.36329860300E+02  0.84304301703E+01 -0.17248406667E+02  0.41090612490E+02  0.00000000000E+00 0.  1.
</event>
<event>
 7    1  0.2000468E-015  0.9000773E+02  0.7816164E-02  0.1186339E+00
        -11   -1    0    0    0    0  0.00000000000E+00  0.00000000000E+00  0.45593999997E+02  0.45594000000E+02  0.51100000000E-03 0.  1.
         11   -1    0    0    0    0 -0.00000000000E+00 -0.00000000000E+00 -0.45593999997E+02  0.45594000000E+02  0.51100000000E-03 0. -1.
    9900012    2    1    2    0    0  0.11139067284E+01 -0.19738051866E+00 -0.33659903667E+00  0.90007726227E+02  0.89999987413E+02 0.  0.
         12    1    1    2    0    0 -0.11139067284E+01  0.19738051866E+00  0.33659903667E+00  0.11802737734E+01  0.00000000000E+00 0. -1.
         11    1    3    3    0    0 -0.33326823829E+02  0.22668385378E+01 -0.27177069768E+02  0.43062847850E+02  0.51100000000E-03 0. -1.
        -11    1    3    3    0    0  0.13800638253E+01 -0.44439693720E+01  0.67806288605E+01  0.82237684759E+01  0.51100000000E-03 0.  1.
        -12    1    3    3    0    0  0.33060666732E+02  0.19797503155E+01  0.20059841871E+02  0.38721109901E+02  0.00000000000E+00 0.  1.
</event>
<event>
 7    1  0.2000468E-015  0.9000771E+02  0.7816164E-02  0.1186339E+00
        -11   -1    0    0    0    0  0.00000000000E+00  0.00000000000E+00  0.45593999997E+02  0.45594000000E+02  0.51100000000E-03 0. -1.
         11   -1    0    0    0    0 -0.00000000000E+00 -0.00000000000E+00 -0.45593999997E+02  0.45594000000E+02  0.51100000000E-03 0.  1.
    9900012    2    1    2    0    0 -0.11571874506E+01  0.40133941534E-01  0.22886727795E+00  0.90007714543E+02  0.89999975575E+02 0.  0.
         12    1    1    2    0    0  0.11571874506E+01 -0.40133941534E-01 -0.22886727795E+00  0.11802854570E+01  0.00000000000E+00 0. -1.
         11    1    3    3    0    0  0.53017200266E+01  0.68257839916E+00  0.37845501994E+01  0.65495777715E+01  0.51100000000E-03 0. -1.
        -11    1    3    3    0    0  0.31116773102E+02 -0.15460457443E+02 -0.19719980206E+02  0.39951932772E+02  0.51100000000E-03 0.  1.
         12    1    3    3    0    0 -0.37575680579E+02  0.14818012985E+02  0.16164297284E+02  0.43506204000E+02  0.00000000000E+00 0. -1.
</event>
<event>
 7    1  0.2000468E-015  0.9000773E+02  0.7816164E-02  0.1186339E+00
        -11   -1    0    0    0    0  0.00000000000E+00  0.00000000000E+00  0.45593999997E+02  0.45594000000E+02  0.51100000000E-03 0. -1.
         11   -1    0    0    0    0 -0.00000000000E+00 -0.00000000000E+00 -0.45593999997E+02  0.45594000000E+02  0.51100000000E-03 0.  1.
    9900012    2    1    2    0    0  0.34355768671E+00  0.10296888426E+01 -0.46339593148E+00  0.90007734443E+02  0.89999995737E+02 0.  0.
         12    1    1    2    0    0 -0.34355768671E+00 -0.10296888426E+01  0.46339593148E+00  0.11802655574E+01  0.00000000000E+00 0. -1.
         11    1    3    3    0    0 -0.91782377842E+00 -0.47424896405E+01 -0.88726021505E+01  0.10102310511E+02  0.51100000000E-03 0. -1.
        -11    1    3    3    0    0 -0.33710530771E+02 -0.15547401837E+02 -0.34013959485E+01  0.37278560640E+02  0.51100000000E-03 0.  1.
         12    1    3    3    0    0  0.34971912237E+02  0.21319580320E+02  0.11810602168E+02  0.42626863291E+02  0.00000000000E+00 0. -1.
</event>
<event>
 7    1  0.2000468E-015  0.9000770E+02  0.7816164E-02  0.1186339E+00
        -11   -1    0    0    0    0  0.00000000000E+00  0.00000000000E+00  0.45593999997E+02  0.45594000000E+02  0.51100000000E-03 0. -1.
         11   -1    0    0    0    0 -0.00000000000E+00 -0.00000000000E+00 -0.45593999997E+02  0.45594000000E+02  0.51100000000E-03 0.  1.
    9900012    2    1    2    0    0 -0.97336593777E+00 -0.62010228098E+00 -0.24726543581E+00  0.90007699918E+02  0.89999960757E+02 0.  0.
         12    1    1    2    0    0  0.97336593777E+00  0.62010228098E+00  0.24726543581E+00  0.11803000819E+01  0.00000000000E+00 0. -1.
         11    1    3    3    0    0  0.94470407162E+01 -0.50906260973E+01 -0.88009416579E-01  0.10731672669E+02  0.51100000000E-03 0. -1.
        -11    1    3    3    0    0  0.59730195897E+01 -0.36455134594E+01 -0.37259695255E+02  0.37911101569E+02  0.51100000000E-03 0.  1.
         12    1    3    3    0    0 -0.16393426244E+02  0.81160372757E+01  0.37100439236E+02  0.41364925680E+02  0.00000000000E+00 0. -1.
</event>
<event>
 7    1  0.2000468E-015  0.9000773E+02  0.7816164E-02  0.1186339E+00
        -11   -1    0    0    0    0  0.00000000000E+00  0.00000000000E+00  0.45593999997E+02  0.45594000000E+02  0.51100000000E-03 0.  1.
         11   -1    0    0    0    0 -0.00000000000E+00 -0.00000000000E+00 -0.45593999997E+02  0.45594000000E+02  0.51100000000E-03 0. -1.
    9900012    2    1    2    0    0 -0.19234732373E+00  0.67467938285E+00  0.94912489809E+00  0.90007733998E+02  0.89999995287E+02 0.  0.
         12    1    1    2    0    0  0.19234732373E+00 -0.67467938285E+00 -0.94912489809E+00  0.11802660017E+01  0.00000000000E+00 0. -1.
         11    1    3    3    0    0  0.32841910517E+02  0.54482152451E+01 -0.13514015870E+02  0.35929135266E+02  0.51100000000E-03 0. -1.
        -11    1    3    3    0    0 -0.20391826884E+01  0.14890547584E+02  0.71799033524E+01  0.16656460783E+02  0.51100000000E-03 0.  1.
        -12    1    3    3    0    0 -0.30995075152E+02 -0.19664083447E+02  0.72832374154E+01  0.37422137950E+02  0.00000000000E+00 0.  1.
</event>
<event>
 7    1  0.2000468E-015  0.9000775E+02  0.7816164E-02  0.1186339E+00
        -11   -1    0    0    0    0  0.00000000000E+00  0.00000000000E+00  0.45593999997E+02  0.45594000000E+02  0.51100000000E-03 0.  1.
         11   -1    0    0    0    0 -0.00000000000E+00 -0.00000000000E+00 -0.45593999997E+02  0.45594000000E+02  0.51100000000E-03 0. -1.
    9900012    2    1    2    0    0  0.45524040055E+00 -0.91067154037E+00  0.59701964419E+00  0.90007746242E+02  0.90000007693E+02 0.  0.
         12    1    1    2    0    0 -0.45524040055E+00  0.91067154037E+00 -0.59701964419E+00  0.11802537576E+01  0.00000000000E+00 0. -1.
         11    1    3    3    0    0 -0.14003301557E+01  0.64598707842E+01 -0.81028774951E+01  0.10456934496E+02  0.51100000000E-03 0. -1.
        -11    1    3    3    0    0 -0.27604914666E+02  0.18788529596E+02  0.19539187119E+02  0.38688757949E+02  0.51100000000E-03 0.  1.
         12    1    3    3    0    0  0.29460485222E+02 -0.26159071920E+02 -0.10839289980E+02  0.40862053797E+02  0.00000000000E+00 0. -1.
</event>
<event>
 7    1  0.2000468E-015  0.9000783E+02  0.7816164E-02  0.1186339E+00
        -11   -1    0    0    0    0  0.00000000000E+00  0.00000000000E+00  0.45593999997E+02  0.45594000000E+02  0.51100000000E-03 0. -1.
         11   -1    0    0    0    0 -0.00000000000E+00 -0.00000000000E+00 -0.45593999997E+02  0.45594000000E+02  0.51100000000E-03 0.  1.
    9900012    2    1    2    0    0  0.84219973817E+00  0.75252681209E+00 -0.34236506322E+00  0.90007825929E+02  0.90000088431E+02 0.  0.
         12    1    1    2    0    0 -0.84219973817E+00 -0.75252681209E+00  0.34236506322E+00  0.11801740712E+01  0.00000000000E+00 0. -1.
         11    1    3    3    0    0 -0.74214274289E+01  0.41701975471E+01 -0.34002175752E+01  0.91667667410E+01  0.51100000000E-03 0. -1.
        -11    1    3    3    0    0  0.50625832719E+01  0.25448446712E+02  0.31077352290E+02  0.40485244411E+02  0.51100000000E-03 0.  1.
         12    1    3    3    0    0  0.32010438951E+01 -0.28866117447E+02 -0.28019499778E+02  0.40355814777E+02  0.00000000000E+00 0. -1.
</event>
<event>
 7    1  0.2000468E-015  0.9000775E+02  0.7816164E-02  0.1186339E+00
        -11   -1    0    0    0    0  0.00000000000E+00  0.00000000000E+00  0.45593999997E+02  0.45594000000E+02  0.51100000000E-03 0.  1.
         11   -1    0    0    0    0 -0.00000000000E+00 -0.00000000000E+00 -0.45593999997E+02  0.45594000000E+02  0.51100000000E-03 0. -1.
    9900012    2    1    2    0    0 -0.62390692208E+00  0.92850689594E+00  0.37629128310E+00  0.90007754249E+02  0.90000015805E+02 0.  0.
         12    1    1    2    0    0  0.62390692208E+00 -0.92850689594E+00 -0.37629128310E+00  0.11802457511E+01  0.00000000000E+00 0. -1.
         11    1    3    3    0    0  0.37956472848E+02  0.14442124088E+02 -0.29221687263E+01  0.40716186579E+02  0.51100000000E-03 0. -1.
        -11    1    3    3    0    0 -0.53583002590E+01  0.47262985055E+01 -0.70155278006E+01  0.10013336597E+02  0.51100000000E-03 0.  1.
        -12    1    3    3    0    0 -0.33222079511E+02 -0.18239915697E+02  0.10313987810E+02  0.39278231073E+02  0.00000000000E+00 0.  1.
</event>
<event>
 7    1  0.2000468E-015  0.9000768E+02  0.7816164E-02  0.1186339E+00
        -11   -1    0    0    0    0  0.00000000000E+00  0.00000000000E+00  0.45593999997E+02  0.45594000000E+02  0.51100000000E-03 0.  1.
         11   -1    0    0    0    0 -0.00000000000E+00 -0.00000000000E+00 -0.45593999997E+02  0.45594000000E+02  0.51100000000E-03 0. -1.
    9900012    2    1    2    0    0  0.68817312975E+00  0.84199077725E+00  0.45894075420E+00  0.90007679136E+02  0.89999939701E+02 0.  0.
         12    1    1    2    0    0 -0.68817312975E+00 -0.84199077725E+00 -0.45894075420E+00  0.11803208637E+01  0.00000000000E+00 0. -1.
         11    1    3    3    0    0 -0.89798323935E+01 -0.49731587306E+00  0.35609817441E+01  0.96729160100E+01  0.51100000000E-03 0. -1.
        -11    1    3    3    0    0  0.37992999304E+02 -0.10488221661E+02  0.17750239891E+02  0.43226633066E+02  0.51100000000E-03 0.  1.
         12    1    3    3    0    0 -0.28324993781E+02  0.11827528311E+02 -0.20852280881E+02  0.37108130061E+02  0.00000000000E+00 0. -1.
</event>
<event>
 7    1  0.2000468E-015  0.9000781E+02  0.7816164E-02  0.1186339E+00
        -11   -1    0    0    0    0  0.00000000000E+00  0.00000000000E+00  0.45593999997E+02  0.45594000000E+02  0.51100000000E-03 0. -1.
         11   -1    0    0    0    0 -0.00000000000E+00 -0.00000000000E+00 -0.45593999997E+02  0.45594000000E+02  0.51100000000E-03 0.  1.
    9900012    2    1    2    0    0 -0.37373274338E+00 -0.11192729206E+01  0.19786789698E-01  0.90007813764E+02  0.90000076106E+02 0.  0.
         12    1    1    2    0    0  0.37373274338E+00  0.11192729206E+01 -0.19786789698E-01  0.11801862359E+01  0.00000000000E+00 0. -1.
         11    1    3    3    0    0  0.84771758768E+01  0.25508129702E+01  0.36703256137E+00  0.88602410135E+01  0.51100000000E-03 0. -1.
        -11    1    3    3    0    0  0.18160872661E+02 -0.29399747673E+02 -0.19004076239E+02  0.39437512256E+02  0.51100000000E-03 0.  1.
         12    1    3    3    0    0 -0.27011781281E+02  0.25729661782E+02  0.18656830467E+02  0.41710060494E+02  0.00000000000E+00 0. -1.
</event>
<event>
 7    1  0.2000468E-015  0.9000775E+02  0.7816164E-02  0.1186339E+00
        -11   -1    0    0    0    0  0.00000000000E+00  0.00000000000E+00  0.45593999997E+02  0.45594000000E+02  0.51100000000E-03 0.  1.
         11   -1    0    0    0    0 -0.00000000000E+00 -0.00000000000E+00 -0.45593999997E+02  0.45594000000E+02  0.51100000000E-03 0. -1.
    9900012    2    1    2    0    0 -0.16590702378E+00  0.68783317751E+00  0.94464007669E+00  0.90007752359E+02  0.90000013890E+02 0.  0.
         12    1    1    2    0    0  0.16590702378E+00 -0.68783317751E+00 -0.94464007669E+00  0.11802476414E+01  0.00000000000E+00 0. -1.
         11    1    3    3    0    0  0.36969392909E+01 -0.84105789908E+01 -0.50584874318E+00  0.92011457055E+01  0.51100000000E-03 0. -1.
        -11    1    3    3    0    0 -0.23734155311E+02 -0.17897803866E+02  0.25811472453E+02  0.39368434336E+02  0.51100000000E-03 0.  1.
         12    1    3    3    0    0  0.19871308997E+02  0.26996216035E+02 -0.24360983633E+02  0.41438172317E+02  0.00000000000E+00 0. -1.
</event>
<event>
 7    1  0.2472757E-015  0.9000774E+02  0.7816164E-02  0.1186339E+00
        -11   -1    0    0    0    0  0.00000000000E+00  0.00000000000E+00  0.45593999997E+02  0.45594000000E+02  0.51100000000E-03 0. -1.
         11   -1    0    0    0    0 -0.00000000000E+00 -0.00000000000E+00 -0.45593999997E+02  0.45594000000E+02  0.51100000000E-03 0.  1.
    9900012    2    1    2    0    0  0.13923950643E+00  0.43417031294E+00 -0.10886297718E+01  0.90007743129E+02  0.90000004539E+02 0.  0.
         12    1    1    2    0    0 -0.13923950643E+00 -0.43417031294E+00  0.10886297718E+01  0.11802568707E+01  0.00000000000E+00 0. -1.
         11    1    3    3    0    0  0.21665784108E+02 -0.21403238332E+02  0.17690456683E+02  0.35220123083E+02  0.51100000000E-03 0. -1.
        -11    1    3    3    0    0  0.83719450670E+01 -0.54777207336E+01  0.32576140225E+00  0.10010045424E+02  0.51100000000E-03 0.  1.
        -12    1    3    3    0    0 -0.29898489668E+02  0.27315129378E+02 -0.19104847857E+02  0.44777574622E+02  0.00000000000E+00 0.  1.
</event>
<event>
 7    1  0.2000468E-015  0.9000763E+02  0.7816164E-02  0.1186339E+00
        -11   -1    0    0    0    0  0.00000000000E+00  0.00000000000E+00  0.45593999997E+02  0.45594000000E+02  0.51100000000E-03 0.  1.
         11   -1    0    0    0    0 -0.00000000000E+00 -0.00000000000E+00 -0.45593999997E+02  0.45594000000E+02  0.51100000000E-03 0. -1.
    9900012    2    1    2    0    0 -0.64670665639E+00  0.72293016839E+00  0.67262404681E+00  0.90007626908E+02  0.89999886783E+02 0.  0.
         12    1    1    2    0    0  0.64670665639E+00 -0.72293016839E+00 -0.67262404681E+00  0.11803730919E+01  0.00000000000E+00 0. -1.
         11    1    3    3    0    0 -0.74070277255E+01  0.43670154773E+01 -0.60740831283E+01  0.10527552898E+02  0.51100000000E-03 0. -1.
        -11    1    3    3    0    0  0.20869080263E+02  0.29948053874E+02 -0.12105355393E+02  0.38457041895E+02  0.51100000000E-03 0.  1.
        -12    1    3    3    0    0 -0.14108759194E+02 -0.33592139183E+02  0.18852062568E+02  0.41023032115E+02  0.00000000000E+00 0.  1.
</event>
<event>
 7    1  0.2000468E-015  0.9000774E+02  0.7816164E-02  0.1186339E+00
        -11   -1    0    0    0    0  0.00000000000E+00  0.00000000000E+00  0.45593999997E+02  0.45594000000E+02  0.51100000000E-03 0.  1.
         11   -1    0    0    0    0 -0.00000000000E+00 -0.00000000000E+00 -0.45593999997E+02  0.45594000000E+02  0.51100000000E-03 0. -1.
    9900012    2    1    2    0    0 -0.10325024386E+01  0.33197427254E+00 -0.46556004728E+00  0.90007739706E+02  0.90000001070E+02 0.  0.
         12    1    1    2    0    0  0.10325024386E+01 -0.33197427254E+00  0.46556004728E+00  0.11802602937E+01  0.00000000000E+00 0. -1.
         11    1    3    3    0    0  0.22811220872E+01  0.42402709480E+01  0.27954269916E+00  0.48230239550E+01  0.51100000000E-03 0. -1.
        -11    1    3    3    0    0 -0.19594657458E+02 -0.22109758364E+02  0.32508651434E+02  0.43927262994E+02  0.51100000000E-03 0.  1.
         12    1    3    3    0    0  0.16281032932E+02  0.18201461689E+02 -0.33253754180E+02  0.41257452757E+02  0.00000000000E+00 0. -1.
</event>
<event>
 7    1  0.2000468E-015  0.9000796E+02  0.7816164E-02  0.1186339E+00
        -11   -1    0    0    0    0  0.00000000000E+00  0.00000000000E+00  0.45593999997E+02  0.45594000000E+02  0.51100000000E-03 0.  1.
         11   -1    0    0    0    0 -0.00000000000E+00 -0.00000000000E+00 -0.45593999997E+02  0.45594000000E+02  0.51100000000E-03 0. -1.
    9900012    2    1    2    0    0  0.69058923007E+00  0.87552730847E+00 -0.38604959096E+00  0.90007959391E+02  0.90000223655E+02 0.  0.
         12    1    1    2    0    0 -0.69058923007E+00 -0.87552730847E+00  0.38604959096E+00  0.11800406091E+01  0.00000000000E+00 0. -1.
         11    1    3    3    0    0 -0.21621134111E+01  0.63879997251E+01 -0.64467700499E+01  0.93296366075E+01  0.51100000000E-03 0. -1.
        -11    1    3    3    0    0 -0.18251703319E+02 -0.20036014643E+02  0.33531576145E+02  0.43115347104E+02  0.51100000000E-03 0.  1.
         12    1    3    3    0    0  0.21104405960E+02  0.14523542227E+02 -0.27470855686E+02  0.37562975679E+02  0.00000000000E+00 0. -1.
</event>
<event>
 7    1  0.2000468E-015  0.9000780E+02  0.7816164E-02  0.1186339E+00
        -11   -1    0    0    0    0  0.00000000000E+00  0.00000000000E+00  0.45593999997E+02  0.45594000000E+02  0.51100000000E-03 0. -1.
         11   -1    0    0    0    0 -0.00000000000E+00 -0.00000000000E+00 -0.45593999997E+02  0.45594000000E+02  0.51100000000E-03 0.  1.
    9900012    2    1    2    0    0 -0.17791195378E+00 -0.93510003055E+00 -0.69771396857E+00  0.90007801071E+02  0.90000063245E+02 0.  0.
         12    1    1    2    0    0  0.17791195378E+00  0.93510003055E+00  0.69771396857E+00  0.11801989292E+01  0.00000000000E+00 0. -1.
         11    1    3    3    0    0  0.31137093147E+01 -0.82384927499E+01 -0.29008861099E+01  0.92727066690E+01  0.51100000000E-03 0. -1.
        -11    1    3    3    0    0  0.27865461283E+02 -0.23736413273E+02  0.31964523844E+01  0.36743959445E+02  0.51100000000E-03 0.  1.
         12    1    3    3    0    0 -0.31157082551E+02  0.31039805993E+02 -0.99328024310E+00  0.43991134957E+02  0.00000000000E+00 0. -1.
</event>
<event>
 8    1  0.2000468E-015  0.9000764E+02  0.7816164E-02  0.1186339E+00
        -11   -1    0    0    0    0  0.00000000000E+00  0.00000000000E+00  0.45593999997E+02  0.45594000000E+02  0.51100000000E-03 0.  1.
         11   -1    0    0    0    0 -0.00000000000E+00 -0.00000000000E+00 -0.45593999997E+02  0.45594000000E+02  0.51100000000E-03 0. -1.
    9900012    2    1    2    0    0 -0.10579348159E+01  0.36039015636E+00 -0.37967175411E+00  0.90007636590E+02  0.89999896593E+02 0.  0.
         23    2    3    3    0    0 -0.33990700876E+01  0.19439599467E+02 -0.21116644959E+02  0.61731866044E+02  0.54547767012E+02 0.  0.
         12    1    1    2    0    0  0.10579348159E+01 -0.36039015636E+00  0.37967175411E+00  0.11803634103E+01  0.00000000000E+00 0. -1.
         11    1    4    4    0    0 -0.12576403750E+02  0.25408669141E+02 -0.34361938969E+02  0.44547831022E+02  0.51100000000E-03 0. -1.
        -11    1    4    4    0    0  0.91773336621E+01 -0.59690696741E+01  0.13245294011E+02  0.17184035021E+02  0.51100000000E-03 0.  1.
        -12    1    3    3    0    0  0.23411352717E+01 -0.19079209311E+02  0.20736973205E+02  0.28275770546E+02  0.00000000000E+00 0.  1.
</event>
<event>
 7    1  0.2000468E-015  0.9000777E+02  0.7816164E-02  0.1186339E+00
        -11   -1    0    0    0    0  0.00000000000E+00  0.00000000000E+00  0.45593999997E+02  0.45594000000E+02  0.51100000000E-03 0.  1.
         11   -1    0    0    0    0 -0.00000000000E+00 -0.00000000000E+00 -0.45593999997E+02  0.45594000000E+02  0.51100000000E-03 0. -1.
    9900012    2    1    2    0    0  0.75563691978E-01 -0.10815061337E+01 -0.46646269743E+00  0.90007765770E+02  0.90000027479E+02 0.  0.
         12    1    1    2    0    0 -0.75563691978E-01  0.10815061337E+01  0.46646269743E+00  0.11802342296E+01  0.00000000000E+00 0. -1.
         11    1    3    3    0    0 -0.40364664937E+01 -0.92887520411E+01  0.52914367535E+01  0.11426866561E+02  0.51100000000E-03 0. -1.
        -11    1    3    3    0    0 -0.79458728699E+01 -0.30859758335E+02  0.11939455556E+02  0.34029578008E+02  0.51100000000E-03 0.  1.
         12    1    3    3    0    0  0.12057903056E+02  0.39067004242E+02 -0.17697355007E+02  0.44551321201E+02  0.00000000000E+00 0. -1.
</event>
<event>
 7    1  0.2000468E-015  0.9000776E+02  0.7816164E-02  0.1186339E+00
        -11   -1    0    0    0    0  0.00000000000E+00  0.00000000000E+00  0.45593999997E+02  0.45594000000E+02  0.51100000000E-03 0.  1.
         11   -1    0    0    0    0 -0.00000000000E+00 -0.00000000000E+00 -0.45593999997E+02  0.45594000000E+02  0.51100000000E-03 0. -1.
    9900012    2    1    2    0    0 -0.39254710609E+00  0.10968222597E+01 -0.18937703870E+00  0.90007755973E+02  0.90000017552E+02 0.  0.
         12    1    1    2    0    0  0.39254710609E+00 -0.10968222597E+01  0.18937703870E+00  0.11802440267E+01  0.00000000000E+00 0. -1.
         11    1    3    3    0    0 -0.44341077097E+01  0.43440418529E+01  0.76544117860E+01  0.98550510324E+01  0.51100000000E-03 0. -1.
        -11    1    3    3    0    0  0.38338300660E+02 -0.98297631183E+01  0.10160965925E+02  0.40861898747E+02  0.51100000000E-03 0.  1.
         12    1    3    3    0    0 -0.34296740056E+02  0.65825435252E+01 -0.18004754749E+02  0.39290806194E+02  0.00000000000E+00 0. -1.
</event>
<event>
 7    1  0.2000468E-015  0.9000754E+02  0.7816164E-02  0.1186339E+00
        -11   -1    0    0    0    0  0.00000000000E+00  0.00000000000E+00  0.45593999997E+02  0.45594000000E+02  0.51100000000E-03 0.  1.
         11   -1    0    0    0    0 -0.00000000000E+00 -0.00000000000E+00 -0.45593999997E+02  0.45594000000E+02  0.51100000000E-03 0. -1.
    9900012    2    1    2    0    0  0.69988271128E+00  0.63262997373E+00  0.70953348366E+00  0.90007536423E+02  0.89999795103E+02 0.  0.
         12    1    1    2    0    0 -0.69988271128E+00 -0.63262997373E+00 -0.70953348366E+00  0.11804635774E+01  0.00000000000E+00 0. -1.
         11    1    3    3    0    0 -0.86118380643E+01 -0.36815272425E+01 -0.88927764340E+00  0.94078803495E+01  0.51100000000E-03 0. -1.
        -11    1    3    3    0    0 -0.34241129416E+02  0.25534145183E+01 -0.94887075970E+01  0.35623172817E+02  0.51100000000E-03 0.  1.
         12    1    3    3    0    0  0.43552850192E+02  0.17607426979E+01  0.11087518724E+02  0.44976483257E+02  0.00000000000E+00 0. -1.
</event>
<event>
 7    1  0.2000468E-015  0.9000770E+02  0.7816164E-02  0.1186339E+00
        -11   -1    0    0    0    0  0.00000000000E+00  0.00000000000E+00  0.45593999997E+02  0.45594000000E+02  0.51100000000E-03 0.  1.
         11   -1    0    0    0    0 -0.00000000000E+00 -0.00000000000E+00 -0.45593999997E+02  0.45594000000E+02  0.51100000000E-03 0. -1.
    9900012    2    1    2    0    0 -0.14553586183E+00 -0.67201810007E+00  0.95933232712E+00  0.90007700238E+02  0.89999961081E+02 0.  0.
         12    1    1    2    0    0  0.14553586183E+00  0.67201810007E+00 -0.95933232712E+00  0.11802997618E+01  0.00000000000E+00 0. -1.
         11    1    3    3    0    0 -0.81043682909E+00  0.18782640841E+01 -0.93605638701E+01  0.95814842301E+01  0.51100000000E-03 0. -1.
        -11    1    3    3    0    0  0.14633135815E+02  0.30829061844E+02  0.24024088025E+02  0.41733877410E+02  0.51100000000E-03 0.  1.
         12    1    3    3    0    0 -0.13968234847E+02 -0.33379344029E+02 -0.13704191828E+02  0.38692338598E+02  0.00000000000E+00 0. -1.
</event>
<event>
 7    1  0.2000468E-015  0.9000778E+02  0.7816164E-02  0.1186339E+00
        -11   -1    0    0    0    0  0.00000000000E+00  0.00000000000E+00  0.45593999997E+02  0.45594000000E+02  0.51100000000E-03 0. -1.
         11   -1    0    0    0    0 -0.00000000000E+00 -0.00000000000E+00 -0.45593999997E+02  0.45594000000E+02  0.51100000000E-03 0.  1.
    9900012    2    1    2    0    0  0.87011385857E+00  0.79421634720E+00  0.71046135960E-01  0.90007777442E+02  0.90000039304E+02 0.  0.
         12    1    1    2    0    0 -0.87011385857E+00 -0.79421634720E+00 -0.71046135960E-01  0.11802225580E+01  0.00000000000E+00 0. -1.
         11    1    3    3    0    0  0.10808426051E+02 -0.27777913384E+02 -0.12675819378E+02  0.32389982137E+02  0.51100000000E-03 0. -1.
        -11    1    3    3    0    0  0.91595748226E+01 -0.79919020941E+01 -0.44234843097E+01  0.12935823272E+02  0.51100000000E-03 0.  1.
        -12    1    3    3    0    0 -0.19097887015E+02  0.36564031825E+02  0.17170349823E+02  0.44681972034E+02  0.00000000000E+00 0.  1.
</event>
<event>
 7    1  0.2000468E-015  0.9000761E+02  0.7816164E-02  0.1186339E+00
        -11   -1    0    0    0    0  0.00000000000E+00  0.00000000000E+00  0.45593999997E+02  0.45594000000E+02  0.51100000000E-03 0. -1.
         11   -1    0    0    0    0 -0.00000000000E+00 -0.00000000000E+00 -0.45593999997E+02  0.45594000000E+02  0.51100000000E-03 0.  1.
    9900012    2    1    2    0    0 -0.89026515420E+00 -0.18964418954E+00 -0.75151432988E+00  0.90007614151E+02  0.89999873858E+02 0.  0.
         12    1    1    2    0    0  0.89026515420E+00  0.18964418954E+00  0.75151432988E+00  0.11803858485E+01  0.00000000000E+00 0. -1.
         11    1    3    3    0    0  0.38329482903E+02 -0.11928214268E+00  0.55187769062E+01  0.38724932364E+02  0.51100000000E-03 0. -1.
        -11    1    3    3    0    0  0.45053678455E+01 -0.45773987294E+01 -0.33122599394E+01  0.72264780300E+01  0.51100000000E-03 0.  1.
        -12    1    3    3    0    0 -0.43725115902E+02  0.45070366826E+01 -0.29580312968E+01  0.44056203757E+02  0.00000000000E+00 0.  1.
</event>
<event>
 7    1  0.2000468E-015  0.9000774E+02  0.7816164E-02  0.1186339E+00
        -11   -1    0    0    0    0  0.00000000000E+00  0.00000000000E+00  0.45593999997E+02  0.45594000000E+02  0.51100000000E-03 0. -1.
         11   -1    0    0    0    0 -0.00000000000E+00 -0.00000000000E+00 -0.45593999997E+02  0.45594000000E+02  0.51100000000E-03 0.  1.
    9900012    2    1    2    0    0 -0.10898634231E+01 -0.45272427879E+00 -0.16057410049E-01  0.90007737574E+02  0.89999998910E+02 0.  0.
         12    1    1    2    0    0  0.10898634231E+01  0.45272427879E+00  0.16057410049E-01  0.11802624259E+01  0.00000000000E+00 0. -1.
         11    1    3    3    0    0  0.20523343647E+02 -0.22735682517E+02 -0.11302262251E+02  0.32647511792E+02  0.51100000000E-03 0. -1.
        -11    1    3    3    0    0 -0.78883209845E+01 -0.11535934765E+02 -0.79763427049E+01  0.16091160370E+02  0.51100000000E-03 0.  1.
        -12    1    3    3    0    0 -0.13724886085E+02  0.33818893003E+02  0.19262547546E+02  0.41269065412E+02  0.00000000000E+00 0.  1.
</event>
<event>
 7    1  0.2000468E-015  0.9000770E+02  0.7816164E-02  0.1186339E+00
        -11   -1    0    0    0    0  0.00000000000E+00  0.00000000000E+00  0.45593999997E+02  0.45594000000E+02  0.51100000000E-03 0. -1.
         11   -1    0    0    0    0 -0.00000000000E+00 -0.00000000000E+00 -0.45593999997E+02  0.45594000000E+02  0.51100000000E-03 0.  1.
    9900012    2    1    2    0    0  0.68445395753E+00 -0.58580577760E+00 -0.76254238702E+00  0.90007696428E+02  0.89999957221E+02 0.  0.
         12    1    1    2    0    0 -0.68445395753E+00  0.58580577760E+00  0.76254238702E+00  0.11803035716E+01  0.00000000000E+00 0. -1.
         11    1    3    3    0    0 -0.17505468730E+02  0.30953196219E+02 -0.96420768689E+01  0.36844422078E+02  0.51100000000E-03 0. -1.
        -11    1    3    3    0    0  0.13495448371E+00  0.84497732867E+01  0.29768814593E+00  0.84560924665E+01  0.51100000000E-03 0.  1.
        -12    1    3    3    0    0  0.18054968204E+02 -0.39988775283E+02  0.85818463359E+01  0.44707181884E+02  0.00000000000E+00 0.  1.
</event>
<event>
 7    1  0.2000468E-015  0.9000780E+02  0.7816164E-02  0.1186339E+00
        -11   -1    0    0    0    0  0.00000000000E+00  0.00000000000E+00  0.45593999997E+02  0.45594000000E+02  0.51100000000E-03 0. -1.
         11   -1    0    0    0    0 -0.00000000000E+00 -0.00000000000E+00 -0.45593999997E+02  0.45594000000E+02  0.51100000000E-03 0.  1.
    9900012    2    1    2    0    0  0.28441473437E+00  0.10790365421E+01 -0.38425455238E+00  0.90007803761E+02  0.90000065971E+02 0.  0.
         12    1    1    2    0    0 -0.28441473437E+00 -0.10790365421E+01  0.38425455238E+00  0.11801962385E+01  0.00000000000E+00 0. -1.
         11    1    3    3    0    0 -0.10724463843E+02  0.17702710807E+01 -0.21931835402E+01  0.11088644584E+02  0.51100000000E-03 0. -1.
        -11    1    3    3    0    0  0.18080972412E+02 -0.18666027507E+02 -0.31242123447E+02  0.40637574042E+02  0.51100000000E-03 0.  1.
         12    1    3    3    0    0 -0.70720938354E+01  0.17974792969E+02  0.33051052434E+02  0.38281585136E+02  0.00000000000E+00 0. -1.
</event>
<event>
 7    1  0.2000468E-015  0.9000798E+02  0.7816164E-02  0.1186339E+00
        -11   -1    0    0    0    0  0.00000000000E+00  0.00000000000E+00  0.45593999997E+02  0.45594000000E+02  0.51100000000E-03 0. -1.
         11   -1    0    0    0    0 -0.00000000000E+00 -0.00000000000E+00 -0.45593999997E+02  0.45594000000E+02  0.51100000000E-03 0.  1.
    9900012    2    1    2    0    0 -0.65439911102E+00 -0.94929343100E+00  0.25107682251E+00  0.90007984837E+02  0.90000249436E+02 0.  0.
         12    1    1    2    0    0  0.65439911102E+00  0.94929343100E+00 -0.25107682251E+00  0.11800151632E+01  0.00000000000E+00 0. -1.
         11    1    3    3    0    0  0.16065417638E+01 -0.84969357112E+01  0.15095679458E+01  0.87782508829E+01  0.51100000000E-03 0. -1.
        -11    1    3    3    0    0 -0.30925149530E+02 -0.22584795565E+02  0.67300042416E+01  0.38880982774E+02  0.51100000000E-03 0.  1.
         12    1    3    3    0    0  0.28664208655E+02  0.30132437845E+02 -0.79884953649E+01  0.42348751180E+02  0.00000000000E+00 0. -1.
</event>
<event>
 7    1  0.2000468E-015  0.9000774E+02  0.7816164E-02  0.1186339E+00
        -11   -1    0    0    0    0  0.00000000000E+00  0.00000000000E+00  0.45593999997E+02  0.45594000000E+02  0.51100000000E-03 0.  1.
         11   -1    0    0    0    0 -0.00000000000E+00 -0.00000000000E+00 -0.45593999997E+02  0.45594000000E+02  0.51100000000E-03 0. -1.
    9900012    2    1    2    0    0 -0.10657975694E+01 -0.33265046829E-01 -0.50594114092E+00  0.90007742630E+02  0.90000004032E+02 0.  0.
         12    1    1    2    0    0  0.10657975694E+01  0.33265046829E-01  0.50594114092E+00  0.11802573704E+01  0.00000000000E+00 0. -1.
         11    1    3    3    0    0 -0.97098117162E+01  0.50363036625E+01 -0.29502898215E+01  0.11329122139E+02  0.51100000000E-03 0. -1.
        -11    1    3    3    0    0 -0.33423191836E+02  0.83434128271E+01  0.22849968588E+01  0.34524534769E+02  0.51100000000E-03 0.  1.
         12    1    3    3    0    0  0.42067205983E+02 -0.13412981536E+02  0.15935182181E+00  0.44154085722E+02  0.00000000000E+00 0. -1.
</event>
<event>
 7    1  0.2000468E-015  0.9000763E+02  0.7816164E-02  0.1186339E+00
        -11   -1    0    0    0    0  0.00000000000E+00  0.00000000000E+00  0.45593999997E+02  0.45594000000E+02  0.51100000000E-03 0. -1.
         11   -1    0    0    0    0 -0.00000000000E+00 -0.00000000000E+00 -0.45593999997E+02  0.45594000000E+02  0.51100000000E-03 0.  1.
    9900012    2    1    2    0    0  0.52787115600E+00  0.92009775868E+00 -0.51773376428E+00  0.90007628832E+02  0.89999888733E+02 0.  0.
         12    1    1    2    0    0 -0.52787115600E+00 -0.92009775868E+00  0.51773376428E+00  0.11803711677E+01  0.00000000000E+00 0. -1.
         11    1    3    3    0    0 -0.11093390263E+01 -0.42276675350E+00 -0.10229314156E+02  0.10297972284E+02  0.51100000000E-03 0. -1.
        -11    1    3    3    0    0  0.29786614934E+02  0.27142822526E+02 -0.45693331391E-01  0.40298602110E+02  0.51100000000E-03 0.  1.
         12    1    3    3    0    0 -0.28149404751E+02 -0.25799958014E+02  0.97572737230E+01  0.39411054438E+02  0.00000000000E+00 0. -1.
</event>
<event>
 7    1  0.2000468E-015  0.9000778E+02  0.7816164E-02  0.1186339E+00
        -11   -1    0    0    0    0  0.00000000000E+00  0.00000000000E+00  0.45593999997E+02  0.45594000000E+02  0.51100000000E-03 0.  1.
         11   -1    0    0    0    0 -0.00000000000E+00 -0.00000000000E+00 -0.45593999997E+02  0.45594000000E+02  0.51100000000E-03 0. -1.
    9900012    2    1    2    0    0  0.93714253865E-01  0.85745402445E+00  0.80554244182E+00  0.90007784600E+02  0.90000046556E+02 0.  0.
         12    1    1    2    0    0 -0.93714253865E-01 -0.85745402445E+00 -0.80554244182E+00  0.11802154003E+01  0.00000000000E+00 0. -1.
         11    1    3    3    0    0  0.40794012395E+01 -0.73784929581E+01  0.45295398956E+01  0.95708100354E+01  0.51100000000E-03 0. -1.
        -11    1    3    3    0    0  0.27203905739E+02 -0.17970511145E+02  0.14654266876E+02  0.35745479381E+02  0.51100000000E-03 0.  1.
         12    1    3    3    0    0 -0.31189592725E+02  0.26206458127E+02 -0.18378264330E+02  0.44691495183E+02  0.00000000000E+00 0. -1.
</event>
<event>
 7    1  0.2000468E-015  0.9000776E+02  0.7816164E-02  0.1186339E+00
        -11   -1    0    0    0    0  0.00000000000E+00  0.00000000000E+00  0.45593999997E+02  0.45594000000E+02  0.51100000000E-03 0. -1.
         11   -1    0    0    0    0 -0.00000000000E+00 -0.00000000000E+00 -0.45593999997E+02  0.45594000000E+02  0.51100000000E-03 0.  1.
    9900012    2    1    2    0    0  0.82279527350E+00  0.73484460248E+00  0.41949285869E+00  0.90007761503E+02  0.90000023155E+02 0.  0.
         12    1    1    2    0    0 -0.82279527350E+00 -0.73484460248E+00 -0.41949285869E+00  0.11802384972E+01  0.00000000000E+00 0. -1.
         11    1    3    3    0    0  0.61205658687E+01 -0.79511755159E+01  0.44671767929E+01  0.10983541660E+02  0.51100000000E-03 0. -1.
        -11    1    3    3    0    0  0.35405682471E+02 -0.23686208506E+01 -0.88556722059E+01  0.36573154724E+02  0.51100000000E-03 0.  1.
         12    1    3    3    0    0 -0.40703453066E+02  0.11054640969E+02  0.48079882718E+01  0.42451065119E+02  0.00000000000E+00 0. -1.
</event>
<event>
 7    1  0.2000468E-015  0.9000771E+02  0.7816164E-02  0.1186339E+00
        -11   -1    0    0    0    0  0.00000000000E+00  0.00000000000E+00  0.45593999997E+02  0.45594000000E+02  0.51100000000E-03 0. -1.
         11   -1    0    0    0    0 -0.00000000000E+00 -0.00000000000E+00 -0.45593999997E+02  0.45594000000E+02  0.51100000000E-03 0.  1.
    9900012    2    1    2    0    0  0.51801119145E+00  0.55904685924E+00 -0.90123578633E+00  0.90007705576E+02  0.89999966489E+02 0.  0.
         12    1    1    2    0    0 -0.51801119145E+00 -0.55904685924E+00  0.90123578633E+00  0.11802944242E+01  0.00000000000E+00 0. -1.
         11    1    3    3    0    0  0.11688222314E+02  0.92682358935E+01 -0.79940811968E+01  0.16923949654E+02  0.51100000000E-03 0. -1.
        -11    1    3    3    0    0 -0.40490036786E+02 -0.80433180641E+01 -0.45470986711E+01  0.41530881896E+02  0.51100000000E-03 0.  1.
         12    1    3    3    0    0  0.29319825664E+02 -0.66587097013E+00  0.11639944082E+02  0.31552874026E+02  0.00000000000E+00 0. -1.
</event>
<event>
 7    1  0.2000468E-015  0.9000778E+02  0.7816164E-02  0.1186339E+00
        -11   -1    0    0    0    0  0.00000000000E+00  0.00000000000E+00  0.45593999997E+02  0.45594000000E+02  0.51100000000E-03 0. -1.
         11   -1    0    0    0    0 -0.00000000000E+00 -0.00000000000E+00 -0.45593999997E+02  0.45594000000E+02  0.51100000000E-03 0.  1.
    9900012    2    1    2    0    0 -0.11576717365E+01 -0.22722620412E+00  0.33003205671E-01  0.90007777644E+02  0.90000039509E+02 0.  0.
         12    1    1    2    0    0  0.11576717365E+01  0.22722620412E+00 -0.33003205671E-01  0.11802223557E+01  0.00000000000E+00 0. -1.
         11    1    3    3    0    0  0.93283536153E+01  0.26830205792E+01 -0.98017160963E+01  0.13794579345E+02  0.51100000000E-03 0. -1.
        -11    1    3    3    0    0 -0.22089862513E+02  0.26454187002E+00 -0.28486060294E+02  0.36048406894E+02  0.51100000000E-03 0.  1.
         12    1    3    3    0    0  0.11603837161E+02 -0.31747886533E+01  0.38320779596E+02  0.40164791406E+02  0.00000000000E+00 0. -1.
</event>
<event>
 7    1  0.2281224E-015  0.9000775E+02  0.7816164E-02  0.1186339E+00
        -11   -1    0    0    0    0  0.00000000000E+00  0.00000000000E+00  0.45593999997E+02  0.45594000000E+02  0.51100000000E-03 0. -1.
         11   -1    0    0    0    0 -0.00000000000E+00 -0.00000000000E+00 -0.45593999997E+02  0.45594000000E+02  0.51100000000E-03 0.  1.
    9900012    2    1    2    0    0  0.81567985435E+00  0.44410465314E+00 -0.72829847013E+00  0.90007753742E+02  0.90000015291E+02 0.  0.
         12    1    1    2    0    0 -0.81567985435E+00 -0.44410465314E+00  0.72829847013E+00  0.11802462579E+01  0.00000000000E+00 0. -1.
         11    1    3    3    0    0  0.89762381773E+01  0.36185265637E+02 -0.59310241739E+00  0.37286701004E+02  0.51100000000E-03 0. -1.
        -11    1    3    3    0    0  0.90100087126E+01  0.36710067952E+01 -0.18605038429E+00  0.97309384388E+01  0.51100000000E-03 0.  1.
        -12    1    3    3    0    0 -0.17170567036E+02 -0.39412167779E+02  0.50854331550E-01  0.42990114300E+02  0.00000000000E+00 0.  1.
</event>
<event>
 7    1  0.2000468E-015  0.9000775E+02  0.7816164E-02  0.1186339E+00
        -11   -1    0    0    0    0  0.00000000000E+00  0.00000000000E+00  0.45593999997E+02  0.45594000000E+02  0.51100000000E-03 0.  1.
         11   -1    0    0    0    0 -0.00000000000E+00 -0.00000000000E+00 -0.45593999997E+02  0.45594000000E+02  0.51100000000E-03 0. -1.
    9900012    2    1    2    0    0 -0.74512833339E+00  0.28308069558E+00  0.87042215018E+00  0.90007751877E+02  0.90000013401E+02 0.  0.
         12    1    1    2    0    0  0.74512833339E+00 -0.28308069558E+00 -0.87042215018E+00  0.11802481235E+01  0.00000000000E+00 0. -1.
         11    1    3    3    0    0  0.31895739891E+01 -0.33354097437E+01  0.42141307535E+01  0.62495790786E+01  0.51100000000E-03 0. -1.
        -11    1    3    3    0    0  0.24095150909E+01 -0.38361263339E+02 -0.12320343229E+02  0.40363140927E+02  0.51100000000E-03 0.  1.
         12    1    3    3    0    0 -0.63442174134E+01  0.41979753778E+02  0.89766346260E+01  0.43395031871E+02  0.00000000000E+00 0. -1.
</event>
<event>
 7    1  0.2000468E-015  0.9000773E+02  0.7816164E-02  0.1186339E+00
        -11   -1    0    0    0    0  0.00000000000E+00  0.00000000000E+00  0.45593999997E+02  0.45594000000E+02  0.51100000000E-03 0. -1.
         11   -1    0    0    0    0 -0.00000000000E+00 -0.00000000000E+00 -0.45593999997E+02  0.45594000000E+02  0.51100000000E-03 0.  1.
    9900012    2    1    2    0    0  0.40771142552E-01 -0.12896480814E+00 -0.11724958152E+01  0.90007728572E+02  0.89999989789E+02 0.  0.
         12    1    1    2    0    0 -0.40771142552E-01  0.12896480814E+00  0.11724958152E+01  0.11802714283E+01  0.00000000000E+00 0. -1.
         11    1    3    3    0    0  0.29066367936E+01 -0.78570268454E+01  0.32372489678E+01  0.89811574666E+01  0.51100000000E-03 0. -1.
        -11    1    3    3    0    0  0.12226289499E+01 -0.36622661283E+01 -0.41670919376E+02  0.41849403062E+02  0.51100000000E-03 0.  1.
         12    1    3    3    0    0 -0.40884946009E+01  0.11390328165E+02  0.37261174593E+02  0.39177168043E+02  0.00000000000E+00 0. -1.
</event>
<event>
 7    1  0.2000468E-015  0.9000794E+02  0.7816164E-02  0.1186339E+00
        -11   -1    0    0    0    0  0.00000000000E+00  0.00000000000E+00  0.45593999997E+02  0.45594000000E+02  0.51100000000E-03 0. -1.
         11   -1    0    0    0    0 -0.00000000000E+00 -0.00000000000E+00 -0.45593999997E+02  0.45594000000E+02  0.51100000000E-03 0.  1.
    9900012    2    1    2    0    0 -0.91185404804E+00  0.68828346248E+00 -0.29552196765E+00  0.90007938492E+02  0.90000202480E+02 0.  0.
         12    1    1    2    0    0  0.91185404804E+00 -0.68828346248E+00  0.29552196765E+00  0.11800615081E+01  0.00000000000E+00 0. -1.
         11    1    3    3    0    0  0.17284680801E+02 -0.32595346140E+01  0.29779122110E+02  0.34585847831E+02  0.51100000000E-03 0. -1.
        -11    1    3    3    0    0  0.61758774337E+01  0.30443119673E+01  0.77810249727E+01  0.10390074462E+02  0.51100000000E-03 0.  1.
        -12    1    3    3    0    0 -0.24372412283E+02  0.90350610912E+00 -0.37855669050E+02  0.45032016199E+02  0.00000000000E+00 0.  1.
</event>
<event>
 7    1  0.2000468E-015  0.9000779E+02  0.7816164E-02  0.1186339E+00
        -11   -1    0    0    0    0  0.00000000000E+00  0.00000000000E+00  0.45593999997E+02  0.45594000000E+02  0.51100000000E-03 0.  1.
         11   -1    0    0    0    0 -0.00000000000E+00 -0.00000000000E+00 -0.45593999997E+02  0.45594000000E+02  0.51100000000E-03 0. -1.
    9900012    2    1    2    0    0 -0.11146292914E+00  0.98848406438E+00  0.63510855277E+00  0.90007793406E+02  0.90000055479E+02 0.  0.
         12    1    1    2    0    0  0.11146292914E+00 -0.98848406438E+00 -0.63510855277E+00  0.11802065937E+01  0.00000000000E+00 0. -1.
         11    1    3    3    0    0  0.15133055832E+02 -0.65200346340E+01 -0.36113834034E+02  0.39695456155E+02  0.51100000000E-03 0. -1.
        -11    1    3    3    0    0  0.42220288188E+01 -0.66148077400E+01  0.20803742313E+01  0.81184460327E+01  0.51100000000E-03 0.  1.
        -12    1    3    3    0    0 -0.19466547580E+02  0.14123326438E+02  0.34668568355E+02  0.42193891219E+02  0.00000000000E+00 0.  1.
</event>
<event>
 7    1  0.2000468E-015  0.9000778E+02  0.7816164E-02  0.1186339E+00
        -11   -1    0    0    0    0  0.00000000000E+00  0.00000000000E+00  0.45593999997E+02  0.45594000000E+02  0.51100000000E-03 0.  1.
         11   -1    0    0    0    0 -0.00000000000E+00 -0.00000000000E+00 -0.45593999997E+02  0.45594000000E+02  0.51100000000E-03 0. -1.
    9900012    2    1    2    0    0  0.11418587304E+01  0.15348618452E+00  0.25596271369E+00  0.90007781258E+02  0.90000043170E+02 0.  0.
         12    1    1    2    0    0 -0.11418587304E+01 -0.15348618452E+00 -0.25596271369E+00  0.11802187424E+01  0.00000000000E+00 0. -1.
         11    1    3    3    0    0  0.74107907322E+01 -0.22527484180E+02 -0.19014878519E+02  0.30396923662E+02  0.51100000000E-03 0. -1.
        -11    1    3    3    0    0  0.11123409161E+02  0.26203971963E+02 -0.56451264598E+01  0.29021471896E+02  0.51100000000E-03 0.  1.
        -12    1    3    3    0    0 -0.17392341163E+02 -0.35230015981E+01  0.24915967693E+02  0.30589385699E+02  0.00000000000E+00 0.  1.
</event>
<event>
 7    1  0.2000468E-015  0.9000778E+02  0.7816164E-02  0.1186339E+00
        -11   -1    0    0    0    0  0.00000000000E+00  0.00000000000E+00  0.45593999997E+02  0.45594000000E+02  0.51100000000E-03 0. -1.
         11   -1    0    0    0    0 -0.00000000000E+00 -0.00000000000E+00 -0.45593999997E+02  0.45594000000E+02  0.51100000000E-03 0.  1.
    9900012    2    1    2    0    0  0.70422659591E+00  0.20064431846E+00 -0.92559729656E+00  0.90007778158E+02  0.90000040030E+02 0.  0.
         12    1    1    2    0    0 -0.70422659591E+00 -0.20064431846E+00  0.92559729656E+00  0.11802218420E+01  0.00000000000E+00 0. -1.
         11    1    3    3    0    0 -0.48165908996E+00  0.30557395376E+01 -0.78147348205E+01  0.84047379600E+01  0.51100000000E-03 0. -1.
        -11    1    3    3    0    0  0.97657495003E+01  0.15357010144E+02 -0.32567331324E+02  0.37307354418E+02  0.51100000000E-03 0.  1.
         12    1    3    3    0    0 -0.85798638144E+01 -0.18212105363E+02  0.39456468847E+02  0.44295685780E+02  0.00000000000E+00 0. -1.
</event>
<event>
 7    1  0.2000468E-015  0.9000778E+02  0.7816164E-02  0.1186339E+00
        -11   -1    0    0    0    0  0.00000000000E+00  0.00000000000E+00  0.45593999997E+02  0.45594000000E+02  0.51100000000E-03 0.  1.
         11   -1    0    0    0    0 -0.00000000000E+00 -0.00000000000E+00 -0.45593999997E+02  0.45594000000E+02  0.51100000000E-03 0. -1.
    9900012    2    1    2    0    0 -0.11099155331E+00  0.41899236441E+00  0.10977501059E+01  0.90007775860E+02  0.90000037701E+02 0.  0.
         12    1    1    2    0    0  0.11099155331E+00 -0.41899236441E+00 -0.10977501059E+01  0.11802241403E+01  0.00000000000E+00 0. -1.
         11    1    3    3    0    0 -0.13092203996E+01 -0.19504832080E+02 -0.35315418667E+02  0.40364976507E+02  0.51100000000E-03 0. -1.
        -11    1    3    3    0    0  0.65021945716E+01 -0.23608895346E+01  0.35886797431E+00  0.69268405587E+01  0.51100000000E-03 0.  1.
        -12    1    3    3    0    0 -0.53039657252E+01  0.22284713979E+02  0.36054300799E+02  0.42715958794E+02  0.00000000000E+00 0.  1.
</event>
<event>
 7    1  0.2000468E-015  0.9000770E+02  0.7816164E-02  0.1186339E+00
        -11   -1    0    0    0    0  0.00000000000E+00  0.00000000000E+00  0.45593999997E+02  0.45594000000E+02  0.51100000000E-03 0.  1.
         11   -1    0    0    0    0 -0.00000000000E+00 -0.00000000000E+00 -0.45593999997E+02  0.45594000000E+02  0.51100000000E-03 0. -1.
    9900012    2    1    2    0    0  0.68008303657E+00  0.52542642838E-02  0.96466454340E+00  0.90007695707E+02  0.89999956490E+02 0.  0.
         12    1    1    2    0    0 -0.68008303657E+00 -0.52542642838E-02 -0.96466454340E+00  0.11803042935E+01  0.00000000000E+00 0. -1.
         11    1    3    3    0    0  0.29919124487E+02  0.16652802095E+02  0.13544682811E+02  0.36822931176E+02  0.51100000000E-03 0. -1.
        -11    1    3    3    0    0  0.65820080107E+01 -0.21445797913E+01  0.70147086953E+01  0.98553635283E+01  0.51100000000E-03 0.  1.
        -12    1    3    3    0    0 -0.35821049461E+02 -0.14502968039E+02 -0.19594726963E+02  0.43329401002E+02  0.00000000000E+00 0.  1.
</event>
<event>
 7    1  0.2000468E-015  0.9000781E+02  0.7816164E-02  0.1186339E+00
        -11   -1    0    0    0    0  0.00000000000E+00  0.00000000000E+00  0.45593999997E+02  0.45594000000E+02  0.51100000000E-03 0. -1.
         11   -1    0    0    0    0 -0.00000000000E+00 -0.00000000000E+00 -0.45593999997E+02  0.45594000000E+02  0.51100000000E-03 0.  1.
    9900012    2    1    2    0    0  0.49629628608E+00 -0.31301195594E-01 -0.10703069165E+01  0.90007810751E+02  0.90000073053E+02 0.  0.
         12    1    1    2    0    0 -0.49629628608E+00  0.31301195594E-01  0.10703069165E+01  0.11801892492E+01  0.00000000000E+00 0. -1.
         11    1    3    3    0    0 -0.75634320264E+01 -0.11890616571E+02 -0.56624625235E+01  0.15187354890E+02  0.51100000000E-03 0. -1.
        -11    1    3    3    0    0  0.45549473779E+01  0.43024628775E+02  0.40472545625E+01  0.43453958354E+02  0.51100000000E-03 0.  1.
         12    1    3    3    0    0  0.35047809346E+01 -0.31165313400E+02  0.54490104447E+00  0.31366497507E+02  0.00000000000E+00 0. -1.
</event>
<event>
 7    1  0.2000468E-015  0.9000773E+02  0.7816164E-02  0.1186339E+00
        -11   -1    0    0    0    0  0.00000000000E+00  0.00000000000E+00  0.45593999997E+02  0.45594000000E+02  0.51100000000E-03 0.  1.
         11   -1    0    0    0    0 -0.00000000000E+00 -0.00000000000E+00 -0.45593999997E+02  0.45594000000E+02  0.51100000000E-03 0. -1.
    9900012    2    1    2    0    0 -0.39816528774E+00  0.90375877793E+00  0.64632044100E+00  0.90007726456E+02  0.89999987646E+02 0.  0.
         12    1    1    2    0    0  0.39816528774E+00 -0.90375877793E+00 -0.64632044100E+00  0.11802735435E+01  0.00000000000E+00 0. -1.
         11    1    3    3    0    0  0.16747466246E+02 -0.29140328212E+02 -0.16643845159E+02  0.37505385425E+02  0.51100000000E-03 0. -1.
        -11    1    3    3    0    0  0.84123213676E+01  0.12756147427E+02 -0.30014449203E+01  0.15572254810E+02  0.51100000000E-03 0.  1.
        -12    1    3    3    0    0 -0.25557952901E+02  0.17287939562E+02  0.20291610521E+02  0.36930086222E+02  0.00000000000E+00 0.  1.
</event>
<event>
 7    1  0.2000468E-015  0.9000769E+02  0.7816164E-02  0.1186339E+00
        -11   -1    0    0    0    0  0.00000000000E+00  0.00000000000E+00  0.45593999997E+02  0.45594000000E+02  0.51100000000E-03 0.  1.
         11   -1    0    0    0    0 -0.00000000000E+00 -0.00000000000E+00 -0.45593999997E+02  0.45594000000E+02  0.51100000000E-03 0. -1.
    9900012    2    1    2    0    0 -0.10256051669E+01 -0.57670045709E+00 -0.93153262764E-01  0.90007692029E+02  0.89999952764E+02 0.  0.
         12    1    1    2    0    0  0.10256051669E+01  0.57670045709E+00  0.93153262764E-01  0.11803079708E+01  0.00000000000E+00 0. -1.
         11    1    3    3    0    0  0.24691123245E+02  0.33287451043E+02 -0.11481996491E+02  0.43006304279E+02  0.51100000000E-03 0. -1.
        -11    1    3    3    0    0 -0.20130936591E+01 -0.89144756114E+01 -0.31154651927E+01  0.96553894347E+01  0.51100000000E-03 0.  1.
        -12    1    3    3    0    0 -0.23703634753E+02 -0.24949675888E+02  0.14504308421E+02  0.37345998316E+02  0.00000000000E+00 0.  1.
</event>
<event>
 7    1  0.2000468E-015  0.9000769E+02  0.7816164E-02  0.1186339E+00
        -11   -1    0    0    0    0  0.00000000000E+00  0.00000000000E+00  0.45593999997E+02  0.45594000000E+02  0.51100000000E-03 0.  1.
         11   -1    0    0    0    0 -0.00000000000E+00 -0.00000000000E+00 -0.45593999997E+02  0.45594000000E+02  0.51100000000E-03 0. -1.
    9900012    2    1    2    0    0  0.22915187410E+00 -0.90863764302E+00  0.71762609034E+00  0.90007694890E+02  0.89999955662E+02 0.  0.
         12    1    1    2    0    0 -0.22915187410E+00  0.90863764302E+00 -0.71762609034E+00  0.11803051102E+01  0.00000000000E+00 0. -1.
         11    1    3    3    0    0 -0.25780904029E+02  0.13257520207E+02 -0.24984578161E+02  0.38270693758E+02  0.51100000000E-03 0. -1.
        -11    1    3    3    0    0 -0.29841171449E+01 -0.88906010013E+01 -0.37245063796E+01  0.10090574282E+02  0.51100000000E-03 0.  1.
        -12    1    3    3    0    0  0.28994173048E+02 -0.52755568489E+01  0.29426710631E+02  0.41646426850E+02  0.00000000000E+00 0.  1.
</event>
<event>
 7    1  0.2000468E-015  0.9000769E+02  0.7816164E-02  0.1186339E+00
        -11   -1    0    0    0    0  0.00000000000E+00  0.00000000000E+00  0.45593999997E+02  0.45594000000E+02  0.51100000000E-03 0. -1.
         11   -1    0    0    0    0 -0.00000000000E+00 -0.00000000000E+00 -0.45593999997E+02  0.45594000000E+02  0.51100000000E-03 0.  1.
    9900012    2    1    2    0    0  0.98984881884E+00  0.30135643963E+00  0.56789649188E+00  0.90007693763E+02  0.89999954521E+02 0.  0.
         12    1    1    2    0    0 -0.98984881884E+00 -0.30135643963E+00 -0.56789649188E+00  0.11803062371E+01  0.00000000000E+00 0. -1.
         11    1    3    3    0    0 -0.24682172567E+02 -0.19616983363E+02  0.15468550890E+02  0.35118538492E+02  0.51100000000E-03 0. -1.
        -11    1    3    3    0    0 -0.47633126243E+01 -0.78381786042E+01  0.34442060464E+01  0.97973846786E+01  0.51100000000E-03 0.  1.
        -12    1    3    3    0    0  0.30435334010E+02  0.27756518407E+02 -0.18344860444E+02  0.45091770592E+02  0.00000000000E+00 0.  1.
</event>
<event>
 7    1  0.2000468E-015  0.9000745E+02  0.7816164E-02  0.1186340E+00
        -11   -1    0    0    0    0  0.00000000000E+00  0.00000000000E+00  0.45593999997E+02  0.45594000000E+02  0.51100000000E-03 0. -1.
         11   -1    0    0    0    0 -0.00000000000E+00 -0.00000000000E+00 -0.45593999997E+02  0.45594000000E+02  0.51100000000E-03 0.  1.
    9900012    2    1    2    0    0 -0.11011043361E+01 -0.86126266633E-01 -0.41694826465E+00  0.90007451675E+02  0.89999709236E+02 0.  0.
         12    1    1    2    0    0  0.11011043361E+01  0.86126266633E-01  0.41694826465E+00  0.11805483253E+01  0.00000000000E+00 0. -1.
         11    1    3    3    0    0 -0.30523628766E+02 -0.30502345427E+02  0.51958457314E+01  0.43463568684E+02  0.51100000000E-03 0. -1.
        -11    1    3    3    0    0  0.35244781251E+01  0.71057455085E+01  0.58580524081E+01  0.98605447904E+01  0.51100000000E-03 0.  1.
        -12    1    3    3    0    0  0.25898046305E+02  0.23310473652E+02 -0.11470846404E+02  0.36683338200E+02  0.00000000000E+00 0.  1.
</event>
<event>
 7    1  0.3066843E-015  0.9000764E+02  0.7816164E-02  0.1186339E+00
        -11   -1    0    0    0    0  0.00000000000E+00  0.00000000000E+00  0.45593999997E+02  0.45594000000E+02  0.51100000000E-03 0.  1.
         11   -1    0    0    0    0 -0.00000000000E+00 -0.00000000000E+00 -0.45593999997E+02  0.45594000000E+02  0.51100000000E-03 0. -1.
    9900012    2    1    2    0    0  0.49235777237E+00 -0.10509584484E+01 -0.21520739569E+00  0.90007642402E+02  0.89999902482E+02 0.  0.
         12    1    1    2    0    0 -0.49235777237E+00  0.10509584484E+01  0.21520739569E+00  0.11803575981E+01  0.00000000000E+00 0. -1.
         11    1    3    3    0    0 -0.12002665363E+02  0.21025739460E+02 -0.31358246638E+02  0.39616730407E+02  0.51100000000E-03 0. -1.
        -11    1    3    3    0    0 -0.89016566517E+01 -0.25054515036E+01  0.23824959985E+01  0.95495060514E+01  0.51100000000E-03 0.  1.
        -12    1    3    3    0    0  0.21396679787E+02 -0.19571246405E+02  0.28760543244E+02  0.40841405943E+02  0.00000000000E+00 0.  1.
</event>
<event>
 7    1  0.2000468E-015  0.9000776E+02  0.7816164E-02  0.1186339E+00
        -11   -1    0    0    0    0  0.00000000000E+00  0.00000000000E+00  0.45593999997E+02  0.45594000000E+02  0.51100000000E-03 0. -1.
         11   -1    0    0    0    0 -0.00000000000E+00 -0.00000000000E+00 -0.45593999997E+02  0.45594000000E+02  0.51100000000E-03 0.  1.
    9900012    2    1    2    0    0 -0.44713362674E+00 -0.75756068727E+00 -0.78685897844E+00  0.90007756920E+02  0.90000018512E+02 0.  0.
         12    1    1    2    0    0  0.44713362674E+00  0.75756068727E+00  0.78685897844E+00  0.11802430796E+01  0.00000000000E+00 0. -1.
         11    1    3    3    0    0 -0.69774379968E+01 -0.48748656860E+01 -0.33142055825E+01  0.91341619955E+01  0.51100000000E-03 0. -1.
        -11    1    3    3    0    0 -0.25262737058E+02 -0.24588019022E+02 -0.92560253015E+01  0.36447915821E+02  0.51100000000E-03 0.  1.
         12    1    3    3    0    0  0.31793041428E+02  0.28705324020E+02  0.11783371906E+02  0.44425679104E+02  0.00000000000E+00 0. -1.
</event>
<event>
 7    1  0.2000468E-015  0.9000771E+02  0.7816164E-02  0.1186339E+00
        -11   -1    0    0    0    0  0.00000000000E+00  0.00000000000E+00  0.45593999997E+02  0.45594000000E+02  0.51100000000E-03 0. -1.
         11   -1    0    0    0    0 -0.00000000000E+00 -0.00000000000E+00 -0.45593999997E+02  0.45594000000E+02  0.51100000000E-03 0.  1.
    9900012    2    1    2    0    0 -0.94022303875E+00 -0.71717272291E-01 -0.70987769975E+00  0.90007708054E+02  0.89999969000E+02 0.  0.
         12    1    1    2    0    0  0.94022303875E+00  0.71717272291E-01  0.70987769975E+00  0.11802919462E+01  0.00000000000E+00 0. -1.
         11    1    3    3    0    0  0.82077555957E+01 -0.64108612906E+01  0.67169977501E+01  0.12392919488E+02  0.51100000000E-03 0. -1.
        -11    1    3    3    0    0  0.26227920558E+02 -0.12871215411E+02  0.13568825473E+02  0.32213118879E+02  0.51100000000E-03 0.  1.
         12    1    3    3    0    0 -0.35375899192E+02  0.19210359429E+02 -0.20995700923E+02  0.45401669686E+02  0.00000000000E+00 0. -1.
</event>
<event>
 7    1  0.2000468E-015  0.9000772E+02  0.7816164E-02  0.1186339E+00
        -11   -1    0    0    0    0  0.00000000000E+00  0.00000000000E+00  0.45593999997E+02  0.45594000000E+02  0.51100000000E-03 0.  1.
         11   -1    0    0    0    0 -0.00000000000E+00 -0.00000000000E+00 -0.45593999997E+02  0.45594000000E+02  0.51100000000E-03 0. -1.
    9900012    2    1    2    0    0  0.21664448699E+00 -0.46944229854E+00  0.10610119162E+01  0.90007721562E+02  0.89999982686E+02 0.  0.
         12    1    1    2    0    0 -0.21664448699E+00  0.46944229854E+00 -0.10610119162E+01  0.11802784382E+01  0.00000000000E+00 0. -1.
         11    1    3    3    0    0 -0.68384106408E+01 -0.31431729915E+02  0.18179834036E+02  0.36948935998E+02  0.51100000000E-03 0. -1.
        -11    1    3    3    0    0  0.43474690243E+00  0.86697377488E+00  0.11179555396E+02  0.11221546574E+02  0.51100000000E-03 0.  1.
        -12    1    3    3    0    0  0.66203082254E+01  0.30095313842E+02 -0.28298377516E+02  0.41837238990E+02  0.00000000000E+00 0.  1.
</event>
<event>
 7    1  0.2000468E-015  0.9000757E+02  0.7816164E-02  0.1186339E+00
        -11   -1    0    0    0    0  0.00000000000E+00  0.00000000000E+00  0.45593999997E+02  0.45594000000E+02  0.51100000000E-03 0. -1.
         11   -1    0    0    0    0 -0.00000000000E+00 -0.00000000000E+00 -0.45593999997E+02  0.45594000000E+02  0.51100000000E-03 0.  1.
    9900012    2    1    2    0    0  0.12473416742E+00 -0.33679354679E+00  0.11244680214E+01  0.90007569216E+02  0.89999828329E+02 0.  0.
         12    1    1    2    0    0 -0.12473416742E+00  0.33679354679E+00 -0.11244680214E+01  0.11804307845E+01  0.00000000000E+00 0. -1.
         11    1    3    3    0    0 -0.32701493983E+02 -0.11505592842E+02 -0.18169521917E+02  0.39139467323E+02  0.51100000000E-03 0. -1.
        -11    1    3    3    0    0  0.93822120854E+00  0.23669649517E+01 -0.77388960272E+01  0.81469806739E+01  0.51100000000E-03 0.  1.
        -12    1    3    3    0    0  0.31888006942E+02  0.88018343433E+01  0.27032885966E+02  0.42721121219E+02  0.00000000000E+00 0.  1.
</event>
<event>
 7    1  0.2000468E-015  0.9000777E+02  0.7816164E-02  0.1186339E+00
        -11   -1    0    0    0    0  0.00000000000E+00  0.00000000000E+00  0.45593999997E+02  0.45594000000E+02  0.51100000000E-03 0. -1.
         11   -1    0    0    0    0 -0.00000000000E+00 -0.00000000000E+00 -0.45593999997E+02  0.45594000000E+02  0.51100000000E-03 0.  1.
    9900012    2    1    2    0    0  0.41486446154E-01  0.61830502754E+00 -0.10044510673E+01  0.90007769438E+02  0.90000031195E+02 0.  0.
         12    1    1    2    0    0 -0.41486446154E-01 -0.61830502754E+00  0.10044510673E+01  0.11802305617E+01  0.00000000000E+00 0. -1.
         11    1    3    3    0    0 -0.22884021120E+02  0.12247241519E+02 -0.21705424642E+02  0.33834875596E+02  0.51100000000E-03 0. -1.
        -11    1    3    3    0    0 -0.13804054344E+02 -0.46517662318E+01  0.33027227800E+01  0.14936493010E+02  0.51100000000E-03 0.  1.
        -12    1    3    3    0    0  0.36729561910E+02 -0.69771702597E+01  0.17398250795E+02  0.41236400833E+02  0.00000000000E+00 0.  1.
</event>
<event>
 7    1  0.2000468E-015  0.9000776E+02  0.7816164E-02  0.1186339E+00
        -11   -1    0    0    0    0  0.00000000000E+00  0.00000000000E+00  0.45593999997E+02  0.45594000000E+02  0.51100000000E-03 0. -1.
         11   -1    0    0    0    0 -0.00000000000E+00 -0.00000000000E+00 -0.45593999997E+02  0.45594000000E+02  0.51100000000E-03 0.  1.
    9900012    2    1    2    0    0  0.10333134156E+01 -0.31564681385E+00 -0.47497196206E+00  0.90007759393E+02  0.90000021017E+02 0.  0.
         12    1    1    2    0    0 -0.10333134156E+01  0.31564681385E+00  0.47497196206E+00  0.11802406071E+01  0.00000000000E+00 0. -1.
         11    1    3    3    0    0  0.95160590344E+01  0.27378323132E+01 -0.14036703797E+01  0.10001069749E+02  0.51100000000E-03 0. -1.
        -11    1    3    3    0    0  0.25674122013E+02 -0.14894300742E+02  0.23088639797E+02  0.37604335171E+02  0.51100000000E-03 0.  1.
         12    1    3    3    0    0 -0.34156867632E+02  0.11840821615E+02 -0.22159941380E+02  0.42402354473E+02  0.00000000000E+00 0. -1.
</event>
<event>
 7    1  0.2000468E-015  0.9000840E+02  0.7816164E-02  0.1186338E+00
        -11   -1    0    0    0    0  0.00000000000E+00  0.00000000000E+00  0.45593999997E+02  0.45594000000E+02  0.51100000000E-03 0.  1.
         11   -1    0    0    0    0 -0.00000000000E+00 -0.00000000000E+00 -0.45593999997E+02  0.45594000000E+02  0.51100000000E-03 0. -1.
    9900012    2    1    2    0    0  0.53799269320E-01 -0.17785154706E+00  0.11648759461E+01  0.90008397735E+02  0.90000667782E+02 0.  0.
         12    1    1    2    0    0 -0.53799269320E-01  0.17785154706E+00 -0.11648759461E+01  0.11796022652E+01  0.00000000000E+00 0. -1.
         11    1    3    3    0    0 -0.33089920306E+02 -0.19281583066E+02  0.81993689322E+01  0.39165698290E+02  0.51100000000E-03 0. -1.
        -11    1    3    3    0    0  0.29454254075E+01 -0.86513917993E+01  0.44843089330E+00  0.91500383291E+01  0.51100000000E-03 0.  1.
        -12    1    3    3    0    0  0.30198294168E+02  0.27755123319E+02 -0.74829238794E+01  0.41692661115E+02  0.00000000000E+00 0.  1.
</event>
<event>
 7    1  0.2000468E-015  0.9000776E+02  0.7816164E-02  0.1186339E+00
        -11   -1    0    0    0    0  0.00000000000E+00  0.00000000000E+00  0.45593999997E+02  0.45594000000E+02  0.51100000000E-03 0.  1.
         11   -1    0    0    0    0 -0.00000000000E+00 -0.00000000000E+00 -0.45593999997E+02  0.45594000000E+02  0.51100000000E-03 0. -1.
    9900012    2    1    2    0    0  0.95802899527E+00  0.14071768169E+00  0.67479303128E+00  0.90007759916E+02  0.90000021546E+02 0.  0.
         12    1    1    2    0    0 -0.95802899527E+00 -0.14071768169E+00 -0.67479303128E+00  0.11802400844E+01  0.00000000000E+00 0. -1.
         11    1    3    3    0    0  0.55545384166E+01  0.26622592265E+01 -0.72116047172E+01  0.94840795056E+01  0.51100000000E-03 0. -1.
        -11    1    3    3    0    0 -0.11088762789E+02  0.37340057046E+02  0.95399593889E+01  0.40103009187E+02  0.51100000000E-03 0.  1.
         12    1    3    3    0    0  0.64922533675E+01 -0.39861598591E+02 -0.16535616404E+01  0.40420671223E+02  0.00000000000E+00 0. -1.
</event>
<event>
 7    1  0.2000468E-015  0.9000773E+02  0.7816164E-02  0.1186339E+00
        -11   -1    0    0    0    0  0.00000000000E+00  0.00000000000E+00  0.45593999997E+02  0.45594000000E+02  0.51100000000E-03 0.  1.
         11   -1    0    0    0    0 -0.00000000000E+00 -0.00000000000E+00 -0.45593999997E+02  0.45594000000E+02  0.51100000000E-03 0. -1.
    9900012    2    1    2    0    0  0.95731718011E+00  0.46209468410E+00 -0.51287723430E+00  0.90007732768E+02  0.89999994041E+02 0.  0.
         12    1    1    2    0    0 -0.95731718011E+00 -0.46209468410E+00  0.51287723430E+00  0.11802672316E+01  0.00000000000E+00 0. -1.
         11    1    3    3    0    0 -0.47397877091E+01 -0.13486003644E+01 -0.37033739204E+02  0.37360167962E+02  0.51100000000E-03 0. -1.
        -11    1    3    3    0    0  0.74270219145E+01 -0.46607810554E+01 -0.53318458504E+01  0.10262169118E+02  0.51100000000E-03 0.  1.
        -12    1    3    3    0    0 -0.17299170253E+01  0.64714761039E+01  0.41852707820E+02  0.42385395689E+02  0.00000000000E+00 0.  1.
</event>
<event>
 7    1  0.2000468E-015  0.9000773E+02  0.7816164E-02  0.1186339E+00
        -11   -1    0    0    0    0  0.00000000000E+00  0.00000000000E+00  0.45593999997E+02  0.45594000000E+02  0.51100000000E-03 0.  1.
         11   -1    0    0    0    0 -0.00000000000E+00 -0.00000000000E+00 -0.45593999997E+02  0.45594000000E+02  0.51100000000E-03 0. -1.
    9900012    2    1    2    0    0 -0.91244965719E+00  0.71072773774E+00 -0.23524855222E+00  0.90007728770E+02  0.89999989990E+02 0.  0.
         12    1    1    2    0    0  0.91244965719E+00 -0.71072773774E+00  0.23524855222E+00  0.11802712296E+01  0.00000000000E+00 0. -1.
         11    1    3    3    0    0  0.25506587231E+02  0.25794986095E+02 -0.87991465377E+01  0.37328170058E+02  0.51100000000E-03 0. -1.
        -11    1    3    3    0    0 -0.19556832710E+01  0.75674124811E+01 -0.54633583248E+01  0.95361791699E+01  0.51100000000E-03 0.  1.
        -12    1    3    3    0    0 -0.24463353617E+02 -0.32651670839E+02  0.14027256310E+02  0.43143379542E+02  0.00000000000E+00 0.  1.
</event>
<event>
 8    1  0.2000468E-015  0.9000860E+02  0.7816164E-02  0.1186337E+00
        -11   -1    0    0    0    0  0.00000000000E+00  0.00000000000E+00  0.45593999997E+02  0.45594000000E+02  0.51100000000E-03 0.  1.
         11   -1    0    0    0    0 -0.00000000000E+00 -0.00000000000E+00 -0.45593999997E+02  0.45594000000E+02  0.51100000000E-03 0. -1.
    9900012    2    1    2    0    0 -0.76337873773E+00 -0.89789353183E+00  0.45053104361E-01  0.90008597747E+02  0.90000870433E+02 0.  0.
         23    2    3    3    0    0 -0.20231039473E+02 -0.13112203991E+02 -0.63784345905E+00  0.67016304642E+02  0.62526421551E+02 0.  0.
         12    1    1    2    0    0  0.76337873773E+00  0.89789353183E+00 -0.45053104361E-01  0.11794022528E+01  0.00000000000E+00 0. -1.
         11    1    4    4    0    0 -0.41495139086E+02  0.96809090587E+00 -0.73101372996E+00  0.41512867272E+02  0.51100000000E-03 0. -1.
        -11    1    4    4    0    0  0.21264099613E+02 -0.14080294897E+02  0.93170270910E-01  0.25503437370E+02  0.51100000000E-03 0.  1.
        -12    1    3    3    0    0  0.19467660736E+02  0.12214310459E+02  0.68289656341E+00  0.22992293105E+02  0.00000000000E+00 0.  1.
</event>
<event>
 7    1  0.2000468E-015  0.9000775E+02  0.7816164E-02  0.1186339E+00
        -11   -1    0    0    0    0  0.00000000000E+00  0.00000000000E+00  0.45593999997E+02  0.45594000000E+02  0.51100000000E-03 0.  1.
         11   -1    0    0    0    0 -0.00000000000E+00 -0.00000000000E+00 -0.45593999997E+02  0.45594000000E+02  0.51100000000E-03 0. -1.
    9900012    2    1    2    0    0 -0.20921087657E+00 -0.21506343475E+00  0.11414783165E+01  0.90007748239E+02  0.90000009716E+02 0.  0.
         12    1    1    2    0    0  0.20921087657E+00  0.21506343475E+00 -0.11414783165E+01  0.11802517608E+01  0.00000000000E+00 0. -1.
         11    1    3    3    0    0  0.17481457972E+02 -0.23821947459E+02 -0.19937761442E+02  0.35645488987E+02  0.51100000000E-03 0. -1.
        -11    1    3    3    0    0  0.45299871981E+01 -0.44801842044E+01 -0.65438033887E+01  0.91331373345E+01  0.51100000000E-03 0.  1.
        -12    1    3    3    0    0 -0.22220656047E+02  0.28087068228E+02  0.27623043147E+02  0.45229121918E+02  0.00000000000E+00 0.  1.
</event>
<event>
 7    1  0.2000468E-015  0.9000774E+02  0.7816164E-02  0.1186339E+00
        -11   -1    0    0    0    0  0.00000000000E+00  0.00000000000E+00  0.45593999997E+02  0.45594000000E+02  0.51100000000E-03 0.  1.
         11   -1    0    0    0    0 -0.00000000000E+00 -0.00000000000E+00 -0.45593999997E+02  0.45594000000E+02  0.51100000000E-03 0. -1.
    9900012    2    1    2    0    0  0.79460825610E+00 -0.66807999533E+00  0.56149094282E+00  0.90007743570E+02  0.90000004985E+02 0.  0.
         12    1    1    2    0    0 -0.79460825610E+00  0.66807999533E+00 -0.56149094282E+00  0.11802564296E+01  0.00000000000E+00 0. -1.
         11    1    3    3    0    0 -0.12229853856E+02 -0.36438976407E+01 -0.37590531884E+02  0.39697549080E+02  0.51100000000E-03 0. -1.
        -11    1    3    3    0    0 -0.57680081673E+01 -0.62046770297E+01  0.22582325201E+01  0.87674140792E+01  0.51100000000E-03 0.  1.
        -12    1    3    3    0    0  0.18792470280E+02  0.91804946751E+01  0.35893790307E+02  0.41542780411E+02  0.00000000000E+00 0.  1.
</event>
<event>
 7    1  0.2000468E-015  0.9000773E+02  0.7816164E-02  0.1186339E+00
        -11   -1    0    0    0    0  0.00000000000E+00  0.00000000000E+00  0.45593999997E+02  0.45594000000E+02  0.51100000000E-03 0. -1.
         11   -1    0    0    0    0 -0.00000000000E+00 -0.00000000000E+00 -0.45593999997E+02  0.45594000000E+02  0.51100000000E-03 0.  1.
    9900012    2    1    2    0    0 -0.87316534519E+00  0.75200678464E+00 -0.25517383399E+00  0.90007726468E+02  0.89999987658E+02 0.  0.
         12    1    1    2    0    0  0.87316534519E+00 -0.75200678464E+00  0.25517383399E+00  0.11802735317E+01  0.00000000000E+00 0. -1.
         11    1    3    3    0    0 -0.19730638050E+02 -0.25338611264E+02  0.25984303147E+02  0.41310135669E+02  0.51100000000E-03 0. -1.
        -11    1    3    3    0    0  0.96005994399E+01  0.31642261241E+01  0.28670193873E+01  0.10507313501E+02  0.51100000000E-03 0.  1.
        -12    1    3    3    0    0  0.92568732650E+01  0.22926391924E+02 -0.29106496369E+02  0.38190277299E+02  0.00000000000E+00 0.  1.
</event>
<event>
 7    1  0.2000468E-015  0.9000685E+02  0.7816164E-02  0.1186341E+00
        -11   -1    0    0    0    0  0.00000000000E+00  0.00000000000E+00  0.45593999997E+02  0.45594000000E+02  0.51100000000E-03 0.  1.
         11   -1    0    0    0    0 -0.00000000000E+00 -0.00000000000E+00 -0.45593999997E+02  0.45594000000E+02  0.51100000000E-03 0. -1.
    9900012    2    1    2    0    0  0.85623150420E+00 -0.81331220722E+00 -0.22500379169E-01  0.90006849966E+02  0.89999099581E+02 0.  0.
         12    1    1    2    0    0 -0.85623150420E+00  0.81331220722E+00  0.22500379169E-01  0.11811500338E+01  0.00000000000E+00 0. -1.
         11    1    3    3    0    0  0.38119634068E+01 -0.67689529749E+01  0.12654500089E+02  0.14848776454E+02  0.51100000000E-03 0. -1.
        -11    1    3    3    0    0 -0.14486082919E+02 -0.23101656542E+02  0.16934641294E+02  0.32098523476E+02  0.51100000000E-03 0.  1.
         12    1    3    3    0    0  0.11530351016E+02  0.29057297309E+02 -0.29611641763E+02  0.43059550037E+02  0.00000000000E+00 0. -1.
</event>
<event>
 7    1  0.2000468E-015  0.9000772E+02  0.7816164E-02  0.1186339E+00
        -11   -1    0    0    0    0  0.00000000000E+00  0.00000000000E+00  0.45593999997E+02  0.45594000000E+02  0.51100000000E-03 0. -1.
         11   -1    0    0    0    0 -0.00000000000E+00 -0.00000000000E+00 -0.45593999997E+02  0.45594000000E+02  0.51100000000E-03 0.  1.
    9900012    2    1    2    0    0  0.67575523056E+00  0.91892468197E+00  0.30330872930E+00  0.90007718725E+02  0.89999979812E+02 0.  0.
         12    1    1    2    0    0 -0.67575523056E+00 -0.91892468197E+00 -0.30330872930E+00  0.11802812750E+01  0.00000000000E+00 0. -1.
         11    1    3    3    0    0 -0.27594329210E+01  0.90523320640E+00 -0.67020205283E+01  0.73041766562E+01  0.51100000000E-03 0. -1.
        -11    1    3    3    0    0 -0.11830229336E+02 -0.38672727563E+02 -0.48732866287E+00  0.40444674220E+02  0.51100000000E-03 0.  1.
         12    1    3    3    0    0  0.15265417488E+02  0.38686419039E+02  0.74926579204E+01  0.42258867848E+02  0.00000000000E+00 0. -1.
</event>
<event>
 7    1  0.2074549E-015  0.9000770E+02  0.7816164E-02  0.1186339E+00
        -11   -1    0    0    0    0  0.00000000000E+00  0.00000000000E+00  0.45593999997E+02  0.45594000000E+02  0.51100000000E-03 0. -1.
         11   -1    0    0    0    0 -0.00000000000E+00 -0.00000000000E+00 -0.45593999997E+02  0.45594000000E+02  0.51100000000E-03 0.  1.
    9900012    2    1    2    0    0 -0.10132151665E+01  0.10136972814E+00 -0.59685245771E+00  0.90007697644E+02  0.89999958453E+02 0.  0.
         12    1    1    2    0    0  0.10132151665E+01 -0.10136972814E+00  0.59685245771E+00  0.11803023560E+01  0.00000000000E+00 0. -1.
         11    1    3    3    0    0 -0.27027360128E+02  0.67255345237E+01  0.27024424861E+02  0.38807609427E+02  0.51100000000E-03 0. -1.
        -11    1    3    3    0    0 -0.56023291451E+01 -0.69007664165E+01  0.47685727209E+00  0.89013517010E+01  0.51100000000E-03 0.  1.
        -12    1    3    3    0    0  0.31616474107E+02  0.27660162100E+00 -0.28098134591E+02  0.42298736516E+02  0.00000000000E+00 0.  1.
</event>
<event>
 7    1  0.2000468E-015  0.9000786E+02  0.7816164E-02  0.1186339E+00
        -11   -1    0    0    0    0  0.00000000000E+00  0.00000000000E+00  0.45593999997E+02  0.45594000000E+02  0.51100000000E-03 0. -1.
         11   -1    0    0    0    0 -0.00000000000E+00 -0.00000000000E+00 -0.45593999997E+02  0.45594000000E+02  0.51100000000E-03 0.  1.
    9900012    2    1    2    0    0  0.84996905481E+00 -0.81660905443E+00 -0.58551081631E-01  0.90007861885E+02  0.90000124862E+02 0.  0.
         12    1    1    2    0    0 -0.84996905481E+00  0.81660905443E+00  0.58551081631E-01  0.11801381153E+01  0.00000000000E+00 0. -1.
         11    1    3    3    0    0 -0.69690128172E+01  0.35244809849E+01  0.13867439341E+02  0.15915243636E+02  0.51100000000E-03 0. -1.
        -11    1    3    3    0    0  0.26947360285E+02 -0.29032186393E+02  0.67020017188E+00  0.39616628347E+02  0.51100000000E-03 0.  1.
         12    1    3    3    0    0 -0.19128378413E+02  0.24691096354E+02 -0.14596190594E+02  0.34475989902E+02  0.00000000000E+00 0. -1.
</event>
<event>
 7    1  0.2000468E-015  0.9000768E+02  0.7816164E-02  0.1186339E+00
        -11   -1    0    0    0    0  0.00000000000E+00  0.00000000000E+00  0.45593999997E+02  0.45594000000E+02  0.51100000000E-03 0. -1.
         11   -1    0    0    0    0 -0.00000000000E+00 -0.00000000000E+00 -0.45593999997E+02  0.45594000000E+02  0.51100000000E-03 0.  1.
    9900012    2    1    2    0    0 -0.10455123682E+01 -0.53110171914E+00 -0.13412385149E+00  0.90007680401E+02  0.89999940982E+02 0.  0.
         12    1    1    2    0    0  0.10455123682E+01  0.53110171914E+00  0.13412385149E+00  0.11803195990E+01  0.00000000000E+00 0. -1.
         11    1    3    3    0    0  0.60856986226E+01  0.49945198585E+01 -0.48450362761E+00  0.78876929687E+01  0.51100000000E-03 0. -1.
        -11    1    3    3    0    0 -0.64535796532E+01 -0.96428363968E+01 -0.39951670249E+02  0.41602511223E+02  0.51100000000E-03 0.  1.
         12    1    3    3    0    0 -0.67763133766E+00  0.41172148191E+01  0.40302050025E+02  0.40517476209E+02  0.00000000000E+00 0. -1.
</event>
<event>
 7    1  0.2000468E-015  0.9000770E+02  0.7816164E-02  0.1186339E+00
        -11   -1    0    0    0    0  0.00000000000E+00  0.00000000000E+00  0.45593999997E+02  0.45594000000E+02  0.51100000000E-03 0. -1.
         11   -1    0    0    0    0 -0.00000000000E+00 -0.00000000000E+00 -0.45593999997E+02  0.45594000000E+02  0.51100000000E-03 0.  1.
    9900012    2    1    2    0    0 -0.11350282666E+01 -0.10131676057E+00 -0.30747891634E+00  0.90007704471E+02  0.89999965370E+02 0.  0.
         12    1    1    2    0    0  0.11350282666E+01  0.10131676057E+00  0.30747891634E+00  0.11802955291E+01  0.00000000000E+00 0. -1.
         11    1    3    3    0    0  0.32679968496E+02 -0.14958487070E+02  0.74708817976E+01  0.36709000959E+02  0.51100000000E-03 0. -1.
        -11    1    3    3    0    0  0.74356864965E+01  0.71067940196E+01  0.12645373929E+01  0.10363156372E+02  0.51100000000E-03 0.  1.
        -12    1    3    3    0    0 -0.41250683259E+02  0.77503762902E+01 -0.90428981068E+01  0.42935547139E+02  0.00000000000E+00 0.  1.
</event>
<event>
 7    1  0.2000468E-015  0.9000771E+02  0.7816164E-02  0.1186339E+00
        -11   -1    0    0    0    0  0.00000000000E+00  0.00000000000E+00  0.45593999997E+02  0.45594000000E+02  0.51100000000E-03 0. -1.
         11   -1    0    0    0    0 -0.00000000000E+00 -0.00000000000E+00 -0.45593999997E+02  0.45594000000E+02  0.51100000000E-03 0.  1.
    9900012    2    1    2    0    0  0.94155489237E+00 -0.63335890429E+00  0.32466625509E+00  0.90007713046E+02  0.89999974058E+02 0.  0.
         12    1    1    2    0    0 -0.94155489237E+00  0.63335890429E+00 -0.32466625509E+00  0.11802869542E+01  0.00000000000E+00 0. -1.
         11    1    3    3    0    0  0.23294780443E+02 -0.66914375835E+01  0.15961184028E+02  0.29020364034E+02  0.51100000000E-03 0. -1.
        -11    1    3    3    0    0  0.63248960068E+01 -0.18276061380E+02  0.20074301582E+01  0.19443469474E+02  0.51100000000E-03 0.  1.
        -12    1    3    3    0    0 -0.28678121557E+02  0.24334140060E+02 -0.17643947931E+02  0.41543879538E+02  0.00000000000E+00 0.  1.
</event>
<event>
 7    1  0.2000468E-015  0.9000777E+02  0.7816164E-02  0.1186339E+00
        -11   -1    0    0    0    0  0.00000000000E+00  0.00000000000E+00  0.45593999997E+02  0.45594000000E+02  0.51100000000E-03 0. -1.
         11   -1    0    0    0    0 -0.00000000000E+00 -0.00000000000E+00 -0.45593999997E+02  0.45594000000E+02  0.51100000000E-03 0.  1.
    9900012    2    1    2    0    0 -0.12261191451E+00  0.11342075502E+01 -0.30246685464E+00  0.90007768393E+02  0.90000030136E+02 0.  0.
         12    1    1    2    0    0  0.12261191451E+00 -0.11342075502E+01  0.30246685464E+00  0.11802316072E+01  0.00000000000E+00 0. -1.
         11    1    3    3    0    0 -0.12861195581E+01  0.85827926020E+01 -0.41488266909E+01  0.96193136730E+01  0.51100000000E-03 0. -1.
        -11    1    3    3    0    0  0.67291066265E+00 -0.26769520107E+02 -0.30740360772E+02  0.40767999659E+02  0.51100000000E-03 0.  1.
         12    1    3    3    0    0  0.49059698091E+00  0.19320935055E+02  0.34586720609E+02  0.39620455061E+02  0.00000000000E+00 0. -1.
</event>
<event>
 7    1  0.2000468E-015  0.9000774E+02  0.7816164E-02  0.1186339E+00
        -11   -1    0    0    0    0  0.00000000000E+00  0.00000000000E+00  0.45593999997E+02  0.45594000000E+02  0.51100000000E-03 0. -1.
         11   -1    0    0    0    0 -0.00000000000E+00 -0.00000000000E+00 -0.45593999997E+02  0.45594000000E+02  0.51100000000E-03 0.  1.
    9900012    2    1    2    0    0 -0.70549196195E+00 -0.27956143037E+00  0.90395994496E+00  0.90007738553E+02  0.89999999902E+02 0.  0.
         12    1    1    2    0    0  0.70549196195E+00  0.27956143037E+00 -0.90395994496E+00  0.11802614472E+01  0.00000000000E+00 0. -1.
         11    1    3    3    0    0 -0.22215934483E+02 -0.15085158605E+01  0.33152803166E+02  0.39936596288E+02  0.51100000000E-03 0. -1.
        -11    1    3    3    0    0 -0.67169714579E+01 -0.39919112172E+01 -0.14106957602E+01  0.79399699950E+01  0.51100000000E-03 0.  1.
        -12    1    3    3    0    0  0.28227413979E+02  0.52208656473E+01 -0.30838147461E+02  0.42131172270E+02  0.00000000000E+00 0.  1.
</event>
<event>
 7    1  0.2000468E-015  0.9000782E+02  0.7816164E-02  0.1186339E+00
        -11   -1    0    0    0    0  0.00000000000E+00  0.00000000000E+00  0.45593999997E+02  0.45594000000E+02  0.51100000000E-03 0.  1.
         11   -1    0    0    0    0 -0.00000000000E+00 -0.00000000000E+00 -0.45593999997E+02  0.45594000000E+02  0.51100000000E-03 0. -1.
    9900012    2    1    2    0    0 -0.11024490200E+01  0.27596467712E+00  0.31822691301E+00  0.90007822593E+02  0.90000085051E+02 0.  0.
         12    1    1    2    0    0  0.11024490200E+01 -0.27596467712E+00 -0.31822691301E+00  0.11801774074E+01  0.00000000000E+00 0. -1.
         11    1    3    3    0    0  0.34703649785E+02  0.15127466487E+02  0.11208015529E+01  0.37873998299E+02  0.51100000000E-03 0. -1.
        -11    1    3    3    0    0  0.19735536789E+01  0.76705925617E+01 -0.18669266690E+01  0.81374639673E+01  0.51100000000E-03 0.  1.
        -12    1    3    3    0    0 -0.37779652484E+02 -0.22522094372E+02  0.10643520291E+01  0.43996360326E+02  0.00000000000E+00 0.  1.
</event>
<event>
 7    1  0.2000468E-015  0.9000825E+02  0.7816164E-02  0.1186338E+00
        -11   -1    0    0    0    0  0.00000000000E+00  0.00000000000E+00  0.45593999997E+02  0.45594000000E+02  0.51100000000E-03 0.  1.
         11   -1    0    0    0    0 -0.00000000000E+00 -0.00000000000E+00 -0.45593999997E+02  0.45594000000E+02  0.51100000000E-03 0. -1.
    9900012    2    1    2    0    0 -0.34950260858E-01 -0.75925957689E+00  0.90227961977E+00  0.90008252087E+02  0.90000520213E+02 0.  0.
         12    1    1    2    0    0  0.34950260858E-01  0.75925957689E+00 -0.90227961977E+00  0.11797479129E+01  0.00000000000E+00 0. -1.
         11    1    3    3    0    0 -0.39317599892E+01  0.57183086762E+01 -0.76630489115E+01  0.10338283688E+02  0.51100000000E-03 0. -1.
        -11    1    3    3    0    0 -0.21367430316E+02  0.20146679941E+02  0.25828356415E+02  0.39109586885E+02  0.51100000000E-03 0.  1.
         12    1    3    3    0    0  0.25264240044E+02 -0.26624248194E+02 -0.17263027884E+02  0.40560381514E+02  0.00000000000E+00 0. -1.
</event>
<event>
 7    1  0.2000468E-015  0.9000767E+02  0.7816164E-02  0.1186339E+00
        -11   -1    0    0    0    0  0.00000000000E+00  0.00000000000E+00  0.45593999997E+02  0.45594000000E+02  0.51100000000E-03 0.  1.
         11   -1    0    0    0    0 -0.00000000000E+00 -0.00000000000E+00 -0.45593999997E+02  0.45594000000E+02  0.51100000000E-03 0. -1.
    9900012    2    1    2    0    0  0.38141102517E+00  0.25151343181E+00  0.10883183155E+01  0.90007673718E+02  0.89999934211E+02 0.  0.
         12    1    1    2    0    0 -0.38141102517E+00 -0.25151343181E+00 -0.10883183155E+01  0.11803262821E+01  0.00000000000E+00 0. -1.
         11    1    3    3    0    0  0.50660840793E+01 -0.54460132707E+01  0.10619016551E+02  0.12964867188E+02  0.51100000000E-03 0. -1.
        -11    1    3    3    0    0  0.32846164854E+01  0.39494734287E+02  0.38767083974E+01  0.39820241211E+02  0.51100000000E-03 0.  1.
         12    1    3    3    0    0 -0.79692895395E+01 -0.33797207584E+02 -0.13407406633E+02  0.37222565318E+02  0.00000000000E+00 0. -1.
</event>
<event>
 7    1  0.2000468E-015  0.9000785E+02  0.7816164E-02  0.1186339E+00
        -11   -1    0    0    0    0  0.00000000000E+00  0.00000000000E+00  0.45593999997E+02  0.45594000000E+02  0.51100000000E-03 0.  1.
         11   -1    0    0    0    0 -0.00000000000E+00 -0.00000000000E+00 -0.45593999997E+02  0.45594000000E+02  0.51100000000E-03 0. -1.
    9900012    2    1    2    0    0  0.56299627760E+00  0.92967680375E+00 -0.45987307095E+00  0.90007852971E+02  0.90000115830E+02 0.  0.
         12    1    1    2    0    0 -0.56299627760E+00 -0.92967680375E+00  0.45987307095E+00  0.11801470287E+01  0.00000000000E+00 0. -1.
         11    1    3    3    0    0  0.20990081505E+02  0.35021216272E+02  0.43771708558E+01  0.41063715562E+02  0.51100000000E-03 0. -1.
        -11    1    3    3    0    0  0.55031261474E-01 -0.41823918906E+01  0.91723779174E+01  0.10081068757E+02  0.51100000000E-03 0.  1.
        -12    1    3    3    0    0 -0.20482116489E+02 -0.29909147578E+02 -0.14009421844E+02  0.38863068653E+02  0.00000000000E+00 0.  1.
</event>
<event>
 7    1  0.2000468E-015  0.9000757E+02  0.7816164E-02  0.1186339E+00
        -11   -1    0    0    0    0  0.00000000000E+00  0.00000000000E+00  0.45593999997E+02  0.45594000000E+02  0.51100000000E-03 0.  1.
         11   -1    0    0    0    0 -0.00000000000E+00 -0.00000000000E+00 -0.45593999997E+02  0.45594000000E+02  0.51100000000E-03 0. -1.
    9900012    2    1    2    0    0 -0.79713685819E+00  0.25631346809E+00  0.83203675382E+00  0.90007572567E+02  0.89999831725E+02 0.  0.
         12    1    1    2    0    0  0.79713685819E+00 -0.25631346809E+00 -0.83203675382E+00  0.11804274329E+01  0.00000000000E+00 0. -1.
         11    1    3    3    0    0  0.24541468833E+02 -0.15160900070E+02  0.10379208039E+01  0.28865444103E+02  0.51100000000E-03 0. -1.
        -11    1    3    3    0    0  0.12738091217E+02 -0.72851581661E+01  0.69508654678E+01  0.16237211226E+02  0.51100000000E-03 0.  1.
        -12    1    3    3    0    0 -0.38076696909E+02  0.22702371704E+02 -0.71567495178E+01  0.44904917238E+02  0.00000000000E+00 0.  1.
</event>
<event>
 7    1  0.2000468E-015  0.9000770E+02  0.7816164E-02  0.1186339E+00
        -11   -1    0    0    0    0  0.00000000000E+00  0.00000000000E+00  0.45593999997E+02  0.45594000000E+02  0.51100000000E-03 0.  1.
         11   -1    0    0    0    0 -0.00000000000E+00 -0.00000000000E+00 -0.45593999997E+02  0.45594000000E+02  0.51100000000E-03 0. -1.
    9900012    2    1    2    0    0  0.10821236552E+01 -0.46986817564E+00 -0.36581216201E-01  0.90007700931E+02  0.89999961783E+02 0.  0.
         12    1    1    2    0    0 -0.10821236552E+01  0.46986817564E+00  0.36581216201E-01  0.11802990693E+01  0.00000000000E+00 0. -1.
         11    1    3    3    0    0 -0.15228034509E+01  0.52460803477E+01  0.79467209001E+01  0.96431666318E+01  0.51100000000E-03 0. -1.
        -11    1    3    3    0    0  0.11140185864E+02 -0.14900746310E+01  0.34781307741E+02  0.36552201464E+02  0.51100000000E-03 0.  1.
         12    1    3    3    0    0 -0.85352587576E+01 -0.42258738924E+01 -0.42764609857E+02  0.43812332835E+02  0.00000000000E+00 0. -1.
</event>
<event>
 7    1  0.2000468E-015  0.9000775E+02  0.7816164E-02  0.1186339E+00
        -11   -1    0    0    0    0  0.00000000000E+00  0.00000000000E+00  0.45593999997E+02  0.45594000000E+02  0.51100000000E-03 0. -1.
         11   -1    0    0    0    0 -0.00000000000E+00 -0.00000000000E+00 -0.45593999997E+02  0.45594000000E+02  0.51100000000E-03 0.  1.
    9900012    2    1    2    0    0  0.61124605041E+00  0.80295298202E+00 -0.61208275800E+00  0.90007745566E+02  0.90000007008E+02 0.  0.
         12    1    1    2    0    0 -0.61124605041E+00 -0.80295298202E+00  0.61208275800E+00  0.11802544336E+01  0.00000000000E+00 0. -1.
         11    1    3    3    0    0  0.32486742333E+02  0.14721291883E+02 -0.13727889307E+02  0.38217271059E+02  0.51100000000E-03 0. -1.
        -11    1    3    3    0    0  0.41339694699E+01  0.67835008977E+01  0.52340022811E+01  0.95131681446E+01  0.51100000000E-03 0.  1.
        -12    1    3    3    0    0 -0.36009465752E+02 -0.20701839799E+02  0.78818042676E+01  0.42277306363E+02  0.00000000000E+00 0.  1.
</event>
<event>
 7    1  0.2000468E-015  0.9000764E+02  0.7816164E-02  0.1186339E+00
        -11   -1    0    0    0    0  0.00000000000E+00  0.00000000000E+00  0.45593999997E+02  0.45594000000E+02  0.51100000000E-03 0. -1.
         11   -1    0    0    0    0 -0.00000000000E+00 -0.00000000000E+00 -0.45593999997E+02  0.45594000000E+02  0.51100000000E-03 0.  1.
    9900012    2    1    2    0    0 -0.79495341753E+00  0.48457724942E+00  0.72559090779E+00  0.90007640643E+02  0.89999900699E+02 0.  0.
         12    1    1    2    0    0  0.79495341753E+00 -0.48457724942E+00 -0.72559090779E+00  0.11803593572E+01  0.00000000000E+00 0. -1.
         11    1    3    3    0    0  0.17220813655E-01 -0.23626318891E+02  0.25875110293E+02  0.35038900866E+02  0.51100000000E-03 0. -1.
        -11    1    3    3    0    0  0.85367653150E+01 -0.71291652028E+01  0.33977021251E+01  0.11629520133E+02  0.51100000000E-03 0.  1.
        -12    1    3    3    0    0 -0.93489395462E+01  0.31240061344E+02 -0.28547221510E+02  0.43339219644E+02  0.00000000000E+00 0.  1.
</event>
<event>
 7    1  0.2000468E-015  0.9000754E+02  0.7816164E-02  0.1186339E+00
        -11   -1    0    0    0    0  0.00000000000E+00  0.00000000000E+00  0.45593999997E+02  0.45594000000E+02  0.51100000000E-03 0. -1.
         11   -1    0    0    0    0 -0.00000000000E+00 -0.00000000000E+00 -0.45593999997E+02  0.45594000000E+02  0.51100000000E-03 0.  1.
    9900012    2    1    2    0    0 -0.53157997121E+00 -0.11041117670E+00 -0.10482002920E+01  0.90007537486E+02  0.89999796181E+02 0.  0.
         12    1    1    2    0    0  0.53157997121E+00  0.11041117670E+00  0.10482002920E+01  0.11804625136E+01  0.00000000000E+00 0. -1.
         11    1    3    3    0    0  0.32763498563E+01 -0.16433607439E+01 -0.71754924282E+01  0.80574682601E+01  0.51100000000E-03 0. -1.
        -11    1    3    3    0    0 -0.13457710356E+02 -0.34905271850E+02 -0.13097563934E+02  0.39636273188E+02  0.51100000000E-03 0.  1.
         12    1    3    3    0    0  0.96497805286E+01  0.36438221417E+02  0.19224856070E+02  0.42313796039E+02  0.00000000000E+00 0. -1.
</event>
<event>
 7    1  0.2000468E-015  0.9000776E+02  0.7816164E-02  0.1186339E+00
        -11   -1    0    0    0    0  0.00000000000E+00  0.00000000000E+00  0.45593999997E+02  0.45594000000E+02  0.51100000000E-03 0.  1.
         11   -1    0    0    0    0 -0.00000000000E+00 -0.00000000000E+00 -0.45593999997E+02  0.45594000000E+02  0.51100000000E-03 0. -1.
    9900012    2    1    2    0    0 -0.10657821365E+01 -0.39478608162E+00 -0.31813878787E+00  0.90007762778E+02  0.90000024446E+02 0.  0.
         12    1    1    2    0    0  0.10657821365E+01  0.39478608162E+00  0.31813878787E+00  0.11802372223E+01  0.00000000000E+00 0. -1.
         11    1    3    3    0    0 -0.70809127864E+01  0.24233069578E+00  0.71385457246E+01  0.10057677932E+02  0.51100000000E-03 0. -1.
        -11    1    3    3    0    0 -0.32141725030E+02 -0.72014899178E+01  0.13878971867E+02  0.35743220410E+02  0.51100000000E-03 0.  1.
         12    1    3    3    0    0  0.38156855680E+02  0.65643731404E+01 -0.21335656380E+02  0.44206864436E+02  0.00000000000E+00 0. -1.
</event>
<event>
 7    1  0.2000468E-015  0.9000767E+02  0.7816164E-02  0.1186339E+00
        -11   -1    0    0    0    0  0.00000000000E+00  0.00000000000E+00  0.45593999997E+02  0.45594000000E+02  0.51100000000E-03 0.  1.
         11   -1    0    0    0    0 -0.00000000000E+00 -0.00000000000E+00 -0.45593999997E+02  0.45594000000E+02  0.51100000000E-03 0. -1.
    9900012    2    1    2    0    0 -0.45501363108E+00 -0.90698155971E+00 -0.60292755008E+00  0.90007671832E+02  0.89999932300E+02 0.  0.
         12    1    1    2    0    0  0.45501363108E+00  0.90698155971E+00  0.60292755008E+00  0.11803281683E+01  0.00000000000E+00 0. -1.
         11    1    3    3    0    0 -0.74006035822E+01 -0.33812439761E+02  0.75451434188E+01  0.35425685673E+02  0.51100000000E-03 0. -1.
        -11    1    3    3    0    0 -0.27412383801E+01 -0.97289103023E+01 -0.30894521463E+01  0.10569332919E+02  0.51100000000E-03 0.  1.
        -12    1    3    3    0    0  0.96868283312E+01  0.42634368503E+02 -0.50586188225E+01  0.44012653240E+02  0.00000000000E+00 0.  1.
</event>
<event>
 7    1  0.2000468E-015  0.9000781E+02  0.7816164E-02  0.1186339E+00
        -11   -1    0    0    0    0  0.00000000000E+00  0.00000000000E+00  0.45593999997E+02  0.45594000000E+02  0.51100000000E-03 0.  1.
         11   -1    0    0    0    0 -0.00000000000E+00 -0.00000000000E+00 -0.45593999997E+02  0.45594000000E+02  0.51100000000E-03 0. -1.
    9900012    2    1    2    0    0  0.11775181193E+01 -0.77971927853E-01 -0.14862989220E-01  0.90007809570E+02  0.90000071856E+02 0.  0.
         12    1    1    2    0    0 -0.11775181193E+01  0.77971927853E-01  0.14862989220E-01  0.11801904301E+01  0.00000000000E+00 0. -1.
         11    1    3    3    0    0  0.28541217138E+02  0.46072676743E+01 -0.17298805664E+02  0.33690898901E+02  0.51100000000E-03 0. -1.
        -11    1    3    3    0    0  0.11050723793E+02 -0.43929952430E+01 -0.38147259073E+01  0.12488756446E+02  0.51100000000E-03 0.  1.
        -12    1    3    3    0    0 -0.38414422811E+02 -0.29224435910E+00  0.21098668582E+02  0.43828154223E+02  0.00000000000E+00 0.  1.
</event>
<event>
 7    1  0.2000468E-015  0.9000780E+02  0.7816164E-02  0.1186339E+00
        -11   -1    0    0    0    0  0.00000000000E+00  0.00000000000E+00  0.45593999997E+02  0.45594000000E+02  0.51100000000E-03 0.  1.
         11   -1    0    0    0    0 -0.00000000000E+00 -0.00000000000E+00 -0.45593999997E+02  0.45594000000E+02  0.51100000000E-03 0. -1.
    9900012    2    1    2    0    0 -0.70810427792E-01  0.82855340902E+00  0.83746572492E+00  0.90007803530E+02  0.90000065736E+02 0.  0.
         12    1    1    2    0    0  0.70810427792E-01 -0.82855340902E+00 -0.83746572492E+00  0.11801964704E+01  0.00000000000E+00 0. -1.
         11    1    3    3    0    0  0.36601575256E+01  0.16913681174E-01  0.40209027806E+01  0.54373429740E+01  0.51100000000E-03 0. -1.
        -11    1    3    3    0    0  0.16131052869E+02  0.74497023534E+01  0.35997587819E+02  0.40143931806E+02  0.51100000000E-03 0.  1.
         12    1    3    3    0    0 -0.19862020822E+02 -0.66380626256E+01 -0.39181024874E+02  0.44426528750E+02  0.00000000000E+00 0. -1.
</event>
<event>
 7    1  0.2000468E-015  0.9000771E+02  0.7816164E-02  0.1186339E+00
        -11   -1    0    0    0    0  0.00000000000E+00  0.00000000000E+00  0.45593999997E+02  0.45594000000E+02  0.51100000000E-03 0. -1.
         11   -1    0    0    0    0 -0.00000000000E+00 -0.00000000000E+00 -0.45593999997E+02  0.45594000000E+02  0.51100000000E-03 0.  1.
    9900012    2    1    2    0    0  0.94175047735E+00  0.52315404201E+00 -0.48218692947E+00  0.90007708363E+02  0.89999969313E+02 0.  0.
         12    1    1    2    0    0 -0.94175047735E+00 -0.52315404201E+00  0.48218692947E+00  0.11802916369E+01  0.00000000000E+00 0. -1.
         11    1    3    3    0    0 -0.38703570336E+01 -0.25635675678E-01 -0.85184795400E+01  0.93565386063E+01  0.51100000000E-03 0. -1.
        -11    1    3    3    0    0  0.31650809477E+00  0.24568012697E+02 -0.27910866089E+02  0.37184726318E+02  0.51100000000E-03 0.  1.
         12    1    3    3    0    0  0.44955994162E+01 -0.24019222979E+02  0.35947158700E+02  0.43466443439E+02  0.00000000000E+00 0. -1.
</event>
<event>
 7    1  0.2000468E-015  0.9000774E+02  0.7816164E-02  0.1186339E+00
        -11   -1    0    0    0    0  0.00000000000E+00  0.00000000000E+00  0.45593999997E+02  0.45594000000E+02  0.51100000000E-03 0.  1.
         11   -1    0    0    0    0 -0.00000000000E+00 -0.00000000000E+00 -0.45593999997E+02  0.45594000000E+02  0.51100000000E-03 0. -1.
    9900012    2    1    2    0    0  0.10470710318E+01 -0.52402444214E+00  0.14850897444E+00  0.90007739742E+02  0.90000001106E+02 0.  0.
         12    1    1    2    0    0 -0.10470710318E+01  0.52402444214E+00 -0.14850897444E+00  0.11802602582E+01  0.00000000000E+00 0. -1.
         11    1    3    3    0    0 -0.78324038704E+01  0.62517647129E+01  0.11576833463E+01  0.10088178399E+02  0.51100000000E-03 0. -1.
        -11    1    3    3    0    0 -0.22843146964E+02  0.21951120229E+02  0.13906001755E+02  0.34598235902E+02  0.51100000000E-03 0.  1.
         12    1    3    3    0    0  0.31722621866E+02 -0.28726909384E+02 -0.14915176127E+02  0.45321325440E+02  0.00000000000E+00 0. -1.
</event>
<event>
 7    1  0.2000468E-015  0.9000769E+02  0.7816164E-02  0.1186339E+00
        -11   -1    0    0    0    0  0.00000000000E+00  0.00000000000E+00  0.45593999997E+02  0.45594000000E+02  0.51100000000E-03 0. -1.
         11   -1    0    0    0    0 -0.00000000000E+00 -0.00000000000E+00 -0.45593999997E+02  0.45594000000E+02  0.51100000000E-03 0.  1.
    9900012    2    1    2    0    0  0.79971170891E+00  0.59596282542E+00 -0.63120219045E+00  0.90007692111E+02  0.89999952847E+02 0.  0.
         12    1    1    2    0    0 -0.79971170891E+00 -0.59596282542E+00  0.63120219045E+00  0.11803078886E+01  0.00000000000E+00 0. -1.
         11    1    3    3    0    0  0.63574903810E+01 -0.37907606303E+01 -0.77529558081E+01  0.10718949301E+02  0.51100000000E-03 0. -1.
        -11    1    3    3    0    0 -0.38210679235E+01  0.19850866509E+02 -0.31624967274E+02  0.37533931537E+02  0.51100000000E-03 0.  1.
         12    1    3    3    0    0 -0.17367107486E+01 -0.15464143053E+02  0.38746720892E+02  0.41754811273E+02  0.00000000000E+00 0. -1.
</event>
<event>
 7    1  0.2000468E-015  0.9000780E+02  0.7816164E-02  0.1186339E+00
        -11   -1    0    0    0    0  0.00000000000E+00  0.00000000000E+00  0.45593999997E+02  0.45594000000E+02  0.51100000000E-03 0. -1.
         11   -1    0    0    0    0 -0.00000000000E+00 -0.00000000000E+00 -0.45593999997E+02  0.45594000000E+02  0.51100000000E-03 0.  1.
    9900012    2    1    2    0    0  0.43083234342E+00 -0.48709573753E+00 -0.98488357238E+00  0.90007798993E+02  0.90000061140E+02 0.  0.
         12    1    1    2    0    0 -0.43083234342E+00  0.48709573753E+00  0.98488357238E+00  0.11802010069E+01  0.00000000000E+00 0. -1.
         11    1    3    3    0    0 -0.10461350078E+02  0.31065466675E+01  0.76524767454E+00  0.10939656389E+02  0.51100000000E-03 0. -1.
        -11    1    3    3    0    0 -0.31872709858E+02  0.73900589489E+01 -0.98705965364E+01  0.34174716988E+02  0.51100000000E-03 0.  1.
         12    1    3    3    0    0  0.42764892279E+02 -0.10983701354E+02  0.81204652894E+01  0.44893425616E+02  0.00000000000E+00 0. -1.
</event>
<event>
 7    1  0.2495267E-015  0.9000770E+02  0.7816164E-02  0.1186339E+00
        -11   -1    0    0    0    0  0.00000000000E+00  0.00000000000E+00  0.45593999997E+02  0.45594000000E+02  0.51100000000E-03 0. -1.
         11   -1    0    0    0    0 -0.00000000000E+00 -0.00000000000E+00 -0.45593999997E+02  0.45594000000E+02  0.51100000000E-03 0.  1.
    9900012    2    1    2    0    0 -0.96977732861E+00  0.64313460402E+00 -0.19753080968E+00  0.90007699781E+02  0.89999960618E+02 0.  0.
         12    1    1    2    0    0  0.96977732861E+00 -0.64313460402E+00  0.19753080968E+00  0.11803002189E+01  0.00000000000E+00 0. -1.
         11    1    3    3    0    0 -0.21860788527E+02 -0.11991463126E+02  0.28521023653E+02  0.37883215985E+02  0.51100000000E-03 0. -1.
        -11    1    3    3    0    0 -0.78191017823E+01 -0.43742810277E+01 -0.15489661665E+01  0.90924135211E+01  0.51100000000E-03 0.  1.
        -12    1    3    3    0    0  0.28710112980E+02  0.17008878758E+02 -0.27169588296E+02  0.43032070275E+02  0.00000000000E+00 0.  1.
</event>
<event>
 7    1  0.2185887E-015  0.9000768E+02  0.7816164E-02  0.1186339E+00
        -11   -1    0    0    0    0  0.00000000000E+00  0.00000000000E+00  0.45593999997E+02  0.45594000000E+02  0.51100000000E-03 0.  1.
         11   -1    0    0    0    0 -0.00000000000E+00 -0.00000000000E+00 -0.45593999997E+02  0.45594000000E+02  0.51100000000E-03 0. -1.
    9900012    2    1    2    0    0 -0.51752217489E+00  0.97830049131E+00  0.41019309371E+00  0.90007678253E+02  0.89999938806E+02 0.  0.
         12    1    1    2    0    0  0.51752217489E+00 -0.97830049131E+00 -0.41019309371E+00  0.11803217472E+01  0.00000000000E+00 0. -1.
         11    1    3    3    0    0 -0.31785568721E+01 -0.35553676979E+02 -0.11157992892E+02  0.37398769714E+02  0.51100000000E-03 0. -1.
        -11    1    3    3    0    0  0.71158413312E+01 -0.30654259727E+01 -0.52486204168E+01  0.93584213832E+01  0.51100000000E-03 0.  1.
        -12    1    3    3    0    0 -0.44548066339E+01  0.39597403443E+02  0.16816806402E+02  0.43250487155E+02  0.00000000000E+00 0.  1.
</event>
<event>
 7    1  0.2174793E-015  0.9000771E+02  0.7816164E-02  0.1186339E+00
        -11   -1    0    0    0    0  0.00000000000E+00  0.00000000000E+00  0.45593999997E+02  0.45594000000E+02  0.51100000000E-03 0. -1.
         11   -1    0    0    0    0 -0.00000000000E+00 -0.00000000000E+00 -0.45593999997E+02  0.45594000000E+02  0.51100000000E-03 0.  1.
    9900012    2    1    2    0    0 -0.91155046117E-01  0.10075392177E+01 -0.60797159497E+00  0.90007714451E+02  0.89999975481E+02 0.  0.
         12    1    1    2    0    0  0.91155046117E-01 -0.10075392177E+01  0.60797159497E+00  0.11802855493E+01  0.00000000000E+00 0. -1.
         11    1    3    3    0    0  0.85479586333E+01 -0.13520684316E+02  0.32921894678E+02  0.36602290237E+02  0.51100000000E-03 0. -1.
        -11    1    3    3    0    0  0.49657237023E+01 -0.89184124595E+01  0.10292932617E+00  0.10208187273E+02  0.51100000000E-03 0.  1.
        -12    1    3    3    0    0 -0.13604837382E+02  0.23446635993E+02 -0.33632795599E+02  0.43197236941E+02  0.00000000000E+00 0.  1.
</event>
<event>
 7    1  0.2000468E-015  0.9000772E+02  0.7816164E-02  0.1186339E+00
        -11   -1    0    0    0    0  0.00000000000E+00  0.00000000000E+00  0.45593999997E+02  0.45594000000E+02  0.51100000000E-03 0.  1.
         11   -1    0    0    0    0 -0.00000000000E+00 -0.00000000000E+00 -0.45593999997E+02  0.45594000000E+02  0.51100000000E-03 0. -1.
    9900012    2    1    2    0    0  0.79678352063E+00 -0.40099155379E+00  0.77292083213E+00  0.90007718331E+02  0.89999979413E+02 0.  0.
         12    1    1    2    0    0 -0.79678352063E+00  0.40099155379E+00 -0.77292083213E+00  0.11802816688E+01  0.00000000000E+00 0. -1.
         11    1    3    3    0    0 -0.17467790023E+02  0.23183082186E+02  0.23813151414E+02  0.37545241622E+02  0.51100000000E-03 0. -1.
        -11    1    3    3    0    0  0.39815778159E+01  0.50265208633E+01  0.63541957562E+01  0.90274402719E+01  0.51100000000E-03 0.  1.
        -12    1    3    3    0    0  0.14282995727E+02 -0.28610594603E+02 -0.29394426339E+02  0.43435036437E+02  0.00000000000E+00 0.  1.
</event>
<event>
 7    1  0.2000468E-015  0.9000774E+02  0.7816164E-02  0.1186339E+00
        -11   -1    0    0    0    0  0.00000000000E+00  0.00000000000E+00  0.45593999997E+02  0.45594000000E+02  0.51100000000E-03 0. -1.
         11   -1    0    0    0    0 -0.00000000000E+00 -0.00000000000E+00 -0.45593999997E+02  0.45594000000E+02  0.51100000000E-03 0.  1.
    9900012    2    1    2    0    0  0.10858321814E+01  0.37801359135E+00  0.26660426859E+00  0.90007744249E+02  0.90000005673E+02 0.  0.
         12    1    1    2    0    0 -0.10858321814E+01 -0.37801359135E+00 -0.26660426859E+00  0.11802557509E+01  0.00000000000E+00 0. -1.
         11    1    3    3    0    0  0.24909827087E+02 -0.22866747825E+02  0.18510339731E+02  0.38548934082E+02  0.51100000000E-03 0. -1.
        -11    1    3    3    0    0 -0.17866228251E+01 -0.89171976422E+01 -0.26987918746E+01  0.94864067356E+01  0.51100000000E-03 0.  1.
        -12    1    3    3    0    0 -0.22037372081E+02  0.32161959058E+02 -0.15544943588E+02  0.41972403432E+02  0.00000000000E+00 0.  1.
</event>
<event>
 7    1  0.2000468E-015  0.9000791E+02  0.7816164E-02  0.1186339E+00
        -11   -1    0    0    0    0  0.00000000000E+00  0.00000000000E+00  0.45593999997E+02  0.45594000000E+02  0.51100000000E-03 0.  1.
         11   -1    0    0    0    0 -0.00000000000E+00 -0.00000000000E+00 -0.45593999997E+02  0.45594000000E+02  0.51100000000E-03 0. -1.
    9900012    2    1    2    0    0  0.73030154666E+00 -0.92643586696E+00  0.31283355505E-01  0.90007914235E+02  0.90000177903E+02 0.  0.
         12    1    1    2    0    0 -0.73030154666E+00  0.92643586696E+00 -0.31283355505E-01  0.11800857651E+01  0.00000000000E+00 0. -1.
         11    1    3    3    0    0 -0.87655236699E+01 -0.30060877493E+02 -0.46138574945E+01  0.31650883749E+02  0.51100000000E-03 0. -1.
        -11    1    3    3    0    0 -0.42147189195E+01 -0.10502393844E+01  0.20961514566E+02  0.21406820210E+02  0.51100000000E-03 0.  1.
        -12    1    3    3    0    0  0.13710544136E+02  0.30184681010E+02 -0.16316373716E+02  0.36950210276E+02  0.00000000000E+00 0.  1.
</event>
<event>
 7    1  0.2386788E-015  0.9000777E+02  0.7816164E-02  0.1186339E+00
        -11   -1    0    0    0    0  0.00000000000E+00  0.00000000000E+00  0.45593999997E+02  0.45594000000E+02  0.51100000000E-03 0.  1.
         11   -1    0    0    0    0 -0.00000000000E+00 -0.00000000000E+00 -0.45593999997E+02  0.45594000000E+02  0.51100000000E-03 0. -1.
    9900012    2    1    2    0    0  0.29001651309E+00  0.41749372645E+00  0.10651460197E+01  0.90007768399E+02  0.90000030142E+02 0.  0.
         12    1    1    2    0    0 -0.29001651309E+00 -0.41749372645E+00 -0.10651460197E+01  0.11802316013E+01  0.00000000000E+00 0. -1.
         11    1    3    3    0    0  0.31585320434E+02 -0.98735846448E+01 -0.22424971263E+02  0.39974985642E+02  0.51100000000E-03 0. -1.
        -11    1    3    3    0    0 -0.55133849217E+01 -0.77312477601E+01 -0.18071163991E+01  0.96661923819E+01  0.51100000000E-03 0.  1.
        -12    1    3    3    0    0 -0.25781919000E+02  0.18022326131E+02  0.25297233682E+02  0.40366590374E+02  0.00000000000E+00 0.  1.
</event>
<event>
 7    1  0.2000468E-015  0.9000775E+02  0.7816164E-02  0.1186339E+00
        -11   -1    0    0    0    0  0.00000000000E+00  0.00000000000E+00  0.45593999997E+02  0.45594000000E+02  0.51100000000E-03 0.  1.
         11   -1    0    0    0    0 -0.00000000000E+00 -0.00000000000E+00 -0.45593999997E+02  0.45594000000E+02  0.51100000000E-03 0. -1.
    9900012    2    1    2    0    0  0.68196609483E-01  0.39474435039E+00  0.11101918991E+01  0.90007745819E+02  0.90000007264E+02 0.  0.
         12    1    1    2    0    0 -0.68196609483E-01 -0.39474435039E+00 -0.11101918991E+01  0.11802541813E+01  0.00000000000E+00 0. -1.
         11    1    3    3    0    0 -0.26011427540E+02 -0.12084720745E+02 -0.22652932622E+02  0.36548463645E+02  0.51100000000E-03 0. -1.
        -11    1    3    3    0    0  0.11444954477E+02  0.23481966627E+00 -0.96561762290E+01  0.14976109738E+02  0.51100000000E-03 0.  1.
        -12    1    3    3    0    0  0.14634669673E+02  0.12244645429E+02  0.33419300750E+02  0.38483172436E+02  0.00000000000E+00 0.  1.
</event>
<event>
 7    1  0.2000468E-015  0.9000767E+02  0.7816164E-02  0.1186339E+00
        -11   -1    0    0    0    0  0.00000000000E+00  0.00000000000E+00  0.45593999997E+02  0.45594000000E+02  0.51100000000E-03 0.  1.
         11   -1    0    0    0    0 -0.00000000000E+00 -0.00000000000E+00 -0.45593999997E+02  0.45594000000E+02  0.51100000000E-03 0. -1.
    9900012    2    1    2    0    0  0.41863934255E+00  0.64429370291E+00  0.89599257895E+00  0.90007671242E+02  0.89999931703E+02 0.  0.
         12    1    1    2    0    0 -0.41863934255E+00 -0.64429370291E+00 -0.89599257895E+00  0.11803287577E+01  0.00000000000E+00 0. -1.
         11    1    3    3    0    0 -0.18910290736E+02  0.24866399861E+02  0.18240811087E+02  0.36175463054E+02  0.51100000000E-03 0. -1.
        -11    1    3    3    0    0 -0.42043253820E+01  0.67819865060E+01  0.45371969552E+01  0.91792074471E+01  0.51100000000E-03 0.  1.
        -12    1    3    3    0    0  0.23533255460E+02 -0.31004092664E+02 -0.21882015464E+02  0.44653000742E+02  0.00000000000E+00 0.  1.
</event>
<event>
 7    1  0.2000468E-015  0.9000772E+02  0.7816164E-02  0.1186339E+00
        -11   -1    0    0    0    0  0.00000000000E+00  0.00000000000E+00  0.45593999997E+02  0.45594000000E+02  0.51100000000E-03 0. -1.
         11   -1    0    0    0    0 -0.00000000000E+00 -0.00000000000E+00 -0.45593999997E+02  0.45594000000E+02  0.51100000000E-03 0.  1.
    9900012    2    1    2    0    0  0.10039724619E+01 -0.33456294809E+00 -0.52266011163E+00  0.90007717550E+02  0.89999978621E+02 0.  0.
         12    1    1    2    0    0 -0.10039724619E+01  0.33456294809E+00  0.52266011163E+00  0.11802824504E+01  0.00000000000E+00 0. -1.
         11    1    3    3    0    0 -0.30294675503E+02  0.16447259270E+01  0.23072454946E+02  0.38115753498E+02  0.51100000000E-03 0. -1.
        -11    1    3    3    0    0  0.17170981516E+01 -0.98753259884E+01  0.38859957603E+01  0.10750416399E+02  0.51100000000E-03 0.  1.
        -12    1    3    3    0    0  0.29581549813E+02  0.78960371133E+01 -0.27481110818E+02  0.41141547653E+02  0.00000000000E+00 0.  1.
</event>
<event>
 8    1  0.2000468E-015  0.9000748E+02  0.7816164E-02  0.1186340E+00
        -11   -1    0    0    0    0  0.00000000000E+00  0.00000000000E+00  0.45593999997E+02  0.45594000000E+02  0.51100000000E-03 0. -1.
         11   -1    0    0    0    0 -0.00000000000E+00 -0.00000000000E+00 -0.45593999997E+02  0.45594000000E+02  0.51100000000E-03 0.  1.
    9900012    2    1    2    0    0  0.77092099818E+00  0.56317752461E-01 -0.89227062884E+00  0.90007475646E+02  0.89999733524E+02 0.  0.
         23    2    3    3    0    0  0.22321569943E+02 -0.11238994720E+02  0.11065544234E+02  0.62896520478E+02  0.56647670138E+02 0.  0.
         12    1    1    2    0    0 -0.77092099818E+00 -0.56317752461E-01  0.89227062884E+00  0.11805243537E+01  0.00000000000E+00 0. -1.
         11    1    4    4    0    0 -0.10329199113E+02  0.11083912337E+02  0.17144633578E+02  0.22879771148E+02  0.51100000000E-03 0. -1.
        -11    1    4    4    0    0  0.32650769056E+02 -0.22322907058E+02 -0.60790893436E+01  0.40016749330E+02  0.51100000000E-03 0.  1.
         12    1    3    3    0    0 -0.21550648945E+02  0.11295312473E+02 -0.11957814863E+02  0.27110955168E+02  0.00000000000E+00 0. -1.
</event>
<event>
 7    1  0.2000468E-015  0.9000736E+02  0.7816164E-02  0.1186340E+00
        -11   -1    0    0    0    0  0.00000000000E+00  0.00000000000E+00  0.45593999997E+02  0.45594000000E+02  0.51100000000E-03 0. -1.
         11   -1    0    0    0    0 -0.00000000000E+00 -0.00000000000E+00 -0.45593999997E+02  0.45594000000E+02  0.51100000000E-03 0.  1.
    9900012    2    1    2    0    0  0.53345447957E+00 -0.58530239756E+00 -0.87564805712E+00  0.90007359454E+02  0.89999615798E+02 0.  0.
         12    1    1    2    0    0 -0.53345447957E+00  0.58530239756E+00  0.87564805712E+00  0.11806405458E+01  0.00000000000E+00 0. -1.
         11    1    3    3    0    0 -0.47210401623E+01 -0.59787141616E+01 -0.21718374800E+01  0.79214974305E+01  0.51100000000E-03 0. -1.
        -11    1    3    3    0    0  0.50825686640E+01 -0.96581549494E+01 -0.38247485214E+02  0.39774144701E+02  0.51100000000E-03 0.  1.
         12    1    3    3    0    0  0.17192597792E+00  0.15051566713E+02  0.39543674636E+02  0.42311717323E+02  0.00000000000E+00 0. -1.
</event>
<event>
 7    1  0.2000468E-015  0.9000775E+02  0.7816164E-02  0.1186339E+00
        -11   -1    0    0    0    0  0.00000000000E+00  0.00000000000E+00  0.45593999997E+02  0.45594000000E+02  0.51100000000E-03 0.  1.
         11   -1    0    0    0    0 -0.00000000000E+00 -0.00000000000E+00 -0.45593999997E+02  0.45594000000E+02  0.51100000000E-03 0. -1.
    9900012    2    1    2    0    0 -0.44983996754E+00 -0.10443024774E+01  0.31632058287E+00  0.90007753258E+02  0.90000014801E+02 0.  0.
         12    1    1    2    0    0  0.44983996754E+00  0.10443024774E+01 -0.31632058287E+00  0.11802467419E+01  0.00000000000E+00 0. -1.
         11    1    3    3    0    0  0.18714786902E+02 -0.13591278696E+02 -0.28325758983E+02  0.36569314016E+02  0.51100000000E-03 0. -1.
        -11    1    3    3    0    0  0.66336445860E+01 -0.35688822895E+01 -0.42403063570E+01  0.86442095967E+01  0.51100000000E-03 0.  1.
        -12    1    3    3    0    0 -0.25798271456E+02  0.16115858508E+02  0.32882385923E+02  0.44794229645E+02  0.00000000000E+00 0.  1.
</event>
<event>
 7    1  0.2000468E-015  0.9000795E+02  0.7816164E-02  0.1186339E+00
        -11   -1    0    0    0    0  0.00000000000E+00  0.00000000000E+00  0.45593999997E+02  0.45594000000E+02  0.51100000000E-03 0. -1.
         11   -1    0    0    0    0 -0.00000000000E+00 -0.00000000000E+00 -0.45593999997E+02  0.45594000000E+02  0.51100000000E-03 0.  1.
    9900012    2    1    2    0    0 -0.80419002524E+00  0.10258790937E-01 -0.86353036360E+00  0.90007952743E+02  0.90000216919E+02 0.  0.
         12    1    1    2    0    0  0.80419002524E+00 -0.10258790937E-01  0.86353036360E+00  0.11800472568E+01  0.00000000000E+00 0. -1.
         11    1    3    3    0    0  0.23907033611E+02  0.22486849944E+02  0.19812549310E+02  0.38337211517E+02  0.51100000000E-03 0. -1.
        -11    1    3    3    0    0  0.43534776284E+01  0.32602411375E+01 -0.10039402364E+02  0.11418035725E+02  0.51100000000E-03 0.  1.
        -12    1    3    3    0    0 -0.29064701265E+02 -0.25736832291E+02 -0.10636677310E+02  0.40252705501E+02  0.00000000000E+00 0.  1.
</event>
<event>
 7    1  0.2000468E-015  0.9000776E+02  0.7816164E-02  0.1186339E+00
        -11   -1    0    0    0    0  0.00000000000E+00  0.00000000000E+00  0.45593999997E+02  0.45594000000E+02  0.51100000000E-03 0. -1.
         11   -1    0    0    0    0 -0.00000000000E+00 -0.00000000000E+00 -0.45593999997E+02  0.45594000000E+02  0.51100000000E-03 0.  1.
    9900012    2    1    2    0    0 -0.10386279660E+01 -0.50232942798E+00 -0.24875324585E+00  0.90007762277E+02  0.90000023939E+02 0.  0.
         12    1    1    2    0    0  0.10386279660E+01  0.50232942798E+00  0.24875324585E+00  0.11802377232E+01  0.00000000000E+00 0. -1.
         11    1    3    3    0    0  0.10592638707E+02 -0.46856923429E+01  0.22905803108E+01  0.11807051535E+02  0.51100000000E-03 0. -1.
        -11    1    3    3    0    0  0.18061651085E+02  0.28750560755E+02 -0.15793546699E+02  0.37446683448E+02  0.51100000000E-03 0.  1.
        -12    1    3    3    0    0 -0.29692917758E+02 -0.24567197840E+02  0.13254213142E+02  0.40754027295E+02  0.00000000000E+00 0.  1.
</event>
<event>
 7    1  0.2000468E-015  0.9000772E+02  0.7816164E-02  0.1186339E+00
        -11   -1    0    0    0    0  0.00000000000E+00  0.00000000000E+00  0.45593999997E+02  0.45594000000E+02  0.51100000000E-03 0.  1.
         11   -1    0    0    0    0 -0.00000000000E+00 -0.00000000000E+00 -0.45593999997E+02  0.45594000000E+02  0.51100000000E-03 0. -1.
    9900012    2    1    2    0    0  0.58242071522E+00  0.57607202142E+00  0.84969729442E+00  0.90007721069E+02  0.89999982187E+02 0.  0.
         12    1    1    2    0    0 -0.58242071522E+00 -0.57607202142E+00 -0.84969729442E+00  0.11802789312E+01  0.00000000000E+00 0. -1.
         11    1    3    3    0    0  0.93787285525E+01  0.59163339281E+00  0.16707707023E+01  0.95447396158E+01  0.51100000000E-03 0. -1.
        -11    1    3    3    0    0 -0.18641661803E+02  0.50127023491E+00  0.36970017216E+02  0.41407064613E+02  0.51100000000E-03 0.  1.
         12    1    3    3    0    0  0.98453539658E+01 -0.51683160630E+00 -0.37791090624E+02  0.39055916840E+02  0.00000000000E+00 0. -1.
</event>
<event>
 7    1  0.2000468E-015  0.9000773E+02  0.7816164E-02  0.1186339E+00
        -11   -1    0    0    0    0  0.00000000000E+00  0.00000000000E+00  0.45593999997E+02  0.45594000000E+02  0.51100000000E-03 0.  1.
         11   -1    0    0    0    0 -0.00000000000E+00 -0.00000000000E+00 -0.45593999997E+02  0.45594000000E+02  0.51100000000E-03 0. -1.
    9900012    2    1    2    0    0  0.98590091059E+00 -0.64249607764E+00  0.90685187101E-01  0.90007734937E+02  0.89999996238E+02 0.  0.
         12    1    1    2    0    0 -0.98590091059E+00  0.64249607764E+00 -0.90685187101E-01  0.11802650628E+01  0.00000000000E+00 0. -1.
         11    1    3    3    0    0 -0.22536268572E+02 -0.11740425281E+02  0.76957784502E+01  0.26550819067E+02  0.51100000000E-03 0. -1.
        -11    1    3    3    0    0 -0.62889577513E+01 -0.66645252921E+01  0.18089495166E+02  0.20277986157E+02  0.51100000000E-03 0.  1.
         12    1    3    3    0    0  0.29811127233E+02  0.17762454496E+02 -0.25694588429E+02  0.43178929713E+02  0.00000000000E+00 0. -1.
</event>
<event>
 7    1  0.2000468E-015  0.9000787E+02  0.7816164E-02  0.1186339E+00
        -11   -1    0    0    0    0  0.00000000000E+00  0.00000000000E+00  0.45593999997E+02  0.45594000000E+02  0.51100000000E-03 0.  1.
         11   -1    0    0    0    0 -0.00000000000E+00 -0.00000000000E+00 -0.45593999997E+02  0.45594000000E+02  0.51100000000E-03 0. -1.
    9900012    2    1    2    0    0 -0.92139499656E+00 -0.47227619712E+00  0.56630016772E+00  0.90007868895E+02  0.90000131964E+02 0.  0.
         12    1    1    2    0    0  0.92139499656E+00  0.47227619712E+00 -0.56630016772E+00  0.11801311054E+01  0.00000000000E+00 0. -1.
         11    1    3    3    0    0  0.54232140872E+01 -0.25917229982E+02  0.17814373683E+02  0.31913413653E+02  0.51100000000E-03 0. -1.
        -11    1    3    3    0    0  0.14748785614E+01 -0.13012508787E+02  0.37009024480E+01  0.13608722603E+02  0.51100000000E-03 0.  1.
        -12    1    3    3    0    0 -0.78194876451E+01  0.38457462572E+02 -0.20948975963E+02  0.44485732639E+02  0.00000000000E+00 0.  1.
</event>
<event>
 7    1  0.2000468E-015  0.9000779E+02  0.7816164E-02  0.1186339E+00
        -11   -1    0    0    0    0  0.00000000000E+00  0.00000000000E+00  0.45593999997E+02  0.45594000000E+02  0.51100000000E-03 0.  1.
         11   -1    0    0    0    0 -0.00000000000E+00 -0.00000000000E+00 -0.45593999997E+02  0.45594000000E+02  0.51100000000E-03 0. -1.
    9900012    2    1    2    0    0  0.31354140093E+00 -0.10306397520E+01  0.48203952009E+00  0.90007792981E+02  0.90000055048E+02 0.  0.
         12    1    1    2    0    0 -0.31354140093E+00  0.10306397520E+01 -0.48203952009E+00  0.11802070189E+01  0.00000000000E+00 0. -1.
         11    1    3    3    0    0  0.85251446610E+01 -0.13553460788E+01 -0.72305730600E+01  0.11260383720E+02  0.51100000000E-03 0. -1.
        -11    1    3    3    0    0 -0.36181123116E+02  0.69613318892E+01 -0.17243161392E+02  0.40679975746E+02  0.51100000000E-03 0.  1.
         12    1    3    3    0    0  0.27969519856E+02 -0.66366255624E+01  0.24955773973E+02  0.38067433515E+02  0.00000000000E+00 0. -1.
</event>
<event>
 7    1  0.3781587E-015  0.9000765E+02  0.7816164E-02  0.1186339E+00
        -11   -1    0    0    0    0  0.00000000000E+00  0.00000000000E+00  0.45593999997E+02  0.45594000000E+02  0.51100000000E-03 0. -1.
         11   -1    0    0    0    0 -0.00000000000E+00 -0.00000000000E+00 -0.45593999997E+02  0.45594000000E+02  0.51100000000E-03 0.  1.
    9900012    2    1    2    0    0  0.45542602659E+00  0.66486344774E+00 -0.86242039097E+00  0.90007650391E+02  0.89999910576E+02 0.  0.
         12    1    1    2    0    0 -0.45542602659E+00 -0.66486344774E+00  0.86242039097E+00  0.11803496095E+01  0.00000000000E+00 0. -1.
         11    1    3    3    0    0  0.16232118382E+02 -0.91630480877E+01  0.30380778866E+02  0.35643159823E+02  0.51100000000E-03 0. -1.
        -11    1    3    3    0    0  0.10458984366E+01 -0.46842218281E+01  0.79649134831E+01  0.92992303299E+01  0.51100000000E-03 0.  1.
        -12    1    3    3    0    0 -0.16822590792E+02  0.14512133363E+02 -0.39208112740E+02  0.45065260238E+02  0.00000000000E+00 0.  1.
</event>
<event>
 7    1  0.2000468E-015  0.9000772E+02  0.7816164E-02  0.1186339E+00
        -11   -1    0    0    0    0  0.00000000000E+00  0.00000000000E+00  0.45593999997E+02  0.45594000000E+02  0.51100000000E-03 0. -1.
         11   -1    0    0    0    0 -0.00000000000E+00 -0.00000000000E+00 -0.45593999997E+02  0.45594000000E+02  0.51100000000E-03 0.  1.
    9900012    2    1    2    0    0  0.66578093413E+00  0.93087082697E+00  0.28856262684E+00  0.90007723279E+02  0.89999984426E+02 0.  0.
         12    1    1    2    0    0 -0.66578093413E+00 -0.93087082697E+00 -0.28856262684E+00  0.11802767211E+01  0.00000000000E+00 0. -1.
         11    1    3    3    0    0  0.75072487892E+01 -0.28252336967E+01 -0.42852897139E+01  0.90941980414E+01  0.51100000000E-03 0. -1.
        -11    1    3    3    0    0  0.16619131355E+02 -0.20617778736E+02 -0.24672353034E+02  0.36194106309E+02  0.51100000000E-03 0.  1.
         12    1    3    3    0    0 -0.23460599210E+02  0.24373883260E+02  0.29246205375E+02  0.44719418928E+02  0.00000000000E+00 0. -1.
</event>
<event>
 7    1  0.2000468E-015  0.9000790E+02  0.7816164E-02  0.1186339E+00
        -11   -1    0    0    0    0  0.00000000000E+00  0.00000000000E+00  0.45593999997E+02  0.45594000000E+02  0.51100000000E-03 0.  1.
         11   -1    0    0    0    0 -0.00000000000E+00 -0.00000000000E+00 -0.45593999997E+02  0.45594000000E+02  0.51100000000E-03 0. -1.
    9900012    2    1    2    0    0 -0.10393779307E+01 -0.44941223820E+00  0.33219031730E+00  0.90007903288E+02  0.90000166811E+02 0.  0.
         12    1    1    2    0    0  0.10393779307E+01  0.44941223820E+00 -0.33219031730E+00  0.11800967119E+01  0.00000000000E+00 0. -1.
         11    1    3    3    0    0 -0.89611099993E+01 -0.10502880079E+01  0.54413497257E+01  0.10536265202E+02  0.51100000000E-03 0. -1.
        -11    1    3    3    0    0  0.33964931416E+02 -0.23413466575E+02  0.73831159320E+01  0.41908440489E+02  0.51100000000E-03 0.  1.
         12    1    3    3    0    0 -0.26043199347E+02  0.24014342344E+02 -0.12492275340E+02  0.37563197596E+02  0.00000000000E+00 0. -1.
</event>
<event>
 7    1  0.2000468E-015  0.9000767E+02  0.7816164E-02  0.1186339E+00
        -11   -1    0    0    0    0  0.00000000000E+00  0.00000000000E+00  0.45593999997E+02  0.45594000000E+02  0.51100000000E-03 0.  1.
         11   -1    0    0    0    0 -0.00000000000E+00 -0.00000000000E+00 -0.45593999997E+02  0.45594000000E+02  0.51100000000E-03 0. -1.
    9900012    2    1    2    0    0  0.70217703439E+00 -0.77071736660E+00  0.55329028731E+00  0.90007666154E+02  0.89999926547E+02 0.  0.
         12    1    1    2    0    0 -0.70217703439E+00  0.77071736660E+00 -0.55329028731E+00  0.11803338463E+01  0.00000000000E+00 0. -1.
         11    1    3    3    0    0 -0.37466787155E+01  0.23301367178E+02  0.31541494980E+02  0.39393619022E+02  0.51100000000E-03 0. -1.
        -11    1    3    3    0    0 -0.58565392823E+01 -0.54909171130E+01  0.45356842123E+01  0.92207187703E+01  0.51100000000E-03 0.  1.
        -12    1    3    3    0    0  0.10305395032E+02 -0.18581167432E+02 -0.35523888905E+02  0.41393328362E+02  0.00000000000E+00 0.  1.
</event>
<event>
 7    1  0.2000468E-015  0.9000770E+02  0.7816164E-02  0.1186339E+00
        -11   -1    0    0    0    0  0.00000000000E+00  0.00000000000E+00  0.45593999997E+02  0.45594000000E+02  0.51100000000E-03 0. -1.
         11   -1    0    0    0    0 -0.00000000000E+00 -0.00000000000E+00 -0.45593999997E+02  0.45594000000E+02  0.51100000000E-03 0.  1.
    9900012    2    1    2    0    0  0.53490662216E+00 -0.68651905938E+00  0.79729748963E+00  0.90007696310E+02  0.89999957101E+02 0.  0.
         12    1    1    2    0    0 -0.53490662216E+00  0.68651905938E+00 -0.79729748963E+00  0.11803036899E+01  0.00000000000E+00 0. -1.
         11    1    3    3    0    0  0.23034366492E+02  0.54044689909E+01  0.28740080455E+02  0.37226100381E+02  0.51100000000E-03 0. -1.
        -11    1    3    3    0    0 -0.37074907046E+01 -0.13310068424E+02  0.45598339707E+01  0.14549759272E+02  0.51100000000E-03 0.  1.
        -12    1    3    3    0    0 -0.18791969165E+02  0.72190803735E+01 -0.32502616936E+02  0.38231836658E+02  0.00000000000E+00 0.  1.
</event>
<event>
 7    1  0.2000468E-015  0.9000759E+02  0.7816164E-02  0.1186339E+00
        -11   -1    0    0    0    0  0.00000000000E+00  0.00000000000E+00  0.45593999997E+02  0.45594000000E+02  0.51100000000E-03 0.  1.
         11   -1    0    0    0    0 -0.00000000000E+00 -0.00000000000E+00 -0.45593999997E+02  0.45594000000E+02  0.51100000000E-03 0. -1.
    9900012    2    1    2    0    0  0.68469798610E+00  0.17702686005E+00  0.94509616399E+00  0.90007594730E+02  0.89999854181E+02 0.  0.
         12    1    1    2    0    0 -0.68469798610E+00 -0.17702686005E+00 -0.94509616399E+00  0.11804052696E+01  0.00000000000E+00 0. -1.
         11    1    3    3    0    0  0.25352346266E+02  0.26473436897E+02 -0.14721436379E+02  0.39500696344E+02  0.51100000000E-03 0. -1.
        -11    1    3    3    0    0 -0.42040225904E+01  0.36879637119E+00 -0.82414032389E+01  0.92590790206E+01  0.51100000000E-03 0.  1.
        -12    1    3    3    0    0 -0.20463625689E+02 -0.26665206408E+02  0.23907935782E+02  0.41247819366E+02  0.00000000000E+00 0.  1.
</event>
<event>
 7    1  0.2000468E-015  0.9000747E+02  0.7816164E-02  0.1186340E+00
        -11   -1    0    0    0    0  0.00000000000E+00  0.00000000000E+00  0.45593999997E+02  0.45594000000E+02  0.51100000000E-03 0.  1.
         11   -1    0    0    0    0 -0.00000000000E+00 -0.00000000000E+00 -0.45593999997E+02  0.45594000000E+02  0.51100000000E-03 0. -1.
    9900012    2    1    2    0    0  0.30184098048E-01 -0.10325226055E+01  0.57152939603E+00  0.90007466281E+02  0.89999724036E+02 0.  0.
         12    1    1    2    0    0 -0.30184098048E-01  0.10325226055E+01 -0.57152939603E+00  0.11805337188E+01  0.00000000000E+00 0. -1.
         11    1    3    3    0    0 -0.41743113801E+01  0.11342182500E+02  0.14252402579E+02  0.18686919459E+02  0.51100000000E-03 0. -1.
        -11    1    3    3    0    0 -0.18030891456E+02 -0.15189490485E+02  0.19964423965E+02  0.30893557458E+02  0.51100000000E-03 0.  1.
         12    1    3    3    0    0  0.22235386935E+02  0.28147853796E+01 -0.33645297148E+02  0.40426989364E+02  0.00000000000E+00 0. -1.
</event>
<event>
 7    1  0.2000468E-015  0.9000758E+02  0.7816164E-02  0.1186339E+00
        -11   -1    0    0    0    0  0.00000000000E+00  0.00000000000E+00  0.45593999997E+02  0.45594000000E+02  0.51100000000E-03 0. -1.
         11   -1    0    0    0    0 -0.00000000000E+00 -0.00000000000E+00 -0.45593999997E+02  0.45594000000E+02  0.51100000000E-03 0.  1.
    9900012    2    1    2    0    0  0.10582535447E+01  0.43168601072E+00 -0.29519720432E+00  0.90007578564E+02  0.89999837801E+02 0.  0.
         12    1    1    2    0    0 -0.10582535447E+01 -0.43168601072E+00  0.29519720432E+00  0.11804214358E+01  0.00000000000E+00 0. -1.
         11    1    3    3    0    0 -0.21458036724E+01  0.31887039619E+02  0.21203754824E+02  0.38353448189E+02  0.51100000000E-03 0. -1.
        -11    1    3    3    0    0 -0.80031557824E+01 -0.89357662037E+01  0.68021155623E+01  0.13790112273E+02  0.51100000000E-03 0.  1.
        -12    1    3    3    0    0  0.11207212999E+02 -0.22519587404E+02 -0.28301067591E+02  0.37864018102E+02  0.00000000000E+00 0.  1.
</event>
<event>
 7    1  0.2000468E-015  0.9000732E+02  0.7816164E-02  0.1186340E+00
        -11   -1    0    0    0    0  0.00000000000E+00  0.00000000000E+00  0.45593999997E+02  0.45594000000E+02  0.51100000000E-03 0.  1.
         11   -1    0    0    0    0 -0.00000000000E+00 -0.00000000000E+00 -0.45593999997E+02  0.45594000000E+02  0.51100000000E-03 0. -1.
    9900012    2    1    2    0    0  0.51263827357E+00 -0.10359557057E+01 -0.24083598240E+00  0.90007320452E+02  0.89999576281E+02 0.  0.
         12    1    1    2    0    0 -0.51263827357E+00  0.10359557057E+01  0.24083598240E+00  0.11806795476E+01  0.00000000000E+00 0. -1.
         11    1    3    3    0    0  0.10383620164E+02 -0.36144325551E+02 -0.12832636603E+02  0.39735480363E+02  0.51100000000E-03 0. -1.
        -11    1    3    3    0    0  0.74546599625E+01 -0.14558293752E+01  0.50298958617E+01  0.91099531813E+01  0.51100000000E-03 0.  1.
        -12    1    3    3    0    0 -0.17325641853E+02  0.36564199220E+02  0.75619047593E+01  0.41161886908E+02  0.00000000000E+00 0.  1.
</event>
<event>
 7    1  0.2000468E-015  0.9000782E+02  0.7816164E-02  0.1186339E+00
        -11   -1    0    0    0    0  0.00000000000E+00  0.00000000000E+00  0.45593999997E+02  0.45594000000E+02  0.51100000000E-03 0. -1.
         11   -1    0    0    0    0 -0.00000000000E+00 -0.00000000000E+00 -0.45593999997E+02  0.45594000000E+02  0.51100000000E-03 0.  1.
    9900012    2    1    2    0    0  0.57767271541E+00  0.96065556186E+00 -0.36912619139E+00  0.90007822463E+02  0.90000084919E+02 0.  0.
         12    1    1    2    0    0 -0.57767271541E+00 -0.96065556186E+00  0.36912619139E+00  0.11801775374E+01  0.00000000000E+00 0. -1.
         11    1    3    3    0    0 -0.42711233592E+01 -0.85786255548E+01 -0.38436884916E+01  0.10325175671E+02  0.51100000000E-03 0. -1.
        -11    1    3    3    0    0  0.22231190367E+02  0.18685445299E+02 -0.29439832665E+02  0.41353058397E+02  0.51100000000E-03 0.  1.
         12    1    3    3    0    0 -0.17382394292E+02 -0.91461641825E+01  0.32914394965E+02  0.38329588395E+02  0.00000000000E+00 0. -1.
</event>
<event>
 7    1  0.2000468E-015  0.9000761E+02  0.7816164E-02  0.1186339E+00
        -11   -1    0    0    0    0  0.00000000000E+00  0.00000000000E+00  0.45593999997E+02  0.45594000000E+02  0.51100000000E-03 0. -1.
         11   -1    0    0    0    0 -0.00000000000E+00 -0.00000000000E+00 -0.45593999997E+02  0.45594000000E+02  0.51100000000E-03 0.  1.
    9900012    2    1    2    0    0  0.14311147822E+00  0.73261364938E+00 -0.91439018954E+00  0.90007613168E+02  0.89999872862E+02 0.  0.
         12    1    1    2    0    0 -0.14311147822E+00 -0.73261364938E+00  0.91439018954E+00  0.11803868320E+01  0.00000000000E+00 0. -1.
         11    1    3    3    0    0 -0.84399195352E+01  0.21391428338E+01 -0.47331859755E+01  0.99101575953E+01  0.51100000000E-03 0. -1.
        -11    1    3    3    0    0 -0.13502772128E+02 -0.36191367326E+02 -0.79168420958E+00  0.38636338960E+02  0.51100000000E-03 0.  1.
         12    1    3    3    0    0  0.22085803141E+02  0.34784838142E+02  0.46104799955E+01  0.41461116613E+02  0.00000000000E+00 0. -1.
</event>
<event>
 7    1  0.2000468E-015  0.9000775E+02  0.7816164E-02  0.1186339E+00
        -11   -1    0    0    0    0  0.00000000000E+00  0.00000000000E+00  0.45593999997E+02  0.45594000000E+02  0.51100000000E-03 0.  1.
         11   -1    0    0    0    0 -0.00000000000E+00 -0.00000000000E+00 -0.45593999997E+02  0.45594000000E+02  0.51100000000E-03 0. -1.
    9900012    2    1    2    0    0  0.77253976001E+00 -0.72587177272E+00  0.51892236279E+00  0.90007750903E+02  0.90000012415E+02 0.  0.
         12    1    1    2    0    0 -0.77253976001E+00  0.72587177272E+00 -0.51892236279E+00  0.11802490965E+01  0.00000000000E+00 0. -1.
         11    1    3    3    0    0  0.55449736569E+01 -0.33588223975E+01 -0.73951231295E+01  0.98344428981E+01  0.51100000000E-03 0. -1.
        -11    1    3    3    0    0  0.71392066970E+01 -0.33837605272E+02  0.19998551098E+02  0.39948640141E+02  0.51100000000E-03 0.  1.
         12    1    3    3    0    0 -0.11911640594E+02  0.36470555897E+02 -0.12084505606E+02  0.40224667865E+02  0.00000000000E+00 0. -1.
</event>
<event>
 7    1  0.2000468E-015  0.9000776E+02  0.7816164E-02  0.1186339E+00
        -11   -1    0    0    0    0  0.00000000000E+00  0.00000000000E+00  0.45593999997E+02  0.45594000000E+02  0.51100000000E-03 0.  1.
         11   -1    0    0    0    0 -0.00000000000E+00 -0.00000000000E+00 -0.45593999997E+02  0.45594000000E+02  0.51100000000E-03 0. -1.
    9900012    2    1    2    0    0  0.63767204161E+00  0.37531008750E+00  0.91949974843E+00  0.90007761430E+02  0.90000023081E+02 0.  0.
         12    1    1    2    0    0 -0.63767204161E+00 -0.37531008750E+00 -0.91949974843E+00  0.11802385699E+01  0.00000000000E+00 0. -1.
         11    1    3    3    0    0  0.41188282992E+01  0.32318128152E+02 -0.21378622254E+02  0.38967571691E+02  0.51100000000E-03 0. -1.
        -11    1    3    3    0    0  0.50928457821E+01  0.55022019620E+01  0.35737434264E+01  0.83055973252E+01  0.51100000000E-03 0.  1.
        -12    1    3    3    0    0 -0.85740020396E+01 -0.37445020026E+02  0.18724378576E+02  0.42734592414E+02  0.00000000000E+00 0.  1.
</event>
<event>
 7    1  0.2000468E-015  0.9000772E+02  0.7816164E-02  0.1186339E+00
        -11   -1    0    0    0    0  0.00000000000E+00  0.00000000000E+00  0.45593999997E+02  0.45594000000E+02  0.51100000000E-03 0.  1.
         11   -1    0    0    0    0 -0.00000000000E+00 -0.00000000000E+00 -0.45593999997E+02  0.45594000000E+02  0.51100000000E-03 0. -1.
    9900012    2    1    2    0    0 -0.60653254821E+00  0.42529381718E+00  0.91885647203E+00  0.90007723007E+02  0.89999984151E+02 0.  0.
         12    1    1    2    0    0  0.60653254821E+00 -0.42529381718E+00 -0.91885647203E+00  0.11802769926E+01  0.00000000000E+00 0. -1.
         11    1    3    3    0    0 -0.42125494055E+01  0.35797867171E+02 -0.82374910154E+00  0.36054284480E+02  0.51100000000E-03 0. -1.
        -11    1    3    3    0    0 -0.18212226302E+01  0.90122679314E+01  0.78291456963E+00  0.92277180614E+01  0.51100000000E-03 0.  1.
        -12    1    3    3    0    0  0.54272394875E+01 -0.44384841286E+02  0.95969100395E+00  0.44725720466E+02  0.00000000000E+00 0.  1.
</event>
<event>
 7    1  0.2000468E-015  0.9000778E+02  0.7816164E-02  0.1186339E+00
        -11   -1    0    0    0    0  0.00000000000E+00  0.00000000000E+00  0.45593999997E+02  0.45594000000E+02  0.51100000000E-03 0. -1.
         11   -1    0    0    0    0 -0.00000000000E+00 -0.00000000000E+00 -0.45593999997E+02  0.45594000000E+02  0.51100000000E-03 0.  1.
    9900012    2    1    2    0    0  0.10700820812E+01  0.49718203140E+00 -0.25721716662E-01  0.90007776615E+02  0.90000038466E+02 0.  0.
         12    1    1    2    0    0 -0.10700820812E+01 -0.49718203140E+00  0.25721716662E-01  0.11802233855E+01  0.00000000000E+00 0. -1.
         11    1    3    3    0    0 -0.66979540931E+01 -0.57205502129E+01 -0.51349828295E+01  0.10195848797E+02  0.51100000000E-03 0. -1.
        -11    1    3    3    0    0  0.22623818428E+01 -0.31311795517E+02 -0.17210124288E+02  0.35801330818E+02  0.51100000000E-03 0.  1.
         12    1    3    3    0    0  0.55056543315E+01  0.37529527761E+02  0.22319385401E+02  0.44010596999E+02  0.00000000000E+00 0. -1.
</event>
<event>
 7    1  0.2000468E-015  0.9000775E+02  0.7816164E-02  0.1186339E+00
        -11   -1    0    0    0    0  0.00000000000E+00  0.00000000000E+00  0.45593999997E+02  0.45594000000E+02  0.51100000000E-03 0.  1.
         11   -1    0    0    0    0 -0.00000000000E+00 -0.00000000000E+00 -0.45593999997E+02  0.45594000000E+02  0.51100000000E-03 0. -1.
    9900012    2    1    2    0    0  0.95721184071E-01 -0.53833975450E+00  0.10459528090E+01  0.90007750232E+02  0.90000011735E+02 0.  0.
         12    1    1    2    0    0 -0.95721184071E-01  0.53833975450E+00 -0.10459528090E+01  0.11802497681E+01  0.00000000000E+00 0. -1.
         11    1    3    3    0    0 -0.67442189622E+01 -0.59388770317E+01 -0.19131764153E+01  0.91877632787E+01  0.51100000000E-03 0. -1.
        -11    1    3    3    0    0 -0.22312240472E+01 -0.36455804233E+02 -0.61387376905E+01  0.37036308181E+02  0.51100000000E-03 0.  1.
         12    1    3    3    0    0  0.90711641935E+01  0.41856341510E+02  0.90978669149E+01  0.43783678772E+02  0.00000000000E+00 0. -1.
</event>
<event>
 7    1  0.2000468E-015  0.9000758E+02  0.7816164E-02  0.1186339E+00
        -11   -1    0    0    0    0  0.00000000000E+00  0.00000000000E+00  0.45593999997E+02  0.45594000000E+02  0.51100000000E-03 0. -1.
         11   -1    0    0    0    0 -0.00000000000E+00 -0.00000000000E+00 -0.45593999997E+02  0.45594000000E+02  0.51100000000E-03 0.  1.
    9900012    2    1    2    0    0  0.11570220297E+01 -0.21378847482E+00 -0.94827991148E-01  0.90007577263E+02  0.89999836483E+02 0.  0.
         12    1    1    2    0    0 -0.11570220297E+01  0.21378847482E+00  0.94827991148E-01  0.11804227366E+01  0.00000000000E+00 0. -1.
         11    1    3    3    0    0 -0.86041292011E+01 -0.28208192911E+01  0.30826228753E+01  0.95650731745E+01  0.51100000000E-03 0. -1.
        -11    1    3    3    0    0 -0.24749578012E+02  0.20800503028E+01 -0.28374322010E+02  0.37709022406E+02  0.51100000000E-03 0.  1.
         12    1    3    3    0    0  0.34510729243E+02  0.52698051341E+00  0.25196871143E+02  0.42733481683E+02  0.00000000000E+00 0. -1.
</event>
<event>
 7    1  0.2000468E-015  0.9000778E+02  0.7816164E-02  0.1186339E+00
        -11   -1    0    0    0    0  0.00000000000E+00  0.00000000000E+00  0.45593999997E+02  0.45594000000E+02  0.51100000000E-03 0. -1.
         11   -1    0    0    0    0 -0.00000000000E+00 -0.00000000000E+00 -0.45593999997E+02  0.45594000000E+02  0.51100000000E-03 0.  1.
    9900012    2    1    2    0    0  0.10144931608E+01  0.58876556775E+00 -0.13067858901E+00  0.90007780461E+02  0.90000042363E+02 0.  0.
         12    1    1    2    0    0 -0.10144931608E+01 -0.58876556775E+00  0.13067858901E+00  0.11802195392E+01  0.00000000000E+00 0. -1.
         11    1    3    3    0    0 -0.88955497271E+01 -0.32300688308E+01 -0.62454085599E+01  0.11338839356E+02  0.51100000000E-03 0. -1.
        -11    1    3    3    0    0  0.26265044186E+00 -0.27105819956E+02 -0.22667046229E+02  0.35335385179E+02  0.51100000000E-03 0.  1.
         12    1    3    3    0    0  0.96473924460E+01  0.30924654355E+02  0.28781776200E+02  0.43333555926E+02  0.00000000000E+00 0. -1.
</event>
<event>
 7    1  0.2000468E-015  0.9000774E+02  0.7816164E-02  0.1186339E+00
        -11   -1    0    0    0    0  0.00000000000E+00  0.00000000000E+00  0.45593999997E+02  0.45594000000E+02  0.51100000000E-03 0.  1.
         11   -1    0    0    0    0 -0.00000000000E+00 -0.00000000000E+00 -0.45593999997E+02  0.45594000000E+02  0.51100000000E-03 0. -1.
    9900012    2    1    2    0    0  0.58843557496E+00 -0.30646917699E+00 -0.97612701606E+00  0.90007744208E+02  0.90000005632E+02 0.  0.
         12    1    1    2    0    0 -0.58843557496E+00  0.30646917699E+00  0.97612701606E+00  0.11802557917E+01  0.00000000000E+00 0. -1.
         11    1    3    3    0    0 -0.30466051182E+02 -0.18955850770E+02 -0.12400608966E+01  0.35903235291E+02  0.51100000000E-03 0. -1.
        -11    1    3    3    0    0 -0.35874389947E+01 -0.88107099724E+01  0.25212222769E+01  0.98414882406E+01  0.51100000000E-03 0.  1.
        -12    1    3    3    0    0  0.34641925752E+02  0.27460091565E+02 -0.22572883964E+01  0.44263020677E+02  0.00000000000E+00 0.  1.
</event>
<event>
 7    1  0.2000468E-015  0.9000772E+02  0.7816164E-02  0.1186339E+00
        -11   -1    0    0    0    0  0.00000000000E+00  0.00000000000E+00  0.45593999997E+02  0.45594000000E+02  0.51100000000E-03 0. -1.
         11   -1    0    0    0    0 -0.00000000000E+00 -0.00000000000E+00 -0.45593999997E+02  0.45594000000E+02  0.51100000000E-03 0.  1.
    9900012    2    1    2    0    0  0.41920433123E+00  0.89529077132E+00 -0.64481015930E+00  0.90007721229E+02  0.89999982349E+02 0.  0.
         12    1    1    2    0    0 -0.41920433123E+00 -0.89529077132E+00  0.64481015930E+00  0.11802787713E+01  0.00000000000E+00 0. -1.
         11    1    3    3    0    0  0.11412288687E+01 -0.80983007653E+01  0.35846653733E+02  0.36767750309E+02  0.51100000000E-03 0. -1.
        -11    1    3    3    0    0  0.48616205567E+01 -0.48719074202E+00  0.69114755620E+01  0.84641127097E+01  0.51100000000E-03 0.  1.
        -12    1    3    3    0    0 -0.55836450941E+01  0.94807822787E+01 -0.43402939455E+02  0.44775858210E+02  0.00000000000E+00 0.  1.
</event>
<event>
 7    1  0.2000468E-015  0.9000758E+02  0.7816164E-02  0.1186339E+00
        -11   -1    0    0    0    0  0.00000000000E+00  0.00000000000E+00  0.45593999997E+02  0.45594000000E+02  0.51100000000E-03 0.  1.
         11   -1    0    0    0    0 -0.00000000000E+00 -0.00000000000E+00 -0.45593999997E+02  0.45594000000E+02  0.51100000000E-03 0. -1.
    9900012    2    1    2    0    0  0.85778136773E+00 -0.65919080555E+00  0.47229130985E+00  0.90007584618E+02  0.89999843935E+02 0.  0.
         12    1    1    2    0    0 -0.85778136773E+00  0.65919080555E+00 -0.47229130985E+00  0.11804153821E+01  0.00000000000E+00 0. -1.
         11    1    3    3    0    0 -0.12509107241E+02  0.37971620862E+02  0.10354817755E+02  0.41298232478E+02  0.51100000000E-03 0. -1.
        -11    1    3    3    0    0  0.66559000329E+01 -0.33380635466E+01  0.58707454261E+01  0.94820528161E+01  0.51100000000E-03 0.  1.
        -12    1    3    3    0    0  0.67109885755E+01 -0.35292748121E+02 -0.15753271872E+02  0.39227299324E+02  0.00000000000E+00 0.  1.
</event>
<event>
 7    1  0.2000468E-015  0.9000774E+02  0.7816164E-02  0.1186339E+00
        -11   -1    0    0    0    0  0.00000000000E+00  0.00000000000E+00  0.45593999997E+02  0.45594000000E+02  0.51100000000E-03 0. -1.
         11   -1    0    0    0    0 -0.00000000000E+00 -0.00000000000E+00 -0.45593999997E+02  0.45594000000E+02  0.51100000000E-03 0.  1.
    9900012    2    1    2    0    0 -0.96716568442E+00  0.67627443048E+00  0.16130244986E-01  0.90007738694E+02  0.90000000044E+02 0.  0.
         12    1    1    2    0    0  0.96716568442E+00 -0.67627443048E+00 -0.16130244986E-01  0.11802613063E+01  0.00000000000E+00 0. -1.
         11    1    3    3    0    0  0.25785012074E+01  0.75314699012E+01  0.84292261617E+01  0.11594117530E+02  0.51100000000E-03 0. -1.
        -11    1    3    3    0    0  0.21456709253E+02 -0.11571621794E+02  0.25983676667E+02  0.35629261237E+02  0.51100000000E-03 0.  1.
         12    1    3    3    0    0 -0.25002376144E+02  0.47164263228E+01 -0.34396772584E+02  0.42784359927E+02  0.00000000000E+00 0. -1.
</event>
<event>
 7    1  0.2000468E-015  0.9000774E+02  0.7816164E-02  0.1186339E+00
        -11   -1    0    0    0    0  0.00000000000E+00  0.00000000000E+00  0.45593999997E+02  0.45594000000E+02  0.51100000000E-03 0.  1.
         11   -1    0    0    0    0 -0.00000000000E+00 -0.00000000000E+00 -0.45593999997E+02  0.45594000000E+02  0.51100000000E-03 0. -1.
    9900012    2    1    2    0    0  0.32634830746E+00 -0.15726571435E+00  0.11232911472E+01  0.90007737858E+02  0.89999999198E+02 0.  0.
         12    1    1    2    0    0 -0.32634830746E+00  0.15726571435E+00 -0.11232911472E+01  0.11802621421E+01  0.00000000000E+00 0. -1.
         11    1    3    3    0    0  0.36606441598E+02 -0.12760262561E+02 -0.13725671290E+02  0.41124809054E+02  0.51100000000E-03 0. -1.
        -11    1    3    3    0    0 -0.25101521528E+00 -0.28859813312E+01  0.87211565958E+01  0.91896936571E+01  0.51100000000E-03 0.  1.
        -12    1    3    3    0    0 -0.36029078076E+02  0.15488978178E+02  0.61278058410E+01  0.39693235147E+02  0.00000000000E+00 0.  1.
</event>
<event>
 7    1  0.2000468E-015  0.9000782E+02  0.7816164E-02  0.1186339E+00
        -11   -1    0    0    0    0  0.00000000000E+00  0.00000000000E+00  0.45593999997E+02  0.45594000000E+02  0.51100000000E-03 0.  1.
         11   -1    0    0    0    0 -0.00000000000E+00 -0.00000000000E+00 -0.45593999997E+02  0.45594000000E+02  0.51100000000E-03 0. -1.
    9900012    2    1    2    0    0  0.69358756128E+00  0.48845611457E+00  0.82046883743E+00  0.90007821118E+02  0.90000083556E+02 0.  0.
         12    1    1    2    0    0 -0.69358756128E+00 -0.48845611457E+00 -0.82046883743E+00  0.11801788823E+01  0.00000000000E+00 0. -1.
         11    1    3    3    0    0  0.28249895464E+01  0.94642860054E+00  0.94453161884E+01  0.99040542806E+01  0.51100000000E-03 0. -1.
        -11    1    3    3    0    0 -0.17514938825E+02 -0.36229659140E+02 -0.95996600150E-01  0.40241402797E+02  0.51100000000E-03 0.  1.
         12    1    3    3    0    0  0.15383536840E+02  0.35771686654E+02 -0.85288507508E+01  0.39862364040E+02  0.00000000000E+00 0. -1.
</event>
<event>
 7    1  0.2000468E-015  0.9000752E+02  0.7816164E-02  0.1186339E+00
        -11   -1    0    0    0    0  0.00000000000E+00  0.00000000000E+00  0.45593999997E+02  0.45594000000E+02  0.51100000000E-03 0. -1.
         11   -1    0    0    0    0 -0.00000000000E+00 -0.00000000000E+00 -0.45593999997E+02  0.45594000000E+02  0.51100000000E-03 0.  1.
    9900012    2    1    2    0    0  0.96106169823E-02 -0.11711578489E+01 -0.14776020602E+00  0.90007518679E+02  0.89999777125E+02 0.  0.
         12    1    1    2    0    0 -0.96106169823E-02  0.11711578489E+01  0.14776020602E+00  0.11804813211E+01  0.00000000000E+00 0. -1.
         11    1    3    3    0    0  0.95349004718E+01 -0.15171319797E+01 -0.25954035886E+01  0.99976065385E+01  0.51100000000E-03 0. -1.
        -11    1    3    3    0    0  0.34977181763E+02  0.22713546043E+01  0.49342591184E+01  0.35396457579E+02  0.51100000000E-03 0.  1.
         12    1    3    3    0    0 -0.44502471618E+02 -0.19253804734E+01 -0.24866157358E+01  0.44613454561E+02  0.00000000000E+00 0. -1.
</event>
<event>
 7    1  0.2000468E-015  0.9000775E+02  0.7816164E-02  0.1186339E+00
        -11   -1    0    0    0    0  0.00000000000E+00  0.00000000000E+00  0.45593999997E+02  0.45594000000E+02  0.51100000000E-03 0.  1.
         11   -1    0    0    0    0 -0.00000000000E+00 -0.00000000000E+00 -0.45593999997E+02  0.45594000000E+02  0.51100000000E-03 0. -1.
    9900012    2    1    2    0    0  0.15715736683E+00 -0.10723386176E+01  0.46730117251E+00  0.90007754714E+02  0.90000016276E+02 0.  0.
         12    1    1    2    0    0 -0.15715736683E+00  0.10723386176E+01 -0.46730117251E+00  0.11802452858E+01  0.00000000000E+00 0. -1.
         11    1    3    3    0    0  0.11525660776E+02 -0.34085029004E+02 -0.37993574046E+01  0.36181005728E+02  0.51100000000E-03 0. -1.
        -11    1    3    3    0    0 -0.12026895394E+01 -0.81002629495E+01 -0.61167457039E+01  0.10221315974E+02  0.51100000000E-03 0.  1.
        -12    1    3    3    0    0 -0.10165813870E+02  0.41112953336E+02  0.10383404281E+02  0.43605433012E+02  0.00000000000E+00 0.  1.
</event>
<event>
 7    1  0.2000468E-015  0.9000782E+02  0.7816164E-02  0.1186339E+00
        -11   -1    0    0    0    0  0.00000000000E+00  0.00000000000E+00  0.45593999997E+02  0.45594000000E+02  0.51100000000E-03 0.  1.
         11   -1    0    0    0    0 -0.00000000000E+00 -0.00000000000E+00 -0.45593999997E+02  0.45594000000E+02  0.51100000000E-03 0. -1.
    9900012    2    1    2    0    0  0.10769179107E+01 -0.35752007183E+00 -0.32443468418E+00  0.90007817534E+02  0.90000079926E+02 0.  0.
         12    1    1    2    0    0 -0.10769179107E+01  0.35752007183E+00  0.32443468418E+00  0.11801824657E+01  0.00000000000E+00 0. -1.
         11    1    3    3    0    0  0.41200336056E+01 -0.70904711869E-01  0.74803904710E+01  0.85402544604E+01  0.51100000000E-03 0. -1.
        -11    1    3    3    0    0 -0.23155446665E+02  0.20786781446E+02  0.23283607468E+02  0.38863753937E+02  0.51100000000E-03 0.  1.
         12    1    3    3    0    0  0.20112330970E+02 -0.21073396806E+02 -0.31088432623E+02  0.42603809137E+02  0.00000000000E+00 0. -1.
</event>
<event>
 7    1  0.2000468E-015  0.9000803E+02  0.7816164E-02  0.1186338E+00
        -11   -1    0    0    0    0  0.00000000000E+00  0.00000000000E+00  0.45593999997E+02  0.45594000000E+02  0.51100000000E-03 0.  1.
         11   -1    0    0    0    0 -0.00000000000E+00 -0.00000000000E+00 -0.45593999997E+02  0.45594000000E+02  0.51100000000E-03 0. -1.
    9900012    2    1    2    0    0  0.72128578995E+00 -0.42239538743E+00  0.83286744510E+00  0.90008025748E+02  0.90000290887E+02 0.  0.
         12    1    1    2    0    0 -0.72128578995E+00  0.42239538743E+00 -0.83286744510E+00  0.11799742519E+01  0.00000000000E+00 0. -1.
         11    1    3    3    0    0 -0.34990093201E+02 -0.20092565871E+01 -0.16589517687E+02  0.38775711877E+02  0.51100000000E-03 0. -1.
        -11    1    3    3    0    0 -0.48661350244E-02  0.48614167681E+01 -0.65024727468E+01  0.81188391262E+01  0.51100000000E-03 0.  1.
        -12    1    3    3    0    0  0.35716245126E+02 -0.32745555684E+01  0.23924857879E+02  0.43113474745E+02  0.00000000000E+00 0.  1.
</event>
<event>
 7    1  0.2000468E-015  0.9000686E+02  0.7816164E-02  0.1186341E+00
        -11   -1    0    0    0    0  0.00000000000E+00  0.00000000000E+00  0.45593999997E+02  0.45594000000E+02  0.51100000000E-03 0.  1.
         11   -1    0    0    0    0 -0.00000000000E+00 -0.00000000000E+00 -0.45593999997E+02  0.45594000000E+02  0.51100000000E-03 0. -1.
    9900012    2    1    2    0    0 -0.10743097085E+00 -0.83187866274E+00  0.83158268710E+00  0.90006859327E+02  0.89999109066E+02 0.  0.
         12    1    1    2    0    0  0.10743097085E+00  0.83187866274E+00 -0.83158268710E+00  0.11811406726E+01  0.00000000000E+00 0. -1.
         11    1    3    3    0    0 -0.33786467944E+01 -0.13317948540E+02 -0.37252106275E+02  0.39705193989E+02  0.51100000000E-03 0. -1.
        -11    1    3    3    0    0 -0.98772675696E+01  0.45148180688E+01  0.19518490188E+01  0.11034206437E+02  0.51100000000E-03 0.  1.
        -12    1    3    3    0    0  0.13148483393E+02  0.79712518088E+01  0.36131839943E+02  0.39267458902E+02  0.00000000000E+00 0.  1.
</event>
<event>
 7    1  0.2000468E-015  0.9000840E+02  0.7816164E-02  0.1186338E+00
        -11   -1    0    0    0    0  0.00000000000E+00  0.00000000000E+00  0.45593999997E+02  0.45594000000E+02  0.51100000000E-03 0.  1.
         11   -1    0    0    0    0 -0.00000000000E+00 -0.00000000000E+00 -0.45593999997E+02  0.45594000000E+02  0.51100000000E-03 0. -1.
    9900012    2    1    2    0    0 -0.37333794268E+00 -0.46577141258E+00  0.10174104351E+01  0.90008403365E+02  0.90000673487E+02 0.  0.
         12    1    1    2    0    0  0.37333794268E+00  0.46577141258E+00 -0.10174104351E+01  0.11795966351E+01  0.00000000000E+00 0. -1.
         11    1    3    3    0    0  0.27386362151E+02  0.10881468647E+02 -0.22187270152E+02  0.36887588005E+02  0.51100000000E-03 0. -1.
        -11    1    3    3    0    0  0.92250000424E+01 -0.15314361485E+01  0.63793302642E+01  0.11319972497E+02  0.51100000000E-03 0.  1.
        -12    1    3    3    0    0 -0.36984700136E+02 -0.98158039113E+01  0.16825350323E+02  0.41800842863E+02  0.00000000000E+00 0.  1.
</event>
<event>
 7    1  0.2000468E-015  0.9000769E+02  0.7816164E-02  0.1186339E+00
        -11   -1    0    0    0    0  0.00000000000E+00  0.00000000000E+00  0.45593999997E+02  0.45594000000E+02  0.51100000000E-03 0.  1.
         11   -1    0    0    0    0 -0.00000000000E+00 -0.00000000000E+00 -0.45593999997E+02  0.45594000000E+02  0.51100000000E-03 0. -1.
    9900012    2    1    2    0    0  0.18833260758E+00 -0.75457775051E+00  0.88785483852E+00  0.90007685225E+02  0.89999945870E+02 0.  0.
         12    1    1    2    0    0 -0.18833260758E+00  0.75457775051E+00 -0.88785483852E+00  0.11803147745E+01  0.00000000000E+00 0. -1.
         11    1    3    3    0    0  0.30243759035E+02 -0.21555597410E+02 -0.99172931228E+01  0.38440622308E+02  0.51100000000E-03 0. -1.
        -11    1    3    3    0    0  0.20959787523E+01  0.13765582870E+01 -0.88314310387E+01  0.91805345215E+01  0.51100000000E-03 0.  1.
        -12    1    3    3    0    0 -0.32151405180E+02  0.19424461372E+02  0.19636579000E+02  0.42386528396E+02  0.00000000000E+00 0.  1.
</event>
<event>
 7    1  0.2000468E-015  0.9000764E+02  0.7816164E-02  0.1186339E+00
        -11   -1    0    0    0    0  0.00000000000E+00  0.00000000000E+00  0.45593999997E+02  0.45594000000E+02  0.51100000000E-03 0. -1.
         11   -1    0    0    0    0 -0.00000000000E+00 -0.00000000000E+00 -0.45593999997E+02  0.45594000000E+02  0.51100000000E-03 0.  1.
    9900012    2    1    2    0    0  0.11203508830E+01 -0.36514944407E+00 -0.68853573907E-01  0.90007635212E+02  0.89999895197E+02 0.  0.
         12    1    1    2    0    0 -0.11203508830E+01  0.36514944407E+00  0.68853573907E-01  0.11803647878E+01  0.00000000000E+00 0. -1.
         11    1    3    3    0    0  0.64481722583E+01 -0.46638878366E+01  0.34149010392E+01  0.86598108867E+01  0.51100000000E-03 0. -1.
        -11    1    3    3    0    0  0.22733203548E+02  0.31288186900E+02  0.10338828554E+02  0.40032993382E+02  0.51100000000E-03 0.  1.
         12    1    3    3    0    0 -0.28061024923E+02 -0.26989448507E+02 -0.13822583167E+02  0.41314830943E+02  0.00000000000E+00 0. -1.
</event>
<event>
 7    1  0.2000468E-015  0.9000774E+02  0.7816164E-02  0.1186339E+00
        -11   -1    0    0    0    0  0.00000000000E+00  0.00000000000E+00  0.45593999997E+02  0.45594000000E+02  0.51100000000E-03 0.  1.
         11   -1    0    0    0    0 -0.00000000000E+00 -0.00000000000E+00 -0.45593999997E+02  0.45594000000E+02  0.51100000000E-03 0. -1.
    9900012    2    1    2    0    0  0.11231489382E+01  0.35787055552E+00  0.59050885911E-01  0.90007736521E+02  0.89999997843E+02 0.  0.
         12    1    1    2    0    0 -0.11231489382E+01 -0.35787055552E+00 -0.59050885911E-01  0.11802634787E+01  0.00000000000E+00 0. -1.
         11    1    3    3    0    0  0.49896971832E+01  0.39006323501E+01 -0.54764937113E+01  0.83728128095E+01  0.51100000000E-03 0. -1.
        -11    1    3    3    0    0  0.18852998550E+02  0.15914592219E+02 -0.27583231223E+02  0.37007356631E+02  0.51100000000E-03 0.  1.
         12    1    3    3    0    0 -0.22719546795E+02 -0.19457354013E+02  0.33118775820E+02  0.44627567081E+02  0.00000000000E+00 0. -1.
</event>
<event>
 7    1  0.2000468E-015  0.9000764E+02  0.7816164E-02  0.1186339E+00
        -11   -1    0    0    0    0  0.00000000000E+00  0.00000000000E+00  0.45593999997E+02  0.45594000000E+02  0.51100000000E-03 0. -1.
         11   -1    0    0    0    0 -0.00000000000E+00 -0.00000000000E+00 -0.45593999997E+02  0.45594000000E+02  0.51100000000E-03 0.  1.
    9900012    2    1    2    0    0 -0.64609777782E+00  0.45457188525E+00 -0.87702693923E+00  0.90007638111E+02  0.89999898134E+02 0.  0.
         12    1    1    2    0    0  0.64609777782E+00 -0.45457188525E+00  0.87702693923E+00  0.11803618892E+01  0.00000000000E+00 0. -1.
         11    1    3    3    0    0 -0.23817049384E+02 -0.35202137942E+02  0.34208866868E+01  0.42639709462E+02  0.51100000000E-03 0. -1.
        -11    1    3    3    0    0  0.98591247332E+01  0.17973595738E+01  0.25638226395E+01  0.10344371838E+02  0.51100000000E-03 0.  1.
        -12    1    3    3    0    0  0.13311826873E+02  0.33859350253E+02 -0.68617362655E+01  0.37023556810E+02  0.00000000000E+00 0.  1.
</event>
<event>
 7    1  0.2000468E-015  0.9000766E+02  0.7816164E-02  0.1186339E+00
        -11   -1    0    0    0    0  0.00000000000E+00  0.00000000000E+00  0.45593999997E+02  0.45594000000E+02  0.51100000000E-03 0.  1.
         11   -1    0    0    0    0 -0.00000000000E+00 -0.00000000000E+00 -0.45593999997E+02  0.45594000000E+02  0.51100000000E-03 0. -1.
    9900012    2    1    2    0    0  0.18798733972E+00 -0.72465017202E+00  0.91254747955E+00  0.90007661060E+02  0.89999921386E+02 0.  0.
         12    1    1    2    0    0 -0.18798733972E+00  0.72465017202E+00 -0.91254747955E+00  0.11803389404E+01  0.00000000000E+00 0. -1.
         11    1    3    3    0    0  0.82073669224E+00 -0.17173114264E+02 -0.37685279476E+02  0.41421851138E+02  0.51100000000E-03 0. -1.
        -11    1    3    3    0    0 -0.78436649903E+01 -0.29430023556E+01  0.75582359409E+01  0.11283229774E+02  0.51100000000E-03 0.  1.
        -12    1    3    3    0    0  0.72109156377E+01  0.19391466448E+02  0.31039591014E+02  0.37302580148E+02  0.00000000000E+00 0.  1.
</event>
<event>
 7    1  0.2000468E-015  0.9000774E+02  0.7816164E-02  0.1186339E+00
        -11   -1    0    0    0    0  0.00000000000E+00  0.00000000000E+00  0.45593999997E+02  0.45594000000E+02  0.51100000000E-03 0.  1.
         11   -1    0    0    0    0 -0.00000000000E+00 -0.00000000000E+00 -0.45593999997E+02  0.45594000000E+02  0.51100000000E-03 0. -1.
    9900012    2    1    2    0    0 -0.75980181769E-01  0.68790060455E+00  0.95605429886E+00  0.90007737295E+02  0.89999998628E+02 0.  0.
         12    1    1    2    0    0  0.75980181769E-01 -0.68790060455E+00 -0.95605429886E+00  0.11802627047E+01  0.00000000000E+00 0. -1.
         11    1    3    3    0    0  0.14286099109E+02  0.35886210800E+02 -0.19014874998E+00  0.38625754493E+02  0.51100000000E-03 0. -1.
        -11    1    3    3    0    0  0.94443229919E+01 -0.72164219398E+00  0.19230932400E+00  0.94738053267E+01  0.51100000000E-03 0.  1.
        -12    1    3    3    0    0 -0.23806402283E+02 -0.34476668001E+02  0.95389372484E+00  0.41908177476E+02  0.00000000000E+00 0.  1.
</event>
<event>
 7    1  0.2000468E-015  0.9000768E+02  0.7816164E-02  0.1186339E+00
        -11   -1    0    0    0    0  0.00000000000E+00  0.00000000000E+00  0.45593999997E+02  0.45594000000E+02  0.51100000000E-03 0. -1.
         11   -1    0    0    0    0 -0.00000000000E+00 -0.00000000000E+00 -0.45593999997E+02  0.45594000000E+02  0.51100000000E-03 0.  1.
    9900012    2    1    2    0    0 -0.93627295463E+00 -0.62128256481E-02 -0.71868187460E+00  0.90007682550E+02  0.89999943160E+02 0.  0.
         12    1    1    2    0    0  0.93627295463E+00  0.62128256481E-02  0.71868187460E+00  0.11803174495E+01  0.00000000000E+00 0. -1.
         11    1    3    3    0    0  0.33293393265E+01  0.25103090636E+01 -0.83096483813E+01  0.92971182862E+01  0.51100000000E-03 0. -1.
        -11    1    3    3    0    0 -0.30580613485E+01  0.71513731659E+01 -0.35597228524E+02  0.36437021780E+02  0.51100000000E-03 0.  1.
         12    1    3    3    0    0 -0.12075509327E+01 -0.96678950551E+01  0.43188195031E+02  0.44273542484E+02  0.00000000000E+00 0. -1.
</event>
<event>
 7    1  0.2000468E-015  0.9000776E+02  0.7816164E-02  0.1186339E+00
        -11   -1    0    0    0    0  0.00000000000E+00  0.00000000000E+00  0.45593999997E+02  0.45594000000E+02  0.51100000000E-03 0.  1.
         11   -1    0    0    0    0 -0.00000000000E+00 -0.00000000000E+00 -0.45593999997E+02  0.45594000000E+02  0.51100000000E-03 0. -1.
    9900012    2    1    2    0    0  0.60372018956E+00 -0.28806668598E+00  0.97237384899E+00  0.90007757913E+02  0.90000019517E+02 0.  0.
         12    1    1    2    0    0 -0.60372018956E+00  0.28806668598E+00 -0.97237384899E+00  0.11802420875E+01  0.00000000000E+00 0. -1.
         11    1    3    3    0    0  0.73249176053E+01 -0.21912537448E+01  0.42981064828E+01  0.87709594970E+01  0.51100000000E-03 0. -1.
        -11    1    3    3    0    0  0.24123059183E+02 -0.18286566979E+02  0.21202661195E+02  0.36957723932E+02  0.51100000000E-03 0.  1.
         12    1    3    3    0    0 -0.30844256599E+02  0.20189754038E+02 -0.24528393829E+02  0.44279074483E+02  0.00000000000E+00 0. -1.
</event>
<event>
 7    1  0.2074842E-015  0.9000776E+02  0.7816164E-02  0.1186339E+00
        -11   -1    0    0    0    0  0.00000000000E+00  0.00000000000E+00  0.45593999997E+02  0.45594000000E+02  0.51100000000E-03 0.  1.
         11   -1    0    0    0    0 -0.00000000000E+00 -0.00000000000E+00 -0.45593999997E+02  0.45594000000E+02  0.51100000000E-03 0. -1.
    9900012    2    1    2    0    0 -0.24217525611E+00  0.11497868323E+01 -0.11091827578E+00  0.90007762109E+02  0.90000023769E+02 0.  0.
         12    1    1    2    0    0  0.24217525611E+00 -0.11497868323E+01  0.11091827578E+00  0.11802378905E+01  0.00000000000E+00 0. -1.
         11    1    3    3    0    0  0.32185373998E+02 -0.22013570864E+02  0.73348184469E+01  0.39677388567E+02  0.51100000000E-03 0. -1.
        -11    1    3    3    0    0 -0.42564297757E+01 -0.67316834727E+01 -0.44999778644E+01  0.91478171087E+01  0.51100000000E-03 0.  1.
        -12    1    3    3    0    0 -0.28171119478E+02  0.29895041169E+02 -0.29457588583E+01  0.41182556434E+02  0.00000000000E+00 0.  1.
</event>
<event>
 7    1  0.2000468E-015  0.9000776E+02  0.7816164E-02  0.1186339E+00
        -11   -1    0    0    0    0  0.00000000000E+00  0.00000000000E+00  0.45593999997E+02  0.45594000000E+02  0.51100000000E-03 0.  1.
         11   -1    0    0    0    0 -0.00000000000E+00 -0.00000000000E+00 -0.45593999997E+02  0.45594000000E+02  0.51100000000E-03 0. -1.
    9900012    2    1    2    0    0 -0.18302282489E+00  0.28588554027E-01  0.11656125154E+01  0.90007759687E+02  0.90000021315E+02 0.  0.
         12    1    1    2    0    0  0.18302282489E+00 -0.28588554027E-01 -0.11656125154E+01  0.11802403128E+01  0.00000000000E+00 0. -1.
         11    1    3    3    0    0  0.11730714422E+02  0.34864337865E+02 -0.11365049536E+02  0.38500598266E+02  0.51100000000E-03 0. -1.
        -11    1    3    3    0    0  0.76988069499E+00  0.58263253837E-01 -0.87025034277E+01  0.87366857023E+01  0.51100000000E-03 0.  1.
        -12    1    3    3    0    0 -0.12683617942E+02 -0.34894012565E+02  0.21233165479E+02  0.42770475719E+02  0.00000000000E+00 0.  1.
</event>
<event>
 7    1  0.2000468E-015  0.9000785E+02  0.7816164E-02  0.1186339E+00
        -11   -1    0    0    0    0  0.00000000000E+00  0.00000000000E+00  0.45593999997E+02  0.45594000000E+02  0.51100000000E-03 0. -1.
         11   -1    0    0    0    0 -0.00000000000E+00 -0.00000000000E+00 -0.45593999997E+02  0.45594000000E+02  0.51100000000E-03 0.  1.
    9900012    2    1    2    0    0 -0.29311117130E+00 -0.71741817423E+00 -0.89002691068E+00  0.90007851324E+02  0.90000114162E+02 0.  0.
         12    1    1    2    0    0  0.29311117130E+00  0.71741817423E+00  0.89002691068E+00  0.11801486759E+01  0.00000000000E+00 0. -1.
         11    1    3    3    0    0  0.36654884658E+01  0.22032352402E+01 -0.93069746703E+01  0.10242549926E+02  0.51100000000E-03 0. -1.
        -11    1    3    3    0    0  0.19923012095E+02 -0.74829636172E+01 -0.28495052751E+02  0.35565280640E+02  0.51100000000E-03 0.  1.
         12    1    3    3    0    0 -0.23881611732E+02  0.45623102028E+01  0.36912000511E+02  0.44200020758E+02  0.00000000000E+00 0. -1.
</event>
<event>
 7    1  0.2000468E-015  0.9000772E+02  0.7816164E-02  0.1186339E+00
        -11   -1    0    0    0    0  0.00000000000E+00  0.00000000000E+00  0.45593999997E+02  0.45594000000E+02  0.51100000000E-03 0. -1.
         11   -1    0    0    0    0 -0.00000000000E+00 -0.00000000000E+00 -0.45593999997E+02  0.45594000000E+02  0.51100000000E-03 0.  1.
    9900012    2    1    2    0    0  0.55780636199E+00  0.89821528287E+00 -0.52452227774E+00  0.90007719418E+02  0.89999980515E+02 0.  0.
         12    1    1    2    0    0 -0.55780636199E+00 -0.89821528287E+00  0.52452227774E+00  0.11802805818E+01  0.00000000000E+00 0. -1.
         11    1    3    3    0    0 -0.22496425493E+02  0.64643306030E+01  0.24186905357E+02  0.33658329149E+02  0.51100000000E-03 0. -1.
        -11    1    3    3    0    0 -0.58721349300E+01 -0.16527253220E+01  0.95545964429E+01  0.11335950912E+02  0.51100000000E-03 0.  1.
        -12    1    3    3    0    0  0.28926366785E+02 -0.39133899982E+01 -0.34266024078E+02  0.45013439357E+02  0.00000000000E+00 0.  1.
</event>
<event>
 7    1  0.2000468E-015  0.9000663E+02  0.7816164E-02  0.1186341E+00
        -11   -1    0    0    0    0  0.00000000000E+00  0.00000000000E+00  0.45593999997E+02  0.45594000000E+02  0.51100000000E-03 0.  1.
         11   -1    0    0    0    0 -0.00000000000E+00 -0.00000000000E+00 -0.45593999997E+02  0.45594000000E+02  0.51100000000E-03 0. -1.
    9900012    2    1    2    0    0 -0.41268581817E+00 -0.10822254392E+01 -0.23260181195E+00  0.90006634227E+02  0.89998880992E+02 0.  0.
         12    1    1    2    0    0  0.41268581817E+00  0.10822254392E+01  0.23260181195E+00  0.11813657726E+01  0.00000000000E+00 0. -1.
         11    1    3    3    0    0  0.12026104308E+01 -0.25225811827E+01  0.74942613618E+01  0.79983524110E+01  0.51100000000E-03 0. -1.
        -11    1    3    3    0    0  0.11248189009E+02  0.17618955151E+02  0.31421012801E+02  0.37738963715E+02  0.51100000000E-03 0.  1.
         12    1    3    3    0    0 -0.12863485258E+02 -0.16178599408E+02 -0.39147875975E+02  0.44269318101E+02  0.00000000000E+00 0. -1.
</event>
<event>
 7    1  0.2000468E-015  0.9000785E+02  0.7816164E-02  0.1186339E+00
        -11   -1    0    0    0    0  0.00000000000E+00  0.00000000000E+00  0.45593999997E+02  0.45594000000E+02  0.51100000000E-03 0. -1.
         11   -1    0    0    0    0 -0.00000000000E+00 -0.00000000000E+00 -0.45593999997E+02  0.45594000000E+02  0.51100000000E-03 0.  1.
    9900012    2    1    2    0    0 -0.22552288429E+00  0.87627659793E+00 -0.75764936872E+00  0.90007850089E+02  0.90000112910E+02 0.  0.
         12    1    1    2    0    0  0.22552288429E+00 -0.87627659793E+00  0.75764936872E+00  0.11801499114E+01  0.00000000000E+00 0. -1.
         11    1    3    3    0    0  0.82546773691E+01  0.53353408716E+01  0.46961131477E+01  0.10893073012E+02  0.51100000000E-03 0. -1.
        -11    1    3    3    0    0  0.25864215648E+02  0.40202867163E+01 -0.27072005297E+02  0.37656524367E+02  0.51100000000E-03 0.  1.
         12    1    3    3    0    0 -0.34344415901E+02 -0.84793509900E+01  0.21618242780E+02  0.41458252710E+02  0.00000000000E+00 0. -1.
</event>
<event>
 7    1  0.2000468E-015  0.9000768E+02  0.7816164E-02  0.1186339E+00
        -11   -1    0    0    0    0  0.00000000000E+00  0.00000000000E+00  0.45593999997E+02  0.45594000000E+02  0.51100000000E-03 0.  1.
         11   -1    0    0    0    0 -0.00000000000E+00 -0.00000000000E+00 -0.45593999997E+02  0.45594000000E+02  0.51100000000E-03 0. -1.
    9900012    2    1    2    0    0  0.32673280902E+00  0.10144132451E+01  0.50730416240E+00  0.90007683909E+02  0.89999944537E+02 0.  0.
         12    1    1    2    0    0 -0.32673280902E+00 -0.10144132451E+01 -0.50730416240E+00  0.11803160905E+01  0.00000000000E+00 0. -1.
         11    1    3    3    0    0 -0.33498043341E+01  0.29797501380E+02  0.15156346197E+02  0.33598022380E+02  0.51100000000E-03 0. -1.
        -11    1    3    3    0    0 -0.14078596981E+01  0.12336574195E+02  0.13745953909E+00  0.12417408232E+02  0.51100000000E-03 0.  1.
        -12    1    3    3    0    0  0.50843968413E+01 -0.41119662330E+02 -0.14786501574E+02  0.43992253297E+02  0.00000000000E+00 0.  1.
</event>
<event>
 7    1  0.2000468E-015  0.9000774E+02  0.7816164E-02  0.1186339E+00
        -11   -1    0    0    0    0  0.00000000000E+00  0.00000000000E+00  0.45593999997E+02  0.45594000000E+02  0.51100000000E-03 0.  1.
         11   -1    0    0    0    0 -0.00000000000E+00 -0.00000000000E+00 -0.45593999997E+02  0.45594000000E+02  0.51100000000E-03 0. -1.
    9900012    2    1    2    0    0  0.73807236476E+00  0.34124544897E+00  0.85546009465E+00  0.90007741026E+02  0.90000002408E+02 0.  0.
         12    1    1    2    0    0 -0.73807236476E+00 -0.34124544897E+00 -0.85546009465E+00  0.11802589740E+01  0.00000000000E+00 0. -1.
         11    1    3    3    0    0  0.16137693100E+01 -0.42698227284E+01  0.71508142432E+01  0.84835005817E+01  0.51100000000E-03 0. -1.
        -11    1    3    3    0    0 -0.24119389241E+01  0.16022759671E+02  0.35045361025E+02  0.38609890009E+02  0.51100000000E-03 0.  1.
         12    1    3    3    0    0  0.15362419788E+01 -0.11411691494E+02 -0.41340715174E+02  0.42914350435E+02  0.00000000000E+00 0. -1.
</event>
<event>
 7    1  0.2000468E-015  0.9000775E+02  0.7816164E-02  0.1186339E+00
        -11   -1    0    0    0    0  0.00000000000E+00  0.00000000000E+00  0.45593999997E+02  0.45594000000E+02  0.51100000000E-03 0. -1.
         11   -1    0    0    0    0 -0.00000000000E+00 -0.00000000000E+00 -0.45593999997E+02  0.45594000000E+02  0.51100000000E-03 0.  1.
    9900012    2    1    2    0    0 -0.23789695327E+00  0.11367320564E+01  0.21031416430E+00  0.90007751392E+02  0.90000012911E+02 0.  0.
         12    1    1    2    0    0  0.23789695327E+00 -0.11367320564E+01 -0.21031416430E+00  0.11802486078E+01  0.00000000000E+00 0. -1.
         11    1    3    3    0    0  0.21150971493E+02 -0.29030588261E+02  0.14931081555E+02  0.38898275624E+02  0.51100000000E-03 0. -1.
        -11    1    3    3    0    0  0.50196570179E+01  0.51691783386E+01  0.58939765014E+01  0.93089376695E+01  0.51100000000E-03 0.  1.
        -12    1    3    3    0    0 -0.26408525465E+02  0.24998141979E+02 -0.20614743892E+02  0.41800538098E+02  0.00000000000E+00 0.  1.
</event>
<event>
 7    1  0.2000468E-015  0.9000774E+02  0.7816164E-02  0.1186339E+00
        -11   -1    0    0    0    0  0.00000000000E+00  0.00000000000E+00  0.45593999997E+02  0.45594000000E+02  0.51100000000E-03 0. -1.
         11   -1    0    0    0    0 -0.00000000000E+00 -0.00000000000E+00 -0.45593999997E+02  0.45594000000E+02  0.51100000000E-03 0.  1.
    9900012    2    1    2    0    0 -0.10053297151E+00  0.30208275815E+00 -0.11365090177E+01  0.90007740021E+02  0.90000001389E+02 0.  0.
         12    1    1    2    0    0  0.10053297151E+00 -0.30208275815E+00  0.11365090177E+01  0.11802599792E+01  0.00000000000E+00 0. -1.
         11    1    3    3    0    0  0.14455348166E+02 -0.20872383515E+02  0.32322961144E+02  0.41102156897E+02  0.51100000000E-03 0. -1.
        -11    1    3    3    0    0 -0.12898046537E+02  0.10435919957E+02 -0.33911677273E+01  0.16934227134E+02  0.51100000000E-03 0.  1.
        -12    1    3    3    0    0 -0.16578346007E+01  0.10738546316E+02 -0.30068302435E+02  0.31971355990E+02  0.00000000000E+00 0.  1.
</event>
<event>
 7    1  0.2000468E-015  0.9000871E+02  0.7816164E-02  0.1186337E+00
        -11   -1    0    0    0    0  0.00000000000E+00  0.00000000000E+00  0.45593999997E+02  0.45594000000E+02  0.51100000000E-03 0.  1.
         11   -1    0    0    0    0 -0.00000000000E+00 -0.00000000000E+00 -0.45593999997E+02  0.45594000000E+02  0.51100000000E-03 0. -1.
    9900012    2    1    2    0    0  0.65949964002E+00  0.88180715947E+00  0.42213874120E+00  0.90008710062E+02  0.90000984229E+02 0.  0.
         12    1    1    2    0    0 -0.65949964002E+00 -0.88180715947E+00 -0.42213874120E+00  0.11792899383E+01  0.00000000000E+00 0. -1.
         11    1    3    3    0    0  0.39168009430E+01  0.90088019185E+01 -0.23378912812E+00  0.98262148995E+01  0.51100000000E-03 0. -1.
        -11    1    3    3    0    0  0.37271292130E+02 -0.10873801814E+02  0.57284878190E+01  0.39245437389E+02  0.51100000000E-03 0.  1.
         12    1    3    3    0    0 -0.40528593433E+02  0.27468070547E+01 -0.50725599497E+01  0.40937057773E+02  0.00000000000E+00 0. -1.
</event>
<event>
 7    1  0.2000468E-015  0.9000775E+02  0.7816164E-02  0.1186339E+00
        -11   -1    0    0    0    0  0.00000000000E+00  0.00000000000E+00  0.45593999997E+02  0.45594000000E+02  0.51100000000E-03 0. -1.
         11   -1    0    0    0    0 -0.00000000000E+00 -0.00000000000E+00 -0.45593999997E+02  0.45594000000E+02  0.51100000000E-03 0.  1.
    9900012    2    1    2    0    0  0.71232324567E+00  0.33600542363E+00 -0.87902138822E+00  0.90007753139E+02  0.90000014681E+02 0.  0.
         12    1    1    2    0    0 -0.71232324567E+00 -0.33600542363E+00  0.87902138822E+00  0.11802468606E+01  0.00000000000E+00 0. -1.
         11    1    3    3    0    0 -0.46645206424E+01 -0.54100514388E+01 -0.27444163148E+01  0.76523349746E+01  0.51100000000E-03 0. -1.
        -11    1    3    3    0    0  0.30186023556E+02  0.18051206565E+02 -0.25484075369E+02  0.43433629531E+02  0.51100000000E-03 0.  1.
         12    1    3    3    0    0 -0.24809179668E+02 -0.12305149703E+02  0.27349470295E+02  0.38921788634E+02  0.00000000000E+00 0. -1.
</event>
<event>
 7    1  0.2000468E-015  0.9000778E+02  0.7816164E-02  0.1186339E+00
        -11   -1    0    0    0    0  0.00000000000E+00  0.00000000000E+00  0.45593999997E+02  0.45594000000E+02  0.51100000000E-03 0.  1.
         11   -1    0    0    0    0 -0.00000000000E+00 -0.00000000000E+00 -0.45593999997E+02  0.45594000000E+02  0.51100000000E-03 0. -1.
    9900012    2    1    2    0    0 -0.81227558128E+00 -0.28946382233E-01  0.85573427959E+00  0.90007783634E+02  0.90000045578E+02 0.  0.
         12    1    1    2    0    0  0.81227558128E+00  0.28946382233E-01 -0.85573427959E+00  0.11802163659E+01  0.00000000000E+00 0. -1.
         11    1    3    3    0    0 -0.13387138417E+01 -0.10395705025E+02  0.34416376334E+01  0.11032121627E+02  0.51100000000E-03 0. -1.
        -11    1    3    3    0    0  0.34354871184E+01  0.11013827849E+01  0.37528995286E+02  0.37702003968E+02  0.51100000000E-03 0.  1.
         12    1    3    3    0    0 -0.29090488580E+01  0.92653758582E+01 -0.40114898640E+02  0.41273658039E+02  0.00000000000E+00 0. -1.
</event>
<event>
 7    1  0.2000468E-015  0.9000769E+02  0.7816164E-02  0.1186339E+00
        -11   -1    0    0    0    0  0.00000000000E+00  0.00000000000E+00  0.45593999997E+02  0.45594000000E+02  0.51100000000E-03 0. -1.
         11   -1    0    0    0    0 -0.00000000000E+00 -0.00000000000E+00 -0.45593999997E+02  0.45594000000E+02  0.51100000000E-03 0.  1.
    9900012    2    1    2    0    0 -0.41531896678E+00 -0.72548931190E+00  0.83325320632E+00  0.90007688392E+02  0.89999949079E+02 0.  0.
         12    1    1    2    0    0  0.41531896678E+00  0.72548931190E+00 -0.83325320632E+00  0.11803116079E+01  0.00000000000E+00 0. -1.
         11    1    3    3    0    0  0.19246923383E+02  0.26226903789E+02  0.28668028087E+02  0.43360700833E+02  0.51100000000E-03 0. -1.
        -11    1    3    3    0    0 -0.88023411076E+01 -0.75834978313E+00 -0.44507645473E+01  0.98927048215E+01  0.51100000000E-03 0.  1.
        -12    1    3    3    0    0 -0.10859901243E+02 -0.26194043318E+02 -0.23384010333E+02  0.36754282738E+02  0.00000000000E+00 0.  1.
</event>
<event>
 7    1  0.2000468E-015  0.9000791E+02  0.7816164E-02  0.1186339E+00
        -11   -1    0    0    0    0  0.00000000000E+00  0.00000000000E+00  0.45593999997E+02  0.45594000000E+02  0.51100000000E-03 0.  1.
         11   -1    0    0    0    0 -0.00000000000E+00 -0.00000000000E+00 -0.45593999997E+02  0.45594000000E+02  0.51100000000E-03 0. -1.
    9900012    2    1    2    0    0  0.27615154403E+00 -0.85229696865E+00 -0.76807801362E+00  0.90007909481E+02  0.90000173086E+02 0.  0.
         12    1    1    2    0    0 -0.27615154403E+00  0.85229696865E+00  0.76807801362E+00  0.11800905190E+01  0.00000000000E+00 0. -1.
         11    1    3    3    0    0  0.90933290940E+01 -0.34800552960E+01  0.16298128877E+01  0.98719658217E+01  0.51100000000E-03 0. -1.
        -11    1    3    3    0    0 -0.26975811569E+02 -0.25230823705E+02  0.18036894269E+02  0.41104968432E+02  0.51100000000E-03 0.  1.
         12    1    3    3    0    0  0.18158634019E+02  0.27858582032E+02 -0.20434785170E+02  0.39030975228E+02  0.00000000000E+00 0. -1.
</event>
<event>
 7    1  0.2000468E-015  0.9000787E+02  0.7816164E-02  0.1186339E+00
        -11   -1    0    0    0    0  0.00000000000E+00  0.00000000000E+00  0.45593999997E+02  0.45594000000E+02  0.51100000000E-03 0.  1.
         11   -1    0    0    0    0 -0.00000000000E+00 -0.00000000000E+00 -0.45593999997E+02  0.45594000000E+02  0.51100000000E-03 0. -1.
    9900012    2    1    2    0    0 -0.55620464908E+00  0.11823468321E+00  0.10340962731E+01  0.90007873670E+02  0.90000136803E+02 0.  0.
         12    1    1    2    0    0  0.55620464908E+00 -0.11823468321E+00 -0.10340962731E+01  0.11801263297E+01  0.00000000000E+00 0. -1.
         11    1    3    3    0    0  0.33289378373E+02 -0.10970535306E+02 -0.23491298190E+02  0.42194507324E+02  0.51100000000E-03 0. -1.
        -11    1    3    3    0    0 -0.79151933594E+01  0.28277170041E+01 -0.31715526530E+01  0.89835970449E+01  0.51100000000E-03 0.  1.
        -12    1    3    3    0    0 -0.25930389662E+02  0.82610529853E+01  0.27696947116E+02  0.38829769302E+02  0.00000000000E+00 0.  1.
</event>
<event>
 7    1  0.2000468E-015  0.9000774E+02  0.7816164E-02  0.1186339E+00
        -11   -1    0    0    0    0  0.00000000000E+00  0.00000000000E+00  0.45593999997E+02  0.45594000000E+02  0.51100000000E-03 0.  1.
         11   -1    0    0    0    0 -0.00000000000E+00 -0.00000000000E+00 -0.45593999997E+02  0.45594000000E+02  0.51100000000E-03 0. -1.
    9900012    2    1    2    0    0  0.76032276924E+00 -0.63631440931E+00  0.64032752404E+00  0.90007743215E+02  0.90000004625E+02 0.  0.
         12    1    1    2    0    0 -0.76032276924E+00  0.63631440931E+00 -0.64032752404E+00  0.11802567852E+01  0.00000000000E+00 0. -1.
         11    1    3    3    0    0  0.88791690564E+01 -0.30578819793E+01  0.43623287651E+01  0.10354718627E+02  0.51100000000E-03 0. -1.
        -11    1    3    3    0    0  0.60819005697E+01  0.36362965429E+02 -0.16919756785E+02  0.40565169040E+02  0.51100000000E-03 0.  1.
         12    1    3    3    0    0 -0.14200746857E+02 -0.33941397859E+02  0.13197755544E+02  0.39087855548E+02  0.00000000000E+00 0. -1.
</event>
<event>
 7    1  0.2000468E-015  0.9000773E+02  0.7816164E-02  0.1186339E+00
        -11   -1    0    0    0    0  0.00000000000E+00  0.00000000000E+00  0.45593999997E+02  0.45594000000E+02  0.51100000000E-03 0. -1.
         11   -1    0    0    0    0 -0.00000000000E+00 -0.00000000000E+00 -0.45593999997E+02  0.45594000000E+02  0.51100000000E-03 0.  1.
    9900012    2    1    2    0    0 -0.52678393721E+00  0.95485495652E+00 -0.45141750407E+00  0.90007734323E+02  0.89999995616E+02 0.  0.
         12    1    1    2    0    0  0.52678393721E+00 -0.95485495652E+00  0.45141750407E+00  0.11802656766E+01  0.00000000000E+00 0. -1.
         11    1    3    3    0    0 -0.80509398897E+01  0.48938967334E+01 -0.21878321955E+01  0.96723558827E+01  0.51100000000E-03 0. -1.
        -11    1    3    3    0    0 -0.29723620313E+02  0.13042356465E+02 -0.15436922194E+02  0.35942944144E+02  0.51100000000E-03 0.  1.
         12    1    3    3    0    0  0.37247776266E+02 -0.16981398242E+02  0.17173336885E+02  0.44392434296E+02  0.00000000000E+00 0. -1.
</event>
<event>
 7    1  0.2000468E-015  0.9000758E+02  0.7816164E-02  0.1186339E+00
        -11   -1    0    0    0    0  0.00000000000E+00  0.00000000000E+00  0.45593999997E+02  0.45594000000E+02  0.51100000000E-03 0.  1.
         11   -1    0    0    0    0 -0.00000000000E+00 -0.00000000000E+00 -0.45593999997E+02  0.45594000000E+02  0.51100000000E-03 0. -1.
    9900012    2    1    2    0    0  0.73960568592E+00 -0.87478039597E+00 -0.28485217390E+00  0.90007577164E+02  0.89999836382E+02 0.  0.
         12    1    1    2    0    0 -0.73960568592E+00  0.87478039597E+00  0.28485217390E+00  0.11804228364E+01  0.00000000000E+00 0. -1.
         11    1    3    3    0    0  0.98963617413E+01 -0.66686882751E+01  0.37306144944E+01  0.12503074174E+02  0.51100000000E-03 0. -1.
        -11    1    3    3    0    0  0.31926738082E+02  0.11363806116E+02  0.70054749749E+01  0.34605337361E+02  0.51100000000E-03 0.  1.
         12    1    3    3    0    0 -0.41083494138E+02 -0.55698982370E+01 -0.11020941643E+02  0.42899165629E+02  0.00000000000E+00 0. -1.
</event>
<event>
 7    1  0.2000468E-015  0.9000783E+02  0.7816164E-02  0.1186339E+00
        -11   -1    0    0    0    0  0.00000000000E+00  0.00000000000E+00  0.45593999997E+02  0.45594000000E+02  0.51100000000E-03 0.  1.
         11   -1    0    0    0    0 -0.00000000000E+00 -0.00000000000E+00 -0.45593999997E+02  0.45594000000E+02  0.51100000000E-03 0. -1.
    9900012    2    1    2    0    0 -0.38078247005E-01 -0.59447867548E+00  0.10187981389E+01  0.90007828616E+02  0.90000091153E+02 0.  0.
         12    1    1    2    0    0  0.38078247005E-01  0.59447867548E+00 -0.10187981389E+01  0.11801713843E+01  0.00000000000E+00 0. -1.
         11    1    3    3    0    0 -0.31267856026E+01  0.92571470816E+01  0.74983456182E+00  0.97996843024E+01  0.51100000000E-03 0. -1.
        -11    1    3    3    0    0 -0.21428201580E+02  0.27904714131E+02  0.63371848442E+00  0.35188669953E+02  0.51100000000E-03 0.  1.
         12    1    3    3    0    0  0.24516908936E+02 -0.37756339888E+02 -0.36475490732E+00  0.45019474360E+02  0.00000000000E+00 0. -1.
</event>
<event>
 7    1  0.2000468E-015  0.9000776E+02  0.7816164E-02  0.1186339E+00
        -11   -1    0    0    0    0  0.00000000000E+00  0.00000000000E+00  0.45593999997E+02  0.45594000000E+02  0.51100000000E-03 0. -1.
         11   -1    0    0    0    0 -0.00000000000E+00 -0.00000000000E+00 -0.45593999997E+02  0.45594000000E+02  0.51100000000E-03 0.  1.
    9900012    2    1    2    0    0  0.14538088179E+00 -0.18471988107E+00 -0.11565972116E+01  0.90007756743E+02  0.90000018332E+02 0.  0.
         12    1    1    2    0    0 -0.14538088179E+00  0.18471988107E+00  0.11565972116E+01  0.11802432567E+01  0.00000000000E+00 0. -1.
         11    1    3    3    0    0 -0.15038851516E+02  0.30798402764E+02 -0.75314487957E+01  0.35091756710E+02  0.51100000000E-03 0. -1.
        -11    1    3    3    0    0 -0.11039803371E+02  0.28845564014E+01 -0.99205516199E+00  0.11453475360E+02  0.51100000000E-03 0.  1.
        -12    1    3    3    0    0  0.26224035769E+02 -0.33867679047E+02  0.73669067461E+01  0.43462524674E+02  0.00000000000E+00 0.  1.
</event>
<event>
 7    1  0.2000468E-015  0.9000773E+02  0.7816164E-02  0.1186339E+00
        -11   -1    0    0    0    0  0.00000000000E+00  0.00000000000E+00  0.45593999997E+02  0.45594000000E+02  0.51100000000E-03 0. -1.
         11   -1    0    0    0    0 -0.00000000000E+00 -0.00000000000E+00 -0.45593999997E+02  0.45594000000E+02  0.51100000000E-03 0.  1.
    9900012    2    1    2    0    0  0.65615464457E+00  0.27918056288E+00 -0.94050467823E+00  0.90007733185E+02  0.89999994463E+02 0.  0.
         12    1    1    2    0    0 -0.65615464457E+00 -0.27918056288E+00  0.94050467823E+00  0.11802668148E+01  0.00000000000E+00 0. -1.
         11    1    3    3    0    0 -0.80537978538E+00 -0.10828107151E+02  0.38536586706E+02  0.40037046049E+02  0.51100000000E-03 0. -1.
        -11    1    3    3    0    0 -0.15269248405E+01  0.13541457230E+02 -0.38846361879E+01  0.14170143328E+02  0.51100000000E-03 0.  1.
        -12    1    3    3    0    0  0.29884592704E+01 -0.24341695157E+01 -0.35592455197E+02  0.35800543808E+02  0.00000000000E+00 0.  1.
</event>
<event>
 7    1  0.2000468E-015  0.9000777E+02  0.7816164E-02  0.1186339E+00
        -11   -1    0    0    0    0  0.00000000000E+00  0.00000000000E+00  0.45593999997E+02  0.45594000000E+02  0.51100000000E-03 0.  1.
         11   -1    0    0    0    0 -0.00000000000E+00 -0.00000000000E+00 -0.45593999997E+02  0.45594000000E+02  0.51100000000E-03 0. -1.
    9900012    2    1    2    0    0  0.11055458122E+00  0.11551620375E+01  0.21520783792E+00  0.90007772877E+02  0.90000034679E+02 0.  0.
         12    1    1    2    0    0 -0.11055458122E+00 -0.11551620375E+01 -0.21520783792E+00  0.11802271230E+01  0.00000000000E+00 0. -1.
         11    1    3    3    0    0 -0.15639969432E+02  0.17158462310E+02 -0.31989217156E+02  0.39526339158E+02  0.51100000000E-03 0. -1.
        -11    1    3    3    0    0  0.34173333987E+01 -0.52975881974E+01 -0.61423481239E+01  0.88017639711E+01  0.51100000000E-03 0.  1.
        -12    1    3    3    0    0  0.12333190615E+02 -0.10705712075E+02  0.38346773118E+02  0.41679669748E+02  0.00000000000E+00 0.  1.
</event>
<event>
 7    1  0.2000468E-015  0.9000769E+02  0.7816164E-02  0.1186339E+00
        -11   -1    0    0    0    0  0.00000000000E+00  0.00000000000E+00  0.45593999997E+02  0.45594000000E+02  0.51100000000E-03 0.  1.
         11   -1    0    0    0    0 -0.00000000000E+00 -0.00000000000E+00 -0.45593999997E+02  0.45594000000E+02  0.51100000000E-03 0. -1.
    9900012    2    1    2    0    0 -0.27823946620E+00  0.32556655240E+00  0.10998706377E+01  0.90007692328E+02  0.89999953067E+02 0.  0.
         12    1    1    2    0    0  0.27823946620E+00 -0.32556655240E+00 -0.10998706377E+01  0.11803076719E+01  0.00000000000E+00 0. -1.
         11    1    3    3    0    0 -0.77493468387E+00  0.69535891689E+00 -0.10008346034E+02  0.10062357496E+02  0.51100000000E-03 0. -1.
        -11    1    3    3    0    0 -0.72084467312E+01 -0.38752144702E+02  0.10504458190E+02  0.40792573656E+02  0.51100000000E-03 0.  1.
         12    1    3    3    0    0  0.77051419488E+01  0.38382352338E+02  0.60375848089E+00  0.39152761177E+02  0.00000000000E+00 0. -1.
</event>
<event>
 7    1  0.2000468E-015  0.9000775E+02  0.7816164E-02  0.1186339E+00
        -11   -1    0    0    0    0  0.00000000000E+00  0.00000000000E+00  0.45593999997E+02  0.45594000000E+02  0.51100000000E-03 0.  1.
         11   -1    0    0    0    0 -0.00000000000E+00 -0.00000000000E+00 -0.45593999997E+02  0.45594000000E+02  0.51100000000E-03 0. -1.
    9900012    2    1    2    0    0  0.42367188235E+00  0.37899218579E+00  0.10343338623E+01  0.90007754483E+02  0.90000016043E+02 0.  0.
         12    1    1    2    0    0 -0.42367188235E+00 -0.37899218579E+00 -0.10343338623E+01  0.11802455166E+01  0.00000000000E+00 0. -1.
         11    1    3    3    0    0 -0.12520130553E+01 -0.40979798827E+01 -0.11896754205E+02  0.12644909517E+02  0.51100000000E-03 0. -1.
        -11    1    3    3    0    0  0.30337090033E+02  0.16353890406E+02 -0.13093981724E+02  0.36867887392E+02  0.51100000000E-03 0.  1.
        -12    1    3    3    0    0 -0.28661405095E+02 -0.11876918338E+02  0.26025069792E+02  0.40494957574E+02  0.00000000000E+00 0.  1.
</event>
<event>
 7    1  0.2000468E-015  0.9000770E+02  0.7816164E-02  0.1186339E+00
        -11   -1    0    0    0    0  0.00000000000E+00  0.00000000000E+00  0.45593999997E+02  0.45594000000E+02  0.51100000000E-03 0. -1.
         11   -1    0    0    0    0 -0.00000000000E+00 -0.00000000000E+00 -0.45593999997E+02  0.45594000000E+02  0.51100000000E-03 0.  1.
    9900012    2    1    2    0    0  0.38331002168E+00 -0.10498450222E+01  0.37947822703E+00  0.90007701365E+02  0.89999962223E+02 0.  0.
         12    1    1    2    0    0 -0.38331002168E+00  0.10498450222E+01 -0.37947822703E+00  0.11802986352E+01  0.00000000000E+00 0. -1.
         11    1    3    3    0    0  0.34594088466E+01 -0.86508917395E+01  0.54587324328E+01  0.10798296046E+02  0.51100000000E-03 0. -1.
        -11    1    3    3    0    0  0.12514489058E+02 -0.10303809510E+02 -0.36435680323E+02  0.39879063776E+02  0.51100000000E-03 0.  1.
         12    1    3    3    0    0 -0.15590587883E+02  0.17904856227E+02  0.31356426117E+02  0.39330341543E+02  0.00000000000E+00 0. -1.
</event>
<event>
 7    1  0.2000468E-015  0.9000777E+02  0.7816164E-02  0.1186339E+00
        -11   -1    0    0    0    0  0.00000000000E+00  0.00000000000E+00  0.45593999997E+02  0.45594000000E+02  0.51100000000E-03 0. -1.
         11   -1    0    0    0    0 -0.00000000000E+00 -0.00000000000E+00 -0.45593999997E+02  0.45594000000E+02  0.51100000000E-03 0.  1.
    9900012    2    1    2    0    0 -0.11693967730E+00 -0.10090891819E+01  0.60084566817E+00  0.90007766387E+02  0.90000028103E+02 0.  0.
         12    1    1    2    0    0  0.11693967730E+00  0.10090891819E+01 -0.60084566817E+00  0.11802336134E+01  0.00000000000E+00 0. -1.
         11    1    3    3    0    0 -0.16329827365E+02  0.19226184904E+02  0.25036167898E+02  0.35540387604E+02  0.51100000000E-03 0. -1.
        -11    1    3    3    0    0 -0.45379182202E+01  0.31479336111E+01  0.78031054032E+01  0.95598452910E+01  0.51100000000E-03 0.  1.
        -12    1    3    3    0    0  0.20750805908E+02 -0.23383207697E+02 -0.32238427634E+02  0.44907533492E+02  0.00000000000E+00 0.  1.
</event>
<event>
 7    1  0.2000468E-015  0.9000669E+02  0.7816164E-02  0.1186341E+00
        -11   -1    0    0    0    0  0.00000000000E+00  0.00000000000E+00  0.45593999997E+02  0.45594000000E+02  0.51100000000E-03 0.  1.
         11   -1    0    0    0    0 -0.00000000000E+00 -0.00000000000E+00 -0.45593999997E+02  0.45594000000E+02  0.51100000000E-03 0. -1.
    9900012    2    1    2    0    0 -0.33446813920E+00  0.40871115817E+00  0.10566866974E+01  0.90006686949E+02  0.89998934411E+02 0.  0.
         12    1    1    2    0    0  0.33446813920E+00 -0.40871115817E+00 -0.10566866974E+01  0.11813130506E+01  0.00000000000E+00 0. -1.
         11    1    3    3    0    0  0.18350329977E+02  0.43195714916E+01  0.89486059015E+01  0.20867938470E+02  0.51100000000E-03 0. -1.
        -11    1    3    3    0    0 -0.14191254918E+02 -0.14681832513E+02  0.26134990540E+02  0.33166031611E+02  0.51100000000E-03 0.  1.
         12    1    3    3    0    0 -0.44935431984E+01  0.10770972179E+02 -0.34026909744E+02  0.35972716868E+02  0.00000000000E+00 0. -1.
</event>
<event>
 7    1  0.2000468E-015  0.9000773E+02  0.7816164E-02  0.1186339E+00
        -11   -1    0    0    0    0  0.00000000000E+00  0.00000000000E+00  0.45593999997E+02  0.45594000000E+02  0.51100000000E-03 0. -1.
         11   -1    0    0    0    0 -0.00000000000E+00 -0.00000000000E+00 -0.45593999997E+02  0.45594000000E+02  0.51100000000E-03 0.  1.
    9900012    2    1    2    0    0 -0.28812423090E+00 -0.10365662447E+01 -0.48534052211E+00  0.90007728601E+02  0.89999989819E+02 0.  0.
         12    1    1    2    0    0  0.28812423090E+00  0.10365662447E+01  0.48534052211E+00  0.11802713987E+01  0.00000000000E+00 0. -1.
         11    1    3    3    0    0 -0.15543743638E+02  0.27853603325E+02  0.20039380482E+02  0.37669721990E+02  0.51100000000E-03 0. -1.
        -11    1    3    3    0    0 -0.46200164775E+01 -0.66232923767E+01  0.77731290566E+01  0.11208661372E+02  0.51100000000E-03 0.  1.
        -12    1    3    3    0    0  0.19875635884E+02 -0.22266877193E+02 -0.28297850061E+02  0.41129345239E+02  0.00000000000E+00 0.  1.
</event>
<event>
 7    1  0.2000468E-015  0.9000776E+02  0.7816164E-02  0.1186339E+00
        -11   -1    0    0    0    0  0.00000000000E+00  0.00000000000E+00  0.45593999997E+02  0.45594000000E+02  0.51100000000E-03 0. -1.
         11   -1    0    0    0    0 -0.00000000000E+00 -0.00000000000E+00 -0.45593999997E+02  0.45594000000E+02  0.51100000000E-03 0.  1.
    9900012    2    1    2    0    0  0.17369276349E+00 -0.51879403110E+00 -0.10457745059E+01  0.90007762422E+02  0.90000024086E+02 0.  0.
         12    1    1    2    0    0 -0.17369276349E+00  0.51879403110E+00  0.10457745059E+01  0.11802375777E+01  0.00000000000E+00 0. -1.
         11    1    3    3    0    0  0.77847140328E+01  0.61931478878E+01 -0.53883636722E+01  0.11313324739E+02  0.51100000000E-03 0. -1.
        -11    1    3    3    0    0 -0.65475673144E+01  0.25241870425E+02 -0.24392543423E+02  0.35707405888E+02  0.51100000000E-03 0.  1.
         12    1    3    3    0    0 -0.10634539549E+01 -0.31953812344E+02  0.28735132589E+02  0.42987031795E+02  0.00000000000E+00 0. -1.
</event>
<event>
 7    1  0.2000468E-015  0.9000768E+02  0.7816164E-02  0.1186339E+00
        -11   -1    0    0    0    0  0.00000000000E+00  0.00000000000E+00  0.45593999997E+02  0.45594000000E+02  0.51100000000E-03 0.  1.
         11   -1    0    0    0    0 -0.00000000000E+00 -0.00000000000E+00 -0.45593999997E+02  0.45594000000E+02  0.51100000000E-03 0. -1.
    9900012    2    1    2    0    0  0.47290258628E+00  0.99607595919E+00  0.42113742918E+00  0.90007677626E+02  0.89999938171E+02 0.  0.
         12    1    1    2    0    0 -0.47290258628E+00 -0.99607595919E+00 -0.42113742918E+00  0.11803223741E+01  0.00000000000E+00 0. -1.
         11    1    3    3    0    0 -0.52361444155E+01  0.20560018889E+00  0.81421105529E+01  0.96826362265E+01  0.51100000000E-03 0. -1.
        -11    1    3    3    0    0  0.13525007917E+02 -0.36319189971E+02  0.74749128514E+01  0.39470035745E+02  0.51100000000E-03 0.  1.
         12    1    3    3    0    0 -0.78159609156E+01  0.37109665741E+02 -0.15195885975E+02  0.40855005654E+02  0.00000000000E+00 0. -1.
</event>
<event>
 7    1  0.2000468E-015  0.9000769E+02  0.7816164E-02  0.1186339E+00
        -11   -1    0    0    0    0  0.00000000000E+00  0.00000000000E+00  0.45593999997E+02  0.45594000000E+02  0.51100000000E-03 0.  1.
         11   -1    0    0    0    0 -0.00000000000E+00 -0.00000000000E+00 -0.45593999997E+02  0.45594000000E+02  0.51100000000E-03 0. -1.
    9900012    2    1    2    0    0  0.65314285327E+00 -0.12231919356E-02  0.98312380102E+00  0.90007690934E+02  0.89999951654E+02 0.  0.
         12    1    1    2    0    0 -0.65314285327E+00  0.12231919356E-02 -0.98312380102E+00  0.11803090659E+01  0.00000000000E+00 0. -1.
         11    1    3    3    0    0 -0.26188488210E+02 -0.97081566251E+01 -0.30466140976E+02  0.41331234751E+02  0.51100000000E-03 0. -1.
        -11    1    3    3    0    0  0.36182700546E+01 -0.73460529202E+01  0.52013270664E+01  0.97010399034E+01  0.51100000000E-03 0.  1.
        -12    1    3    3    0    0  0.23223361009E+02  0.17052986353E+02  0.26247937711E+02  0.38975416280E+02  0.00000000000E+00 0.  1.
</event>
<event>
 7    1  0.2000468E-015  0.9000781E+02  0.7816164E-02  0.1186339E+00
        -11   -1    0    0    0    0  0.00000000000E+00  0.00000000000E+00  0.45593999997E+02  0.45594000000E+02  0.51100000000E-03 0. -1.
         11   -1    0    0    0    0 -0.00000000000E+00 -0.00000000000E+00 -0.45593999997E+02  0.45594000000E+02  0.51100000000E-03 0.  1.
    9900012    2    1    2    0    0 -0.94881522420E+00  0.35263881383E+00 -0.60682809400E+00  0.90007811541E+02  0.90000073853E+02 0.  0.
         12    1    1    2    0    0  0.94881522420E+00 -0.35263881383E+00  0.60682809400E+00  0.11801884588E+01  0.00000000000E+00 0. -1.
         11    1    3    3    0    0 -0.18340689845E+01 -0.13897919723E+01 -0.87120399144E+01  0.90108251841E+01  0.51100000000E-03 0. -1.
        -11    1    3    3    0    0  0.62727754628E+01 -0.36971666918E+02 -0.86261885048E+01  0.38479384026E+02  0.51100000000E-03 0.  1.
         12    1    3    3    0    0 -0.53875217025E+01  0.38714097704E+02  0.16731400325E+02  0.42517602331E+02  0.00000000000E+00 0. -1.
</event>
<event>
 7    1  0.2000468E-015  0.9000782E+02  0.7816164E-02  0.1186339E+00
        -11   -1    0    0    0    0  0.00000000000E+00  0.00000000000E+00  0.45593999997E+02  0.45594000000E+02  0.51100000000E-03 0.  1.
         11   -1    0    0    0    0 -0.00000000000E+00 -0.00000000000E+00 -0.45593999997E+02  0.45594000000E+02  0.51100000000E-03 0. -1.
    9900012    2    1    2    0    0 -0.96925347982E+00 -0.53181885419E+00 -0.41295997507E+00  0.90007822241E+02  0.90000084695E+02 0.  0.
         12    1    1    2    0    0  0.96925347982E+00  0.53181885419E+00  0.41295997507E+00  0.11801777590E+01  0.00000000000E+00 0. -1.
         11    1    3    3    0    0  0.33937082681E+01  0.23259273605E+02 -0.34232634830E+02  0.41525707124E+02  0.51100000000E-03 0. -1.
        -11    1    3    3    0    0 -0.86319762234E+01 -0.35942244177E+01  0.59830998168E+00  0.93694950655E+01  0.51100000000E-03 0.  1.
        -12    1    3    3    0    0  0.42690144755E+01 -0.20196868041E+02  0.33221364874E+02  0.39112620052E+02  0.00000000000E+00 0.  1.
</event>
<event>
 7    1  0.2000468E-015  0.9000782E+02  0.7816164E-02  0.1186339E+00
        -11   -1    0    0    0    0  0.00000000000E+00  0.00000000000E+00  0.45593999997E+02  0.45594000000E+02  0.51100000000E-03 0.  1.
         11   -1    0    0    0    0 -0.00000000000E+00 -0.00000000000E+00 -0.45593999997E+02  0.45594000000E+02  0.51100000000E-03 0. -1.
    9900012    2    1    2    0    0 -0.40057680866E+00  0.10169680514E+01  0.44513617533E+00  0.90007816958E+02  0.90000079342E+02 0.  0.
         12    1    1    2    0    0  0.40057680866E+00 -0.10169680514E+01 -0.44513617533E+00  0.11801830417E+01  0.00000000000E+00 0. -1.
         11    1    3    3    0    0 -0.23060224277E+02  0.20467736297E+02 -0.17241711913E+02  0.35326743450E+02  0.51100000000E-03 0. -1.
        -11    1    3    3    0    0 -0.67920345465E+01  0.14271473249E+01 -0.78370529568E+01  0.10468423094E+02  0.51100000000E-03 0.  1.
        -12    1    3    3    0    0  0.29451682015E+02 -0.20877915571E+02  0.25523901045E+02  0.44212650414E+02  0.00000000000E+00 0.  1.
</event>
<event>
 7    1  0.2000468E-015  0.9000776E+02  0.7816164E-02  0.1186339E+00
        -11   -1    0    0    0    0  0.00000000000E+00  0.00000000000E+00  0.45593999997E+02  0.45594000000E+02  0.51100000000E-03 0.  1.
         11   -1    0    0    0    0 -0.00000000000E+00 -0.00000000000E+00 -0.45593999997E+02  0.45594000000E+02  0.51100000000E-03 0. -1.
    9900012    2    1    2    0    0 -0.79976837515E+00 -0.57412131174E+00  0.65094101456E+00  0.90007758949E+02  0.90000020567E+02 0.  0.
         12    1    1    2    0    0  0.79976837515E+00  0.57412131174E+00 -0.65094101456E+00  0.11802410512E+01  0.00000000000E+00 0. -1.
         11    1    3    3    0    0  0.14433576565E+01  0.66633453457E+01 -0.74778264377E+01  0.10119354773E+02  0.51100000000E-03 0. -1.
        -11    1    3    3    0    0  0.30691539370E+02  0.16152207808E+02  0.16855617682E+02  0.38561331068E+02  0.51100000000E-03 0.  1.
         12    1    3    3    0    0 -0.32934665402E+02 -0.23389674466E+02 -0.87268502301E+01  0.41327073108E+02  0.00000000000E+00 0. -1.
</event>
<event>
 7    1  0.2000468E-015  0.9000784E+02  0.7816164E-02  0.1186339E+00
        -11   -1    0    0    0    0  0.00000000000E+00  0.00000000000E+00  0.45593999997E+02  0.45594000000E+02  0.51100000000E-03 0.  1.
         11   -1    0    0    0    0 -0.00000000000E+00 -0.00000000000E+00 -0.45593999997E+02  0.45594000000E+02  0.51100000000E-03 0. -1.
    9900012    2    1    2    0    0  0.82396026476E+00  0.24916438884E+00  0.80732701706E+00  0.90007843094E+02  0.90000105823E+02 0.  0.
         12    1    1    2    0    0 -0.82396026476E+00 -0.24916438884E+00 -0.80732701706E+00  0.11801569061E+01  0.00000000000E+00 0. -1.
         11    1    3    3    0    0 -0.27050148773E+01 -0.46984089900E+01  0.96831518753E+01  0.11097548514E+02  0.51100000000E-03 0. -1.
        -11    1    3    3    0    0  0.38889298255E+02  0.14932926434E+02 -0.52992616258E+01  0.41993475502E+02  0.51100000000E-03 0.  1.
         12    1    3    3    0    0 -0.35360323113E+02 -0.99853530548E+01 -0.35765632324E+01  0.36916819078E+02  0.00000000000E+00 0. -1.
</event>
<event>
 7    1  0.2000468E-015  0.9000775E+02  0.7816164E-02  0.1186339E+00
        -11   -1    0    0    0    0  0.00000000000E+00  0.00000000000E+00  0.45593999997E+02  0.45594000000E+02  0.51100000000E-03 0. -1.
         11   -1    0    0    0    0 -0.00000000000E+00 -0.00000000000E+00 -0.45593999997E+02  0.45594000000E+02  0.51100000000E-03 0.  1.
    9900012    2    1    2    0    0  0.10401100038E+00  0.10978239296E+01  0.42066888434E+00  0.90007746646E+02  0.90000008102E+02 0.  0.
         12    1    1    2    0    0 -0.10401100038E+00 -0.10978239296E+01 -0.42066888434E+00  0.11802533536E+01  0.00000000000E+00 0. -1.
         11    1    3    3    0    0 -0.60705491050E+01 -0.61299694095E+01  0.41226769553E+02  0.42119765188E+02  0.51100000000E-03 0. -1.
        -11    1    3    3    0    0  0.70987869777E+01  0.64948682686E+01 -0.30214196337E+01  0.10084893021E+02  0.51100000000E-03 0.  1.
        -12    1    3    3    0    0 -0.92422687240E+00  0.73292507041E+00 -0.37784681035E+02  0.37803088438E+02  0.00000000000E+00 0.  1.
</event>
<event>
 7    1  0.2000468E-015  0.9000775E+02  0.7816164E-02  0.1186339E+00
        -11   -1    0    0    0    0  0.00000000000E+00  0.00000000000E+00  0.45593999997E+02  0.45594000000E+02  0.51100000000E-03 0. -1.
         11   -1    0    0    0    0 -0.00000000000E+00 -0.00000000000E+00 -0.45593999997E+02  0.45594000000E+02  0.51100000000E-03 0.  1.
    9900012    2    1    2    0    0  0.58611287284E-01 -0.11315784329E+01  0.33029582835E+00  0.90007745635E+02  0.90000007077E+02 0.  0.
         12    1    1    2    0    0 -0.58611287284E-01  0.11315784329E+01 -0.33029582835E+00  0.11802543654E+01  0.00000000000E+00 0. -1.
         11    1    3    3    0    0 -0.27564815010E+02  0.16875092679E+02  0.12584677356E+02  0.34683740915E+02  0.51100000000E-03 0. -1.
        -11    1    3    3    0    0  0.88905737041E+00  0.11173496304E+02  0.48468017409E+01  0.12211835654E+02  0.51100000000E-03 0.  1.
        -12    1    3    3    0    0  0.26734368926E+02 -0.29180167416E+02 -0.17101183269E+02  0.43112169065E+02  0.00000000000E+00 0.  1.
</event>
<event>
 7    1  0.2000468E-015  0.9000770E+02  0.7816164E-02  0.1186339E+00
        -11   -1    0    0    0    0  0.00000000000E+00  0.00000000000E+00  0.45593999997E+02  0.45594000000E+02  0.51100000000E-03 0. -1.
         11   -1    0    0    0    0 -0.00000000000E+00 -0.00000000000E+00 -0.45593999997E+02  0.45594000000E+02  0.51100000000E-03 0.  1.
    9900012    2    1    2    0    0  0.99731506092E+00  0.47949150611E+00 -0.41057276736E+00  0.90007695195E+02  0.89999955972E+02 0.  0.
         12    1    1    2    0    0 -0.99731506092E+00 -0.47949150611E+00  0.41057276736E+00  0.11803048049E+01  0.00000000000E+00 0. -1.
         11    1    3    3    0    0 -0.20851355769E+02  0.42551468010E+01 -0.35042229317E+01  0.21567681616E+02  0.51100000000E-03 0. -1.
        -11    1    3    3    0    0  0.66542764487E+01  0.10638778353E+02 -0.28153339984E+02  0.30823263170E+02  0.51100000000E-03 0.  1.
         12    1    3    3    0    0  0.15194394381E+02 -0.14414433648E+02  0.31246990149E+02  0.37616750409E+02  0.00000000000E+00 0. -1.
</event>
<event>
 7    1  0.2000468E-015  0.9000819E+02  0.7816164E-02  0.1186338E+00
        -11   -1    0    0    0    0  0.00000000000E+00  0.00000000000E+00  0.45593999997E+02  0.45594000000E+02  0.51100000000E-03 0. -1.
         11   -1    0    0    0    0 -0.00000000000E+00 -0.00000000000E+00 -0.45593999997E+02  0.45594000000E+02  0.51100000000E-03 0.  1.
    9900012    2    1    2    0    0 -0.65169454395E+00  0.60939756095E+00 -0.77194055283E+00  0.90008185022E+02  0.90000452263E+02 0.  0.
         12    1    1    2    0    0  0.65169454395E+00 -0.60939756095E+00  0.77194055283E+00  0.11798149783E+01  0.00000000000E+00 0. -1.
         11    1    3    3    0    0 -0.17443240820E+01 -0.38432830308E+01 -0.78292510309E+01  0.88944175146E+01  0.51100000000E-03 0. -1.
        -11    1    3    3    0    0 -0.13519242647E+02 -0.35113305491E+02  0.96903008630E+01  0.38853778134E+02  0.51100000000E-03 0.  1.
         12    1    3    3    0    0  0.14611872185E+02  0.39565986082E+02 -0.26329903849E+01  0.42259989373E+02  0.00000000000E+00 0. -1.
</event>
<event>
 7    1  0.2000468E-015  0.9000772E+02  0.7816164E-02  0.1186339E+00
        -11   -1    0    0    0    0  0.00000000000E+00  0.00000000000E+00  0.45593999997E+02  0.45594000000E+02  0.51100000000E-03 0.  1.
         11   -1    0    0    0    0 -0.00000000000E+00 -0.00000000000E+00 -0.45593999997E+02  0.45594000000E+02  0.51100000000E-03 0. -1.
    9900012    2    1    2    0    0  0.48362507202E+00 -0.82949612256E-01  0.10734439806E+01  0.90007722140E+02  0.89999983272E+02 0.  0.
         12    1    1    2    0    0 -0.48362507202E+00  0.82949612256E-01 -0.10734439806E+01  0.11802778605E+01  0.00000000000E+00 0. -1.
         11    1    3    3    0    0  0.34294780250E+01  0.71146045158E+01  0.53670346168E+01  0.95490302010E+01  0.51100000000E-03 0. -1.
        -11    1    3    3    0    0 -0.12983563319E+02  0.27569636550E+02  0.20379699300E+02  0.36660468079E+02  0.51100000000E-03 0.  1.
         12    1    3    3    0    0  0.10037710366E+02 -0.34767190678E+02 -0.24673289936E+02  0.43798223860E+02  0.00000000000E+00 0. -1.
</event>
<event>
 7    1  0.2000468E-015  0.9000770E+02  0.7816164E-02  0.1186339E+00
        -11   -1    0    0    0    0  0.00000000000E+00  0.00000000000E+00  0.45593999997E+02  0.45594000000E+02  0.51100000000E-03 0. -1.
         11   -1    0    0    0    0 -0.00000000000E+00 -0.00000000000E+00 -0.45593999997E+02  0.45594000000E+02  0.51100000000E-03 0.  1.
    9900012    2    1    2    0    0 -0.62505982515E+00 -0.48454826769E+00 -0.87614262192E+00  0.90007698046E+02  0.89999958860E+02 0.  0.
         12    1    1    2    0    0  0.62505982515E+00  0.48454826769E+00  0.87614262192E+00  0.11803019540E+01  0.00000000000E+00 0. -1.
         11    1    3    3    0    0 -0.16789143238E+02  0.27447392438E+02  0.12213534530E+01  0.32198235772E+02  0.51100000000E-03 0. -1.
        -11    1    3    3    0    0  0.53172425225E+01 -0.12211359412E+01  0.20478379384E+02  0.21192646448E+02  0.51100000000E-03 0.  1.
        -12    1    3    3    0    0  0.10846840890E+02 -0.26710804764E+02 -0.22575875459E+02  0.36616815826E+02  0.00000000000E+00 0.  1.
</event>
<event>
 7    1  0.2000468E-015  0.9000795E+02  0.7816164E-02  0.1186339E+00
        -11   -1    0    0    0    0  0.00000000000E+00  0.00000000000E+00  0.45593999997E+02  0.45594000000E+02  0.51100000000E-03 0. -1.
         11   -1    0    0    0    0 -0.00000000000E+00 -0.00000000000E+00 -0.45593999997E+02  0.45594000000E+02  0.51100000000E-03 0.  1.
    9900012    2    1    2    0    0  0.10826002775E+01  0.31065613484E+00  0.35212797931E+00  0.90007947158E+02  0.90000211261E+02 0.  0.
         12    1    1    2    0    0 -0.10826002775E+01 -0.31065613484E+00 -0.35212797931E+00  0.11800528415E+01  0.00000000000E+00 0. -1.
         11    1    3    3    0    0 -0.12625308009E+02  0.28702067222E+02  0.20647272115E+02  0.37543533547E+02  0.51100000000E-03 0. -1.
        -11    1    3    3    0    0  0.67058668047E+01  0.51668116596E+01  0.50266987438E+01  0.98454198920E+01  0.51100000000E-03 0.  1.
        -12    1    3    3    0    0  0.70020414814E+01 -0.33558222747E+02 -0.25321842879E+02  0.42618993719E+02  0.00000000000E+00 0.  1.
</event>
<event>
 7    1  0.2000468E-015  0.9000780E+02  0.7816164E-02  0.1186339E+00
        -11   -1    0    0    0    0  0.00000000000E+00  0.00000000000E+00  0.45593999997E+02  0.45594000000E+02  0.51100000000E-03 0.  1.
         11   -1    0    0    0    0 -0.00000000000E+00 -0.00000000000E+00 -0.45593999997E+02  0.45594000000E+02  0.51100000000E-03 0. -1.
    9900012    2    1    2    0    0  0.75761735893E+00 -0.11509085383E+00  0.89757078631E+00  0.90007803710E+02  0.90000065919E+02 0.  0.
         12    1    1    2    0    0 -0.75761735893E+00  0.11509085383E+00 -0.89757078631E+00  0.11801962903E+01  0.00000000000E+00 0. -1.
         11    1    3    3    0    0 -0.31188099973E+01 -0.46601805298E+01 -0.25829727446E+00  0.56134638248E+01  0.51100000000E-03 0. -1.
        -11    1    3    3    0    0 -0.38930725244E+02  0.31493831783E+01 -0.96292709271E+01  0.40227389193E+02  0.51100000000E-03 0.  1.
         12    1    3    3    0    0  0.42807152601E+02  0.13957064977E+01  0.10785138988E+02  0.44166950692E+02  0.00000000000E+00 0. -1.
</event>
<event>
 7    1  0.2000468E-015  0.9000763E+02  0.7816164E-02  0.1186339E+00
        -11   -1    0    0    0    0  0.00000000000E+00  0.00000000000E+00  0.45593999997E+02  0.45594000000E+02  0.51100000000E-03 0. -1.
         11   -1    0    0    0    0 -0.00000000000E+00 -0.00000000000E+00 -0.45593999997E+02  0.45594000000E+02  0.51100000000E-03 0.  1.
    9900012    2    1    2    0    0 -0.88574025905E+00 -0.37068947481E+00 -0.68652893547E+00  0.90007632061E+02  0.89999892004E+02 0.  0.
         12    1    1    2    0    0  0.88574025905E+00  0.37068947481E+00  0.68652893547E+00  0.11803679395E+01  0.00000000000E+00 0. -1.
         11    1    3    3    0    0  0.38680865355E+01  0.33831496252E+01  0.52507966123E+01  0.73470170925E+01  0.51100000000E-03 0. -1.
        -11    1    3    3    0    0 -0.14853648962E+02  0.36113500364E+02 -0.12527480445E+02  0.41009188758E+02  0.51100000000E-03 0.  1.
         12    1    3    3    0    0  0.10099822167E+02 -0.39867339464E+02  0.65901548974E+01  0.41651426210E+02  0.00000000000E+00 0. -1.
</event>
<event>
 7    1  0.2000468E-015  0.9000774E+02  0.7816164E-02  0.1186339E+00
        -11   -1    0    0    0    0  0.00000000000E+00  0.00000000000E+00  0.45593999997E+02  0.45594000000E+02  0.51100000000E-03 0.  1.
         11   -1    0    0    0    0 -0.00000000000E+00 -0.00000000000E+00 -0.45593999997E+02  0.45594000000E+02  0.51100000000E-03 0. -1.
    9900012    2    1    2    0    0 -0.73879323396E+00 -0.44002971732E+00  0.80844388283E+00  0.90007736001E+02  0.89999997317E+02 0.  0.
         12    1    1    2    0    0  0.73879323396E+00  0.44002971732E+00 -0.80844388283E+00  0.11802639986E+01  0.00000000000E+00 0. -1.
         11    1    3    3    0    0 -0.50627368310E+01  0.83623009665E+01  0.18899939261E+01  0.99564782416E+01  0.51100000000E-03 0. -1.
        -11    1    3    3    0    0  0.40708744236E+02 -0.14490672448E+02 -0.83860744756E-01  0.43210976362E+02  0.51100000000E-03 0.  1.
         12    1    3    3    0    0 -0.36384800639E+02  0.56883417642E+01 -0.99768929848E+00  0.36840281398E+02  0.00000000000E+00 0. -1.
</event>
<event>
 7    1  0.2000468E-015  0.9000735E+02  0.7816164E-02  0.1186340E+00
        -11   -1    0    0    0    0  0.00000000000E+00  0.00000000000E+00  0.45593999997E+02  0.45594000000E+02  0.51100000000E-03 0.  1.
         11   -1    0    0    0    0 -0.00000000000E+00 -0.00000000000E+00 -0.45593999997E+02  0.45594000000E+02  0.51100000000E-03 0. -1.
    9900012    2    1    2    0    0  0.76819633902E+00 -0.69718658810E+00  0.56368253965E+00  0.90007350704E+02  0.89999606933E+02 0.  0.
         12    1    1    2    0    0 -0.76819633902E+00  0.69718658810E+00 -0.56368253965E+00  0.11806492957E+01  0.00000000000E+00 0. -1.
         11    1    3    3    0    0  0.40601410972E+01 -0.79559482665E+01 -0.16923669776E+01  0.90909826089E+01  0.51100000000E-03 0. -1.
        -11    1    3    3    0    0  0.18872847483E+02  0.80941822653E+00  0.35635302444E+02  0.40332546541E+02  0.51100000000E-03 0.  1.
         12    1    3    3    0    0 -0.22164792241E+02  0.64493434518E+01 -0.33379252926E+02  0.40583821554E+02  0.00000000000E+00 0. -1.
</event>
<event>
 7    1  0.2000468E-015  0.9000769E+02  0.7816164E-02  0.1186339E+00
        -11   -1    0    0    0    0  0.00000000000E+00  0.00000000000E+00  0.45593999997E+02  0.45594000000E+02  0.51100000000E-03 0.  1.
         11   -1    0    0    0    0 -0.00000000000E+00 -0.00000000000E+00 -0.45593999997E+02  0.45594000000E+02  0.51100000000E-03 0. -1.
    9900012    2    1    2    0    0 -0.81449898389E+00 -0.30338637104E-01  0.85370040338E+00  0.90007689275E+02  0.89999949974E+02 0.  0.
         12    1    1    2    0    0  0.81449898389E+00  0.30338637104E-01 -0.85370040338E+00  0.11803107245E+01  0.00000000000E+00 0. -1.
         11    1    3    3    0    0 -0.61648957931E+01 -0.13450439883E+01  0.81018711593E+01  0.10269147969E+02  0.51100000000E-03 0. -1.
        -11    1    3    3    0    0 -0.75541063483E+01  0.32319595341E+02  0.17968136228E+02  0.37742213575E+02  0.51100000000E-03 0.  1.
         12    1    3    3    0    0  0.12904503157E+02 -0.31004889990E+02 -0.25216306984E+02  0.41996327732E+02  0.00000000000E+00 0. -1.
</event>
<event>
 7    1  0.2000468E-015  0.9000775E+02  0.7816164E-02  0.1186339E+00
        -11   -1    0    0    0    0  0.00000000000E+00  0.00000000000E+00  0.45593999997E+02  0.45594000000E+02  0.51100000000E-03 0.  1.
         11   -1    0    0    0    0 -0.00000000000E+00 -0.00000000000E+00 -0.45593999997E+02  0.45594000000E+02  0.51100000000E-03 0. -1.
    9900012    2    1    2    0    0  0.79741809660E+00 -0.74719879929E+00  0.44588664249E+00  0.90007747246E+02  0.90000008709E+02 0.  0.
         12    1    1    2    0    0 -0.79741809660E+00  0.74719879929E+00 -0.44588664249E+00  0.11802527545E+01  0.00000000000E+00 0. -1.
         11    1    3    3    0    0  0.34394865788E+02 -0.21584010120E+02 -0.10544836346E+01  0.40620047039E+02  0.51100000000E-03 0. -1.
        -11    1    3    3    0    0 -0.31678753355E+01 -0.44046913179E+01 -0.70914762624E+01  0.89289291401E+01  0.51100000000E-03 0.  1.
        -12    1    3    3    0    0 -0.30429572356E+02  0.25241502639E+02  0.85918465395E+01  0.40458771066E+02  0.00000000000E+00 0.  1.
</event>
<event>
 7    1  0.2000468E-015  0.9000760E+02  0.7816164E-02  0.1186339E+00
        -11   -1    0    0    0    0  0.00000000000E+00  0.00000000000E+00  0.45593999997E+02  0.45594000000E+02  0.51100000000E-03 0. -1.
         11   -1    0    0    0    0 -0.00000000000E+00 -0.00000000000E+00 -0.45593999997E+02  0.45594000000E+02  0.51100000000E-03 0.  1.
    9900012    2    1    2    0    0  0.38375365414E+00  0.58433606261E+00 -0.95111708175E+00  0.90007602099E+02  0.89999861647E+02 0.  0.
         12    1    1    2    0    0 -0.38375365414E+00 -0.58433606261E+00  0.95111708175E+00  0.11803979009E+01  0.00000000000E+00 0. -1.
         11    1    3    3    0    0 -0.30719762514E+02 -0.20196233398E+02 -0.61614126459E+01  0.37276730790E+02  0.51100000000E-03 0. -1.
        -11    1    3    3    0    0 -0.79774012321E+01 -0.21482992480E+00 -0.52799887768E+00  0.79977412681E+01  0.51100000000E-03 0.  1.
        -12    1    3    3    0    0  0.39080917400E+02  0.20995399385E+02  0.57382944418E+01  0.44733130041E+02  0.00000000000E+00 0.  1.
</event>
<event>
 7    1  0.2000468E-015  0.9000771E+02  0.7816164E-02  0.1186339E+00
        -11   -1    0    0    0    0  0.00000000000E+00  0.00000000000E+00  0.45593999997E+02  0.45594000000E+02  0.51100000000E-03 0.  1.
         11   -1    0    0    0    0 -0.00000000000E+00 -0.00000000000E+00 -0.45593999997E+02  0.45594000000E+02  0.51100000000E-03 0. -1.
    9900012    2    1    2    0    0 -0.16503619604E+00  0.11655879016E+01  0.85149299191E-01  0.90007710838E+02  0.89999971821E+02 0.  0.
         12    1    1    2    0    0  0.16503619604E+00 -0.11655879016E+01 -0.85149299191E-01  0.11802891618E+01  0.00000000000E+00 0. -1.
         11    1    3    3    0    0 -0.30337951819E+02  0.12301284749E+02  0.19549813975E+02  0.38130147570E+02  0.51100000000E-03 0. -1.
        -11    1    3    3    0    0  0.35807580281E+01 -0.55197848489E+01  0.98863024879E+01  0.11875555986E+02  0.51100000000E-03 0.  1.
        -12    1    3    3    0    0  0.26592157594E+02 -0.56159119980E+01 -0.29350967164E+02  0.40002007282E+02  0.00000000000E+00 0.  1.
</event>
<event>
 7    1  0.2000468E-015  0.9000778E+02  0.7816164E-02  0.1186339E+00
        -11   -1    0    0    0    0  0.00000000000E+00  0.00000000000E+00  0.45593999997E+02  0.45594000000E+02  0.51100000000E-03 0. -1.
         11   -1    0    0    0    0 -0.00000000000E+00 -0.00000000000E+00 -0.45593999997E+02  0.45594000000E+02  0.51100000000E-03 0.  1.
    9900012    2    1    2    0    0 -0.13931788062E+00 -0.11385566112E+01 -0.27786139505E+00  0.90007776469E+02  0.90000038318E+02 0.  0.
         12    1    1    2    0    0  0.13931788062E+00  0.11385566112E+01  0.27786139505E+00  0.11802235312E+01  0.00000000000E+00 0. -1.
         11    1    3    3    0    0 -0.26685453526E+01 -0.76919034472E+01  0.20824929677E+01  0.84037664271E+01  0.51100000000E-03 0. -1.
        -11    1    3    3    0    0  0.12574386414E+02  0.50199831226E+01 -0.40202565600E+02  0.42421241204E+02  0.51100000000E-03 0.  1.
         12    1    3    3    0    0 -0.10045158942E+02  0.15333637134E+01  0.37842211237E+02  0.39182768837E+02  0.00000000000E+00 0. -1.
</event>
<event>
 7    1  0.2000468E-015  0.9000774E+02  0.7816164E-02  0.1186339E+00
        -11   -1    0    0    0    0  0.00000000000E+00  0.00000000000E+00  0.45593999997E+02  0.45594000000E+02  0.51100000000E-03 0. -1.
         11   -1    0    0    0    0 -0.00000000000E+00 -0.00000000000E+00 -0.45593999997E+02  0.45594000000E+02  0.51100000000E-03 0.  1.
    9900012    2    1    2    0    0  0.10503085216E+01 -0.43918833114E+00 -0.31142301026E+00  0.90007737880E+02  0.89999999220E+02 0.  0.
         12    1    1    2    0    0 -0.10503085216E+01  0.43918833114E+00  0.31142301026E+00  0.11802621200E+01  0.00000000000E+00 0. -1.
         11    1    3    3    0    0  0.26951125700E+02  0.17971136413E+02 -0.24727541344E+02  0.40752622268E+02  0.51100000000E-03 0. -1.
        -11    1    3    3    0    0  0.55293597849E+01 -0.70161030577E+01  0.80815992164E+01  0.12046234594E+02  0.51100000000E-03 0.  1.
        -12    1    3    3    0    0 -0.31430176963E+02 -0.11394221687E+02  0.16334519118E+02  0.37208881018E+02  0.00000000000E+00 0.  1.
</event>
<event>
 7    1  0.2000468E-015  0.9000777E+02  0.7816164E-02  0.1186339E+00
        -11   -1    0    0    0    0  0.00000000000E+00  0.00000000000E+00  0.45593999997E+02  0.45594000000E+02  0.51100000000E-03 0.  1.
         11   -1    0    0    0    0 -0.00000000000E+00 -0.00000000000E+00 -0.45593999997E+02  0.45594000000E+02  0.51100000000E-03 0. -1.
    9900012    2    1    2    0    0  0.10371641478E+01  0.44411344585E+00 -0.34641643188E+00  0.90007766732E+02  0.90000028453E+02 0.  0.
         12    1    1    2    0    0 -0.10371641478E+01 -0.44411344585E+00  0.34641643188E+00  0.11802332679E+01  0.00000000000E+00 0. -1.
         11    1    3    3    0    0  0.13576548356E+02  0.10164907889E+01  0.66963123508E+01  0.15172228517E+02  0.51100000000E-03 0. -1.
        -11    1    3    3    0    0  0.29602674238E+02 -0.52780205450E+01 -0.11509497473E+02  0.32196961895E+02  0.51100000000E-03 0.  1.
         12    1    3    3    0    0 -0.42142058447E+02  0.47056432019E+01  0.44667686902E+01  0.42638576320E+02  0.00000000000E+00 0. -1.
</event>
<event>
 7    1  0.2000468E-015  0.9000781E+02  0.7816164E-02  0.1186339E+00
        -11   -1    0    0    0    0  0.00000000000E+00  0.00000000000E+00  0.45593999997E+02  0.45594000000E+02  0.51100000000E-03 0.  1.
         11   -1    0    0    0    0 -0.00000000000E+00 -0.00000000000E+00 -0.45593999997E+02  0.45594000000E+02  0.51100000000E-03 0. -1.
    9900012    2    1    2    0    0  0.67880663393E+00 -0.92740281734E+00  0.26832002392E+00  0.90007809309E+02  0.90000071592E+02 0.  0.
         12    1    1    2    0    0 -0.67880663393E+00  0.92740281734E+00 -0.26832002392E+00  0.11801906910E+01  0.00000000000E+00 0. -1.
         11    1    3    3    0    0  0.27352546938E+02 -0.20659226150E+02  0.11381948484E+02  0.36118059204E+02  0.51100000000E-03 0. -1.
        -11    1    3    3    0    0  0.70813254629E+00 -0.11263600200E+02 -0.11185507253E+01  0.11341132974E+02  0.51100000000E-03 0.  1.
        -12    1    3    3    0    0 -0.27381872851E+02  0.30995423532E+02 -0.99950777352E+01  0.42548617130E+02  0.00000000000E+00 0.  1.
</event>
<event>
 7    1  0.2000468E-015  0.9000770E+02  0.7816164E-02  0.1186339E+00
        -11   -1    0    0    0    0  0.00000000000E+00  0.00000000000E+00  0.45593999997E+02  0.45594000000E+02  0.51100000000E-03 0.  1.
         11   -1    0    0    0    0 -0.00000000000E+00 -0.00000000000E+00 -0.45593999997E+02  0.45594000000E+02  0.51100000000E-03 0. -1.
    9900012    2    1    2    0    0  0.46310857150E-01 -0.11701205836E+01  0.14760829013E+00  0.90007697038E+02  0.89999957838E+02 0.  0.
         12    1    1    2    0    0 -0.46310857150E-01  0.11701205836E+01 -0.14760829013E+00  0.11803029624E+01  0.00000000000E+00 0. -1.
         11    1    3    3    0    0  0.45463363121E+01  0.67663735617E+01  0.62654617151E+01  0.10281488015E+02  0.51100000000E-03 0. -1.
        -11    1    3    3    0    0 -0.21436533530E+02 -0.38119465883E+02  0.32995070682E+01  0.43857786038E+02  0.51100000000E-03 0.  1.
         12    1    3    3    0    0  0.16936508076E+02  0.30182971738E+02 -0.94173604932E+01  0.35868422984E+02  0.00000000000E+00 0. -1.
</event>
<event>
 7    1  0.2000468E-015  0.9000774E+02  0.7816164E-02  0.1186339E+00
        -11   -1    0    0    0    0  0.00000000000E+00  0.00000000000E+00  0.45593999997E+02  0.45594000000E+02  0.51100000000E-03 0.  1.
         11   -1    0    0    0    0 -0.00000000000E+00 -0.00000000000E+00 -0.45593999997E+02  0.45594000000E+02  0.51100000000E-03 0. -1.
    9900012    2    1    2    0    0 -0.11318222517E+01 -0.32381633680E+00  0.84518511997E-01  0.90007736467E+02  0.89999997788E+02 0.  0.
         12    1    1    2    0    0  0.11318222517E+01  0.32381633680E+00 -0.84518511997E-01  0.11802635334E+01  0.00000000000E+00 0. -1.
         11    1    3    3    0    0  0.56921559330E+01 -0.10120049444E+01  0.82703946114E+01  0.10090798802E+02  0.51100000000E-03 0. -1.
        -11    1    3    3    0    0  0.33374360530E+02 -0.14665309656E+02 -0.44347862961E+01  0.36723106866E+02  0.51100000000E-03 0.  1.
         12    1    3    3    0    0 -0.40198338715E+02  0.15353498264E+02 -0.37510898033E+01  0.43193830799E+02  0.00000000000E+00 0. -1.
</event>
<event>
 7    1  0.2000468E-015  0.9000786E+02  0.7816164E-02  0.1186339E+00
        -11   -1    0    0    0    0  0.00000000000E+00  0.00000000000E+00  0.45593999997E+02  0.45594000000E+02  0.51100000000E-03 0.  1.
         11   -1    0    0    0    0 -0.00000000000E+00 -0.00000000000E+00 -0.45593999997E+02  0.45594000000E+02  0.51100000000E-03 0. -1.
    9900012    2    1    2    0    0  0.45707413716E-01 -0.11086857627E+01 -0.40181367005E+00  0.90007861231E+02  0.90000124199E+02 0.  0.
         12    1    1    2    0    0 -0.45707413716E-01  0.11086857627E+01  0.40181367005E+00  0.11801387687E+01  0.00000000000E+00 0. -1.
         11    1    3    3    0    0 -0.64064128664E+01 -0.62019523928E+01 -0.23264888138E+01  0.92151445870E+01  0.51100000000E-03 0. -1.
        -11    1    3    3    0    0 -0.33721477773E+02  0.98365039962E+01  0.15119421737E+02  0.38242538984E+02  0.51100000000E-03 0.  1.
         12    1    3    3    0    0  0.40173598053E+02 -0.47432373661E+01 -0.13194746594E+02  0.42550177660E+02  0.00000000000E+00 0. -1.
</event>
<event>
 7    1  0.2000468E-015  0.9000772E+02  0.7816164E-02  0.1186339E+00
        -11   -1    0    0    0    0  0.00000000000E+00  0.00000000000E+00  0.45593999997E+02  0.45594000000E+02  0.51100000000E-03 0. -1.
         11   -1    0    0    0    0 -0.00000000000E+00 -0.00000000000E+00 -0.45593999997E+02  0.45594000000E+02  0.51100000000E-03 0.  1.
    9900012    2    1    2    0    0  0.94974513016E+00 -0.65344653837E+00  0.25307205896E+00  0.90007723059E+02  0.89999984203E+02 0.  0.
         12    1    1    2    0    0 -0.94974513016E+00  0.65344653837E+00 -0.25307205896E+00  0.11802769411E+01  0.00000000000E+00 0. -1.
         11    1    3    3    0    0 -0.50343290725E+01 -0.18613032312E+01  0.35058806475E+02  0.35467292407E+02  0.51100000000E-03 0. -1.
        -11    1    3    3    0    0 -0.84783942287E+01  0.59257665802E+01  0.53170608063E+01  0.11630520803E+02  0.51100000000E-03 0.  1.
        -12    1    3    3    0    0  0.14462468431E+02 -0.47179098874E+01 -0.40122795223E+02  0.42909909850E+02  0.00000000000E+00 0.  1.
</event>
<event>
 7    1  0.2000468E-015  0.9000771E+02  0.7816164E-02  0.1186339E+00
        -11   -1    0    0    0    0  0.00000000000E+00  0.00000000000E+00  0.45593999997E+02  0.45594000000E+02  0.51100000000E-03 0. -1.
         11   -1    0    0    0    0 -0.00000000000E+00 -0.00000000000E+00 -0.45593999997E+02  0.45594000000E+02  0.51100000000E-03 0.  1.
    9900012    2    1    2    0    0 -0.26534641366E+00 -0.33216789643E+00 -0.11010641340E+01  0.90007709164E+02  0.89999970125E+02 0.  0.
         12    1    1    2    0    0  0.26534641366E+00  0.33216789643E+00  0.11010641340E+01  0.11802908361E+01  0.00000000000E+00 0. -1.
         11    1    3    3    0    0 -0.87190781543E+01 -0.13494489973E+01 -0.32241751990E+00  0.88287762332E+01  0.51100000000E-03 0. -1.
        -11    1    3    3    0    0 -0.31896649802E+02  0.17220140912E+01 -0.18708673660E+02  0.37018590890E+02  0.51100000000E-03 0.  1.
         12    1    3    3    0    0  0.40350381543E+02 -0.70473299033E+00  0.17930027046E+02  0.44160342040E+02  0.00000000000E+00 0. -1.
</event>
<event>
 7    1  0.2000468E-015  0.9000754E+02  0.7816164E-02  0.1186339E+00
        -11   -1    0    0    0    0  0.00000000000E+00  0.00000000000E+00  0.45593999997E+02  0.45594000000E+02  0.51100000000E-03 0.  1.
         11   -1    0    0    0    0 -0.00000000000E+00 -0.00000000000E+00 -0.45593999997E+02  0.45594000000E+02  0.51100000000E-03 0. -1.
    9900012    2    1    2    0    0 -0.51426179747E+00  0.97337344376E+00  0.42609481781E+00  0.90007543372E+02  0.89999802144E+02 0.  0.
         12    1    1    2    0    0  0.51426179747E+00 -0.97337344376E+00 -0.42609481781E+00  0.11804566282E+01  0.00000000000E+00 0. -1.
         11    1    3    3    0    0  0.15104867004E+02 -0.25915884807E+02 -0.29114825938E+02  0.41802669559E+02  0.51100000000E-03 0. -1.
        -11    1    3    3    0    0  0.56189703104E+01  0.44258190482E+01  0.62606038457E+01  0.95055700708E+01  0.51100000000E-03 0.  1.
        -12    1    3    3    0    0 -0.21238099112E+02  0.22463439202E+02  0.23280316911E+02  0.38699303742E+02  0.00000000000E+00 0.  1.
</event>
<event>
 7    1  0.2000468E-015  0.9000771E+02  0.7816164E-02  0.1186339E+00
        -11   -1    0    0    0    0  0.00000000000E+00  0.00000000000E+00  0.45593999997E+02  0.45594000000E+02  0.51100000000E-03 0. -1.
         11   -1    0    0    0    0 -0.00000000000E+00 -0.00000000000E+00 -0.45593999997E+02  0.45594000000E+02  0.51100000000E-03 0.  1.
    9900012    2    1    2    0    0 -0.11445122613E+01  0.16342772036E+00  0.23760771161E+00  0.90007714289E+02  0.89999975317E+02 0.  0.
         12    1    1    2    0    0  0.11445122613E+01 -0.16342772036E+00 -0.23760771161E+00  0.11802857115E+01  0.00000000000E+00 0. -1.
         11    1    3    3    0    0  0.27087176307E+02 -0.23327924943E+02  0.21169100551E+02  0.41545613738E+02  0.51100000000E-03 0. -1.
        -11    1    3    3    0    0  0.23074095637E+01  0.99247104766E+01 -0.63209628062E+01  0.11990770951E+02  0.51100000000E-03 0.  1.
        -12    1    3    3    0    0 -0.30539098132E+02  0.13566642187E+02 -0.14610530033E+02  0.36471329600E+02  0.00000000000E+00 0.  1.
</event>
<event>
 7    1  0.2000468E-015  0.9000771E+02  0.7816164E-02  0.1186339E+00
        -11   -1    0    0    0    0  0.00000000000E+00  0.00000000000E+00  0.45593999997E+02  0.45594000000E+02  0.51100000000E-03 0. -1.
         11   -1    0    0    0    0 -0.00000000000E+00 -0.00000000000E+00 -0.45593999997E+02  0.45594000000E+02  0.51100000000E-03 0.  1.
    9900012    2    1    2    0    0 -0.19283200091E+00 -0.11530231649E+01 -0.16262688782E+00  0.90007705925E+02  0.89999966843E+02 0.  0.
         12    1    1    2    0    0  0.19283200091E+00  0.11530231649E+01  0.16262688782E+00  0.11802940752E+01  0.00000000000E+00 0. -1.
         11    1    3    3    0    0  0.28985833179E+01 -0.77229941229E+01 -0.60829241364E+01  0.10249311674E+02  0.51100000000E-03 0. -1.
        -11    1    3    3    0    0  0.69863597324E+00 -0.16206845575E+02 -0.31704458779E+02  0.35613517693E+02  0.51100000000E-03 0.  1.
         12    1    3    3    0    0 -0.37900512921E+01  0.22776816533E+02  0.37624756028E+02  0.44144876558E+02  0.00000000000E+00 0. -1.
</event>
<event>
 7    1  0.2000468E-015  0.9000779E+02  0.7816164E-02  0.1186339E+00
        -11   -1    0    0    0    0  0.00000000000E+00  0.00000000000E+00  0.45593999997E+02  0.45594000000E+02  0.51100000000E-03 0.  1.
         11   -1    0    0    0    0 -0.00000000000E+00 -0.00000000000E+00 -0.45593999997E+02  0.45594000000E+02  0.51100000000E-03 0. -1.
    9900012    2    1    2    0    0  0.75150529731E+00 -0.44569791234E+00  0.79341019072E+00  0.90007785371E+02  0.90000047337E+02 0.  0.
         12    1    1    2    0    0 -0.75150529731E+00  0.44569791234E+00 -0.79341019072E+00  0.11802146295E+01  0.00000000000E+00 0. -1.
         11    1    3    3    0    0  0.98432909806E+01 -0.10137516318E+02  0.36707934310E+02  0.39333599581E+02  0.51100000000E-03 0. -1.
        -11    1    3    3    0    0 -0.21710102100E+00 -0.15155020704E+00  0.63627242830E+01  0.63682305927E+01  0.51100000000E-03 0.  1.
        -12    1    3    3    0    0 -0.88746846623E+01  0.98433686125E+01 -0.42277248402E+02  0.44305955197E+02  0.00000000000E+00 0.  1.
</event>
<event>
 7    1  0.2000468E-015  0.9000770E+02  0.7816164E-02  0.1186339E+00
        -11   -1    0    0    0    0  0.00000000000E+00  0.00000000000E+00  0.45593999997E+02  0.45594000000E+02  0.51100000000E-03 0.  1.
         11   -1    0    0    0    0 -0.00000000000E+00 -0.00000000000E+00 -0.45593999997E+02  0.45594000000E+02  0.51100000000E-03 0. -1.
    9900012    2    1    2    0    0 -0.56074610837E+00 -0.79316778105E+00  0.67049180204E+00  0.90007698944E+02  0.89999959770E+02 0.  0.
         12    1    1    2    0    0  0.56074610837E+00  0.79316778105E+00 -0.67049180204E+00  0.11803010563E+01  0.00000000000E+00 0. -1.
         11    1    3    3    0    0  0.16876748558E+02  0.23069102549E+02 -0.22131968582E+02  0.36150133719E+02  0.51100000000E-03 0. -1.
        -11    1    3    3    0    0  0.21669926104E+01  0.42587914750E+01 -0.69718997011E+01  0.84522510318E+01  0.51100000000E-03 0.  1.
        -12    1    3    3    0    0 -0.19604487277E+02 -0.28121061805E+02  0.29774360085E+02  0.45405314193E+02  0.00000000000E+00 0.  1.
</event>
<event>
 7    1  0.2000468E-015  0.9000768E+02  0.7816164E-02  0.1186339E+00
        -11   -1    0    0    0    0  0.00000000000E+00  0.00000000000E+00  0.45593999997E+02  0.45594000000E+02  0.51100000000E-03 0.  1.
         11   -1    0    0    0    0 -0.00000000000E+00 -0.00000000000E+00 -0.45593999997E+02  0.45594000000E+02  0.51100000000E-03 0. -1.
    9900012    2    1    2    0    0 -0.13909184890E+00 -0.10954248270E+01 -0.41696125181E+00  0.90007678527E+02  0.89999939084E+02 0.  0.
         12    1    1    2    0    0  0.13909184890E+00  0.10954248270E+01  0.41696125181E+00  0.11803214730E+01  0.00000000000E+00 0. -1.
         11    1    3    3    0    0 -0.92850079642E+01  0.17303784231E+01 -0.27720276951E+01  0.98432576003E+01  0.51100000000E-03 0. -1.
        -11    1    3    3    0    0  0.28499621682E+02  0.29201083881E+02  0.99082006841E+01  0.41989334085E+02  0.51100000000E-03 0.  1.
         12    1    3    3    0    0 -0.19353705567E+02 -0.32026887131E+02 -0.75531342408E+01  0.38175086841E+02  0.00000000000E+00 0. -1.
</event>
<event>
 7    1  0.2000468E-015  0.9000783E+02  0.7816164E-02  0.1186339E+00
        -11   -1    0    0    0    0  0.00000000000E+00  0.00000000000E+00  0.45593999997E+02  0.45594000000E+02  0.51100000000E-03 0.  1.
         11   -1    0    0    0    0 -0.00000000000E+00 -0.00000000000E+00 -0.45593999997E+02  0.45594000000E+02  0.51100000000E-03 0. -1.
    9900012    2    1    2    0    0  0.38943375791E+00  0.67311848413E+00 -0.88772637489E+00  0.90007828291E+02  0.90000090825E+02 0.  0.
         12    1    1    2    0    0 -0.38943375791E+00 -0.67311848413E+00  0.88772637489E+00  0.11801717088E+01  0.00000000000E+00 0. -1.
         11    1    3    3    0    0  0.84134811493E+01 -0.57714259803E+01  0.38619411848E+01  0.10909198544E+02  0.51100000000E-03 0. -1.
        -11    1    3    3    0    0 -0.59543047848E+01  0.21482991428E+02  0.32193295838E+02  0.39158408590E+02  0.51100000000E-03 0.  1.
         12    1    3    3    0    0 -0.20697426066E+01 -0.15038446963E+02 -0.36942963397E+02  0.39940221157E+02  0.00000000000E+00 0. -1.
</event>
<event>
 7    1  0.2000468E-015  0.9000775E+02  0.7816164E-02  0.1186339E+00
        -11   -1    0    0    0    0  0.00000000000E+00  0.00000000000E+00  0.45593999997E+02  0.45594000000E+02  0.51100000000E-03 0. -1.
         11   -1    0    0    0    0 -0.00000000000E+00 -0.00000000000E+00 -0.45593999997E+02  0.45594000000E+02  0.51100000000E-03 0.  1.
    9900012    2    1    2    0    0  0.11660410758E+01 -0.17124859092E+00  0.63330483612E-01  0.90007750611E+02  0.90000012119E+02 0.  0.
         12    1    1    2    0    0 -0.11660410758E+01  0.17124859092E+00 -0.63330483612E-01  0.11802493891E+01  0.00000000000E+00 0. -1.
         11    1    3    3    0    0  0.15340387967E+02 -0.38438131863E+01  0.29919524965E+02  0.33841991330E+02  0.51100000000E-03 0. -1.
        -11    1    3    3    0    0  0.11442964367E+02 -0.55126123104E+01  0.34435410528E+01  0.13160102706E+02  0.51100000000E-03 0.  1.
        -12    1    3    3    0    0 -0.25617311258E+02  0.91851769058E+01 -0.33299735534E+02  0.43005656576E+02  0.00000000000E+00 0.  1.
</event>
<event>
 7    1  0.2000468E-015  0.9000747E+02  0.7816164E-02  0.1186340E+00
        -11   -1    0    0    0    0  0.00000000000E+00  0.00000000000E+00  0.45593999997E+02  0.45594000000E+02  0.51100000000E-03 0. -1.
         11   -1    0    0    0    0 -0.00000000000E+00 -0.00000000000E+00 -0.45593999997E+02  0.45594000000E+02  0.51100000000E-03 0.  1.
    9900012    2    1    2    0    0  0.56395906843E+00 -0.41094800105E+00 -0.95221878941E+00  0.90007471003E+02  0.89999728820E+02 0.  0.
         12    1    1    2    0    0 -0.56395906843E+00  0.41094800105E+00  0.95221878941E+00  0.11805289972E+01  0.00000000000E+00 0. -1.
         11    1    3    3    0    0 -0.22285769782E+02  0.23540399050E+02  0.12377248974E+02  0.34698735058E+02  0.51100000000E-03 0. -1.
        -11    1    3    3    0    0 -0.45685083360E+01  0.83879009659E+01  0.27890730233E+01  0.99502301291E+01  0.51100000000E-03 0.  1.
        -12    1    3    3    0    0  0.27418237186E+02 -0.32339248017E+02 -0.16118540787E+02  0.45358505816E+02  0.00000000000E+00 0.  1.
</event>
<event>
 7    1  0.2000468E-015  0.9000767E+02  0.7816164E-02  0.1186339E+00
        -11   -1    0    0    0    0  0.00000000000E+00  0.00000000000E+00  0.45593999997E+02  0.45594000000E+02  0.51100000000E-03 0. -1.
         11   -1    0    0    0    0 -0.00000000000E+00 -0.00000000000E+00 -0.45593999997E+02  0.45594000000E+02  0.51100000000E-03 0.  1.
    9900012    2    1    2    0    0 -0.41841688085E+00  0.10904531179E+01 -0.17032275268E+00  0.90007673550E+02  0.89999934041E+02 0.  0.
         12    1    1    2    0    0  0.41841688085E+00 -0.10904531179E+01  0.17032275268E+00  0.11803264500E+01  0.00000000000E+00 0. -1.
         11    1    3    3    0    0  0.37956600506E+02 -0.33394021474E+01 -0.79828197156E+01  0.38930457736E+02  0.51100000000E-03 0. -1.
        -11    1    3    3    0    0 -0.83587393688E+01 -0.13225973497E+02  0.20472716660E+01  0.15779297206E+02  0.51100000000E-03 0.  1.
        -12    1    3    3    0    0 -0.30016278018E+02  0.17655828762E+02  0.57652252969E+01  0.35297918608E+02  0.00000000000E+00 0.  1.
</event>
<event>
 7    1  0.2000468E-015  0.9000806E+02  0.7816164E-02  0.1186338E+00
        -11   -1    0    0    0    0  0.00000000000E+00  0.00000000000E+00  0.45593999997E+02  0.45594000000E+02  0.51100000000E-03 0.  1.
         11   -1    0    0    0    0 -0.00000000000E+00 -0.00000000000E+00 -0.45593999997E+02  0.45594000000E+02  0.51100000000E-03 0. -1.
    9900012    2    1    2    0    0  0.23161801876E+00  0.48236311428E+00  0.10516393129E+01  0.90008056643E+02  0.90000322190E+02 0.  0.
         12    1    1    2    0    0 -0.23161801876E+00 -0.48236311428E+00 -0.10516393129E+01  0.11799433568E+01  0.00000000000E+00 0. -1.
         11    1    3    3    0    0  0.83862384613E+01  0.93205495221E+00  0.32927074438E+01  0.90575738769E+01  0.51100000000E-03 0. -1.
        -11    1    3    3    0    0  0.32622562828E+02  0.10267979787E+02 -0.14342539673E+02  0.37086000848E+02  0.51100000000E-03 0.  1.
         12    1    3    3    0    0 -0.40777183270E+02 -0.10717671625E+02  0.12101471542E+02  0.43864481919E+02  0.00000000000E+00 0. -1.
</event>
<event>
 7    1  0.2000468E-015  0.9000768E+02  0.7816164E-02  0.1186339E+00
        -11   -1    0    0    0    0  0.00000000000E+00  0.00000000000E+00  0.45593999997E+02  0.45594000000E+02  0.51100000000E-03 0.  1.
         11   -1    0    0    0    0 -0.00000000000E+00 -0.00000000000E+00 -0.45593999997E+02  0.45594000000E+02  0.51100000000E-03 0. -1.
    9900012    2    1    2    0    0  0.10363163108E+01 -0.51045782288E+00  0.24213082818E+00  0.90007683931E+02  0.89999944559E+02 0.  0.
         12    1    1    2    0    0 -0.10363163108E+01  0.51045782288E+00 -0.24213082818E+00  0.11803160691E+01  0.00000000000E+00 0. -1.
         11    1    3    3    0    0  0.31901762390E+00  0.81366044078E+01  0.38506694366E+01  0.90074279850E+01  0.51100000000E-03 0. -1.
        -11    1    3    3    0    0 -0.25568685180E+02  0.19622946055E+02  0.17840755720E+02  0.36838977166E+02  0.51100000000E-03 0.  1.
         12    1    3    3    0    0  0.26285983867E+02 -0.28270008286E+02 -0.21449294328E+02  0.44161278780E+02  0.00000000000E+00 0. -1.
</event>
<event>
 7    1  0.2000468E-015  0.9000785E+02  0.7816164E-02  0.1186339E+00
        -11   -1    0    0    0    0  0.00000000000E+00  0.00000000000E+00  0.45593999997E+02  0.45594000000E+02  0.51100000000E-03 0.  1.
         11   -1    0    0    0    0 -0.00000000000E+00 -0.00000000000E+00 -0.45593999997E+02  0.45594000000E+02  0.51100000000E-03 0. -1.
    9900012    2    1    2    0    0  0.11027770601E+01  0.33045684417E+00 -0.25967118401E+00  0.90007852512E+02  0.90000115365E+02 0.  0.
         12    1    1    2    0    0 -0.11027770601E+01 -0.33045684417E+00  0.25967118401E+00  0.11801474883E+01  0.00000000000E+00 0. -1.
         11    1    3    3    0    0  0.40979753931E+01 -0.21758507179E+02 -0.20844511067E+02  0.30409203851E+02  0.51100000000E-03 0. -1.
        -11    1    3    3    0    0 -0.24597421985E+02  0.89862363738E+01 -0.12332322244E+01  0.26216530557E+02  0.51100000000E-03 0.  1.
         12    1    3    3    0    0  0.21602223652E+02  0.13102727650E+02  0.21818072107E+02  0.33382118103E+02  0.00000000000E+00 0. -1.
</event>
<event>
 7    1  0.2000468E-015  0.9000769E+02  0.7816164E-02  0.1186339E+00
        -11   -1    0    0    0    0  0.00000000000E+00  0.00000000000E+00  0.45593999997E+02  0.45594000000E+02  0.51100000000E-03 0.  1.
         11   -1    0    0    0    0 -0.00000000000E+00 -0.00000000000E+00 -0.45593999997E+02  0.45594000000E+02  0.51100000000E-03 0. -1.
    9900012    2    1    2    0    0  0.53025208211E+00 -0.18097921475E-01  0.10543413170E+01  0.90007690541E+02  0.89999951257E+02 0.  0.
         12    1    1    2    0    0 -0.53025208211E+00  0.18097921475E-01 -0.10543413170E+01  0.11803094586E+01  0.00000000000E+00 0. -1.
         11    1    3    3    0    0  0.18441215040E+02  0.25378631855E+01 -0.32530951829E+02  0.37480421407E+02  0.51100000000E-03 0. -1.
        -11    1    3    3    0    0 -0.11286552735E+01 -0.89943449836E+01 -0.47156963110E+01  0.10218116087E+02  0.51100000000E-03 0.  1.
        -12    1    3    3    0    0 -0.16782307685E+02  0.64383838766E+01  0.38300989457E+02  0.42309153047E+02  0.00000000000E+00 0.  1.
</event>
<event>
 7    1  0.2000468E-015  0.9000773E+02  0.7816164E-02  0.1186339E+00
        -11   -1    0    0    0    0  0.00000000000E+00  0.00000000000E+00  0.45593999997E+02  0.45594000000E+02  0.51100000000E-03 0. -1.
         11   -1    0    0    0    0 -0.00000000000E+00 -0.00000000000E+00 -0.45593999997E+02  0.45594000000E+02  0.51100000000E-03 0.  1.
    9900012    2    1    2    0    0 -0.86477581905E+00  0.78344339164E+00 -0.17721452651E+00  0.90007734880E+02  0.89999996180E+02 0.  0.
         12    1    1    2    0    0  0.86477581905E+00 -0.78344339164E+00  0.17721452651E+00  0.11802651200E+01  0.00000000000E+00 0. -1.
         11    1    3    3    0    0 -0.26646766003E+02 -0.23486277256E+02 -0.11686587703E+02  0.37392936367E+02  0.51100000000E-03 0. -1.
        -11    1    3    3    0    0 -0.54230002841E+01 -0.57233805327E+01  0.33676262273E+01  0.85736178753E+01  0.51100000000E-03 0.  1.
        -12    1    3    3    0    0  0.31204990468E+02  0.29993101181E+02  0.81417469494E+01  0.44041180637E+02  0.00000000000E+00 0.  1.
</event>
<event>
 7    1  0.2000468E-015  0.9000771E+02  0.7816164E-02  0.1186339E+00
        -11   -1    0    0    0    0  0.00000000000E+00  0.00000000000E+00  0.45593999997E+02  0.45594000000E+02  0.51100000000E-03 0. -1.
         11   -1    0    0    0    0 -0.00000000000E+00 -0.00000000000E+00 -0.45593999997E+02  0.45594000000E+02  0.51100000000E-03 0.  1.
    9900012    2    1    2    0    0  0.60674310628E+00 -0.84880536532E+00  0.55179972879E+00  0.90007707373E+02  0.89999968310E+02 0.  0.
         12    1    1    2    0    0 -0.60674310628E+00  0.84880536532E+00 -0.55179972879E+00  0.11802926272E+01  0.00000000000E+00 0. -1.
         11    1    3    3    0    0  0.76378475348E+01 -0.36900652756E+01  0.63848724734E+00  0.85065247269E+01  0.51100000000E-03 0. -1.
        -11    1    3    3    0    0 -0.12819526987E+02 -0.37697247477E+02 -0.54993077813E+01  0.40195337115E+02  0.51100000000E-03 0.  1.
         12    1    3    3    0    0  0.57884225584E+01  0.40538507387E+02  0.54126202628E+01  0.41305845530E+02  0.00000000000E+00 0. -1.
</event>
<event>
 7    1  0.2000468E-015  0.9000780E+02  0.7816164E-02  0.1186339E+00
        -11   -1    0    0    0    0  0.00000000000E+00  0.00000000000E+00  0.45593999997E+02  0.45594000000E+02  0.51100000000E-03 0.  1.
         11   -1    0    0    0    0 -0.00000000000E+00 -0.00000000000E+00 -0.45593999997E+02  0.45594000000E+02  0.51100000000E-03 0. -1.
    9900012    2    1    2    0    0 -0.24507504478E+00 -0.10226946642E+01 -0.53562910934E+00  0.90007803111E+02  0.90000065312E+02 0.  0.
         12    1    1    2    0    0  0.24507504478E+00  0.10226946642E+01  0.53562910934E+00  0.11801968889E+01  0.00000000000E+00 0. -1.
         11    1    3    3    0    0 -0.42573889055E+01  0.17261763991E+02 -0.11842858205E+02  0.21362283284E+02  0.51100000000E-03 0. -1.
        -11    1    3    3    0    0 -0.10285491042E+02 -0.82531708624E+01  0.36034585942E+02  0.38371832632E+02  0.51100000000E-03 0.  1.
         12    1    3    3    0    0  0.14297804902E+02 -0.10031287793E+02 -0.24727356846E+02  0.30273687196E+02  0.00000000000E+00 0. -1.
</event>
<event>
 7    1  0.2000468E-015  0.9000786E+02  0.7816164E-02  0.1186339E+00
        -11   -1    0    0    0    0  0.00000000000E+00  0.00000000000E+00  0.45593999997E+02  0.45594000000E+02  0.51100000000E-03 0.  1.
         11   -1    0    0    0    0 -0.00000000000E+00 -0.00000000000E+00 -0.45593999997E+02  0.45594000000E+02  0.51100000000E-03 0. -1.
    9900012    2    1    2    0    0  0.54200663631E+00 -0.10466144384E+01  0.59595697496E-01  0.90007862456E+02  0.90000125440E+02 0.  0.
         12    1    1    2    0    0 -0.54200663631E+00  0.10466144384E+01 -0.59595697496E-01  0.11801375444E+01  0.00000000000E+00 0. -1.
         11    1    3    3    0    0 -0.91447840066E+01  0.36339526968E+01  0.15922122885E+01  0.99683412343E+01  0.51100000000E-03 0. -1.
        -11    1    3    3    0    0 -0.23882919645E+02 -0.53621880494E+01  0.26662818327E+02  0.36194651440E+02  0.51100000000E-03 0.  1.
         12    1    3    3    0    0  0.33569710288E+02  0.68162091421E+00 -0.28195434918E+02  0.43844869781E+02  0.00000000000E+00 0. -1.
</event>
<event>
 7    1  0.2000468E-015  0.9000774E+02  0.7816164E-02  0.1186339E+00
        -11   -1    0    0    0    0  0.00000000000E+00  0.00000000000E+00  0.45593999997E+02  0.45594000000E+02  0.51100000000E-03 0.  1.
         11   -1    0    0    0    0 -0.00000000000E+00 -0.00000000000E+00 -0.45593999997E+02  0.45594000000E+02  0.51100000000E-03 0. -1.
    9900012    2    1    2    0    0  0.46861362138E-01 -0.81452098259E+00  0.85285511874E+00  0.90007744828E+02  0.90000006259E+02 0.  0.
         12    1    1    2    0    0 -0.46861362138E-01  0.81452098259E+00 -0.85285511874E+00  0.11802551724E+01  0.00000000000E+00 0. -1.
         11    1    3    3    0    0  0.39991739602E+01  0.57977918160E+01 -0.70537585104E+01  0.99681137478E+01  0.51100000000E-03 0. -1.
        -11    1    3    3    0    0  0.15616837313E+02 -0.78673869036E+01  0.39305887433E+02  0.43020160059E+02  0.51100000000E-03 0.  1.
         12    1    3    3    0    0 -0.19569149912E+02  0.12550741050E+01 -0.31399273804E+02  0.37019471021E+02  0.00000000000E+00 0. -1.
</event>
<event>
 7    1  0.2000468E-015  0.9000771E+02  0.7816164E-02  0.1186339E+00
        -11   -1    0    0    0    0  0.00000000000E+00  0.00000000000E+00  0.45593999997E+02  0.45594000000E+02  0.51100000000E-03 0.  1.
         11   -1    0    0    0    0 -0.00000000000E+00 -0.00000000000E+00 -0.45593999997E+02  0.45594000000E+02  0.51100000000E-03 0. -1.
    9900012    2    1    2    0    0 -0.80660914010E-01  0.77505435472E+00  0.88649236742E+00  0.90007710140E+02  0.89999971114E+02 0.  0.
         12    1    1    2    0    0  0.80660914010E-01 -0.77505435472E+00 -0.88649236742E+00  0.11802898599E+01  0.00000000000E+00 0. -1.
         11    1    3    3    0    0  0.41516843754E+01 -0.28375804399E+01  0.83301050989E+01  0.97303133107E+01  0.51100000000E-03 0. -1.
        -11    1    3    3    0    0 -0.12216614269E+02 -0.21209496985E+02  0.27411260866E+02  0.36748682276E+02  0.51100000000E-03 0.  1.
         12    1    3    3    0    0  0.79842689792E+01  0.24822131779E+02 -0.34854873597E+02  0.43528714553E+02  0.00000000000E+00 0. -1.
</event>
<event>
 7    1  0.2000468E-015  0.9000777E+02  0.7816164E-02  0.1186339E+00
        -11   -1    0    0    0    0  0.00000000000E+00  0.00000000000E+00  0.45593999997E+02  0.45594000000E+02  0.51100000000E-03 0. -1.
         11   -1    0    0    0    0 -0.00000000000E+00 -0.00000000000E+00 -0.45593999997E+02  0.45594000000E+02  0.51100000000E-03 0.  1.
    9900012    2    1    2    0    0 -0.63025168081E+00 -0.91252977225E+00  0.40373754478E+00  0.90007774695E+02  0.90000036521E+02 0.  0.
         12    1    1    2    0    0  0.63025168081E+00  0.91252977225E+00 -0.40373754478E+00  0.11802253054E+01  0.00000000000E+00 0. -1.
         11    1    3    3    0    0  0.48672799094E+01 -0.29899016850E+00  0.83654328145E+01  0.96829889637E+01  0.51100000000E-03 0. -1.
        -11    1    3    3    0    0  0.24755671776E+01 -0.34577691067E+02 -0.23759830329E+02  0.42027070917E+02  0.51100000000E-03 0.  1.
         12    1    3    3    0    0 -0.79730987678E+01  0.33964151463E+02  0.15798135059E+02  0.38297714813E+02  0.00000000000E+00 0. -1.
</event>
<event>
 7    1  0.2000468E-015  0.9000761E+02  0.7816164E-02  0.1186339E+00
        -11   -1    0    0    0    0  0.00000000000E+00  0.00000000000E+00  0.45593999997E+02  0.45594000000E+02  0.51100000000E-03 0.  1.
         11   -1    0    0    0    0 -0.00000000000E+00 -0.00000000000E+00 -0.45593999997E+02  0.45594000000E+02  0.51100000000E-03 0. -1.
    9900012    2    1    2    0    0 -0.50362466925E+00 -0.10612010259E+01  0.11630621379E+00  0.90007613385E+02  0.89999873082E+02 0.  0.
         12    1    1    2    0    0  0.50362466925E+00  0.10612010259E+01 -0.11630621379E+00  0.11803866147E+01  0.00000000000E+00 0. -1.
         11    1    3    3    0    0  0.73833702785E+00 -0.55600970152E+01 -0.35398359295E+02  0.35839972955E+02  0.51100000000E-03 0. -1.
        -11    1    3    3    0    0  0.13209168860E+02  0.14342765399E+02  0.69965887487E+01  0.20715919377E+02  0.51100000000E-03 0.  1.
        -12    1    3    3    0    0 -0.14451130557E+02 -0.98438694100E+01  0.28518076760E+02  0.33451721053E+02  0.00000000000E+00 0.  1.
</event>
<event>
 7    1  0.2000468E-015  0.9000869E+02  0.7816164E-02  0.1186337E+00
        -11   -1    0    0    0    0  0.00000000000E+00  0.00000000000E+00  0.45593999997E+02  0.45594000000E+02  0.51100000000E-03 0. -1.
         11   -1    0    0    0    0 -0.00000000000E+00 -0.00000000000E+00 -0.45593999997E+02  0.45594000000E+02  0.51100000000E-03 0.  1.
    9900012    2    1    2    0    0 -0.24133408718E+00 -0.52771124181E+00 -0.10266723308E+01  0.90008687755E+02  0.90000961628E+02 0.  0.
         12    1    1    2    0    0  0.24133408718E+00  0.52771124181E+00  0.10266723308E+01  0.11793122450E+01  0.00000000000E+00 0. -1.
         11    1    3    3    0    0 -0.87646373693E+01  0.33127681875E+01 -0.74542841737E+00  0.93994130171E+01  0.51100000000E-03 0. -1.
        -11    1    3    3    0    0 -0.15639524373E+02  0.28413072364E+02  0.17164267765E+02  0.36694815601E+02  0.51100000000E-03 0.  1.
         12    1    3    3    0    0  0.24162827655E+02 -0.32253551794E+02 -0.17445511678E+02  0.43914459137E+02  0.00000000000E+00 0. -1.
</event>
<event>
 7    1  0.2000468E-015  0.9000782E+02  0.7816164E-02  0.1186339E+00
        -11   -1    0    0    0    0  0.00000000000E+00  0.00000000000E+00  0.45593999997E+02  0.45594000000E+02  0.51100000000E-03 0.  1.
         11   -1    0    0    0    0 -0.00000000000E+00 -0.00000000000E+00 -0.45593999997E+02  0.45594000000E+02  0.51100000000E-03 0. -1.
    9900012    2    1    2    0    0 -0.10534055868E+01 -0.84865507097E-01 -0.52531777644E+00  0.90007820246E+02  0.90000082674E+02 0.  0.
         12    1    1    2    0    0  0.10534055868E+01  0.84865507097E-01  0.52531777644E+00  0.11801797537E+01  0.00000000000E+00 0. -1.
         11    1    3    3    0    0 -0.61175334721E+01 -0.18755877121E+01  0.52282517891E+01  0.82629693258E+01  0.51100000000E-03 0. -1.
        -11    1    3    3    0    0 -0.10373458215E+02  0.25093699840E+02  0.27267393210E+02  0.38481334953E+02  0.51100000000E-03 0.  1.
         12    1    3    3    0    0  0.15437586100E+02 -0.23302977635E+02 -0.33020962775E+02  0.43263515968E+02  0.00000000000E+00 0. -1.
</event>
<event>
 7    1  0.2000468E-015  0.9000776E+02  0.7816164E-02  0.1186339E+00
        -11   -1    0    0    0    0  0.00000000000E+00  0.00000000000E+00  0.45593999997E+02  0.45594000000E+02  0.51100000000E-03 0.  1.
         11   -1    0    0    0    0 -0.00000000000E+00 -0.00000000000E+00 -0.45593999997E+02  0.45594000000E+02  0.51100000000E-03 0. -1.
    9900012    2    1    2    0    0 -0.79892747575E-01 -0.11572371721E+01  0.21766353130E+00  0.90007763525E+02  0.90000025204E+02 0.  0.
         12    1    1    2    0    0  0.79892747575E-01  0.11572371721E+01 -0.21766353130E+00  0.11802364748E+01  0.00000000000E+00 0. -1.
         11    1    3    3    0    0  0.73522844551E+00 -0.11023428826E+00 -0.11543578566E+02  0.11567494060E+02  0.51100000000E-03 0. -1.
        -11    1    3    3    0    0 -0.38809055549E+02 -0.35297409677E+01  0.10435166641E+02  0.40342218172E+02  0.51100000000E-03 0.  1.
         12    1    3    3    0    0  0.37993934356E+02  0.24827380839E+01  0.13260754563E+01  0.38098051294E+02  0.00000000000E+00 0. -1.
</event>
<event>
 7    1  0.2000468E-015  0.9000778E+02  0.7816164E-02  0.1186339E+00
        -11   -1    0    0    0    0  0.00000000000E+00  0.00000000000E+00  0.45593999997E+02  0.45594000000E+02  0.51100000000E-03 0.  1.
         11   -1    0    0    0    0 -0.00000000000E+00 -0.00000000000E+00 -0.45593999997E+02  0.45594000000E+02  0.51100000000E-03 0. -1.
    9900012    2    1    2    0    0 -0.67809084026E+00 -0.24421400967E+00  0.93459640738E+00  0.90007780480E+02  0.90000042383E+02 0.  0.
         12    1    1    2    0    0  0.67809084026E+00  0.24421400967E+00 -0.93459640738E+00  0.11802195198E+01  0.00000000000E+00 0. -1.
         11    1    3    3    0    0  0.21092382183E+01 -0.50142226745E+01 -0.70344637778E+01  0.88924122595E+01  0.51100000000E-03 0. -1.
        -11    1    3    3    0    0  0.32448594219E+02 -0.23261492162E+01  0.25300092653E+02  0.41211854186E+02  0.51100000000E-03 0.  1.
         12    1    3    3    0    0 -0.35235923278E+02  0.70961578810E+01 -0.17331032467E+02  0.39903514034E+02  0.00000000000E+00 0. -1.
</event>
<event>
 7    1  0.2000468E-015  0.9000787E+02  0.7816164E-02  0.1186339E+00
        -11   -1    0    0    0    0  0.00000000000E+00  0.00000000000E+00  0.45593999997E+02  0.45594000000E+02  0.51100000000E-03 0.  1.
         11   -1    0    0    0    0 -0.00000000000E+00 -0.00000000000E+00 -0.45593999997E+02  0.45594000000E+02  0.51100000000E-03 0. -1.
    9900012    2    1    2    0    0  0.33267399990E+00 -0.10439005770E+01  0.43851990054E+00  0.90007872842E+02  0.90000135964E+02 0.  0.
         12    1    1    2    0    0 -0.33267399990E+00  0.10439005770E+01 -0.43851990054E+00  0.11801271575E+01  0.00000000000E+00 0. -1.
         11    1    3    3    0    0  0.22454176263E+01  0.59974643787E+01  0.12191411716E+02  0.13771056575E+02  0.51100000000E-03 0. -1.
        -11    1    3    3    0    0  0.37291982634E+01  0.24974784577E+02  0.18910615296E+02  0.31547712365E+02  0.51100000000E-03 0.  1.
         12    1    3    3    0    0 -0.56419418898E+01 -0.32016149533E+02 -0.30663507112E+02  0.44689103902E+02  0.00000000000E+00 0. -1.
</event>
<event>
 7    1  0.2000468E-015  0.9000769E+02  0.7816164E-02  0.1186339E+00
        -11   -1    0    0    0    0  0.00000000000E+00  0.00000000000E+00  0.45593999997E+02  0.45594000000E+02  0.51100000000E-03 0.  1.
         11   -1    0    0    0    0 -0.00000000000E+00 -0.00000000000E+00 -0.45593999997E+02  0.45594000000E+02  0.51100000000E-03 0. -1.
    9900012    2    1    2    0    0  0.33179093779E+00  0.27221032946E+00  0.10995248382E+01  0.90007687093E+02  0.89999947762E+02 0.  0.
         12    1    1    2    0    0 -0.33179093779E+00 -0.27221032946E+00 -0.10995248382E+01  0.11803129075E+01  0.00000000000E+00 0. -1.
         11    1    3    3    0    0 -0.11622541793E+02 -0.29839778365E+02 -0.21241873541E+02  0.38428024180E+02  0.51100000000E-03 0. -1.
        -11    1    3    3    0    0  0.68355107239E+01  0.13036658799E+00 -0.66666572274E+01  0.95491110137E+01  0.51100000000E-03 0.  1.
        -12    1    3    3    0    0  0.51188220066E+01  0.29981622106E+02  0.29008055607E+02  0.42030551899E+02  0.00000000000E+00 0.  1.
</event>
<event>
 7    1  0.2000468E-015  0.9000774E+02  0.7816164E-02  0.1186339E+00
        -11   -1    0    0    0    0  0.00000000000E+00  0.00000000000E+00  0.45593999997E+02  0.45594000000E+02  0.51100000000E-03 0.  1.
         11   -1    0    0    0    0 -0.00000000000E+00 -0.00000000000E+00 -0.45593999997E+02  0.45594000000E+02  0.51100000000E-03 0. -1.
    9900012    2    1    2    0    0 -0.91575124407E-01 -0.11536791597E+01  0.23162592049E+00  0.90007740633E+02  0.90000002009E+02 0.  0.
         12    1    1    2    0    0  0.91575124407E-01  0.11536791597E+01 -0.23162592049E+00  0.11802593672E+01  0.00000000000E+00 0. -1.
         11    1    3    3    0    0  0.15153936169E+02 -0.24902930288E+01  0.94405743391E+01  0.18026862869E+02  0.51100000000E-03 0. -1.
        -11    1    3    3    0    0 -0.31476018963E+02  0.10606758580E+01  0.20883953928E+02  0.37788944613E+02  0.51100000000E-03 0.  1.
         12    1    3    3    0    0  0.16230507670E+02  0.27593801111E+00 -0.30092902346E+02  0.34191933151E+02  0.00000000000E+00 0. -1.
</event>
<event>
 7    1  0.2000468E-015  0.9000781E+02  0.7816164E-02  0.1186339E+00
        -11   -1    0    0    0    0  0.00000000000E+00  0.00000000000E+00  0.45593999997E+02  0.45594000000E+02  0.51100000000E-03 0.  1.
         11   -1    0    0    0    0 -0.00000000000E+00 -0.00000000000E+00 -0.45593999997E+02  0.45594000000E+02  0.51100000000E-03 0. -1.
    9900012    2    1    2    0    0 -0.11077650331E+01  0.35065738986E+00 -0.20673984069E+00  0.90007811314E+02  0.90000073623E+02 0.  0.
         12    1    1    2    0    0  0.11077650331E+01 -0.35065738986E+00  0.20673984069E+00  0.11801886863E+01  0.00000000000E+00 0. -1.
         11    1    3    3    0    0  0.38450737272E+00  0.13922848648E+01  0.10264629346E+02  0.10365757037E+02  0.51100000000E-03 0. -1.
        -11    1    3    3    0    0 -0.38388174619E+01  0.18985771686E+02  0.29257760923E+02  0.35088639479E+02  0.51100000000E-03 0.  1.
         12    1    3    3    0    0  0.23465450561E+01 -0.20027399160E+02 -0.39729130110E+02  0.44553414798E+02  0.00000000000E+00 0. -1.
</event>
<event>
 7    1  0.2000468E-015  0.9000777E+02  0.7816164E-02  0.1186339E+00
        -11   -1    0    0    0    0  0.00000000000E+00  0.00000000000E+00  0.45593999997E+02  0.45594000000E+02  0.51100000000E-03 0. -1.
         11   -1    0    0    0    0 -0.00000000000E+00 -0.00000000000E+00 -0.45593999997E+02  0.45594000000E+02  0.51100000000E-03 0.  1.
    9900012    2    1    2    0    0 -0.68697624416E-01  0.76351502211E+00 -0.89736259865E+00  0.90007773672E+02  0.90000035484E+02 0.  0.
         12    1    1    2    0    0  0.68697624416E-01 -0.76351502211E+00  0.89736259865E+00  0.11802263283E+01  0.00000000000E+00 0. -1.
         11    1    3    3    0    0 -0.76167454302E+01 -0.46093331109E+01  0.28007490644E+01  0.93330037104E+01  0.51100000000E-03 0. -1.
        -11    1    3    3    0    0 -0.34648798091E+02 -0.34538609048E+01 -0.11887322605E+02  0.36793706028E+02  0.51100000000E-03 0.  1.
         12    1    3    3    0    0  0.42196845897E+02  0.88267090378E+01  0.81892109414E+01  0.43881063933E+02  0.00000000000E+00 0. -1.
</event>
<event>
 7    1  0.2000468E-015  0.9000729E+02  0.7816164E-02  0.1186340E+00
        -11   -1    0    0    0    0  0.00000000000E+00  0.00000000000E+00  0.45593999997E+02  0.45594000000E+02  0.51100000000E-03 0. -1.
         11   -1    0    0    0    0 -0.00000000000E+00 -0.00000000000E+00 -0.45593999997E+02  0.45594000000E+02  0.51100000000E-03 0.  1.
    9900012    2    1    2    0    0  0.99787777034E+00  0.34965384254E-01  0.63015515924E+00  0.90007289135E+02  0.89999544550E+02 0.  0.
         12    1    1    2    0    0 -0.99787777034E+00 -0.34965384254E-01 -0.63015515924E+00  0.11807108653E+01  0.00000000000E+00 0. -1.
         11    1    3    3    0    0 -0.53012438821E+01 -0.67997718790E+01  0.11391751222E+00  0.86228221462E+01  0.51100000000E-03 0. -1.
        -11    1    3    3    0    0  0.43921525392E+01 -0.17064533569E+02 -0.34620891318E+02  0.38847077442E+02  0.51100000000E-03 0.  1.
         12    1    3    3    0    0  0.19069691132E+01  0.23899270833E+02  0.35137128965E+02  0.42537389547E+02  0.00000000000E+00 0. -1.
</event>
<event>
 7    1  0.2000468E-015  0.9000788E+02  0.7816164E-02  0.1186339E+00
        -11   -1    0    0    0    0  0.00000000000E+00  0.00000000000E+00  0.45593999997E+02  0.45594000000E+02  0.51100000000E-03 0.  1.
         11   -1    0    0    0    0 -0.00000000000E+00 -0.00000000000E+00 -0.45593999997E+02  0.45594000000E+02  0.51100000000E-03 0. -1.
    9900012    2    1    2    0    0 -0.20945163949E+00 -0.90215770137E+00  0.73138122380E+00  0.90007882632E+02  0.90000145883E+02 0.  0.
         12    1    1    2    0    0  0.20945163949E+00  0.90215770137E+00 -0.73138122380E+00  0.11801173679E+01  0.00000000000E+00 0. -1.
         11    1    3    3    0    0  0.76690805101E+01  0.49009887631E+01  0.71232935504E-01  0.91016240924E+01  0.51100000000E-03 0. -1.
        -11    1    3    3    0    0  0.19044542295E+02 -0.35525795033E+02  0.47835659284E+01  0.40591368629E+02  0.51100000000E-03 0.  1.
         12    1    3    3    0    0 -0.26923074445E+02  0.29722648568E+02 -0.41234176401E+01  0.40314889911E+02  0.00000000000E+00 0. -1.
</event>
<event>
 7    1  0.2201552E-015  0.9000769E+02  0.7816164E-02  0.1186339E+00
        -11   -1    0    0    0    0  0.00000000000E+00  0.00000000000E+00  0.45593999997E+02  0.45594000000E+02  0.51100000000E-03 0. -1.
         11   -1    0    0    0    0 -0.00000000000E+00 -0.00000000000E+00 -0.45593999997E+02  0.45594000000E+02  0.51100000000E-03 0.  1.
    9900012    2    1    2    0    0 -0.19596447609E+00  0.11557308943E+01 -0.13793795059E+00  0.90007685273E+02  0.89999945919E+02 0.  0.
         12    1    1    2    0    0  0.19596447609E+00 -0.11557308943E+01  0.13793795059E+00  0.11803147267E+01  0.00000000000E+00 0. -1.
         11    1    3    3    0    0  0.58505146474E+01  0.37195867520E+02  0.58089240618E+01  0.38098617839E+02  0.51100000000E-03 0. -1.
        -11    1    3    3    0    0  0.18541594777E+01  0.49753459012E+01 -0.85434501019E+01  0.10058951939E+02  0.51100000000E-03 0.  1.
        -12    1    3    3    0    0 -0.79006386012E+01 -0.41015482527E+02  0.25965880895E+01  0.41850115495E+02  0.00000000000E+00 0.  1.
</event>
<event>
 7    1  0.2000468E-015  0.9000708E+02  0.7816164E-02  0.1186340E+00
        -11   -1    0    0    0    0  0.00000000000E+00  0.00000000000E+00  0.45593999997E+02  0.45594000000E+02  0.51100000000E-03 0. -1.
         11   -1    0    0    0    0 -0.00000000000E+00 -0.00000000000E+00 -0.45593999997E+02  0.45594000000E+02  0.51100000000E-03 0.  1.
    9900012    2    1    2    0    0 -0.45365716414E+00 -0.10560750213E+01 -0.27107001991E+00  0.90007077382E+02  0.89999330001E+02 0.  0.
         12    1    1    2    0    0  0.45365716414E+00  0.10560750213E+01  0.27107001991E+00  0.11809226176E+01  0.00000000000E+00 0. -1.
         11    1    3    3    0    0  0.79481101421E+01 -0.38773675327E+02  0.63512526821E+01  0.40086266527E+02  0.51100000000E-03 0. -1.
        -11    1    3    3    0    0  0.84712705498E+01  0.55278755785E+00  0.43062715318E+00  0.85002022810E+01  0.51100000000E-03 0.  1.
        -12    1    3    3    0    0 -0.16873037856E+02  0.37164812747E+02 -0.70529498552E+01  0.41420608575E+02  0.00000000000E+00 0.  1.
</event>
<event>
 7    1  0.2000468E-015  0.9000773E+02  0.7816164E-02  0.1186339E+00
        -11   -1    0    0    0    0  0.00000000000E+00  0.00000000000E+00  0.45593999997E+02  0.45594000000E+02  0.51100000000E-03 0. -1.
         11   -1    0    0    0    0 -0.00000000000E+00 -0.00000000000E+00 -0.45593999997E+02  0.45594000000E+02  0.51100000000E-03 0.  1.
    9900012    2    1    2    0    0  0.10077619726E+01 -0.58832956995E+00 -0.17697520348E+00  0.90007730497E+02  0.89999991740E+02 0.  0.
         12    1    1    2    0    0 -0.10077619726E+01  0.58832956995E+00  0.17697520348E+00  0.11802695027E+01  0.00000000000E+00 0. -1.
         11    1    3    3    0    0 -0.18177546474E+00  0.15920292733E+02 -0.74517352270E+00  0.15938759263E+02  0.51100000000E-03 0. -1.
        -11    1    3    3    0    0 -0.21796049953E+02 -0.15297322325E+02  0.27744087547E+02  0.38455302079E+02  0.51100000000E-03 0.  1.
         12    1    3    3    0    0  0.22985587391E+02 -0.12112999774E+01 -0.27175889228E+02  0.35613669155E+02  0.00000000000E+00 0. -1.
</event>
<event>
 7    1  0.2000468E-015  0.9000776E+02  0.7816164E-02  0.1186339E+00
        -11   -1    0    0    0    0  0.00000000000E+00  0.00000000000E+00  0.45593999997E+02  0.45594000000E+02  0.51100000000E-03 0. -1.
         11   -1    0    0    0    0 -0.00000000000E+00 -0.00000000000E+00 -0.45593999997E+02  0.45594000000E+02  0.51100000000E-03 0.  1.
    9900012    2    1    2    0    0 -0.10227482542E+00  0.10314543000E+01 -0.56445619079E+00  0.90007758964E+02  0.90000020582E+02 0.  0.
         12    1    1    2    0    0  0.10227482542E+00 -0.10314543000E+01  0.56445619079E+00  0.11802410365E+01  0.00000000000E+00 0. -1.
         11    1    3    3    0    0 -0.20687607272E+02  0.34254748006E+02  0.12052566380E+01  0.40035203252E+02  0.51100000000E-03 0. -1.
        -11    1    3    3    0    0 -0.30473519417E+01 -0.11888734612E+01  0.82906523848E+01  0.89126141614E+01  0.51100000000E-03 0.  1.
        -12    1    3    3    0    0  0.23632684388E+02 -0.32034420245E+02 -0.10060365214E+02  0.41059941550E+02  0.00000000000E+00 0.  1.
</event>
<event>
 7    1  0.2000468E-015  0.9000776E+02  0.7816164E-02  0.1186339E+00
        -11   -1    0    0    0    0  0.00000000000E+00  0.00000000000E+00  0.45593999997E+02  0.45594000000E+02  0.51100000000E-03 0. -1.
         11   -1    0    0    0    0 -0.00000000000E+00 -0.00000000000E+00 -0.45593999997E+02  0.45594000000E+02  0.51100000000E-03 0.  1.
    9900012    2    1    2    0    0 -0.11644502653E+01  0.17902109924E+00  0.70564926072E-01  0.90007757490E+02  0.90000019089E+02 0.  0.
         12    1    1    2    0    0  0.11644502653E+01 -0.17902109924E+00 -0.70564926072E-01  0.11802425103E+01  0.00000000000E+00 0. -1.
         11    1    3    3    0    0 -0.21516507159E+02  0.29599899969E+02 -0.41528653527E+01  0.36828799185E+02  0.51100000000E-03 0. -1.
        -11    1    3    3    0    0 -0.89345456194E+01  0.26873281063E+01  0.26201989139E+01  0.96908864603E+01  0.51100000000E-03 0.  1.
        -12    1    3    3    0    0  0.29286602513E+02 -0.32108206976E+02  0.16032313648E+01  0.43488071845E+02  0.00000000000E+00 0.  1.
</event>
<event>
 7    1  0.2000468E-015  0.9000763E+02  0.7816164E-02  0.1186339E+00
        -11   -1    0    0    0    0  0.00000000000E+00  0.00000000000E+00  0.45593999997E+02  0.45594000000E+02  0.51100000000E-03 0.  1.
         11   -1    0    0    0    0 -0.00000000000E+00 -0.00000000000E+00 -0.45593999997E+02  0.45594000000E+02  0.51100000000E-03 0. -1.
    9900012    2    1    2    0    0  0.11092797253E+01 -0.27996449896E+00 -0.29052246221E+00  0.90007625089E+02  0.89999884940E+02 0.  0.
         12    1    1    2    0    0 -0.11092797253E+01  0.27996449896E+00  0.29052246221E+00  0.11803749111E+01  0.00000000000E+00 0. -1.
         11    1    3    3    0    0  0.26069514946E+02 -0.26851837896E+02 -0.14848603941E+02  0.40263157442E+02  0.51100000000E-03 0. -1.
        -11    1    3    3    0    0  0.60133433245E+01  0.27832185901E+01  0.75859428041E+01  0.10072394559E+02  0.51100000000E-03 0.  1.
        -12    1    3    3    0    0 -0.30973578545E+02  0.23788654807E+02  0.69721386750E+01  0.39672073088E+02  0.00000000000E+00 0.  1.
</event>
<event>
 7    1  0.2000468E-015  0.9000772E+02  0.7816164E-02  0.1186339E+00
        -11   -1    0    0    0    0  0.00000000000E+00  0.00000000000E+00  0.45593999997E+02  0.45594000000E+02  0.51100000000E-03 0. -1.
         11   -1    0    0    0    0 -0.00000000000E+00 -0.00000000000E+00 -0.45593999997E+02  0.45594000000E+02  0.51100000000E-03 0.  1.
    9900012    2    1    2    0    0  0.57132088881E+00 -0.10212932757E+01  0.15364257245E+00  0.90007723103E+02  0.89999984248E+02 0.  0.
         12    1    1    2    0    0 -0.57132088881E+00  0.10212932757E+01 -0.15364257245E+00  0.11802768967E+01  0.00000000000E+00 0. -1.
         11    1    3    3    0    0 -0.31024131956E+02 -0.61049382061E+01  0.30360439560E+02  0.43835183639E+02  0.51100000000E-03 0. -1.
        -11    1    3    3    0    0  0.18816203123E+01  0.24238601894E+01 -0.91670135213E+01  0.96669400731E+01  0.51100000000E-03 0.  1.
        -12    1    3    3    0    0  0.29713832532E+02  0.26597847410E+01 -0.21039783466E+02  0.36505599391E+02  0.00000000000E+00 0.  1.
</event>
<event>
 7    1  0.2000468E-015  0.9000775E+02  0.7816164E-02  0.1186339E+00
        -11   -1    0    0    0    0  0.00000000000E+00  0.00000000000E+00  0.45593999997E+02  0.45594000000E+02  0.51100000000E-03 0. -1.
         11   -1    0    0    0    0 -0.00000000000E+00 -0.00000000000E+00 -0.45593999997E+02  0.45594000000E+02  0.51100000000E-03 0.  1.
    9900012    2    1    2    0    0  0.35817614254E+00  0.63509737523E+00 -0.92808540513E+00  0.90007753693E+02  0.90000015242E+02 0.  0.
         12    1    1    2    0    0 -0.35817614254E+00 -0.63509737523E+00  0.92808540513E+00  0.11802463066E+01  0.00000000000E+00 0. -1.
         11    1    3    3    0    0 -0.89882926795E+01 -0.51193848461E+01 -0.66222434313E+01  0.12282166536E+02  0.51100000000E-03 0. -1.
        -11    1    3    3    0    0 -0.27684788811E+02 -0.53026186966E+01  0.22022609593E+02  0.35770946732E+02  0.51100000000E-03 0.  1.
         12    1    3    3    0    0  0.37031257633E+02  0.11057100918E+02 -0.16328451567E+02  0.41954640425E+02  0.00000000000E+00 0. -1.
</event>
<event>
 7    1  0.2000468E-015  0.9000764E+02  0.7816164E-02  0.1186339E+00
        -11   -1    0    0    0    0  0.00000000000E+00  0.00000000000E+00  0.45593999997E+02  0.45594000000E+02  0.51100000000E-03 0. -1.
         11   -1    0    0    0    0 -0.00000000000E+00 -0.00000000000E+00 -0.45593999997E+02  0.45594000000E+02  0.51100000000E-03 0.  1.
    9900012    2    1    2    0    0 -0.10782449885E+01  0.23666543728E+00 -0.41787219326E+00  0.90007644141E+02  0.89999904243E+02 0.  0.
         12    1    1    2    0    0  0.10782449885E+01 -0.23666543728E+00  0.41787219326E+00  0.11803558592E+01  0.00000000000E+00 0. -1.
         11    1    3    3    0    0  0.65168146740E+01  0.18154828520E+02  0.35118668389E+02  0.40067287677E+02  0.51100000000E-03 0. -1.
        -11    1    3    3    0    0  0.41788443291E+01  0.14926425788E+01  0.28991988056E+01  0.53005731549E+01  0.51100000000E-03 0.  1.
        -12    1    3    3    0    0 -0.11773903992E+02 -0.19410805662E+02 -0.38435739388E+02  0.44639783309E+02  0.00000000000E+00 0.  1.
</event>
<event>
 7    1  0.2000468E-015  0.9000771E+02  0.7816164E-02  0.1186339E+00
        -11   -1    0    0    0    0  0.00000000000E+00  0.00000000000E+00  0.45593999997E+02  0.45594000000E+02  0.51100000000E-03 0. -1.
         11   -1    0    0    0    0 -0.00000000000E+00 -0.00000000000E+00 -0.45593999997E+02  0.45594000000E+02  0.51100000000E-03 0.  1.
    9900012    2    1    2    0    0 -0.19083369290E+00 -0.38136972197E+00 -0.11005560320E+01  0.90007710229E+02  0.89999971204E+02 0.  0.
         12    1    1    2    0    0  0.19083369290E+00  0.38136972197E+00  0.11005560320E+01  0.11802897707E+01  0.00000000000E+00 0. -1.
         11    1    3    3    0    0 -0.14297110377E+02  0.41847817025E+01 -0.58872524165E+01  0.16018099273E+02  0.51100000000E-03 0. -1.
        -11    1    3    3    0    0 -0.14005192685E+02  0.27122274145E+02 -0.38222504513E+01  0.30763172394E+02  0.51100000000E-03 0.  1.
         12    1    3    3    0    0  0.28111469370E+02 -0.31688425569E+02  0.86089468358E+01  0.43226438563E+02  0.00000000000E+00 0. -1.
</event>
<event>
 7    1  0.2000468E-015  0.9000768E+02  0.7816164E-02  0.1186339E+00
        -11   -1    0    0    0    0  0.00000000000E+00  0.00000000000E+00  0.45593999997E+02  0.45594000000E+02  0.51100000000E-03 0. -1.
         11   -1    0    0    0    0 -0.00000000000E+00 -0.00000000000E+00 -0.45593999997E+02  0.45594000000E+02  0.51100000000E-03 0.  1.
    9900012    2    1    2    0    0 -0.58453860884E+00 -0.30811401724E+00 -0.97802146117E+00  0.90007684105E+02  0.89999944735E+02 0.  0.
         12    1    1    2    0    0  0.58453860884E+00  0.30811401724E+00  0.97802146117E+00  0.11803158947E+01  0.00000000000E+00 0. -1.
         11    1    3    3    0    0  0.12302158769E+01  0.86838242894E+01  0.43306992784E+01  0.97814718674E+01  0.51100000000E-03 0. -1.
        -11    1    3    3    0    0 -0.30973284164E+02 -0.29638497392E+02  0.46904305736E+01  0.43125224623E+02  0.51100000000E-03 0.  1.
         12    1    3    3    0    0  0.29158529678E+02  0.20646559085E+02 -0.99991513133E+01  0.37100987615E+02  0.00000000000E+00 0. -1.
</event>
<event>
 7    1  0.2000468E-015  0.9000772E+02  0.7816164E-02  0.1186339E+00
        -11   -1    0    0    0    0  0.00000000000E+00  0.00000000000E+00  0.45593999997E+02  0.45594000000E+02  0.51100000000E-03 0. -1.
         11   -1    0    0    0    0 -0.00000000000E+00 -0.00000000000E+00 -0.45593999997E+02  0.45594000000E+02  0.51100000000E-03 0.  1.
    9900012    2    1    2    0    0 -0.56623328857E+00 -0.65186837103E+00 -0.80468493038E+00  0.90007715989E+02  0.89999977040E+02 0.  0.
         12    1    1    2    0    0  0.56623328857E+00  0.65186837103E+00  0.80468493038E+00  0.11802840113E+01  0.00000000000E+00 0. -1.
         11    1    3    3    0    0  0.15101233374E+02 -0.49816239667E+01  0.10228112095E+02  0.18907091370E+02  0.51100000000E-03 0. -1.
        -11    1    3    3    0    0  0.21756125758E+02  0.47221400857E+00 -0.22959332687E+02  0.31633573175E+02  0.51100000000E-03 0.  1.
         12    1    3    3    0    0 -0.37423592421E+02  0.38575415871E+01  0.11926535662E+02  0.39467051445E+02  0.00000000000E+00 0. -1.
</event>
<event>
 7    1  0.2000468E-015  0.9000791E+02  0.7816164E-02  0.1186339E+00
        -11   -1    0    0    0    0  0.00000000000E+00  0.00000000000E+00  0.45593999997E+02  0.45594000000E+02  0.51100000000E-03 0.  1.
         11   -1    0    0    0    0 -0.00000000000E+00 -0.00000000000E+00 -0.45593999997E+02  0.45594000000E+02  0.51100000000E-03 0. -1.
    9900012    2    1    2    0    0  0.16279994557E-01  0.71194866154E+00  0.94100352931E+00  0.90007905268E+02  0.90000168817E+02 0.  0.
         12    1    1    2    0    0 -0.16279994557E-01 -0.71194866154E+00 -0.94100352931E+00  0.11800947322E+01  0.00000000000E+00 0. -1.
         11    1    3    3    0    0 -0.40869932988E+02  0.80401231989E-01 -0.11140807310E+01  0.40885193689E+02  0.51100000000E-03 0. -1.
        -11    1    3    3    0    0  0.28516345220E+01  0.63052593376E+01 -0.67555637165E+01  0.96708715300E+01  0.51100000000E-03 0.  1.
        -12    1    3    3    0    0  0.38034578461E+02 -0.56737119081E+01  0.88106479768E+01  0.39451840049E+02  0.00000000000E+00 0.  1.
</event>
<event>
 7    1  0.2000468E-015  0.9000776E+02  0.7816164E-02  0.1186339E+00
        -11   -1    0    0    0    0  0.00000000000E+00  0.00000000000E+00  0.45593999997E+02  0.45594000000E+02  0.51100000000E-03 0.  1.
         11   -1    0    0    0    0 -0.00000000000E+00 -0.00000000000E+00 -0.45593999997E+02  0.45594000000E+02  0.51100000000E-03 0. -1.
    9900012    2    1    2    0    0  0.50447687842E+00  0.49362221279E+00  0.94594664240E+00  0.90007756440E+02  0.90000018025E+02 0.  0.
         12    1    1    2    0    0 -0.50447687842E+00 -0.49362221279E+00 -0.94594664240E+00  0.11802435596E+01  0.00000000000E+00 0. -1.
         11    1    3    3    0    0 -0.59665619042E+01  0.78437646167E+01  0.52111784486E+00  0.98689446441E+01  0.51100000000E-03 0. -1.
        -11    1    3    3    0    0 -0.51424510175E+00 -0.20195108522E+02  0.36219833735E+02  0.41472680312E+02  0.51100000000E-03 0.  1.
         12    1    3    3    0    0  0.69852838843E+01  0.12844966118E+02 -0.35795004937E+02  0.38666131484E+02  0.00000000000E+00 0. -1.
</event>
<event>
 7    1  0.2000468E-015  0.9000771E+02  0.7816164E-02  0.1186339E+00
        -11   -1    0    0    0    0  0.00000000000E+00  0.00000000000E+00  0.45593999997E+02  0.45594000000E+02  0.51100000000E-03 0. -1.
         11   -1    0    0    0    0 -0.00000000000E+00 -0.00000000000E+00 -0.45593999997E+02  0.45594000000E+02  0.51100000000E-03 0.  1.
    9900012    2    1    2    0    0  0.33555710093E-01 -0.94039848485E+00 -0.71247509322E+00  0.90007705099E+02  0.89999966006E+02 0.  0.
         12    1    1    2    0    0 -0.33555710093E-01  0.94039848485E+00  0.71247509322E+00  0.11802949015E+01  0.00000000000E+00 0. -1.
         11    1    3    3    0    0 -0.81045665653E+01 -0.70037616377E+01  0.19466127887E+01  0.10886963668E+02  0.51100000000E-03 0. -1.
        -11    1    3    3    0    0  0.13761005566E+02 -0.89425877761E+01 -0.37410825649E+02  0.40852234044E+02  0.51100000000E-03 0.  1.
         12    1    3    3    0    0 -0.56228832910E+01  0.15005950929E+02  0.34751737768E+02  0.38268507387E+02  0.00000000000E+00 0. -1.
</event>
<event>
 7    1  0.2000468E-015  0.9000776E+02  0.7816164E-02  0.1186339E+00
        -11   -1    0    0    0    0  0.00000000000E+00  0.00000000000E+00  0.45593999997E+02  0.45594000000E+02  0.51100000000E-03 0.  1.
         11   -1    0    0    0    0 -0.00000000000E+00 -0.00000000000E+00 -0.45593999997E+02  0.45594000000E+02  0.51100000000E-03 0. -1.
    9900012    2    1    2    0    0  0.25660724422E+00 -0.48324704762E+00  0.10457542154E+01  0.90007755591E+02  0.90000017164E+02 0.  0.
         12    1    1    2    0    0 -0.25660724422E+00  0.48324704762E+00 -0.10457542154E+01  0.11802444093E+01  0.00000000000E+00 0. -1.
         11    1    3    3    0    0  0.18449617892E+01  0.77811286571E+01  0.51977474490E+01  0.95376320953E+01  0.51100000000E-03 0. -1.
        -11    1    3    3    0    0 -0.37081614964E+02  0.10357861061E+02 -0.10455755543E+02  0.39895542086E+02  0.51100000000E-03 0.  1.
         12    1    3    3    0    0  0.35493260419E+02 -0.18622236766E+02  0.63037623097E+01  0.40574581410E+02  0.00000000000E+00 0. -1.
</event>
<event>
 7    1  0.2000468E-015  0.9000767E+02  0.7816164E-02  0.1186339E+00
        -11   -1    0    0    0    0  0.00000000000E+00  0.00000000000E+00  0.45593999997E+02  0.45594000000E+02  0.51100000000E-03 0.  1.
         11   -1    0    0    0    0 -0.00000000000E+00 -0.00000000000E+00 -0.45593999997E+02  0.45594000000E+02  0.51100000000E-03 0. -1.
    9900012    2    1    2    0    0 -0.76652699030E+00 -0.40600285932E+00 -0.80048560711E+00  0.90007669895E+02  0.89999930338E+02 0.  0.
         12    1    1    2    0    0  0.76652699030E+00  0.40600285932E+00  0.80048560711E+00  0.11803301046E+01  0.00000000000E+00 0. -1.
         11    1    3    3    0    0  0.28674477694E+02  0.16679445047E+01 -0.30090829984E+02  0.41598867283E+02  0.51100000000E-03 0. -1.
        -11    1    3    3    0    0  0.23579381062E+01 -0.54644911802E+01  0.80789483828E+01  0.10034437862E+02  0.51100000000E-03 0.  1.
        -12    1    3    3    0    0 -0.31798942791E+02  0.33905438162E+01  0.21211395994E+02  0.38374364750E+02  0.00000000000E+00 0.  1.
</event>
<event>
 7    1  0.2000468E-015  0.9000768E+02  0.7816164E-02  0.1186339E+00
        -11   -1    0    0    0    0  0.00000000000E+00  0.00000000000E+00  0.45593999997E+02  0.45594000000E+02  0.51100000000E-03 0.  1.
         11   -1    0    0    0    0 -0.00000000000E+00 -0.00000000000E+00 -0.45593999997E+02  0.45594000000E+02  0.51100000000E-03 0. -1.
    9900012    2    1    2    0    0  0.82915375115E+00  0.63324482493E+00 -0.55195069163E+00  0.90007684569E+02  0.89999945205E+02 0.  0.
         12    1    1    2    0    0 -0.82915375115E+00 -0.63324482493E+00  0.55195069163E+00  0.11803154313E+01  0.00000000000E+00 0. -1.
         11    1    3    3    0    0  0.69945094427E+01  0.28339676025E+01 -0.25805613628E+01  0.79758279773E+01  0.51100000000E-03 0. -1.
        -11    1    3    3    0    0  0.14312013191E+02 -0.94323730066E-01  0.37989335334E+02  0.40595963074E+02  0.51100000000E-03 0.  1.
         12    1    3    3    0    0 -0.20477368882E+02 -0.21063990476E+01 -0.35960724663E+02  0.41435893517E+02  0.00000000000E+00 0. -1.
</event>
<event>
 7    1  0.2000468E-015  0.9000776E+02  0.7816164E-02  0.1186339E+00
        -11   -1    0    0    0    0  0.00000000000E+00  0.00000000000E+00  0.45593999997E+02  0.45594000000E+02  0.51100000000E-03 0. -1.
         11   -1    0    0    0    0 -0.00000000000E+00 -0.00000000000E+00 -0.45593999997E+02  0.45594000000E+02  0.51100000000E-03 0.  1.
    9900012    2    1    2    0    0  0.82182986709E+00 -0.11178607412E+00 -0.83968753925E+00  0.90007756118E+02  0.90000017699E+02 0.  0.
         12    1    1    2    0    0 -0.82182986709E+00  0.11178607412E+00  0.83968753925E+00  0.11802438817E+01  0.00000000000E+00 0. -1.
         11    1    3    3    0    0  0.16675520286E+01  0.49227125145E+01  0.73816218673E+01  0.90278552227E+01  0.51100000000E-03 0. -1.
        -11    1    3    3    0    0 -0.34212052870E+02 -0.23589661349E+02  0.14985281073E+01  0.41583437459E+02  0.51100000000E-03 0.  1.
         12    1    3    3    0    0  0.33366330709E+02  0.18555162760E+02 -0.97198375139E+01  0.39396463437E+02  0.00000000000E+00 0. -1.
</event>
<event>
 7    1  0.2000468E-015  0.9000789E+02  0.7816164E-02  0.1186339E+00
        -11   -1    0    0    0    0  0.00000000000E+00  0.00000000000E+00  0.45593999997E+02  0.45594000000E+02  0.51100000000E-03 0.  1.
         11   -1    0    0    0    0 -0.00000000000E+00 -0.00000000000E+00 -0.45593999997E+02  0.45594000000E+02  0.51100000000E-03 0. -1.
    9900012    2    1    2    0    0 -0.26528049621E+00  0.76186919422E+00  0.86129973276E+00  0.90007891683E+02  0.90000155053E+02 0.  0.
         12    1    1    2    0    0  0.26528049621E+00 -0.76186919422E+00 -0.86129973276E+00  0.11801083172E+01  0.00000000000E+00 0. -1.
         11    1    3    3    0    0  0.42387695924E+01  0.51828640247E+01 -0.60320410505E+01  0.90119235822E+01  0.51100000000E-03 0. -1.
        -11    1    3    3    0    0 -0.90761592264E+01  0.32357221149E+02  0.22857343027E+02  0.40642644566E+02  0.51100000000E-03 0.  1.
         12    1    3    3    0    0  0.45721091377E+01 -0.36778215980E+02 -0.15964002244E+02  0.40353323534E+02  0.00000000000E+00 0. -1.
</event>
<event>
 7    1  0.2000468E-015  0.9000773E+02  0.7816164E-02  0.1186339E+00
        -11   -1    0    0    0    0  0.00000000000E+00  0.00000000000E+00  0.45593999997E+02  0.45594000000E+02  0.51100000000E-03 0. -1.
         11   -1    0    0    0    0 -0.00000000000E+00 -0.00000000000E+00 -0.45593999997E+02  0.45594000000E+02  0.51100000000E-03 0.  1.
    9900012    2    1    2    0    0  0.34330546824E+00 -0.51722345662E+00 -0.10038232379E+01  0.90007728912E+02  0.89999990134E+02 0.  0.
         12    1    1    2    0    0 -0.34330546824E+00  0.51722345662E+00  0.10038232379E+01  0.11802710881E+01  0.00000000000E+00 0. -1.
         11    1    3    3    0    0  0.71029762329E+01  0.16773750337E+02  0.26781569962E+02  0.32389249167E+02  0.51100000000E-03 0. -1.
        -11    1    3    3    0    0  0.36019411299E+01  0.10709545580E+02  0.57836708304E+01  0.12693273611E+02  0.51100000000E-03 0.  1.
        -12    1    3    3    0    0 -0.10361611895E+02 -0.28000519374E+02 -0.33569064030E+02  0.44925206133E+02  0.00000000000E+00 0.  1.
</event>
<event>
 7    1  0.2000468E-015  0.9000774E+02  0.7816164E-02  0.1186339E+00
        -11   -1    0    0    0    0  0.00000000000E+00  0.00000000000E+00  0.45593999997E+02  0.45594000000E+02  0.51100000000E-03 0. -1.
         11   -1    0    0    0    0 -0.00000000000E+00 -0.00000000000E+00 -0.45593999997E+02  0.45594000000E+02  0.51100000000E-03 0.  1.
    9900012    2    1    2    0    0  0.40405808674E+00 -0.11001701502E+00 -0.11034722269E+01  0.90007738319E+02  0.89999999664E+02 0.  0.
         12    1    1    2    0    0 -0.40405808674E+00  0.11001701502E+00  0.11034722269E+01  0.11802616814E+01  0.00000000000E+00 0. -1.
         11    1    3    3    0    0  0.75020115230E+01  0.32795901218E+01 -0.45040882661E+01  0.93446615577E+01  0.51100000000E-03 0. -1.
        -11    1    3    3    0    0 -0.16000969133E+02  0.17574847722E+02 -0.31210420501E+02  0.39230047588E+02  0.51100000000E-03 0.  1.
         12    1    3    3    0    0  0.89030156971E+01 -0.20964454858E+02  0.34611036540E+02  0.41433029173E+02  0.00000000000E+00 0. -1.
</event>
<event>
 7    1  0.2035497E-015  0.9000756E+02  0.7816164E-02  0.1186339E+00
        -11   -1    0    0    0    0  0.00000000000E+00  0.00000000000E+00  0.45593999997E+02  0.45594000000E+02  0.51100000000E-03 0. -1.
         11   -1    0    0    0    0 -0.00000000000E+00 -0.00000000000E+00 -0.45593999997E+02  0.45594000000E+02  0.51100000000E-03 0.  1.
    9900012    2    1    2    0    0  0.90924743492E-01 -0.82115525042E+00 -0.84313713794E+00  0.90007557927E+02  0.89999816891E+02 0.  0.
         12    1    1    2    0    0 -0.90924743492E-01  0.82115525042E+00  0.84313713794E+00  0.11804420730E+01  0.00000000000E+00 0. -1.
         11    1    3    3    0    0  0.10450811147E+02  0.28895662848E+02  0.25872307701E+02  0.40169081283E+02  0.51100000000E-03 0. -1.
        -11    1    3    3    0    0 -0.68366302879E+01 -0.48673626119E+01  0.47076920899E+01  0.96225307256E+01  0.51100000000E-03 0.  1.
        -12    1    3    3    0    0 -0.35232561155E+01 -0.24849455487E+02 -0.31423136929E+02  0.40215945918E+02  0.00000000000E+00 0.  1.
</event>
<event>
 7    1  0.2000468E-015  0.9000773E+02  0.7816164E-02  0.1186339E+00
        -11   -1    0    0    0    0  0.00000000000E+00  0.00000000000E+00  0.45593999997E+02  0.45594000000E+02  0.51100000000E-03 0. -1.
         11   -1    0    0    0    0 -0.00000000000E+00 -0.00000000000E+00 -0.45593999997E+02  0.45594000000E+02  0.51100000000E-03 0.  1.
    9900012    2    1    2    0    0 -0.47616722612E+00 -0.97827809222E+00  0.45747692055E+00  0.90007725292E+02  0.89999986466E+02 0.  0.
         12    1    1    2    0    0  0.47616722612E+00  0.97827809222E+00 -0.45747692055E+00  0.11802747078E+01  0.00000000000E+00 0. -1.
         11    1    3    3    0    0 -0.30666080117E+02 -0.25240268422E+02  0.19812773009E+01  0.39766884210E+02  0.51100000000E-03 0. -1.
        -11    1    3    3    0    0  0.25267958258E+01 -0.44703103988E+01  0.77455795930E+01  0.92931359455E+01  0.51100000000E-03 0.  1.
        -12    1    3    3    0    0  0.27663117065E+02  0.28732300728E+02 -0.92693799734E+01  0.40947705137E+02  0.00000000000E+00 0.  1.
</event>
<event>
 7    1  0.2000468E-015  0.9000771E+02  0.7816164E-02  0.1186339E+00
        -11   -1    0    0    0    0  0.00000000000E+00  0.00000000000E+00  0.45593999997E+02  0.45594000000E+02  0.51100000000E-03 0. -1.
         11   -1    0    0    0    0 -0.00000000000E+00 -0.00000000000E+00 -0.45593999997E+02  0.45594000000E+02  0.51100000000E-03 0.  1.
    9900012    2    1    2    0    0  0.90093607344E+00  0.50818455862E+00 -0.56845564607E+00  0.90007712249E+02  0.89999973250E+02 0.  0.
         12    1    1    2    0    0 -0.90093607344E+00 -0.50818455862E+00  0.56845564607E+00  0.11802877512E+01  0.00000000000E+00 0. -1.
         11    1    3    3    0    0 -0.18218437907E+02  0.43143371189E+01 -0.59985078716E+01  0.19659783353E+02  0.51100000000E-03 0. -1.
        -11    1    3    3    0    0  0.11024068511E+02  0.30548445088E+02 -0.64416053025E+01  0.33109392368E+02  0.51100000000E-03 0.  1.
         12    1    3    3    0    0  0.80953054691E+01 -0.34354597649E+02  0.11871657528E+02  0.37238536527E+02  0.00000000000E+00 0. -1.
</event>
<event>
 7    1  0.2000468E-015  0.9000771E+02  0.7816164E-02  0.1186339E+00
        -11   -1    0    0    0    0  0.00000000000E+00  0.00000000000E+00  0.45593999997E+02  0.45594000000E+02  0.51100000000E-03 0.  1.
         11   -1    0    0    0    0 -0.00000000000E+00 -0.00000000000E+00 -0.45593999997E+02  0.45594000000E+02  0.51100000000E-03 0. -1.
    9900012    2    1    2    0    0  0.69203318828E+00  0.83746387187E+00 -0.46133676612E+00  0.90007708815E+02  0.89999969771E+02 0.  0.
         12    1    1    2    0    0 -0.69203318828E+00 -0.83746387187E+00  0.46133676612E+00  0.11802911853E+01  0.00000000000E+00 0. -1.
         11    1    3    3    0    0 -0.14353814664E+02 -0.31990763361E+02 -0.16728510335E+02  0.38849504425E+02  0.51100000000E-03 0. -1.
        -11    1    3    3    0    0  0.96619906299E+01 -0.28523378732E+01 -0.26483516352E+01  0.10416509056E+02  0.51100000000E-03 0.  1.
        -12    1    3    3    0    0  0.53838572228E+01  0.35680565106E+02  0.18915525204E+02  0.40741695333E+02  0.00000000000E+00 0.  1.
</event>
<event>
 7    1  0.2000468E-015  0.9000763E+02  0.7816164E-02  0.1186339E+00
        -11   -1    0    0    0    0  0.00000000000E+00  0.00000000000E+00  0.45593999997E+02  0.45594000000E+02  0.51100000000E-03 0.  1.
         11   -1    0    0    0    0 -0.00000000000E+00 -0.00000000000E+00 -0.45593999997E+02  0.45594000000E+02  0.51100000000E-03 0. -1.
    9900012    2    1    2    0    0  0.75917161091E+00 -0.59639491891E+00  0.67914911732E+00  0.90007630584E+02  0.89999890508E+02 0.  0.
         12    1    1    2    0    0 -0.75917161091E+00  0.59639491891E+00 -0.67914911732E+00  0.11803694158E+01  0.00000000000E+00 0. -1.
         11    1    3    3    0    0  0.18274138178E+02  0.18412589350E+02 -0.30418310128E+02  0.39978008506E+02  0.51100000000E-03 0. -1.
        -11    1    3    3    0    0  0.69774903626E+01  0.15099747117E+01  0.71121886745E+01  0.10077133689E+02  0.51100000000E-03 0.  1.
        -12    1    3    3    0    0 -0.24492456930E+02 -0.20518958981E+02  0.23985270571E+02  0.39952488389E+02  0.00000000000E+00 0.  1.
</event>
<event>
 7    1  0.2000468E-015  0.9000773E+02  0.7816164E-02  0.1186339E+00
        -11   -1    0    0    0    0  0.00000000000E+00  0.00000000000E+00  0.45593999997E+02  0.45594000000E+02  0.51100000000E-03 0.  1.
         11   -1    0    0    0    0 -0.00000000000E+00 -0.00000000000E+00 -0.45593999997E+02  0.45594000000E+02  0.51100000000E-03 0. -1.
    9900012    2    1    2    0    0 -0.60043354726E+00 -0.10129305524E+01 -0.80505763462E-01  0.90007733112E+02  0.89999994389E+02 0.  0.
         12    1    1    2    0    0  0.60043354726E+00  0.10129305524E+01  0.80505763462E-01  0.11802668879E+01  0.00000000000E+00 0. -1.
         11    1    3    3    0    0  0.93040651346E+01 -0.11568412605E+01 -0.37039907011E+02  0.38208096281E+02  0.51100000000E-03 0. -1.
        -11    1    3    3    0    0  0.95587887533E+01 -0.47030697487E+01  0.10973581334E+01  0.10709505247E+02  0.51100000000E-03 0.  1.
        -12    1    3    3    0    0 -0.19463287435E+02  0.48469804569E+01  0.35862043114E+02  0.41090131585E+02  0.00000000000E+00 0.  1.
</event>
<event>
 7    1  0.2000468E-015  0.9000762E+02  0.7816164E-02  0.1186339E+00
        -11   -1    0    0    0    0  0.00000000000E+00  0.00000000000E+00  0.45593999997E+02  0.45594000000E+02  0.51100000000E-03 0.  1.
         11   -1    0    0    0    0 -0.00000000000E+00 -0.00000000000E+00 -0.45593999997E+02  0.45594000000E+02  0.51100000000E-03 0. -1.
    9900012    2    1    2    0    0  0.32380680366E+00  0.11350353958E+01 -0.12302033972E-01  0.90007615514E+02  0.89999875238E+02 0.  0.
         12    1    1    2    0    0 -0.32380680366E+00 -0.11350353958E+01  0.12302033972E-01  0.11803844865E+01  0.00000000000E+00 0. -1.
         11    1    3    3    0    0 -0.22570277879E+02  0.10714056342E+02  0.28530189649E+02  0.37923345956E+02  0.51100000000E-03 0. -1.
        -11    1    3    3    0    0 -0.37039614463E+01  0.86097368966E+01 -0.52969835528E+00  0.93876237906E+01  0.51100000000E-03 0.  1.
        -12    1    3    3    0    0  0.26598046129E+02 -0.18188757842E+02 -0.28012793327E+02  0.42696645767E+02  0.00000000000E+00 0.  1.
</event>
<event>
 7    1  0.2000468E-015  0.9000754E+02  0.7816164E-02  0.1186339E+00
        -11   -1    0    0    0    0  0.00000000000E+00  0.00000000000E+00  0.45593999997E+02  0.45594000000E+02  0.51100000000E-03 0.  1.
         11   -1    0    0    0    0 -0.00000000000E+00 -0.00000000000E+00 -0.45593999997E+02  0.45594000000E+02  0.51100000000E-03 0. -1.
    9900012    2    1    2    0    0  0.10753670189E+01 -0.39767901978E+00 -0.28091600636E+00  0.90007543889E+02  0.89999802668E+02 0.  0.
         12    1    1    2    0    0 -0.10753670189E+01  0.39767901978E+00  0.28091600636E+00  0.11804561113E+01  0.00000000000E+00 0. -1.
         11    1    3    3    0    0  0.29179812537E+02 -0.71308600984E+01  0.21132787817E+02  0.36727446775E+02  0.51100000000E-03 0. -1.
        -11    1    3    3    0    0  0.64323770410E+01 -0.47951732807E+01  0.39142607063E+01  0.89269590750E+01  0.51100000000E-03 0.  1.
        -12    1    3    3    0    0 -0.34536822559E+02  0.11528354359E+02 -0.25327964529E+02  0.44353138039E+02  0.00000000000E+00 0.  1.
</event>
<event>
 7    1  0.2000468E-015  0.9000772E+02  0.7816164E-02  0.1186339E+00
        -11   -1    0    0    0    0  0.00000000000E+00  0.00000000000E+00  0.45593999997E+02  0.45594000000E+02  0.51100000000E-03 0. -1.
         11   -1    0    0    0    0 -0.00000000000E+00 -0.00000000000E+00 -0.45593999997E+02  0.45594000000E+02  0.51100000000E-03 0.  1.
    9900012    2    1    2    0    0 -0.22977931110E+00  0.46525912386E+00 -0.10600924420E+01  0.90007720131E+02  0.89999981236E+02 0.  0.
         12    1    1    2    0    0  0.22977931110E+00 -0.46525912386E+00  0.10600924420E+01  0.11802798693E+01  0.00000000000E+00 0. -1.
         11    1    3    3    0    0  0.44051955605E+01  0.52317873396E+01 -0.23713335451E+01  0.72388237813E+01  0.51100000000E-03 0. -1.
        -11    1    3    3    0    0 -0.18494201854E+01  0.24333421144E+02 -0.30831680804E+02  0.39320837746E+02  0.51100000000E-03 0.  1.
         12    1    3    3    0    0 -0.27855546862E+01 -0.29099949360E+02  0.32142921907E+02  0.43448058603E+02  0.00000000000E+00 0. -1.
</event>
<event>
 7    1  0.2000468E-015  0.9000773E+02  0.7816164E-02  0.1186339E+00
        -11   -1    0    0    0    0  0.00000000000E+00  0.00000000000E+00  0.45593999997E+02  0.45594000000E+02  0.51100000000E-03 0.  1.
         11   -1    0    0    0    0 -0.00000000000E+00 -0.00000000000E+00 -0.45593999997E+02  0.45594000000E+02  0.51100000000E-03 0. -1.
    9900012    2    1    2    0    0 -0.51694503196E+00  0.41580518536E+00  0.97617425225E+00  0.90007727875E+02  0.89999989083E+02 0.  0.
         12    1    1    2    0    0  0.51694503196E+00 -0.41580518536E+00 -0.97617425225E+00  0.11802721250E+01  0.00000000000E+00 0. -1.
         11    1    3    3    0    0 -0.39251418801E+01  0.28175829510E+02 -0.23033051685E+02  0.36603354731E+02  0.51100000000E-03 0. -1.
        -11    1    3    3    0    0 -0.15290676003E+01  0.53228869928E+00 -0.92904749880E+01  0.94304986480E+01  0.51100000000E-03 0.  1.
        -12    1    3    3    0    0  0.49372644485E+01 -0.28292313024E+02  0.33299700926E+02  0.43973874496E+02  0.00000000000E+00 0.  1.
</event>
<event>
 7    1  0.2000468E-015  0.9000791E+02  0.7816164E-02  0.1186339E+00
        -11   -1    0    0    0    0  0.00000000000E+00  0.00000000000E+00  0.45593999997E+02  0.45594000000E+02  0.51100000000E-03 0.  1.
         11   -1    0    0    0    0 -0.00000000000E+00 -0.00000000000E+00 -0.45593999997E+02  0.45594000000E+02  0.51100000000E-03 0. -1.
    9900012    2    1    2    0    0  0.73988268114E+00 -0.91278681387E+00  0.10960234537E+00  0.90007907282E+02  0.90000170858E+02 0.  0.
         12    1    1    2    0    0 -0.73988268114E+00  0.91278681387E+00 -0.10960234537E+00  0.11800927182E+01  0.00000000000E+00 0. -1.
         11    1    3    3    0    0  0.29872901146E+01 -0.89632412592E+01  0.14004785581E+01  0.95511746163E+01  0.51100000000E-03 0. -1.
        -11    1    3    3    0    0  0.43834586020E+01 -0.20695217761E+01  0.38532403433E+02  0.38836113919E+02  0.51100000000E-03 0.  1.
         12    1    3    3    0    0 -0.66308660355E+01  0.10119976221E+02 -0.39823279646E+02  0.41620618747E+02  0.00000000000E+00 0. -1.
</event>
<event>
 7    1  0.2000468E-015  0.9000787E+02  0.7816164E-02  0.1186339E+00
        -11   -1    0    0    0    0  0.00000000000E+00  0.00000000000E+00  0.45593999997E+02  0.45594000000E+02  0.51100000000E-03 0. -1.
         11   -1    0    0    0    0 -0.00000000000E+00 -0.00000000000E+00 -0.45593999997E+02  0.45594000000E+02  0.51100000000E-03 0.  1.
    9900012    2    1    2    0    0  0.88103844744E-02  0.50971283068E+00 -0.10643384988E+01  0.90007872366E+02  0.90000135481E+02 0.  0.
         12    1    1    2    0    0 -0.88103844744E-02 -0.50971283068E+00  0.10643384988E+01  0.11801276340E+01  0.00000000000E+00 0. -1.
         11    1    3    3    0    0 -0.21707972159E+02  0.30007531447E+02 -0.68554587132E+00  0.37042650718E+02  0.51100000000E-03 0. -1.
        -11    1    3    3    0    0 -0.37787158360E+01  0.36783714722E+01  0.86784386422E+01  0.10155018837E+02  0.51100000000E-03 0.  1.
        -12    1    3    3    0    0  0.25495498379E+02 -0.33176190089E+02 -0.90572312696E+01  0.42810202811E+02  0.00000000000E+00 0.  1.
</event>
<event>
 7    1  0.2000468E-015  0.9000771E+02  0.7816164E-02  0.1186339E+00
        -11   -1    0    0    0    0  0.00000000000E+00  0.00000000000E+00  0.45593999997E+02  0.45594000000E+02  0.51100000000E-03 0.  1.
         11   -1    0    0    0    0 -0.00000000000E+00 -0.00000000000E+00 -0.45593999997E+02  0.45594000000E+02  0.51100000000E-03 0. -1.
    9900012    2    1    2    0    0 -0.10982093118E+01  0.35509473365E+00  0.24682294850E+00  0.90007712946E+02  0.89999973957E+02 0.  0.
         12    1    1    2    0    0  0.10982093118E+01 -0.35509473365E+00 -0.24682294850E+00  0.11802870542E+01  0.00000000000E+00 0. -1.
         11    1    3    3    0    0  0.12386895901E+02  0.81522832117E+01 -0.33573817260E+02  0.36702808030E+02  0.51100000000E-03 0. -1.
        -11    1    3    3    0    0 -0.20798563068E+01  0.91440139402E+01 -0.40998620616E+01  0.10234630544E+02  0.51100000000E-03 0.  1.
        -12    1    3    3    0    0 -0.11405248906E+02 -0.16941202418E+02  0.37920502270E+02  0.43070274371E+02  0.00000000000E+00 0.  1.
</event>
<event>
 7    1  0.2000468E-015  0.9000774E+02  0.7816164E-02  0.1186339E+00
        -11   -1    0    0    0    0  0.00000000000E+00  0.00000000000E+00  0.45593999997E+02  0.45594000000E+02  0.51100000000E-03 0.  1.
         11   -1    0    0    0    0 -0.00000000000E+00 -0.00000000000E+00 -0.45593999997E+02  0.45594000000E+02  0.51100000000E-03 0. -1.
    9900012    2    1    2    0    0  0.67597800603E+00 -0.88574920756E+00  0.38924917723E+00  0.90007740348E+02  0.90000001721E+02 0.  0.
         12    1    1    2    0    0 -0.67597800603E+00  0.88574920756E+00 -0.38924917723E+00  0.11802596516E+01  0.00000000000E+00 0. -1.
         11    1    3    3    0    0 -0.20352417687E+02  0.17545069277E+02 -0.23320926917E+02  0.35579713239E+02  0.51100000000E-03 0. -1.
        -11    1    3    3    0    0 -0.59882981911E+01  0.81306623290E+01  0.74715239251E+00  0.10125493672E+02  0.51100000000E-03 0.  1.
        -12    1    3    3    0    0  0.27016693884E+02 -0.26561480814E+02  0.22963023702E+02  0.44302533438E+02  0.00000000000E+00 0.  1.
</event>
<event>
 7    1  0.2000468E-015  0.9000785E+02  0.7816164E-02  0.1186339E+00
        -11   -1    0    0    0    0  0.00000000000E+00  0.00000000000E+00  0.45593999997E+02  0.45594000000E+02  0.51100000000E-03 0.  1.
         11   -1    0    0    0    0 -0.00000000000E+00 -0.00000000000E+00 -0.45593999997E+02  0.45594000000E+02  0.51100000000E-03 0. -1.
    9900012    2    1    2    0    0  0.51683988888E+00  0.38428824092E+00  0.98890973267E+00  0.90007854508E+02  0.90000117387E+02 0.  0.
         12    1    1    2    0    0 -0.51683988888E+00 -0.38428824092E+00 -0.98890973267E+00  0.11801454920E+01  0.00000000000E+00 0. -1.
         11    1    3    3    0    0 -0.77948227822E+01  0.37825607514E+01  0.54510837077E+01  0.10236275782E+02  0.51100000000E-03 0. -1.
        -11    1    3    3    0    0 -0.24121981232E+02  0.21419436381E+02  0.13734851301E+02  0.35061494177E+02  0.51100000000E-03 0.  1.
         12    1    3    3    0    0  0.32433643903E+02 -0.24817708891E+02 -0.18197025276E+02  0.44710084548E+02  0.00000000000E+00 0. -1.
</event>
<event>
 7    1  0.2000468E-015  0.9000773E+02  0.7816164E-02  0.1186339E+00
        -11   -1    0    0    0    0  0.00000000000E+00  0.00000000000E+00  0.45593999997E+02  0.45594000000E+02  0.51100000000E-03 0. -1.
         11   -1    0    0    0    0 -0.00000000000E+00 -0.00000000000E+00 -0.45593999997E+02  0.45594000000E+02  0.51100000000E-03 0.  1.
    9900012    2    1    2    0    0 -0.17882395530E+00  0.63978279674E+00 -0.97556956870E+00  0.90007730532E+02  0.89999991775E+02 0.  0.
         12    1    1    2    0    0  0.17882395530E+00 -0.63978279674E+00  0.97556956870E+00  0.11802694681E+01  0.00000000000E+00 0. -1.
         11    1    3    3    0    0  0.26585441334E+01 -0.35691809086E+01 -0.89636725506E+01  0.10007713781E+02  0.51100000000E-03 0. -1.
        -11    1    3    3    0    0 -0.94310801476E-01  0.19066636307E+02 -0.32001696218E+02  0.37251229184E+02  0.51100000000E-03 0.  1.
         12    1    3    3    0    0 -0.27430572872E+01 -0.14857672602E+02  0.39989799200E+02  0.42748787567E+02  0.00000000000E+00 0. -1.
</event>
<event>
 7    1  0.2000468E-015  0.9000778E+02  0.7816164E-02  0.1186339E+00
        -11   -1    0    0    0    0  0.00000000000E+00  0.00000000000E+00  0.45593999997E+02  0.45594000000E+02  0.51100000000E-03 0. -1.
         11   -1    0    0    0    0 -0.00000000000E+00 -0.00000000000E+00 -0.45593999997E+02  0.45594000000E+02  0.51100000000E-03 0.  1.
    9900012    2    1    2    0    0 -0.12954409193E+00 -0.11688775051E+01  0.99319202175E-01  0.90007779428E+02  0.90000041317E+02 0.  0.
         12    1    1    2    0    0  0.12954409193E+00  0.11688775051E+01 -0.99319202175E-01  0.11802205716E+01  0.00000000000E+00 0. -1.
         11    1    3    3    0    0 -0.77796891572E+01 -0.14560425702E+01 -0.25957312357E+01  0.83295524644E+01  0.51100000000E-03 0. -1.
        -11    1    3    3    0    0  0.24089154723E+01 -0.35880546894E+02  0.20102562982E+02  0.41198659661E+02  0.51100000000E-03 0.  1.
         12    1    3    3    0    0  0.52412295929E+01  0.36167711959E+02 -0.17407512544E+02  0.40479567303E+02  0.00000000000E+00 0. -1.
</event>
<event>
 7    1  0.2000468E-015  0.9000748E+02  0.7816164E-02  0.1186340E+00
        -11   -1    0    0    0    0  0.00000000000E+00  0.00000000000E+00  0.45593999997E+02  0.45594000000E+02  0.51100000000E-03 0. -1.
         11   -1    0    0    0    0 -0.00000000000E+00 -0.00000000000E+00 -0.45593999997E+02  0.45594000000E+02  0.51100000000E-03 0.  1.
    9900012    2    1    2    0    0  0.86589477422E-01 -0.11746224340E+01  0.79889900139E-01  0.90007484013E+02  0.89999742001E+02 0.  0.
         12    1    1    2    0    0 -0.86589477422E-01  0.11746224340E+01 -0.79889900139E-01  0.11805159873E+01  0.00000000000E+00 0. -1.
         11    1    3    3    0    0 -0.39817109795E+01 -0.68864124214E+01 -0.42430936233E+01  0.90155722015E+01  0.51100000000E-03 0. -1.
        -11    1    3    3    0    0 -0.26450677258E+02 -0.25441166508E+02 -0.27848874546E+01  0.36805527834E+02  0.51100000000E-03 0.  1.
         12    1    3    3    0    0  0.30518977715E+02  0.31152956496E+02  0.71078709780E+01  0.44186383978E+02  0.00000000000E+00 0. -1.
</event>
<event>
 7    1  0.2000468E-015  0.9000791E+02  0.7816164E-02  0.1186339E+00
        -11   -1    0    0    0    0  0.00000000000E+00  0.00000000000E+00  0.45593999997E+02  0.45594000000E+02  0.51100000000E-03 0. -1.
         11   -1    0    0    0    0 -0.00000000000E+00 -0.00000000000E+00 -0.45593999997E+02  0.45594000000E+02  0.51100000000E-03 0.  1.
    9900012    2    1    2    0    0 -0.54611507287E+00 -0.94573082537E+00  0.44717181731E+00  0.90007910554E+02  0.90000174173E+02 0.  0.
         12    1    1    2    0    0  0.54611507287E+00  0.94573082537E+00 -0.44717181731E+00  0.11800894462E+01  0.00000000000E+00 0. -1.
         11    1    3    3    0    0  0.79129582538E+01  0.25592388792E+01  0.50831980873E+01  0.97469746600E+01  0.51100000000E-03 0. -1.
        -11    1    3    3    0    0  0.24937551494E+02  0.21144253968E+02 -0.17133480781E+02  0.36912289475E+02  0.51100000000E-03 0.  1.
         12    1    3    3    0    0 -0.33396624820E+02 -0.24649223673E+02  0.12497454511E+02  0.43348646418E+02  0.00000000000E+00 0. -1.
</event>
<event>
 7    1  0.2000468E-015  0.9000773E+02  0.7816164E-02  0.1186339E+00
        -11   -1    0    0    0    0  0.00000000000E+00  0.00000000000E+00  0.45593999997E+02  0.45594000000E+02  0.51100000000E-03 0. -1.
         11   -1    0    0    0    0 -0.00000000000E+00 -0.00000000000E+00 -0.45593999997E+02  0.45594000000E+02  0.51100000000E-03 0.  1.
    9900012    2    1    2    0    0  0.85642624588E+00  0.37531237416E+00 -0.72022407260E+00  0.90007725452E+02  0.89999986628E+02 0.  0.
         12    1    1    2    0    0 -0.85642624588E+00 -0.37531237416E+00  0.72022407260E+00  0.11802745475E+01  0.00000000000E+00 0. -1.
         11    1    3    3    0    0  0.49119912924E+01  0.88432915140E+01 -0.47598631612E+00  0.10127093684E+02  0.51100000000E-03 0. -1.
        -11    1    3    3    0    0 -0.62548725448E+01  0.41408900672E+01 -0.38664003425E+02  0.39384966195E+02  0.51100000000E-03 0.  1.
         12    1    3    3    0    0  0.21993074983E+01 -0.12608869207E+02  0.38419765669E+02  0.40495665573E+02  0.00000000000E+00 0. -1.
</event>
<event>
 7    1  0.2000468E-015  0.9000751E+02  0.7816164E-02  0.1186340E+00
        -11   -1    0    0    0    0  0.00000000000E+00  0.00000000000E+00  0.45593999997E+02  0.45594000000E+02  0.51100000000E-03 0.  1.
         11   -1    0    0    0    0 -0.00000000000E+00 -0.00000000000E+00 -0.45593999997E+02  0.45594000000E+02  0.51100000000E-03 0. -1.
    9900012    2    1    2    0    0  0.10619415934E+01 -0.18847087215E+00  0.47992384033E+00  0.90007505142E+02  0.89999763409E+02 0.  0.
         12    1    1    2    0    0 -0.10619415934E+01  0.18847087215E+00 -0.47992384033E+00  0.11804948581E+01  0.00000000000E+00 0. -1.
         11    1    3    3    0    0 -0.91583443899E+01  0.57576954946E+01  0.42225248088E+01  0.11612753566E+02  0.51100000000E-03 0. -1.
        -11    1    3    3    0    0  0.19478360043E+01  0.35517674777E+02  0.24842116100E+01  0.35657686328E+02  0.51100000000E-03 0.  1.
         12    1    3    3    0    0  0.82724499790E+01 -0.41463841144E+02 -0.62268125785E+01  0.42737065247E+02  0.00000000000E+00 0. -1.
</event>
<event>
 7    1  0.2000468E-015  0.9000781E+02  0.7816164E-02  0.1186339E+00
        -11   -1    0    0    0    0  0.00000000000E+00  0.00000000000E+00  0.45593999997E+02  0.45594000000E+02  0.51100000000E-03 0.  1.
         11   -1    0    0    0    0 -0.00000000000E+00 -0.00000000000E+00 -0.45593999997E+02  0.45594000000E+02  0.51100000000E-03 0. -1.
    9900012    2    1    2    0    0  0.82526459923E+00 -0.24979098971E+00  0.80584912953E+00  0.90007809330E+02  0.90000071613E+02 0.  0.
         12    1    1    2    0    0 -0.82526459923E+00  0.24979098971E+00 -0.80584912953E+00  0.11801906697E+01  0.00000000000E+00 0. -1.
         11    1    3    3    0    0 -0.53487189316E+01  0.37707655064E+01  0.33557139268E+01  0.73544736679E+01  0.51100000000E-03 0. -1.
        -11    1    3    3    0    0  0.41179671535E+01 -0.31847703027E+02  0.27040987166E+02  0.41981529614E+02  0.51100000000E-03 0.  1.
         12    1    3    3    0    0  0.20560163773E+01  0.27827146530E+02 -0.29590851963E+02  0.40671806049E+02  0.00000000000E+00 0. -1.
</event>
<event>
 7    1  0.2000468E-015  0.9000773E+02  0.7816164E-02  0.1186339E+00
        -11   -1    0    0    0    0  0.00000000000E+00  0.00000000000E+00  0.45593999997E+02  0.45594000000E+02  0.51100000000E-03 0.  1.
         11   -1    0    0    0    0 -0.00000000000E+00 -0.00000000000E+00 -0.45593999997E+02  0.45594000000E+02  0.51100000000E-03 0. -1.
    9900012    2    1    2    0    0 -0.47754932840E+00 -0.36407655258E+00  0.10160827586E+01  0.90007733391E+02  0.89999994671E+02 0.  0.
         12    1    1    2    0    0  0.47754932840E+00  0.36407655258E+00 -0.10160827586E+01  0.11802666095E+01  0.00000000000E+00 0. -1.
         11    1    3    3    0    0  0.75737442862E+01 -0.58319175961E+01  0.32425213628E+01  0.10093899663E+02  0.51100000000E-03 0. -1.
        -11    1    3    3    0    0  0.33531928996E+02 -0.74385773472E+01 -0.98047887520E+01  0.35719134618E+02  0.51100000000E-03 0.  1.
         12    1    3    3    0    0 -0.41583222611E+02  0.12906418391E+02  0.75783501477E+01  0.44194699109E+02  0.00000000000E+00 0. -1.
</event>
<event>
 7    1  0.2840301E-015  0.9000775E+02  0.7816164E-02  0.1186339E+00
        -11   -1    0    0    0    0  0.00000000000E+00  0.00000000000E+00  0.45593999997E+02  0.45594000000E+02  0.51100000000E-03 0. -1.
         11   -1    0    0    0    0 -0.00000000000E+00 -0.00000000000E+00 -0.45593999997E+02  0.45594000000E+02  0.51100000000E-03 0.  1.
    9900012    2    1    2    0    0  0.11201598473E+00  0.62154242840E+00 -0.99706134132E+00  0.90007748379E+02  0.90000009857E+02 0.  0.
         12    1    1    2    0    0 -0.11201598473E+00 -0.62154242840E+00  0.99706134132E+00  0.11802516213E+01  0.00000000000E+00 0. -1.
         11    1    3    3    0    0  0.32724213697E+02 -0.62381541301E+01  0.18816263486E+02  0.38260168594E+02  0.51100000000E-03 0. -1.
        -11    1    3    3    0    0  0.18991741077E+00  0.46273996778E+01  0.76270846071E+01  0.89230777350E+01  0.51100000000E-03 0.  1.
        -12    1    3    3    0    0 -0.32802115123E+02  0.22322968807E+01 -0.27440409434E+02  0.42824502050E+02  0.00000000000E+00 0.  1.
</event>
<event>
 7    1  0.2000468E-015  0.9000767E+02  0.7816164E-02  0.1186339E+00
        -11   -1    0    0    0    0  0.00000000000E+00  0.00000000000E+00  0.45593999997E+02  0.45594000000E+02  0.51100000000E-03 0.  1.
         11   -1    0    0    0    0 -0.00000000000E+00 -0.00000000000E+00 -0.45593999997E+02  0.45594000000E+02  0.51100000000E-03 0. -1.
    9900012    2    1    2    0    0  0.51768602339E+00  0.81331661744E+00  0.68095723076E+00  0.90007667213E+02  0.89999927620E+02 0.  0.
         12    1    1    2    0    0 -0.51768602339E+00 -0.81331661744E+00 -0.68095723076E+00  0.11803327875E+01  0.00000000000E+00 0. -1.
         11    1    3    3    0    0  0.11085619611E+02 -0.27901645409E+02 -0.23075546087E+02  0.37866523556E+02  0.51100000000E-03 0. -1.
        -11    1    3    3    0    0  0.20098696712E+01 -0.52285734120E+01 -0.36949539321E+01  0.67104575732E+01  0.51100000000E-03 0.  1.
        -12    1    3    3    0    0 -0.12577803259E+02  0.33943535438E+02  0.27451457250E+02  0.45430686084E+02  0.00000000000E+00 0.  1.
</event>
<event>
 7    1  0.2000468E-015  0.9000774E+02  0.7816164E-02  0.1186339E+00
        -11   -1    0    0    0    0  0.00000000000E+00  0.00000000000E+00  0.45593999997E+02  0.45594000000E+02  0.51100000000E-03 0.  1.
         11   -1    0    0    0    0 -0.00000000000E+00 -0.00000000000E+00 -0.45593999997E+02  0.45594000000E+02  0.51100000000E-03 0. -1.
    9900012    2    1    2    0    0  0.79492861589E+00 -0.76300179134E+00 -0.42299748869E+00  0.90007741506E+02  0.90000002894E+02 0.  0.
         12    1    1    2    0    0 -0.79492861589E+00  0.76300179134E+00  0.42299748869E+00  0.11802584943E+01  0.00000000000E+00 0. -1.
         11    1    3    3    0    0  0.87867845964E+01  0.63756142703E+01 -0.34020233741E+02  0.35710395474E+02  0.51100000000E-03 0. -1.
        -11    1    3    3    0    0  0.28479253302E+01  0.75463924910E+01 -0.64233122428E+01  0.10311045473E+02  0.51100000000E-03 0.  1.
        -12    1    3    3    0    0 -0.10839781311E+02 -0.14685008553E+02  0.40020548495E+02  0.43986300559E+02  0.00000000000E+00 0.  1.
</event>
<event>
 7    1  0.2000468E-015  0.9000773E+02  0.7816164E-02  0.1186339E+00
        -11   -1    0    0    0    0  0.00000000000E+00  0.00000000000E+00  0.45593999997E+02  0.45594000000E+02  0.51100000000E-03 0.  1.
         11   -1    0    0    0    0 -0.00000000000E+00 -0.00000000000E+00 -0.45593999997E+02  0.45594000000E+02  0.51100000000E-03 0. -1.
    9900012    2    1    2    0    0  0.82401711879E+00  0.65552372365E+00 -0.53322037883E+00  0.90007729041E+02  0.89999990264E+02 0.  0.
         12    1    1    2    0    0 -0.82401711879E+00 -0.65552372365E+00  0.53322037883E+00  0.11802709590E+01  0.00000000000E+00 0. -1.
         11    1    3    3    0    0 -0.48866501454E+01 -0.80827672121E+01  0.40770709813E+01  0.10287515905E+02  0.51100000000E-03 0. -1.
        -11    1    3    3    0    0  0.18824668873E+02  0.20683892562E+02  0.29885344362E+02  0.40930738787E+02  0.51100000000E-03 0.  1.
         12    1    3    3    0    0 -0.13114001609E+02 -0.11945601626E+02 -0.34495635722E+02  0.38789474349E+02  0.00000000000E+00 0. -1.
</event>
<event>
 7    1  0.2000468E-015  0.9000704E+02  0.7816164E-02  0.1186340E+00
        -11   -1    0    0    0    0  0.00000000000E+00  0.00000000000E+00  0.45593999997E+02  0.45594000000E+02  0.51100000000E-03 0.  1.
         11   -1    0    0    0    0 -0.00000000000E+00 -0.00000000000E+00 -0.45593999997E+02  0.45594000000E+02  0.51100000000E-03 0. -1.
    9900012    2    1    2    0    0 -0.11438002026E+01 -0.12532255806E+00 -0.26588066258E+00  0.90007035490E+02  0.89999287556E+02 0.  0.
         12    1    1    2    0    0  0.11438002026E+01  0.12532255806E+00  0.26588066258E+00  0.11809645099E+01  0.00000000000E+00 0. -1.
         11    1    3    3    0    0  0.10982412116E+02 -0.27933010456E+02  0.42925825483E+01  0.30319840274E+02  0.51100000000E-03 0. -1.
        -11    1    3    3    0    0  0.26922668645E+01 -0.11062374993E+02  0.10459460674E+02  0.15460425583E+02  0.51100000000E-03 0.  1.
        -12    1    3    3    0    0 -0.14818479183E+02  0.38870062891E+02 -0.15017923885E+02  0.44226769634E+02  0.00000000000E+00 0.  1.
</event>
<event>
 7    1  0.2000468E-015  0.9000767E+02  0.7816164E-02  0.1186339E+00
        -11   -1    0    0    0    0  0.00000000000E+00  0.00000000000E+00  0.45593999997E+02  0.45594000000E+02  0.51100000000E-03 0.  1.
         11   -1    0    0    0    0 -0.00000000000E+00 -0.00000000000E+00 -0.45593999997E+02  0.45594000000E+02  0.51100000000E-03 0. -1.
    9900012    2    1    2    0    0  0.75531205961E+00 -0.41719891278E+00  0.80537695987E+00  0.90007668145E+02  0.89999928565E+02 0.  0.
         12    1    1    2    0    0 -0.75531205961E+00  0.41719891278E+00 -0.80537695987E+00  0.11803318549E+01  0.00000000000E+00 0. -1.
         11    1    3    3    0    0 -0.12699221139E+02 -0.26570436864E+02 -0.22862572384E+02  0.37282107625E+02  0.51100000000E-03 0. -1.
        -11    1    3    3    0    0 -0.94733341548E+01  0.77617292117E+00 -0.23049400092E+01  0.97805548472E+01  0.51100000000E-03 0.  1.
        -12    1    3    3    0    0  0.22927867353E+02  0.25377065030E+02  0.25972889353E+02  0.42945005673E+02  0.00000000000E+00 0.  1.
</event>
<event>
 7    1  0.2000468E-015  0.9000775E+02  0.7816164E-02  0.1186339E+00
        -11   -1    0    0    0    0  0.00000000000E+00  0.00000000000E+00  0.45593999997E+02  0.45594000000E+02  0.51100000000E-03 0. -1.
         11   -1    0    0    0    0 -0.00000000000E+00 -0.00000000000E+00 -0.45593999997E+02  0.45594000000E+02  0.51100000000E-03 0.  1.
    9900012    2    1    2    0    0  0.91757042063E-02  0.43728195009E+00 -0.10962199845E+01  0.90007746658E+02  0.90000008114E+02 0.  0.
         12    1    1    2    0    0 -0.91757042063E-02 -0.43728195009E+00  0.10962199845E+01  0.11802533422E+01  0.00000000000E+00 0. -1.
         11    1    3    3    0    0  0.12898971255E+02 -0.36911733572E+02 -0.18287232031E+02  0.43165754833E+02  0.51100000000E-03 0. -1.
        -11    1    3    3    0    0 -0.56072969829E+01  0.78171477247E+00  0.51692623859E+01  0.76664288502E+01  0.51100000000E-03 0.  1.
        -12    1    3    3    0    0 -0.72824985674E+01  0.36567300749E+02  0.12021749660E+02  0.39175562975E+02  0.00000000000E+00 0.  1.
</event>
<event>
 7    1  0.2000468E-015  0.9000777E+02  0.7816164E-02  0.1186339E+00
        -11   -1    0    0    0    0  0.00000000000E+00  0.00000000000E+00  0.45593999997E+02  0.45594000000E+02  0.51100000000E-03 0.  1.
         11   -1    0    0    0    0 -0.00000000000E+00 -0.00000000000E+00 -0.45593999997E+02  0.45594000000E+02  0.51100000000E-03 0. -1.
    9900012    2    1    2    0    0  0.11702174459E+01 -0.13265293363E+00 -0.77116089882E-01  0.90007765886E+02  0.90000027596E+02 0.  0.
         12    1    1    2    0    0 -0.11702174459E+01  0.13265293363E+00  0.77116089882E-01  0.11802341136E+01  0.00000000000E+00 0. -1.
         11    1    3    3    0    0 -0.29309857374E+02  0.76551977898E+01 -0.22038077186E+02  0.37461268516E+02  0.51100000000E-03 0. -1.
        -11    1    3    3    0    0  0.76323836191E+00  0.77885109926E+01 -0.51856954889E+01  0.93880175886E+01  0.51100000000E-03 0.  1.
        -12    1    3    3    0    0  0.29716836458E+02 -0.15576361716E+02  0.27146656585E+02  0.43158479782E+02  0.00000000000E+00 0.  1.
</event>
<event>
 7    1  0.2000468E-015  0.9000760E+02  0.7816164E-02  0.1186339E+00
        -11   -1    0    0    0    0  0.00000000000E+00  0.00000000000E+00  0.45593999997E+02  0.45594000000E+02  0.51100000000E-03 0. -1.
         11   -1    0    0    0    0 -0.00000000000E+00 -0.00000000000E+00 -0.45593999997E+02  0.45594000000E+02  0.51100000000E-03 0.  1.
    9900012    2    1    2    0    0  0.34529642036E-01 -0.91171698512E+00 -0.74895326335E+00  0.90007597040E+02  0.89999856521E+02 0.  0.
         12    1    1    2    0    0 -0.34529642036E-01  0.91171698512E+00  0.74895326335E+00  0.11804029599E+01  0.00000000000E+00 0. -1.
         11    1    3    3    0    0  0.34727937053E+02 -0.80683846885E+01  0.46295097474E+01  0.35952201660E+02  0.51100000000E-03 0. -1.
        -11    1    3    3    0    0  0.85726530421E+01  0.56998299721E+01  0.80237279464E+00  0.10325804775E+02  0.51100000000E-03 0.  1.
        -12    1    3    3    0    0 -0.43266060453E+02  0.14568377313E+01 -0.61808358054E+01  0.43729590605E+02  0.00000000000E+00 0.  1.
</event>
<event>
 7    1  0.2000468E-015  0.9000771E+02  0.7816164E-02  0.1186339E+00
        -11   -1    0    0    0    0  0.00000000000E+00  0.00000000000E+00  0.45593999997E+02  0.45594000000E+02  0.51100000000E-03 0. -1.
         11   -1    0    0    0    0 -0.00000000000E+00 -0.00000000000E+00 -0.45593999997E+02  0.45594000000E+02  0.51100000000E-03 0.  1.
    9900012    2    1    2    0    0  0.73748370194E+00  0.68142568397E+00 -0.62037434974E+00  0.90007708719E+02  0.89999969674E+02 0.  0.
         12    1    1    2    0    0 -0.73748370194E+00 -0.68142568397E+00  0.62037434974E+00  0.11802912807E+01  0.00000000000E+00 0. -1.
         11    1    3    3    0    0  0.17600127410E+02  0.29612153493E+02 -0.11945185879E+02  0.36459999798E+02  0.51100000000E-03 0. -1.
        -11    1    3    3    0    0  0.68006410642E+01  0.44957296496E+01 -0.48827181047E+01  0.95026964762E+01  0.51100000000E-03 0.  1.
        -12    1    3    3    0    0 -0.23663284772E+02 -0.33426457459E+02  0.16207529634E+02  0.44045012445E+02  0.00000000000E+00 0.  1.
</event>
<event>
 7    1  0.2000468E-015  0.9000768E+02  0.7816164E-02  0.1186339E+00
        -11   -1    0    0    0    0  0.00000000000E+00  0.00000000000E+00  0.45593999997E+02  0.45594000000E+02  0.51100000000E-03 0.  1.
         11   -1    0    0    0    0 -0.00000000000E+00 -0.00000000000E+00 -0.45593999997E+02  0.45594000000E+02  0.51100000000E-03 0. -1.
    9900012    2    1    2    0    0  0.21638021638E+00 -0.85072249154E+00  0.78905521805E+00  0.90007679157E+02  0.89999939722E+02 0.  0.
         12    1    1    2    0    0 -0.21638021638E+00  0.85072249154E+00 -0.78905521805E+00  0.11803208432E+01  0.00000000000E+00 0. -1.
         11    1    3    3    0    0  0.78348094412E+01 -0.41957057514E+01  0.77293833297E+01  0.11778435917E+02  0.51100000000E-03 0. -1.
        -11    1    3    3    0    0 -0.16408020409E+02 -0.30985261403E+02  0.13205093276E+02  0.37465771667E+02  0.51100000000E-03 0.  1.
         12    1    3    3    0    0  0.87895911844E+01  0.34330244662E+02 -0.20145421388E+02  0.40763471573E+02  0.00000000000E+00 0. -1.
</event>
<event>
 7    1  0.2000468E-015  0.9000768E+02  0.7816164E-02  0.1186339E+00
        -11   -1    0    0    0    0  0.00000000000E+00  0.00000000000E+00  0.45593999997E+02  0.45594000000E+02  0.51100000000E-03 0.  1.
         11   -1    0    0    0    0 -0.00000000000E+00 -0.00000000000E+00 -0.45593999997E+02  0.45594000000E+02  0.51100000000E-03 0. -1.
    9900012    2    1    2    0    0  0.21535766081E+00  0.11130242316E+01  0.32856674488E+00  0.90007678871E+02  0.89999939432E+02 0.  0.
         12    1    1    2    0    0 -0.21535766081E+00 -0.11130242316E+01 -0.32856674488E+00  0.11803211292E+01  0.00000000000E+00 0. -1.
         11    1    3    3    0    0 -0.13841269982E+02  0.35904123542E+02 -0.79799695949E+01  0.39298431992E+02  0.51100000000E-03 0. -1.
        -11    1    3    3    0    0 -0.25234914734E+01 -0.63834613799E+01 -0.10705268027E+02  0.12716892396E+02  0.51100000000E-03 0.  1.
        -12    1    3    3    0    0  0.16580119117E+02 -0.28407637930E+02  0.19013804367E+02  0.37992354483E+02  0.00000000000E+00 0.  1.
</event>
<event>
 7    1  0.2000468E-015  0.9000777E+02  0.7816164E-02  0.1186339E+00
        -11   -1    0    0    0    0  0.00000000000E+00  0.00000000000E+00  0.45593999997E+02  0.45594000000E+02  0.51100000000E-03 0.  1.
         11   -1    0    0    0    0 -0.00000000000E+00 -0.00000000000E+00 -0.45593999997E+02  0.45594000000E+02  0.51100000000E-03 0. -1.
    9900012    2    1    2    0    0 -0.86465840144E+00 -0.46969684291E+00  0.65168539410E+00  0.90007769883E+02  0.90000031646E+02 0.  0.
         12    1    1    2    0    0  0.86465840144E+00  0.46969684291E+00 -0.65168539410E+00  0.11802301167E+01  0.00000000000E+00 0. -1.
         11    1    3    3    0    0 -0.89038003455E+01  0.14945377876E+01  0.13358724814E+01  0.91266565258E+01  0.51100000000E-03 0. -1.
        -11    1    3    3    0    0 -0.27456728026E+02 -0.19697449846E+02  0.16543223604E+02  0.37623658671E+02  0.51100000000E-03 0.  1.
         12    1    3    3    0    0  0.35495869970E+02  0.17733215215E+02 -0.17227410691E+02  0.43257454686E+02  0.00000000000E+00 0. -1.
</event>
<event>
 7    1  0.2000468E-015  0.9000771E+02  0.7816164E-02  0.1186339E+00
        -11   -1    0    0    0    0  0.00000000000E+00  0.00000000000E+00  0.45593999997E+02  0.45594000000E+02  0.51100000000E-03 0.  1.
         11   -1    0    0    0    0 -0.00000000000E+00 -0.00000000000E+00 -0.45593999997E+02  0.45594000000E+02  0.51100000000E-03 0. -1.
    9900012    2    1    2    0    0 -0.87755588012E+00 -0.40551363137E+00  0.67714671878E+00  0.90007714735E+02  0.89999975770E+02 0.  0.
         12    1    1    2    0    0  0.87755588012E+00  0.40551363137E+00 -0.67714671878E+00  0.11802852650E+01  0.00000000000E+00 0. -1.
         11    1    3    3    0    0  0.65800896680E+01  0.87210665277E+01  0.19463079190E+01  0.11096967883E+02  0.51100000000E-03 0. -1.
        -11    1    3    3    0    0 -0.90600493366E+00  0.15793317996E+02  0.32670100235E+02  0.36298556278E+02  0.51100000000E-03 0.  1.
         12    1    3    3    0    0 -0.65516406144E+01 -0.24919898155E+02 -0.33939261435E+02  0.42612190574E+02  0.00000000000E+00 0. -1.
</event>
<event>
 7    1  0.2000468E-015  0.9000768E+02  0.7816164E-02  0.1186339E+00
        -11   -1    0    0    0    0  0.00000000000E+00  0.00000000000E+00  0.45593999997E+02  0.45594000000E+02  0.51100000000E-03 0.  1.
         11   -1    0    0    0    0 -0.00000000000E+00 -0.00000000000E+00 -0.45593999997E+02  0.45594000000E+02  0.51100000000E-03 0. -1.
    9900012    2    1    2    0    0 -0.13920387310E+00  0.11691166567E+01 -0.83315284066E-01  0.90007681013E+02  0.89999941602E+02 0.  0.
         12    1    1    2    0    0  0.13920387310E+00 -0.11691166567E+01  0.83315284066E-01  0.11803189873E+01  0.00000000000E+00 0. -1.
         11    1    3    3    0    0 -0.10783759698E+02  0.16374277919E+01 -0.32824571962E+00  0.10912304455E+02  0.51100000000E-03 0. -1.
        -11    1    3    3    0    0 -0.17443721524E+02  0.31577223679E+02  0.41055710426E+01  0.36307853004E+02  0.51100000000E-03 0.  1.
         12    1    3    3    0    0  0.28088277349E+02 -0.32045534814E+02 -0.38606406070E+01  0.42787523554E+02  0.00000000000E+00 0. -1.
</event>
<event>
 7    1  0.2000468E-015  0.9000783E+02  0.7816164E-02  0.1186339E+00
        -11   -1    0    0    0    0  0.00000000000E+00  0.00000000000E+00  0.45593999997E+02  0.45594000000E+02  0.51100000000E-03 0.  1.
         11   -1    0    0    0    0 -0.00000000000E+00 -0.00000000000E+00 -0.45593999997E+02  0.45594000000E+02  0.51100000000E-03 0. -1.
    9900012    2    1    2    0    0  0.25252704784E+00  0.27913615531E+00  0.11185291378E+01  0.90007832921E+02  0.90000095515E+02 0.  0.
         12    1    1    2    0    0 -0.25252704784E+00 -0.27913615531E+00 -0.11185291378E+01  0.11801670793E+01  0.00000000000E+00 0. -1.
         11    1    3    3    0    0 -0.27337305312E+02 -0.21522412068E+02  0.19998963708E+02  0.40131048237E+02  0.51100000000E-03 0. -1.
        -11    1    3    3    0    0 -0.61575536902E+01  0.59761421622E+01 -0.13496277313E+01  0.86862671997E+01  0.51100000000E-03 0.  1.
        -12    1    3    3    0    0  0.33747386050E+02  0.15825406061E+02 -0.17530806839E+02  0.41190517484E+02  0.00000000000E+00 0.  1.
</event>
<event>
 7    1  0.2000468E-015  0.9000784E+02  0.7816164E-02  0.1186339E+00
        -11   -1    0    0    0    0  0.00000000000E+00  0.00000000000E+00  0.45593999997E+02  0.45594000000E+02  0.51100000000E-03 0. -1.
         11   -1    0    0    0    0 -0.00000000000E+00 -0.00000000000E+00 -0.45593999997E+02  0.45594000000E+02  0.51100000000E-03 0.  1.
    9900012    2    1    2    0    0  0.83025735638E+00  0.76073568182E+00 -0.35318759595E+00  0.90007835802E+02  0.90000098435E+02 0.  0.
         12    1    1    2    0    0 -0.83025735638E+00 -0.76073568182E+00  0.35318759595E+00  0.11801641976E+01  0.00000000000E+00 0. -1.
         11    1    3    3    0    0 -0.96912411998E+01  0.18054061066E+01 -0.12672064339E+01  0.99390874636E+01  0.51100000000E-03 0. -1.
        -11    1    3    3    0    0  0.30173733768E+02 -0.15784960003E+02 -0.26580032309E+02  0.43198579718E+02  0.51100000000E-03 0.  1.
         12    1    3    3    0    0 -0.19652235212E+02  0.14740289578E+02  0.27494051147E+02  0.36870168621E+02  0.00000000000E+00 0. -1.
</event>
<event>
 7    1  0.2000468E-015  0.9000764E+02  0.7816164E-02  0.1186339E+00
        -11   -1    0    0    0    0  0.00000000000E+00  0.00000000000E+00  0.45593999997E+02  0.45594000000E+02  0.51100000000E-03 0. -1.
         11   -1    0    0    0    0 -0.00000000000E+00 -0.00000000000E+00 -0.45593999997E+02  0.45594000000E+02  0.51100000000E-03 0.  1.
    9900012    2    1    2    0    0  0.61898357445E+00 -0.88241653397E+00 -0.48109786213E+00  0.90007637870E+02  0.89999897890E+02 0.  0.
         12    1    1    2    0    0 -0.61898357445E+00  0.88241653397E+00  0.48109786213E+00  0.11803621299E+01  0.00000000000E+00 0. -1.
         11    1    3    3    0    0  0.71042379970E+01  0.12255158709E+01 -0.78911178051E+01  0.10688396846E+02  0.51100000000E-03 0. -1.
        -11    1    3    3    0    0 -0.35151546548E+02 -0.35385802571E+01 -0.19174444530E+02  0.40197165301E+02  0.51100000000E-03 0.  1.
         12    1    3    3    0    0  0.28666292126E+02  0.14306478522E+01  0.26584464473E+02  0.39122075722E+02  0.00000000000E+00 0. -1.
</event>
<event>
 7    1  0.2000468E-015  0.9000767E+02  0.7816164E-02  0.1186339E+00
        -11   -1    0    0    0    0  0.00000000000E+00  0.00000000000E+00  0.45593999997E+02  0.45594000000E+02  0.51100000000E-03 0.  1.
         11   -1    0    0    0    0 -0.00000000000E+00 -0.00000000000E+00 -0.45593999997E+02  0.45594000000E+02  0.51100000000E-03 0. -1.
    9900012    2    1    2    0    0 -0.95698881791E+00 -0.69088332648E+00 -0.52230047387E-02  0.90007671805E+02  0.89999932273E+02 0.  0.
         12    1    1    2    0    0  0.95698881791E+00  0.69088332648E+00  0.52230047387E-02  0.11803281951E+01  0.00000000000E+00 0. -1.
         11    1    3    3    0    0 -0.30961428322E+01  0.14477121775E+01  0.96829884913E+01  0.10268507066E+02  0.51100000000E-03 0. -1.
        -11    1    3    3    0    0 -0.30652826218E+02 -0.14947426661E+02  0.14466467131E+02  0.37044567624E+02  0.51100000000E-03 0.  1.
         12    1    3    3    0    0  0.32791980232E+02  0.12808831157E+02 -0.24154678627E+02  0.42694597114E+02  0.00000000000E+00 0. -1.
</event>
<event>
 7    1  0.2000468E-015  0.9000784E+02  0.7816164E-02  0.1186339E+00
        -11   -1    0    0    0    0  0.00000000000E+00  0.00000000000E+00  0.45593999997E+02  0.45594000000E+02  0.51100000000E-03 0.  1.
         11   -1    0    0    0    0 -0.00000000000E+00 -0.00000000000E+00 -0.45593999997E+02  0.45594000000E+02  0.51100000000E-03 0. -1.
    9900012    2    1    2    0    0  0.74495872004E+00 -0.68948710076E+00 -0.60200720232E+00  0.90007843812E+02  0.90000106550E+02 0.  0.
         12    1    1    2    0    0 -0.74495872004E+00  0.68948710076E+00  0.60200720232E+00  0.11801561881E+01  0.00000000000E+00 0. -1.
         11    1    3    3    0    0 -0.28037935440E+02  0.20319513568E+02  0.12114702646E+02  0.36684798975E+02  0.51100000000E-03 0. -1.
        -11    1    3    3    0    0  0.35367000706E+01  0.10964066866E+01  0.11408631005E+02  0.11994466085E+02  0.51100000000E-03 0.  1.
        -12    1    3    3    0    0  0.25246194089E+02 -0.22105407355E+02 -0.24125340853E+02  0.41328578752E+02  0.00000000000E+00 0.  1.
</event>
<event>
 7    1  0.2000468E-015  0.9000793E+02  0.7816164E-02  0.1186339E+00
        -11   -1    0    0    0    0  0.00000000000E+00  0.00000000000E+00  0.45593999997E+02  0.45594000000E+02  0.51100000000E-03 0.  1.
         11   -1    0    0    0    0 -0.00000000000E+00 -0.00000000000E+00 -0.45593999997E+02  0.45594000000E+02  0.51100000000E-03 0. -1.
    9900012    2    1    2    0    0  0.45372957589E+00 -0.10387540999E+01  0.32815637193E+00  0.90007929149E+02  0.90000193014E+02 0.  0.
         12    1    1    2    0    0 -0.45372957589E+00  0.10387540999E+01 -0.32815637193E+00  0.11800708507E+01  0.00000000000E+00 0. -1.
         11    1    3    3    0    0 -0.24771063516E+01 -0.11518861214E+02  0.47952169139E+01  0.12720625970E+02  0.51100000000E-03 0. -1.
        -11    1    3    3    0    0 -0.32326062413E+02 -0.75833552718E+01  0.10674559955E+02  0.34877325282E+02  0.51100000000E-03 0.  1.
         12    1    3    3    0    0  0.35256898341E+02  0.18063462386E+02 -0.15141620497E+02  0.42409977898E+02  0.00000000000E+00 0. -1.
</event>
<event>
 7    1  0.2000468E-015  0.9000768E+02  0.7816164E-02  0.1186339E+00
        -11   -1    0    0    0    0  0.00000000000E+00  0.00000000000E+00  0.45593999997E+02  0.45594000000E+02  0.51100000000E-03 0. -1.
         11   -1    0    0    0    0 -0.00000000000E+00 -0.00000000000E+00 -0.45593999997E+02  0.45594000000E+02  0.51100000000E-03 0.  1.
    9900012    2    1    2    0    0  0.53520753679E+00  0.26677695595E+00 -0.10176110702E+01  0.90007682525E+02  0.89999943134E+02 0.  0.
         12    1    1    2    0    0 -0.53520753679E+00 -0.26677695595E+00  0.10176110702E+01  0.11803174751E+01  0.00000000000E+00 0. -1.
         11    1    3    3    0    0  0.11869451990E+01 -0.70791924903E+01  0.36745399223E+02  0.37439927477E+02  0.51100000000E-03 0. -1.
        -11    1    3    3    0    0  0.43503070781E+01  0.33343365813E+01  0.61217839414E+01  0.82170074235E+01  0.51100000000E-03 0.  1.
        -12    1    3    3    0    0 -0.50020447404E+01  0.40116328650E+01 -0.43884794234E+02  0.44350747624E+02  0.00000000000E+00 0.  1.
</event>
<event>
 7    1  0.2000468E-015  0.9000774E+02  0.7816164E-02  0.1186339E+00
        -11   -1    0    0    0    0  0.00000000000E+00  0.00000000000E+00  0.45593999997E+02  0.45594000000E+02  0.51100000000E-03 0. -1.
         11   -1    0    0    0    0 -0.00000000000E+00 -0.00000000000E+00 -0.45593999997E+02  0.45594000000E+02  0.51100000000E-03 0.  1.
    9900012    2    1    2    0    0 -0.11455633216E+01  0.28115637098E+00 -0.40478047407E-01  0.90007744646E+02  0.90000006075E+02 0.  0.
         12    1    1    2    0    0  0.11455633216E+01 -0.28115637098E+00  0.40478047407E-01  0.11802553541E+01  0.00000000000E+00 0. -1.
         11    1    3    3    0    0  0.72883329955E+01  0.32501695124E+00  0.39308824885E+01  0.82871751080E+01  0.51100000000E-03 0. -1.
        -11    1    3    3    0    0  0.27827580654E+02 -0.24843642779E+02  0.21471301281E+01  0.37365639291E+02  0.51100000000E-03 0.  1.
         12    1    3    3    0    0 -0.36261476971E+02  0.24799782199E+02 -0.61184906640E+01  0.44354930247E+02  0.00000000000E+00 0. -1.
</event>
<event>
 7    1  0.2000468E-015  0.9000780E+02  0.7816164E-02  0.1186339E+00
        -11   -1    0    0    0    0  0.00000000000E+00  0.00000000000E+00  0.45593999997E+02  0.45594000000E+02  0.51100000000E-03 0.  1.
         11   -1    0    0    0    0 -0.00000000000E+00 -0.00000000000E+00 -0.45593999997E+02  0.45594000000E+02  0.51100000000E-03 0. -1.
    9900012    2    1    2    0    0 -0.40203055777E+00 -0.11043115919E+01 -0.10837058766E+00  0.90007797964E+02  0.90000060097E+02 0.  0.
         12    1    1    2    0    0  0.40203055777E+00  0.11043115919E+01  0.10837058766E+00  0.11802020359E+01  0.00000000000E+00 0. -1.
         11    1    3    3    0    0 -0.25925884371E+01 -0.89690371836E+01 -0.39569463310E+01  0.10140146317E+02  0.51100000000E-03 0. -1.
        -11    1    3    3    0    0 -0.31835982973E+02  0.26090608808E+02  0.27132388310E+01  0.41250592058E+02  0.51100000000E-03 0.  1.
         12    1    3    3    0    0  0.34026540853E+02 -0.18225883217E+02  0.11353369123E+01  0.38617059589E+02  0.00000000000E+00 0. -1.
</event>
<event>
 7    1  0.2000468E-015  0.9000763E+02  0.7816164E-02  0.1186339E+00
        -11   -1    0    0    0    0  0.00000000000E+00  0.00000000000E+00  0.45593999997E+02  0.45594000000E+02  0.51100000000E-03 0.  1.
         11   -1    0    0    0    0 -0.00000000000E+00 -0.00000000000E+00 -0.45593999997E+02  0.45594000000E+02  0.51100000000E-03 0. -1.
    9900012    2    1    2    0    0 -0.52870148519E+00  0.10300833687E+01  0.22949178449E+00  0.90007634173E+02  0.89999894144E+02 0.  0.
         12    1    1    2    0    0  0.52870148519E+00 -0.10300833687E+01 -0.22949178449E+00  0.11803658272E+01  0.00000000000E+00 0. -1.
         11    1    3    3    0    0  0.23061843865E+02  0.28150378117E+02 -0.34615763596E-01  0.36390845402E+02  0.51100000000E-03 0. -1.
        -11    1    3    3    0    0  0.18079925390E+01  0.76094341290E+01  0.64635533959E+01  0.10146420430E+02  0.51100000000E-03 0.  1.
        -12    1    3    3    0    0 -0.25398537889E+02 -0.34729728877E+02 -0.61994458478E+01  0.43470368340E+02  0.00000000000E+00 0.  1.
</event>
<event>
 7    1  0.2000468E-015  0.9000782E+02  0.7816164E-02  0.1186339E+00
        -11   -1    0    0    0    0  0.00000000000E+00  0.00000000000E+00  0.45593999997E+02  0.45594000000E+02  0.51100000000E-03 0.  1.
         11   -1    0    0    0    0 -0.00000000000E+00 -0.00000000000E+00 -0.45593999997E+02  0.45594000000E+02  0.51100000000E-03 0. -1.
    9900012    2    1    2    0    0  0.44138689111E+00  0.52354382375E+00  0.96119650471E+00  0.90007822368E+02  0.90000084823E+02 0.  0.
         12    1    1    2    0    0 -0.44138689111E+00 -0.52354382375E+00 -0.96119650471E+00  0.11801776323E+01  0.00000000000E+00 0. -1.
         11    1    3    3    0    0 -0.10731539994E+02 -0.29591217941E+02 -0.25727265725E+02  0.40653392623E+02  0.51100000000E-03 0. -1.
        -11    1    3    3    0    0 -0.55353021668E+01  0.77574278902E+01 -0.15444456691E+01  0.96541478255E+01  0.51100000000E-03 0.  1.
        -12    1    3    3    0    0  0.16708229052E+02  0.22357333874E+02  0.28232907898E+02  0.39700281919E+02  0.00000000000E+00 0.  1.
</event>
<event>
 7    1  0.2000468E-015  0.9000777E+02  0.7816164E-02  0.1186339E+00
        -11   -1    0    0    0    0  0.00000000000E+00  0.00000000000E+00  0.45593999997E+02  0.45594000000E+02  0.51100000000E-03 0. -1.
         11   -1    0    0    0    0 -0.00000000000E+00 -0.00000000000E+00 -0.45593999997E+02  0.45594000000E+02  0.51100000000E-03 0.  1.
    9900012    2    1    2    0    0 -0.55359926829E-01  0.25724858020E+00 -0.11505254335E+01  0.90007766834E+02  0.90000028556E+02 0.  0.
         12    1    1    2    0    0  0.55359926829E-01 -0.25724858020E+00  0.11505254335E+01  0.11802331663E+01  0.00000000000E+00 0. -1.
         11    1    3    3    0    0 -0.21691728154E+02 -0.16566124927E+02  0.63646558641E+01  0.28026352063E+02  0.51100000000E-03 0. -1.
        -11    1    3    3    0    0 -0.17909644866E+01 -0.14227261695E+02 -0.16703033456E+02  0.22013946852E+02  0.51100000000E-03 0.  1.
        -12    1    3    3    0    0  0.23427332714E+02  0.31050635202E+02  0.91878521580E+01  0.39967467919E+02  0.00000000000E+00 0.  1.
</event>
<event>
 7    1  0.2000468E-015  0.9000776E+02  0.7816164E-02  0.1186339E+00
        -11   -1    0    0    0    0  0.00000000000E+00  0.00000000000E+00  0.45593999997E+02  0.45594000000E+02  0.51100000000E-03 0.  1.
         11   -1    0    0    0    0 -0.00000000000E+00 -0.00000000000E+00 -0.45593999997E+02  0.45594000000E+02  0.51100000000E-03 0. -1.
    9900012    2    1    2    0    0 -0.44003497905E+00 -0.33064207029E+00  0.10440370370E+01  0.90007759221E+02  0.90000020843E+02 0.  0.
         12    1    1    2    0    0  0.44003497905E+00  0.33064207029E+00 -0.10440370370E+01  0.11802407789E+01  0.00000000000E+00 0. -1.
         11    1    3    3    0    0  0.82365603516E+01  0.13918277587E+02 -0.14416831358E+02  0.21665742639E+02  0.51100000000E-03 0. -1.
        -11    1    3    3    0    0  0.16152303880E+01 -0.16265649172E+02 -0.23146127017E+02  0.28335904932E+02  0.51100000000E-03 0.  1.
        -12    1    3    3    0    0 -0.10291825719E+02  0.20167295144E+01  0.38606995413E+02  0.40006111650E+02  0.00000000000E+00 0.  1.
</event>
<event>
 7    1  0.2000468E-015  0.9000782E+02  0.7816164E-02  0.1186339E+00
        -11   -1    0    0    0    0  0.00000000000E+00  0.00000000000E+00  0.45593999997E+02  0.45594000000E+02  0.51100000000E-03 0.  1.
         11   -1    0    0    0    0 -0.00000000000E+00 -0.00000000000E+00 -0.45593999997E+02  0.45594000000E+02  0.51100000000E-03 0. -1.
    9900012    2    1    2    0    0  0.55768631746E-01 -0.11381430071E+01  0.30714124547E+00  0.90007824001E+02  0.90000086477E+02 0.  0.
         12    1    1    2    0    0 -0.55768631746E-01  0.11381430071E+01 -0.30714124547E+00  0.11801759994E+01  0.00000000000E+00 0. -1.
         11    1    3    3    0    0 -0.31797027451E+01 -0.63235825072E+01  0.43341854250E+01  0.82996005224E+01  0.51100000000E-03 0. -1.
        -11    1    3    3    0    0 -0.13978350658E+02 -0.18633141933E+02  0.29198016778E+02  0.37351204123E+02  0.51100000000E-03 0.  1.
         12    1    3    3    0    0  0.17213822034E+02  0.23818581433E+02 -0.33225060957E+02  0.44357019356E+02  0.00000000000E+00 0. -1.
</event>
<event>
 7    1  0.2000468E-015  0.9000771E+02  0.7816164E-02  0.1186339E+00
        -11   -1    0    0    0    0  0.00000000000E+00  0.00000000000E+00  0.45593999997E+02  0.45594000000E+02  0.51100000000E-03 0.  1.
         11   -1    0    0    0    0 -0.00000000000E+00 -0.00000000000E+00 -0.45593999997E+02  0.45594000000E+02  0.51100000000E-03 0. -1.
    9900012    2    1    2    0    0  0.94521553931E+00  0.15537237669E+00 -0.68957950861E+00  0.90007706439E+02  0.89999967364E+02 0.  0.
         12    1    1    2    0    0 -0.94521553931E+00 -0.15537237669E+00  0.68957950861E+00  0.11802935609E+01  0.00000000000E+00 0. -1.
         11    1    3    3    0    0 -0.49018993918E+01  0.23160371634E+01 -0.70638603098E+01  0.89045364015E+01  0.51100000000E-03 0. -1.
        -11    1    3    3    0    0 -0.22441380568E+02 -0.29200812142E+02  0.16986322969E+02  0.40556604393E+02  0.51100000000E-03 0.  1.
         12    1    3    3    0    0  0.28288495499E+02  0.27040147355E+02 -0.10612042168E+02  0.40546565645E+02  0.00000000000E+00 0. -1.
</event>
<event>
 7    1  0.2000468E-015  0.9000708E+02  0.7816164E-02  0.1186340E+00
        -11   -1    0    0    0    0  0.00000000000E+00  0.00000000000E+00  0.45593999997E+02  0.45594000000E+02  0.51100000000E-03 0.  1.
         11   -1    0    0    0    0 -0.00000000000E+00 -0.00000000000E+00 -0.45593999997E+02  0.45594000000E+02  0.51100000000E-03 0. -1.
    9900012    2    1    2    0    0 -0.25332663698E+00  0.11457191844E+01 -0.13314272631E+00  0.90007079249E+02  0.89999331893E+02 0.  0.
         12    1    1    2    0    0  0.25332663698E+00 -0.11457191844E+01  0.13314272631E+00  0.11809207510E+01  0.00000000000E+00 0. -1.
         11    1    3    3    0    0 -0.47039016368E+01 -0.13923006661E+01 -0.38133632904E+01  0.62134476420E+01  0.51100000000E-03 0. -1.
        -11    1    3    3    0    0 -0.25941459867E+02  0.24885748712E+02  0.21696777248E+02  0.41988212301E+02  0.51100000000E-03 0.  1.
         12    1    3    3    0    0  0.30392034867E+02 -0.22347728862E+02 -0.18016556684E+02  0.41805419306E+02  0.00000000000E+00 0. -1.
</event>
<event>
 7    1  0.2000468E-015  0.9000770E+02  0.7816164E-02  0.1186339E+00
        -11   -1    0    0    0    0  0.00000000000E+00  0.00000000000E+00  0.45593999997E+02  0.45594000000E+02  0.51100000000E-03 0.  1.
         11   -1    0    0    0    0 -0.00000000000E+00 -0.00000000000E+00 -0.45593999997E+02  0.45594000000E+02  0.51100000000E-03 0. -1.
    9900012    2    1    2    0    0  0.64572981557E+00  0.66757305644E+00  0.72833829964E+00  0.90007704503E+02  0.89999965403E+02 0.  0.
         12    1    1    2    0    0 -0.64572981557E+00 -0.66757305644E+00 -0.72833829964E+00  0.11802954965E+01  0.00000000000E+00 0. -1.
         11    1    3    3    0    0 -0.70087823662E+01  0.36638852474E+01  0.39072284603E+01  0.88211971900E+01  0.51100000000E-03 0. -1.
        -11    1    3    3    0    0 -0.25632971136E+02  0.14536804129E+02  0.21247956601E+02  0.36329651024E+02  0.51100000000E-03 0.  1.
         12    1    3    3    0    0  0.33287483317E+02 -0.17533116320E+02 -0.24426846761E+02  0.44856856290E+02  0.00000000000E+00 0. -1.
</event>
<event>
 7    1  0.2000468E-015  0.9000777E+02  0.7816164E-02  0.1186339E+00
        -11   -1    0    0    0    0  0.00000000000E+00  0.00000000000E+00  0.45593999997E+02  0.45594000000E+02  0.51100000000E-03 0. -1.
         11   -1    0    0    0    0 -0.00000000000E+00 -0.00000000000E+00 -0.45593999997E+02  0.45594000000E+02  0.51100000000E-03 0.  1.
    9900012    2    1    2    0    0  0.60398006859E+00  0.70924488535E+00 -0.72465559840E+00  0.90007768681E+02  0.90000030427E+02 0.  0.
         12    1    1    2    0    0 -0.60398006859E+00 -0.70924488535E+00  0.72465559840E+00  0.11802313193E+01  0.00000000000E+00 0. -1.
         11    1    3    3    0    0 -0.58664226596E+01 -0.14879446426E+01 -0.11419956813E+02  0.12924562196E+02  0.51100000000E-03 0. -1.
        -11    1    3    3    0    0 -0.24477514933E+02 -0.54289794000E+01 -0.20573349033E+02  0.32432780413E+02  0.51100000000E-03 0.  1.
         12    1    3    3    0    0  0.30947917661E+02  0.76261689279E+01  0.31268650248E+02  0.44650426072E+02  0.00000000000E+00 0. -1.
</event>
<event>
 7    1  0.2000468E-015  0.9000773E+02  0.7816164E-02  0.1186339E+00
        -11   -1    0    0    0    0  0.00000000000E+00  0.00000000000E+00  0.45593999997E+02  0.45594000000E+02  0.51100000000E-03 0.  1.
         11   -1    0    0    0    0 -0.00000000000E+00 -0.00000000000E+00 -0.45593999997E+02  0.45594000000E+02  0.51100000000E-03 0. -1.
    9900012    2    1    2    0    0  0.84730320080E+00  0.58736172796E+00 -0.57456762231E+00  0.90007726953E+02  0.89999988148E+02 0.  0.
         12    1    1    2    0    0 -0.84730320080E+00 -0.58736172796E+00  0.57456762231E+00  0.11802730473E+01  0.00000000000E+00 0. -1.
         11    1    3    3    0    0  0.21783358336E+02  0.11315257525E+02  0.23953518305E+02  0.34297533333E+02  0.51100000000E-03 0. -1.
        -11    1    3    3    0    0  0.47724702752E+01  0.78896536311E+00  0.10023800385E+02  0.11129937704E+02  0.51100000000E-03 0.  1.
        -12    1    3    3    0    0 -0.25708525410E+02 -0.11516861160E+02 -0.34551886313E+02  0.44580255916E+02  0.00000000000E+00 0.  1.
</event>
<event>
 7    1  0.2000468E-015  0.9000765E+02  0.7816164E-02  0.1186339E+00
        -11   -1    0    0    0    0  0.00000000000E+00  0.00000000000E+00  0.45593999997E+02  0.45594000000E+02  0.51100000000E-03 0. -1.
         11   -1    0    0    0    0 -0.00000000000E+00 -0.00000000000E+00 -0.45593999997E+02  0.45594000000E+02  0.51100000000E-03 0.  1.
    9900012    2    1    2    0    0 -0.91033015727E+00 -0.34502402371E+00 -0.66744648180E+00  0.90007649468E+02  0.89999909641E+02 0.  0.
         12    1    1    2    0    0  0.91033015727E+00  0.34502402371E+00  0.66744648180E+00  0.11803505319E+01  0.00000000000E+00 0. -1.
         11    1    3    3    0    0 -0.32808351707E+01 -0.30590742374E+01 -0.83245796290E+01  0.94562381985E+01  0.51100000000E-03 0. -1.
        -11    1    3    3    0    0 -0.22868534257E+02  0.32323520915E+02  0.12073099759E+02  0.41394922412E+02  0.51100000000E-03 0.  1.
         12    1    3    3    0    0  0.25239039271E+02 -0.29609470702E+02 -0.44159666121E+01  0.39156488858E+02  0.00000000000E+00 0. -1.
</event>
<event>
 7    1  0.2000468E-015  0.9000770E+02  0.7816164E-02  0.1186339E+00
        -11   -1    0    0    0    0  0.00000000000E+00  0.00000000000E+00  0.45593999997E+02  0.45594000000E+02  0.51100000000E-03 0. -1.
         11   -1    0    0    0    0 -0.00000000000E+00 -0.00000000000E+00 -0.45593999997E+02  0.45594000000E+02  0.51100000000E-03 0.  1.
    9900012    2    1    2    0    0  0.78265092585E+00 -0.66208743825E+00 -0.58498088163E+00  0.90007701360E+02  0.89999962218E+02 0.  0.
         12    1    1    2    0    0 -0.78265092585E+00  0.66208743825E+00  0.58498088163E+00  0.11802986400E+01  0.00000000000E+00 0. -1.
         11    1    3    3    0    0  0.27432369260E+02  0.17336911019E+02  0.10553416908E+02  0.34124448356E+02  0.51100000000E-03 0. -1.
        -11    1    3    3    0    0  0.10791078885E+02  0.26025631765E+01  0.17723076558E+01  0.11241076162E+02  0.51100000000E-03 0.  1.
        -12    1    3    3    0    0 -0.37440797219E+02 -0.20601561633E+02 -0.12910705446E+02  0.44642176842E+02  0.00000000000E+00 0.  1.
</event>
<event>
 7    1  0.2000468E-015  0.9000776E+02  0.7816164E-02  0.1186339E+00
        -11   -1    0    0    0    0  0.00000000000E+00  0.00000000000E+00  0.45593999997E+02  0.45594000000E+02  0.51100000000E-03 0.  1.
         11   -1    0    0    0    0 -0.00000000000E+00 -0.00000000000E+00 -0.45593999997E+02  0.45594000000E+02  0.51100000000E-03 0. -1.
    9900012    2    1    2    0    0 -0.36406432847E+00 -0.10045060597E+01  0.50139069110E+00  0.90007759396E+02  0.90000021020E+02 0.  0.
         12    1    1    2    0    0  0.36406432847E+00  0.10045060597E+01 -0.50139069110E+00  0.11802406044E+01  0.00000000000E+00 0. -1.
         11    1    3    3    0    0  0.15363496808E+01 -0.14903321173E+02 -0.91882036053E+01  0.17575336073E+02  0.51100000000E-03 0. -1.
        -11    1    3    3    0    0 -0.69088337381E+01 -0.27803822697E+02  0.10246108468E+02  0.30426424029E+02  0.51100000000E-03 0.  1.
         12    1    3    3    0    0  0.50084197288E+01  0.41702637811E+02 -0.55651417183E+00  0.42005999293E+02  0.00000000000E+00 0. -1.
</event>
<event>
 7    1  0.2000468E-015  0.9000774E+02  0.7816164E-02  0.1186339E+00
        -11   -1    0    0    0    0  0.00000000000E+00  0.00000000000E+00  0.45593999997E+02  0.45594000000E+02  0.51100000000E-03 0. -1.
         11   -1    0    0    0    0 -0.00000000000E+00 -0.00000000000E+00 -0.45593999997E+02  0.45594000000E+02  0.51100000000E-03 0.  1.
    9900012    2    1    2    0    0 -0.11302376769E+01 -0.27123435906E-01 -0.33889339573E+00  0.90007736631E+02  0.89999997954E+02 0.  0.
         12    1    1    2    0    0  0.11302376769E+01  0.27123435906E-01  0.33889339573E+00  0.11802633693E+01  0.00000000000E+00 0. -1.
         11    1    3    3    0    0 -0.81594746010E+01 -0.30888265726E+01 -0.49586143050E+01  0.10035224534E+02  0.51100000000E-03 0. -1.
        -11    1    3    3    0    0  0.63878515979E+01  0.51129593581E+01 -0.37204254545E+02  0.38093353199E+02  0.51100000000E-03 0.  1.
         12    1    3    3    0    0  0.64138532619E+00 -0.20512562214E+01  0.41823975454E+02  0.41879158898E+02  0.00000000000E+00 0. -1.
</event>
<event>
 7    1  0.2000468E-015  0.9000776E+02  0.7816164E-02  0.1186339E+00
        -11   -1    0    0    0    0  0.00000000000E+00  0.00000000000E+00  0.45593999997E+02  0.45594000000E+02  0.51100000000E-03 0.  1.
         11   -1    0    0    0    0 -0.00000000000E+00 -0.00000000000E+00 -0.45593999997E+02  0.45594000000E+02  0.51100000000E-03 0. -1.
    9900012    2    1    2    0    0 -0.46931687958E+00 -0.38696704597E+00  0.10114199645E+01  0.90007757579E+02  0.90000019179E+02 0.  0.
         12    1    1    2    0    0  0.46931687958E+00  0.38696704597E+00 -0.10114199645E+01  0.11802424212E+01  0.00000000000E+00 0. -1.
         11    1    3    3    0    0  0.31783080137E+02 -0.32859947951E+01 -0.26025172497E+02  0.41210090373E+02  0.51100000000E-03 0. -1.
        -11    1    3    3    0    0 -0.81256869969E+01 -0.35461097782E+01 -0.33396945603E+01  0.94739244111E+01  0.51100000000E-03 0.  1.
        -12    1    3    3    0    0 -0.24126710020E+02  0.64451375273E+01  0.30376287022E+02  0.39323742795E+02  0.00000000000E+00 0.  1.
</event>
<event>
 7    1  0.2000468E-015  0.9000763E+02  0.7816164E-02  0.1186339E+00
        -11   -1    0    0    0    0  0.00000000000E+00  0.00000000000E+00  0.45593999997E+02  0.45594000000E+02  0.51100000000E-03 0. -1.
         11   -1    0    0    0    0 -0.00000000000E+00 -0.00000000000E+00 -0.45593999997E+02  0.45594000000E+02  0.51100000000E-03 0.  1.
    9900012    2    1    2    0    0 -0.18263707826E+00  0.11649181160E+01  0.53651553538E-01  0.90007631833E+02  0.89999891774E+02 0.  0.
         12    1    1    2    0    0  0.18263707826E+00 -0.11649181160E+01 -0.53651553538E-01  0.11803681665E+01  0.00000000000E+00 0. -1.
         11    1    3    3    0    0  0.14712388663E+02  0.37411460666E+02  0.13171547759E+02  0.42303208389E+02  0.51100000000E-03 0. -1.
        -11    1    3    3    0    0 -0.46452828785E+01  0.58993763174E-01  0.41372235025E+01  0.62208320871E+01  0.51100000000E-03 0.  1.
        -12    1    3    3    0    0 -0.10249742863E+02 -0.36305536314E+02 -0.17255119708E+02  0.41483591357E+02  0.00000000000E+00 0.  1.
</event>
<event>
 7    1  0.2000468E-015  0.9000777E+02  0.7816164E-02  0.1186339E+00
        -11   -1    0    0    0    0  0.00000000000E+00  0.00000000000E+00  0.45593999997E+02  0.45594000000E+02  0.51100000000E-03 0.  1.
         11   -1    0    0    0    0 -0.00000000000E+00 -0.00000000000E+00 -0.45593999997E+02  0.45594000000E+02  0.51100000000E-03 0. -1.
    9900012    2    1    2    0    0  0.11701042890E+00 -0.80785036902E+00  0.85242194017E+00  0.90007772554E+02  0.90000034352E+02 0.  0.
         12    1    1    2    0    0 -0.11701042890E+00  0.80785036902E+00 -0.85242194017E+00  0.11802274456E+01  0.00000000000E+00 0. -1.
         11    1    3    3    0    0 -0.22036010740E+02  0.33590623612E+02  0.12142076060E+02  0.41968390192E+02  0.51100000000E-03 0. -1.
        -11    1    3    3    0    0 -0.40729260147E+01 -0.83188721987E+01 -0.49897303015E+01  0.10520920574E+02  0.51100000000E-03 0.  1.
        -12    1    3    3    0    0  0.26225947184E+02 -0.26079601783E+02 -0.62999238185E+01  0.37518461788E+02  0.00000000000E+00 0.  1.
</event>
<event>
 7    1  0.2000468E-015  0.9000772E+02  0.7816164E-02  0.1186339E+00
        -11   -1    0    0    0    0  0.00000000000E+00  0.00000000000E+00  0.45593999997E+02  0.45594000000E+02  0.51100000000E-03 0.  1.
         11   -1    0    0    0    0 -0.00000000000E+00 -0.00000000000E+00 -0.45593999997E+02  0.45594000000E+02  0.51100000000E-03 0. -1.
    9900012    2    1    2    0    0  0.30421846012E+00  0.17776191950E+00  0.11264596000E+01  0.90007720625E+02  0.89999981738E+02 0.  0.
         12    1    1    2    0    0 -0.30421846012E+00 -0.17776191950E+00 -0.11264596000E+01  0.11802793745E+01  0.00000000000E+00 0. -1.
         11    1    3    3    0    0  0.48927018061E+01 -0.25457338907E+01  0.38927655716E+01  0.67507715161E+01  0.51100000000E-03 0. -1.
        -11    1    3    3    0    0  0.31465444320E+02  0.25061282927E+02  0.35232579390E+01  0.40380136639E+02  0.51100000000E-03 0.  1.
         12    1    3    3    0    0 -0.36053927666E+02 -0.22337787117E+02 -0.62895639106E+01  0.42876812470E+02  0.00000000000E+00 0. -1.
</event>
<event>
 7    1  0.2000468E-015  0.9000822E+02  0.7816164E-02  0.1186338E+00
        -11   -1    0    0    0    0  0.00000000000E+00  0.00000000000E+00  0.45593999997E+02  0.45594000000E+02  0.51100000000E-03 0.  1.
         11   -1    0    0    0    0 -0.00000000000E+00 -0.00000000000E+00 -0.45593999997E+02  0.45594000000E+02  0.51100000000E-03 0. -1.
    9900012    2    1    2    0    0 -0.11051323020E+01  0.20439301304E+00  0.35887675507E+00  0.90008217633E+02  0.90000485304E+02 0.  0.
         12    1    1    2    0    0  0.11051323020E+01 -0.20439301304E+00 -0.35887675507E+00  0.11797823672E+01  0.00000000000E+00 0. -1.
         11    1    3    3    0    0  0.31745157720E+02 -0.23526579417E+02 -0.17220554278E+02  0.43102232745E+02  0.51100000000E-03 0. -1.
        -11    1    3    3    0    0 -0.41517146593E+01  0.95368699995E+01  0.43782618702E-01  0.10401468222E+02  0.51100000000E-03 0.  1.
        -12    1    3    3    0    0 -0.28698575363E+02  0.14194102430E+02  0.17535648415E+02  0.36504516665E+02  0.00000000000E+00 0.  1.
</event>
<event>
 7    1  0.2454226E-015  0.9000764E+02  0.7816164E-02  0.1186339E+00
        -11   -1    0    0    0    0  0.00000000000E+00  0.00000000000E+00  0.45593999997E+02  0.45594000000E+02  0.51100000000E-03 0.  1.
         11   -1    0    0    0    0 -0.00000000000E+00 -0.00000000000E+00 -0.45593999997E+02  0.45594000000E+02  0.51100000000E-03 0. -1.
    9900012    2    1    2    0    0 -0.83920959001E+00  0.34821736138E+00  0.75347386060E+00  0.90007639493E+02  0.89999899535E+02 0.  0.
         12    1    1    2    0    0  0.83920959001E+00 -0.34821736138E+00 -0.75347386060E+00  0.11803605065E+01  0.00000000000E+00 0. -1.
         11    1    3    3    0    0  0.25615706469E+02  0.23926000553E+02 -0.15620852242E+02  0.38374847822E+02  0.51100000000E-03 0. -1.
        -11    1    3    3    0    0  0.68332545791E+01  0.38982271721E+00  0.65068410659E+01  0.94437445333E+01  0.51100000000E-03 0.  1.
        -12    1    3    3    0    0 -0.33288170638E+02 -0.23967605909E+02  0.98674850366E+01  0.42189047138E+02  0.00000000000E+00 0.  1.
</event>
<event>
 7    1  0.2000468E-015  0.9000772E+02  0.7816164E-02  0.1186339E+00
        -11   -1    0    0    0    0  0.00000000000E+00  0.00000000000E+00  0.45593999997E+02  0.45594000000E+02  0.51100000000E-03 0. -1.
         11   -1    0    0    0    0 -0.00000000000E+00 -0.00000000000E+00 -0.45593999997E+02  0.45594000000E+02  0.51100000000E-03 0.  1.
    9900012    2    1    2    0    0  0.76030864713E+00  0.60305922695E+00 -0.67179867296E+00  0.90007719047E+02  0.89999980139E+02 0.  0.
         12    1    1    2    0    0 -0.76030864713E+00 -0.60305922695E+00  0.67179867296E+00  0.11802809526E+01  0.00000000000E+00 0. -1.
         11    1    3    3    0    0 -0.33991856980E+01  0.70959063684E+01 -0.63504412480E+01  0.10111105523E+02  0.51100000000E-03 0. -1.
        -11    1    3    3    0    0  0.29294140746E+02  0.59749730321E+01 -0.24527005243E+02  0.38670673271E+02  0.51100000000E-03 0.  1.
         12    1    3    3    0    0 -0.25134646401E+02 -0.12467820174E+02  0.30205647818E+02  0.41225940253E+02  0.00000000000E+00 0. -1.
</event>
<event>
 7    1  0.2000468E-015  0.9000775E+02  0.7816164E-02  0.1186339E+00
        -11   -1    0    0    0    0  0.00000000000E+00  0.00000000000E+00  0.45593999997E+02  0.45594000000E+02  0.51100000000E-03 0.  1.
         11   -1    0    0    0    0 -0.00000000000E+00 -0.00000000000E+00 -0.45593999997E+02  0.45594000000E+02  0.51100000000E-03 0. -1.
    9900012    2    1    2    0    0 -0.11562846803E+00  0.93532986833E+00  0.71048214978E+00  0.90007747150E+02  0.90000008612E+02 0.  0.
         12    1    1    2    0    0  0.11562846803E+00 -0.93532986833E+00 -0.71048214978E+00  0.11802528502E+01  0.00000000000E+00 0. -1.
         11    1    3    3    0    0  0.43570805639E+01  0.45658489289E+00  0.85950917127E+01  0.96471872904E+01  0.51100000000E-03 0. -1.
        -11    1    3    3    0    0 -0.74454381985E+01  0.18320698936E+02  0.31401881897E+02  0.37110116497E+02  0.51100000000E-03 0.  1.
         12    1    3    3    0    0  0.29727291665E+01 -0.17841953961E+02 -0.39286491460E+02  0.43250443363E+02  0.00000000000E+00 0. -1.
</event>
<event>
 7    1  0.2000468E-015  0.9000776E+02  0.7816164E-02  0.1186339E+00
        -11   -1    0    0    0    0  0.00000000000E+00  0.00000000000E+00  0.45593999997E+02  0.45594000000E+02  0.51100000000E-03 0.  1.
         11   -1    0    0    0    0 -0.00000000000E+00 -0.00000000000E+00 -0.45593999997E+02  0.45594000000E+02  0.51100000000E-03 0. -1.
    9900012    2    1    2    0    0 -0.70478338457E+00 -0.29724791140E+00  0.89882252096E+00  0.90007763641E+02  0.90000025321E+02 0.  0.
         12    1    1    2    0    0  0.70478338457E+00  0.29724791140E+00 -0.89882252096E+00  0.11802363595E+01  0.00000000000E+00 0. -1.
         11    1    3    3    0    0  0.12765394827E+02 -0.75378828642E+01 -0.38251377257E+02  0.41023686395E+02  0.51100000000E-03 0. -1.
        -11    1    3    3    0    0 -0.84999696948E+01  0.24309316294E+01 -0.38434086890E+00  0.88491034328E+01  0.51100000000E-03 0.  1.
        -12    1    3    3    0    0 -0.49702085167E+01  0.48097033234E+01  0.39534540647E+02  0.40134973812E+02  0.00000000000E+00 0.  1.
</event>
<event>
 7    1  0.2000468E-015  0.9000759E+02  0.7816164E-02  0.1186339E+00
        -11   -1    0    0    0    0  0.00000000000E+00  0.00000000000E+00  0.45593999997E+02  0.45594000000E+02  0.51100000000E-03 0.  1.
         11   -1    0    0    0    0 -0.00000000000E+00 -0.00000000000E+00 -0.45593999997E+02  0.45594000000E+02  0.51100000000E-03 0. -1.
    9900012    2    1    2    0    0  0.11537050617E+01 -0.80327758833E-01  0.23639437084E+00  0.90007588963E+02  0.89999848337E+02 0.  0.
         12    1    1    2    0    0 -0.11537050617E+01  0.80327758833E-01 -0.23639437084E+00  0.11804110373E+01  0.00000000000E+00 0. -1.
         11    1    3    3    0    0  0.40724751744E+02 -0.12926543257E+02  0.86126073019E+01  0.43586442044E+02  0.51100000000E-03 0. -1.
        -11    1    3    3    0    0 -0.10379714462E+02 -0.45275707954E+01  0.41474263968E+00  0.11331786326E+02  0.51100000000E-03 0.  1.
        -12    1    3    3    0    0 -0.29191332221E+02  0.17373786294E+02 -0.87909555707E+01  0.35089360593E+02  0.00000000000E+00 0.  1.
</event>
<event>
 7    1  0.2000468E-015  0.9000782E+02  0.7816164E-02  0.1186339E+00
        -11   -1    0    0    0    0  0.00000000000E+00  0.00000000000E+00  0.45593999997E+02  0.45594000000E+02  0.51100000000E-03 0.  1.
         11   -1    0    0    0    0 -0.00000000000E+00 -0.00000000000E+00 -0.45593999997E+02  0.45594000000E+02  0.51100000000E-03 0. -1.
    9900012    2    1    2    0    0  0.83799172508E+00 -0.84552052005E-01  0.82670870146E+00  0.90007819311E+02  0.90000081726E+02 0.  0.
         12    1    1    2    0    0 -0.83799172508E+00  0.84552052005E-01 -0.82670870146E+00  0.11801806887E+01  0.00000000000E+00 0. -1.
         11    1    3    3    0    0  0.17489777572E+02 -0.27207264420E+02  0.22849731257E+02  0.39600982002E+02  0.51100000000E-03 0. -1.
        -11    1    3    3    0    0 -0.13865736670E+02 -0.21062724690E+01 -0.55793782535E+00  0.14035894414E+02  0.51100000000E-03 0.  1.
        -12    1    3    3    0    0 -0.27860491774E+01  0.29228984837E+02 -0.21465084731E+02  0.36370942895E+02  0.00000000000E+00 0.  1.
</event>
<event>
 7    1  0.2000468E-015  0.9000781E+02  0.7816164E-02  0.1186339E+00
        -11   -1    0    0    0    0  0.00000000000E+00  0.00000000000E+00  0.45593999997E+02  0.45594000000E+02  0.51100000000E-03 0.  1.
         11   -1    0    0    0    0 -0.00000000000E+00 -0.00000000000E+00 -0.45593999997E+02  0.45594000000E+02  0.51100000000E-03 0. -1.
    9900012    2    1    2    0    0  0.10771260542E+01  0.48215715613E+00 -0.13560943355E-01  0.90007805118E+02  0.90000067346E+02 0.  0.
         12    1    1    2    0    0 -0.10771260542E+01 -0.48215715613E+00  0.13560943355E-01  0.11801948818E+01  0.00000000000E+00 0. -1.
         11    1    3    3    0    0  0.28012498502E+01 -0.65921371675E+01  0.60515524517E+01  0.93768097184E+01  0.51100000000E-03 0. -1.
        -11    1    3    3    0    0  0.26518743163E+02 -0.12108967065E+02  0.21929271374E+02  0.36479634943E+02  0.51100000000E-03 0.  1.
         12    1    3    3    0    0 -0.28242866959E+02  0.19183261389E+02 -0.27994384769E+02  0.44151360457E+02  0.00000000000E+00 0. -1.
</event>
<event>
 7    1  0.2000468E-015  0.9000773E+02  0.7816164E-02  0.1186339E+00
        -11   -1    0    0    0    0  0.00000000000E+00  0.00000000000E+00  0.45593999997E+02  0.45594000000E+02  0.51100000000E-03 0.  1.
         11   -1    0    0    0    0 -0.00000000000E+00 -0.00000000000E+00 -0.45593999997E+02  0.45594000000E+02  0.51100000000E-03 0. -1.
    9900012    2    1    2    0    0  0.63892056459E+00 -0.83316962229E+00 -0.53911054006E+00  0.90007732538E+02  0.89999993808E+02 0.  0.
         12    1    1    2    0    0 -0.63892056459E+00  0.83316962229E+00  0.53911054006E+00  0.11802674620E+01  0.00000000000E+00 0. -1.
         11    1    3    3    0    0  0.31749455751E+02 -0.16951691718E+02 -0.10747083665E+02  0.37561783772E+02  0.51100000000E-03 0. -1.
        -11    1    3    3    0    0  0.36229794334E+01  0.37852564002E+00 -0.90281800753E+01  0.97353632376E+01  0.51100000000E-03 0.  1.
        -12    1    3    3    0    0 -0.34733514619E+02  0.15739996456E+02  0.19236153200E+02  0.42710585528E+02  0.00000000000E+00 0.  1.
</event>
<event>
 7    1  0.2000468E-015  0.9000773E+02  0.7816164E-02  0.1186339E+00
        -11   -1    0    0    0    0  0.00000000000E+00  0.00000000000E+00  0.45593999997E+02  0.45594000000E+02  0.51100000000E-03 0.  1.
         11   -1    0    0    0    0 -0.00000000000E+00 -0.00000000000E+00 -0.45593999997E+02  0.45594000000E+02  0.51100000000E-03 0. -1.
    9900012    2    1    2    0    0 -0.22438201434E+00 -0.11429437503E+01 -0.19069207906E+00  0.90007732584E+02  0.89999993854E+02 0.  0.
         12    1    1    2    0    0  0.22438201434E+00  0.11429437503E+01  0.19069207906E+00  0.11802674161E+01  0.00000000000E+00 0. -1.
         11    1    3    3    0    0 -0.21392787387E+01 -0.36941275819E+02 -0.21623055417E+02  0.42857798572E+02  0.51100000000E-03 0. -1.
        -11    1    3    3    0    0  0.57093754582E+01  0.12272202642E+01  0.79161492500E+01  0.98370959591E+01  0.51100000000E-03 0.  1.
        -12    1    3    3    0    0 -0.37944787338E+01  0.34571111804E+02  0.13516214088E+02  0.37312838052E+02  0.00000000000E+00 0.  1.
</event>
<event>
 7    1  0.2000468E-015  0.9000774E+02  0.7816164E-02  0.1186339E+00
        -11   -1    0    0    0    0  0.00000000000E+00  0.00000000000E+00  0.45593999997E+02  0.45594000000E+02  0.51100000000E-03 0.  1.
         11   -1    0    0    0    0 -0.00000000000E+00 -0.00000000000E+00 -0.45593999997E+02  0.45594000000E+02  0.51100000000E-03 0. -1.
    9900012    2    1    2    0    0 -0.64228927025E+00  0.97582003687E+00  0.16807635982E+00  0.90007741590E+02  0.90000002979E+02 0.  0.
         12    1    1    2    0    0  0.64228927025E+00 -0.97582003687E+00 -0.16807635982E+00  0.11802584097E+01  0.00000000000E+00 0. -1.
         11    1    3    3    0    0  0.45253725411E+01 -0.60360134539E+01  0.73347520286E+01  0.10521931507E+02  0.51100000000E-03 0. -1.
        -11    1    3    3    0    0  0.17093635729E+02 -0.17437214407E+02  0.23862031679E+02  0.34141549245E+02  0.51100000000E-03 0.  1.
         12    1    3    3    0    0 -0.22261297541E+02  0.24449047898E+02 -0.31028707348E+02  0.45344260839E+02  0.00000000000E+00 0. -1.
</event>
<event>
 7    1  0.2419225E-015  0.9000769E+02  0.7816164E-02  0.1186339E+00
        -11   -1    0    0    0    0  0.00000000000E+00  0.00000000000E+00  0.45593999997E+02  0.45594000000E+02  0.51100000000E-03 0.  1.
         11   -1    0    0    0    0 -0.00000000000E+00 -0.00000000000E+00 -0.45593999997E+02  0.45594000000E+02  0.51100000000E-03 0. -1.
    9900012    2    1    2    0    0 -0.10358053704E+01  0.35787444280E+00  0.43837519081E+00  0.90007686614E+02  0.89999947277E+02 0.  0.
         12    1    1    2    0    0  0.10358053704E+01 -0.35787444280E+00 -0.43837519081E+00  0.11803133864E+01  0.00000000000E+00 0. -1.
         11    1    3    3    0    0 -0.10062189783E+01 -0.36023957502E+02 -0.13668698167E+02  0.38543109638E+02  0.51100000000E-03 0. -1.
        -11    1    3    3    0    0  0.10191178879E+01 -0.50067254026E+01  0.81743776219E+01  0.96398314453E+01  0.51100000000E-03 0.  1.
        -12    1    3    3    0    0 -0.10487042800E+01  0.41388557347E+02  0.59326957358E+01  0.41824745530E+02  0.00000000000E+00 0.  1.
</event>
<event>
 7    1  0.2000468E-015  0.9000764E+02  0.7816164E-02  0.1186339E+00
        -11   -1    0    0    0    0  0.00000000000E+00  0.00000000000E+00  0.45593999997E+02  0.45594000000E+02  0.51100000000E-03 0.  1.
         11   -1    0    0    0    0 -0.00000000000E+00 -0.00000000000E+00 -0.45593999997E+02  0.45594000000E+02  0.51100000000E-03 0. -1.
    9900012    2    1    2    0    0  0.73499832727E+00 -0.88019863813E+00 -0.27976338623E+00  0.90007644233E+02  0.89999904337E+02 0.  0.
         12    1    1    2    0    0 -0.73499832727E+00  0.88019863813E+00  0.27976338623E+00  0.11803557667E+01  0.00000000000E+00 0. -1.
         11    1    3    3    0    0 -0.84883728787E+01 -0.89723500572E+01 -0.29680461428E+02  0.32147866656E+02  0.51100000000E-03 0. -1.
        -11    1    3    3    0    0 -0.94941149810E+01  0.46828266020E+01 -0.97113674017E+01  0.14365853310E+02  0.51100000000E-03 0.  1.
        -12    1    3    3    0    0  0.18717486187E+02  0.34093248171E+01  0.39112065444E+02  0.43493924267E+02  0.00000000000E+00 0.  1.
</event>
<event>
 7    1  0.2000468E-015  0.9000785E+02  0.7816164E-02  0.1186339E+00
        -11   -1    0    0    0    0  0.00000000000E+00  0.00000000000E+00  0.45593999997E+02  0.45594000000E+02  0.51100000000E-03 0. -1.
         11   -1    0    0    0    0 -0.00000000000E+00 -0.00000000000E+00 -0.45593999997E+02  0.45594000000E+02  0.51100000000E-03 0.  1.
    9900012    2    1    2    0    0  0.96600659730E+00  0.57847200065E+00 -0.35348560437E+00  0.90007851419E+02  0.90000114257E+02 0.  0.
         12    1    1    2    0    0 -0.96600659730E+00 -0.57847200065E+00  0.35348560437E+00  0.11801485813E+01  0.00000000000E+00 0. -1.
         11    1    3    3    0    0  0.44560724271E+01 -0.35816202947E+02  0.17107576739E+02  0.39941534236E+02  0.51100000000E-03 0. -1.
        -11    1    3    3    0    0  0.26685462246E+01  0.96020045901E+01  0.78586720157E+01  0.12691664872E+02  0.51100000000E-03 0.  1.
        -12    1    3    3    0    0 -0.61586120544E+01  0.26792670358E+02 -0.25319734359E+02  0.37374652311E+02  0.00000000000E+00 0.  1.
</event>
<event>
 7    1  0.2000468E-015  0.9000773E+02  0.7816164E-02  0.1186339E+00
        -11   -1    0    0    0    0  0.00000000000E+00  0.00000000000E+00  0.45593999997E+02  0.45594000000E+02  0.51100000000E-03 0. -1.
         11   -1    0    0    0    0 -0.00000000000E+00 -0.00000000000E+00 -0.45593999997E+02  0.45594000000E+02  0.51100000000E-03 0.  1.
    9900012    2    1    2    0    0 -0.60945626345E+00  0.83256948653E+00  0.57308385681E+00  0.90007731389E+02  0.89999992643E+02 0.  0.
         12    1    1    2    0    0  0.60945626345E+00 -0.83256948653E+00 -0.57308385681E+00  0.11802686109E+01  0.00000000000E+00 0. -1.
         11    1    3    3    0    0 -0.35806735534E+02  0.45760578499E+01  0.12894094785E+02  0.38331713967E+02  0.51100000000E-03 0. -1.
        -11    1    3    3    0    0 -0.13196113862E+01 -0.63848663177E+01  0.75851339943E+01  0.10002107282E+02  0.51100000000E-03 0.  1.
        -12    1    3    3    0    0  0.36516890657E+02  0.26413779543E+01 -0.19906144923E+02  0.41673910141E+02  0.00000000000E+00 0.  1.
</event>
<event>
 7    1  0.2239807E-015  0.9000755E+02  0.7816164E-02  0.1186339E+00
        -11   -1    0    0    0    0  0.00000000000E+00  0.00000000000E+00  0.45593999997E+02  0.45594000000E+02  0.51100000000E-03 0.  1.
         11   -1    0    0    0    0 -0.00000000000E+00 -0.00000000000E+00 -0.45593999997E+02  0.45594000000E+02  0.51100000000E-03 0. -1.
    9900012    2    1    2    0    0 -0.48122868229E+00  0.10038007228E+01  0.39275395623E+00  0.90007554065E+02  0.89999812978E+02 0.  0.
         12    1    1    2    0    0  0.48122868229E+00 -0.10038007228E+01 -0.39275395623E+00  0.11804459351E+01  0.00000000000E+00 0. -1.
         11    1    3    3    0    0 -0.90193537702E+01  0.30523253473E+01 -0.40553749327E+02  0.41656596323E+02  0.51100000000E-03 0. -1.
        -11    1    3    3    0    0 -0.74784990718E+01  0.11027669983E+01  0.55696147105E+01  0.93896033837E+01  0.51100000000E-03 0.  1.
        -12    1    3    3    0    0  0.16016624160E+02 -0.31512916228E+01  0.35376888573E+02  0.38961354358E+02  0.00000000000E+00 0.  1.
</event>
<event>
 7    1  0.2000468E-015  0.9000769E+02  0.7816164E-02  0.1186339E+00
        -11   -1    0    0    0    0  0.00000000000E+00  0.00000000000E+00  0.45593999997E+02  0.45594000000E+02  0.51100000000E-03 0.  1.
         11   -1    0    0    0    0 -0.00000000000E+00 -0.00000000000E+00 -0.45593999997E+02  0.45594000000E+02  0.51100000000E-03 0. -1.
    9900012    2    1    2    0    0  0.32474913528E-01 -0.11613040347E+01  0.20842424603E+00  0.90007693960E+02  0.89999954721E+02 0.  0.
         12    1    1    2    0    0 -0.32474913528E-01  0.11613040347E+01 -0.20842424603E+00  0.11803060397E+01  0.00000000000E+00 0. -1.
         11    1    3    3    0    0 -0.24192423639E+02 -0.17641000815E+02 -0.25342309450E+02  0.39226405899E+02  0.51100000000E-03 0. -1.
        -11    1    3    3    0    0 -0.11925935175E+01 -0.82236386792E+01  0.33588694635E+01  0.89628408866E+01  0.51100000000E-03 0.  1.
        -12    1    3    3    0    0  0.25417492070E+02  0.24703335460E+02  0.22191864232E+02  0.41818447174E+02  0.00000000000E+00 0.  1.
</event>
<event>
 7    1  0.2000468E-015  0.9000774E+02  0.7816164E-02  0.1186339E+00
        -11   -1    0    0    0    0  0.00000000000E+00  0.00000000000E+00  0.45593999997E+02  0.45594000000E+02  0.51100000000E-03 0. -1.
         11   -1    0    0    0    0 -0.00000000000E+00 -0.00000000000E+00 -0.45593999997E+02  0.45594000000E+02  0.51100000000E-03 0.  1.
    9900012    2    1    2    0    0  0.98188359399E-01  0.99689717661E-01 -0.11719389238E+01  0.90007737387E+02  0.89999998721E+02 0.  0.
         12    1    1    2    0    0 -0.98188359399E-01 -0.99689717661E-01  0.11719389238E+01  0.11802626127E+01  0.00000000000E+00 0. -1.
         11    1    3    3    0    0  0.36010172695E+02 -0.90359676442E+01  0.14033976364E+02  0.39690474193E+02  0.51100000000E-03 0. -1.
        -11    1    3    3    0    0 -0.16052373146E+01 -0.56658466461E+01  0.51018267082E+01  0.77914851649E+01  0.51100000000E-03 0.  1.
        -12    1    3    3    0    0 -0.34306747021E+02  0.14801504008E+02 -0.20307741996E+02  0.42525778030E+02  0.00000000000E+00 0.  1.
</event>
<event>
 7    1  0.2000468E-015  0.9000775E+02  0.7816164E-02  0.1186339E+00
        -11   -1    0    0    0    0  0.00000000000E+00  0.00000000000E+00  0.45593999997E+02  0.45594000000E+02  0.51100000000E-03 0.  1.
         11   -1    0    0    0    0 -0.00000000000E+00 -0.00000000000E+00 -0.45593999997E+02  0.45594000000E+02  0.51100000000E-03 0. -1.
    9900012    2    1    2    0    0 -0.43730288783E+00  0.10955946632E+01 -0.37731658240E-01  0.90007752077E+02  0.90000013604E+02 0.  0.
         12    1    1    2    0    0  0.43730288783E+00 -0.10955946632E+01  0.37731658240E-01  0.11802479230E+01  0.00000000000E+00 0. -1.
         11    1    3    3    0    0  0.29345729016E+02  0.28366341968E+01  0.18551641792E+02  0.34833629132E+02  0.51100000000E-03 0. -1.
        -11    1    3    3    0    0  0.68632677979E+01 -0.23208982435E+01  0.73128714568E+01  0.10294129527E+02  0.51100000000E-03 0.  1.
        -12    1    3    3    0    0 -0.36646299702E+02  0.57985870996E+00 -0.25902244907E+02  0.44879993418E+02  0.00000000000E+00 0.  1.
</event>
<event>
 7    1  0.2000468E-015  0.9000776E+02  0.7816164E-02  0.1186339E+00
        -11   -1    0    0    0    0  0.00000000000E+00  0.00000000000E+00  0.45593999997E+02  0.45594000000E+02  0.51100000000E-03 0. -1.
         11   -1    0    0    0    0 -0.00000000000E+00 -0.00000000000E+00 -0.45593999997E+02  0.45594000000E+02  0.51100000000E-03 0.  1.
    9900012    2    1    2    0    0  0.11712852587E+01  0.42509046603E-01 -0.13870952066E+00  0.90007764215E+02  0.90000025903E+02 0.  0.
         12    1    1    2    0    0 -0.11712852587E+01 -0.42509046603E-01  0.13870952066E+00  0.11802357846E+01  0.00000000000E+00 0. -1.
         11    1    3    3    0    0  0.12522351082E+02 -0.19547961189E+02  0.28904887924E+02  0.37073233059E+02  0.51100000000E-03 0. -1.
        -11    1    3    3    0    0  0.27516049420E+01 -0.76625232988E+01  0.28974929171E+01  0.86418203249E+01  0.51100000000E-03 0.  1.
        -12    1    3    3    0    0 -0.14102670765E+02  0.27252993534E+02 -0.31941090362E+02  0.44292710832E+02  0.00000000000E+00 0.  1.
</event>
<event>
 7    1  0.2230794E-015  0.9000776E+02  0.7816164E-02  0.1186339E+00
        -11   -1    0    0    0    0  0.00000000000E+00  0.00000000000E+00  0.45593999997E+02  0.45594000000E+02  0.51100000000E-03 0. -1.
         11   -1    0    0    0    0 -0.00000000000E+00 -0.00000000000E+00 -0.45593999997E+02  0.45594000000E+02  0.51100000000E-03 0.  1.
    9900012    2    1    2    0    0 -0.52920377963E+00 -0.23864657900E+00 -0.10276025820E+01  0.90007756001E+02  0.90000017580E+02 0.  0.
         12    1    1    2    0    0  0.52920377963E+00  0.23864657900E+00  0.10276025820E+01  0.11802439987E+01  0.00000000000E+00 0. -1.
         11    1    3    3    0    0 -0.34559335502E+02 -0.13131646896E+00  0.73476841405E+01  0.35332044618E+02  0.51100000000E-03 0. -1.
        -11    1    3    3    0    0 -0.86437524906E+01  0.16207658775E+01  0.47504228392E+01  0.99953917663E+01  0.51100000000E-03 0.  1.
        -12    1    3    3    0    0  0.42673884213E+02 -0.17280959875E+01 -0.13125709562E+02  0.44680319617E+02  0.00000000000E+00 0.  1.
</event>
<event>
 7    1  0.2000468E-015  0.9000779E+02  0.7816164E-02  0.1186339E+00
        -11   -1    0    0    0    0  0.00000000000E+00  0.00000000000E+00  0.45593999997E+02  0.45594000000E+02  0.51100000000E-03 0. -1.
         11   -1    0    0    0    0 -0.00000000000E+00 -0.00000000000E+00 -0.45593999997E+02  0.45594000000E+02  0.51100000000E-03 0.  1.
    9900012    2    1    2    0    0 -0.34070687971E+00  0.67348632673E+00 -0.90732434857E+00  0.90007787102E+02  0.90000049092E+02 0.  0.
         12    1    1    2    0    0  0.34070687971E+00 -0.67348632673E+00  0.90732434857E+00  0.11802128976E+01  0.00000000000E+00 0. -1.
         11    1    3    3    0    0 -0.14734142178E+02  0.18075096758E+02  0.18766494711E+02  0.29933015093E+02  0.51100000000E-03 0. -1.
        -11    1    3    3    0    0  0.13191282893E+01  0.11936531298E+02  0.10539512928E+02  0.15978179242E+02  0.51100000000E-03 0.  1.
        -12    1    3    3    0    0  0.13074307009E+02 -0.29338141729E+02 -0.30213331988E+02  0.44096592767E+02  0.00000000000E+00 0.  1.
</event>
<event>
 7    1  0.2000468E-015  0.9000769E+02  0.7816164E-02  0.1186339E+00
        -11   -1    0    0    0    0  0.00000000000E+00  0.00000000000E+00  0.45593999997E+02  0.45594000000E+02  0.51100000000E-03 0.  1.
         11   -1    0    0    0    0 -0.00000000000E+00 -0.00000000000E+00 -0.45593999997E+02  0.45594000000E+02  0.51100000000E-03 0. -1.
    9900012    2    1    2    0    0  0.19995290350E+00  0.32058007036E+00  0.11182022709E+01  0.90007691115E+02  0.89999951838E+02 0.  0.
         12    1    1    2    0    0 -0.19995290350E+00 -0.32058007036E+00 -0.11182022709E+01  0.11803088849E+01  0.00000000000E+00 0. -1.
         11    1    3    3    0    0 -0.23842353182E+02  0.23242906395E+02 -0.14844598208E+02  0.36456173677E+02  0.51100000000E-03 0. -1.
        -11    1    3    3    0    0  0.35680046983E+01  0.10895610541E+02  0.20816147034E+01  0.11652386306E+02  0.51100000000E-03 0.  1.
        -12    1    3    3    0    0  0.20474301387E+02 -0.33817936865E+02  0.13881185776E+02  0.41899131132E+02  0.00000000000E+00 0.  1.
</event>
<event>
 7    1  0.2000468E-015  0.9000774E+02  0.7816164E-02  0.1186339E+00
        -11   -1    0    0    0    0  0.00000000000E+00  0.00000000000E+00  0.45593999997E+02  0.45594000000E+02  0.51100000000E-03 0.  1.
         11   -1    0    0    0    0 -0.00000000000E+00 -0.00000000000E+00 -0.45593999997E+02  0.45594000000E+02  0.51100000000E-03 0. -1.
    9900012    2    1    2    0    0 -0.10366821178E+01  0.45962956439E+00  0.32716457365E+00  0.90007743330E+02  0.90000004741E+02 0.  0.
         12    1    1    2    0    0  0.10366821178E+01 -0.45962956439E+00 -0.32716457365E+00  0.11802566705E+01  0.00000000000E+00 0. -1.
         11    1    3    3    0    0 -0.16363678212E+02 -0.20064866195E+02  0.22391461661E+02  0.34230781113E+02  0.51100000000E-03 0. -1.
        -11    1    3    3    0    0 -0.78317930195E+01 -0.98573264163E+01 -0.24203812240E+01  0.12820378758E+02  0.51100000000E-03 0.  1.
        -12    1    3    3    0    0  0.23158789114E+02  0.30381822176E+02 -0.19643915863E+02  0.42956583458E+02  0.00000000000E+00 0.  1.
</event>
<event>
 7    1  0.2000468E-015  0.9000770E+02  0.7816164E-02  0.1186339E+00
        -11   -1    0    0    0    0  0.00000000000E+00  0.00000000000E+00  0.45593999997E+02  0.45594000000E+02  0.51100000000E-03 0.  1.
         11   -1    0    0    0    0 -0.00000000000E+00 -0.00000000000E+00 -0.45593999997E+02  0.45594000000E+02  0.51100000000E-03 0. -1.
    9900012    2    1    2    0    0  0.98934467989E+00 -0.53912802069E+00  0.35164660527E+00  0.90007696118E+02  0.89999956907E+02 0.  0.
         12    1    1    2    0    0 -0.98934467989E+00  0.53912802069E+00 -0.35164660527E+00  0.11803038818E+01  0.00000000000E+00 0. -1.
         11    1    3    3    0    0 -0.91888490221E+01  0.31934056842E-02  0.35455744940E+01  0.98491652084E+01  0.51100000000E-03 0. -1.
        -11    1    3    3    0    0 -0.24730205060E+02 -0.94374167850E+01  0.23441221329E+02  0.35357301022E+02  0.51100000000E-03 0.  1.
         12    1    3    3    0    0  0.34908398762E+02  0.88950953587E+01 -0.26635149218E+02  0.44801229888E+02  0.00000000000E+00 0. -1.
</event>
<event>
 7    1  0.2000468E-015  0.9000848E+02  0.7816164E-02  0.1186338E+00
        -11   -1    0    0    0    0  0.00000000000E+00  0.00000000000E+00  0.45593999997E+02  0.45594000000E+02  0.51100000000E-03 0.  1.
         11   -1    0    0    0    0 -0.00000000000E+00 -0.00000000000E+00 -0.45593999997E+02  0.45594000000E+02  0.51100000000E-03 0. -1.
    9900012    2    1    2    0    0  0.12671791215E+00 -0.10235355762E+01 -0.57234727963E+00  0.90008481491E+02  0.90000752643E+02 0.  0.
         12    1    1    2    0    0 -0.12671791215E+00  0.10235355762E+01  0.57234727963E+00  0.11795185092E+01  0.00000000000E+00 0. -1.
         11    1    3    3    0    0 -0.13569120274E+02  0.20774618748E+02 -0.34575047209E+02  0.42557486990E+02  0.51100000000E-03 0. -1.
        -11    1    3    3    0    0  0.13847572589E+01 -0.10054628376E+02  0.84709361656E+00  0.10184825590E+02  0.51100000000E-03 0.  1.
        -12    1    3    3    0    0  0.12311080928E+02 -0.11743525948E+02  0.33155606313E+02  0.37266168911E+02  0.00000000000E+00 0.  1.
</event>
<event>
 7    1  0.2000468E-015  0.9000778E+02  0.7816164E-02  0.1186339E+00
        -11   -1    0    0    0    0  0.00000000000E+00  0.00000000000E+00  0.45593999997E+02  0.45594000000E+02  0.51100000000E-03 0.  1.
         11   -1    0    0    0    0 -0.00000000000E+00 -0.00000000000E+00 -0.45593999997E+02  0.45594000000E+02  0.51100000000E-03 0. -1.
    9900012    2    1    2    0    0  0.70741449830E-01  0.53222845999E+00  0.10510272594E+01  0.90007775536E+02  0.90000037373E+02 0.  0.
         12    1    1    2    0    0 -0.70741449830E-01 -0.53222845999E+00 -0.10510272594E+01  0.11802244644E+01  0.00000000000E+00 0. -1.
         11    1    3    3    0    0 -0.47208636873E+01 -0.46472112563E+01  0.93838862696E+01  0.11486533341E+02  0.51100000000E-03 0. -1.
        -11    1    3    3    0    0 -0.36417215825E+02  0.44294225162E+01 -0.12906399628E+01  0.36708298027E+02  0.51100000000E-03 0.  1.
         12    1    3    3    0    0  0.41208820962E+02  0.75001720012E+00 -0.70422190474E+01  0.41812944168E+02  0.00000000000E+00 0. -1.
</event>
<event>
 7    1  0.2000468E-015  0.9000773E+02  0.7816164E-02  0.1186339E+00
        -11   -1    0    0    0    0  0.00000000000E+00  0.00000000000E+00  0.45593999997E+02  0.45594000000E+02  0.51100000000E-03 0. -1.
         11   -1    0    0    0    0 -0.00000000000E+00 -0.00000000000E+00 -0.45593999997E+02  0.45594000000E+02  0.51100000000E-03 0.  1.
    9900012    2    1    2    0    0  0.11559751321E+01 -0.22458632294E+00  0.79453369419E-01  0.90007732928E+02  0.89999994203E+02 0.  0.
         12    1    1    2    0    0 -0.11559751321E+01  0.22458632294E+00 -0.79453369419E-01  0.11802670716E+01  0.00000000000E+00 0. -1.
         11    1    3    3    0    0  0.15633243763E+02  0.20095240367E+02  0.22925269236E+02  0.34260545322E+02  0.51100000000E-03 0. -1.
        -11    1    3    3    0    0  0.26484737156E+01  0.61946853032E+01  0.87786789899E+01  0.11065881985E+02  0.51100000000E-03 0.  1.
        -12    1    3    3    0    0 -0.17125742347E+02 -0.26514511993E+02 -0.31624494856E+02  0.44681305622E+02  0.00000000000E+00 0.  1.
</event>
<event>
 7    1  0.2000468E-015  0.9000769E+02  0.7816164E-02  0.1186339E+00
        -11   -1    0    0    0    0  0.00000000000E+00  0.00000000000E+00  0.45593999997E+02  0.45594000000E+02  0.51100000000E-03 0. -1.
         11   -1    0    0    0    0 -0.00000000000E+00 -0.00000000000E+00 -0.45593999997E+02  0.45594000000E+02  0.51100000000E-03 0.  1.
    9900012    2    1    2    0    0 -0.17654552647E+00  0.66598969905E-01 -0.11651274442E+01  0.90007692537E+02  0.89999953279E+02 0.  0.
         12    1    1    2    0    0  0.17654552647E+00 -0.66598969905E-01  0.11651274442E+01  0.11803074629E+01  0.00000000000E+00 0. -1.
         11    1    3    3    0    0  0.38618526029E+01  0.54517698996E+00 -0.82354447980E+01  0.91122815342E+01  0.51100000000E-03 0. -1.
        -11    1    3    3    0    0 -0.73379140685E-01 -0.37747378654E+02 -0.10957809332E+02  0.39305770128E+02  0.51100000000E-03 0.  1.
         12    1    3    3    0    0 -0.39650189887E+01  0.37268800634E+02  0.18028126686E+02  0.41589640875E+02  0.00000000000E+00 0. -1.
</event>
<event>
 7    1  0.2000468E-015  0.9000778E+02  0.7816164E-02  0.1186339E+00
        -11   -1    0    0    0    0  0.00000000000E+00  0.00000000000E+00  0.45593999997E+02  0.45594000000E+02  0.51100000000E-03 0. -1.
         11   -1    0    0    0    0 -0.00000000000E+00 -0.00000000000E+00 -0.45593999997E+02  0.45594000000E+02  0.51100000000E-03 0.  1.
    9900012    2    1    2    0    0  0.46023965869E+00  0.62832858255E+00 -0.88674189455E+00  0.90007776064E+02  0.90000037908E+02 0.  0.
         12    1    1    2    0    0 -0.46023965869E+00 -0.62832858255E+00  0.88674189455E+00  0.11802239358E+01  0.00000000000E+00 0. -1.
         11    1    3    3    0    0  0.19764146056E+02  0.28012680925E+02  0.12786101109E+02  0.36589836619E+02  0.51100000000E-03 0. -1.
        -11    1    3    3    0    0 -0.71904723585E+01  0.82550274785E+01 -0.11251264252E+02  0.15698385870E+02  0.51100000000E-03 0.  1.
        -12    1    3    3    0    0 -0.12113434039E+02 -0.35639379821E+02 -0.24215787518E+01  0.37719553575E+02  0.00000000000E+00 0.  1.
</event>
<event>
 7    1  0.2000468E-015  0.9000770E+02  0.7816164E-02  0.1186339E+00
        -11   -1    0    0    0    0  0.00000000000E+00  0.00000000000E+00  0.45593999997E+02  0.45594000000E+02  0.51100000000E-03 0. -1.
         11   -1    0    0    0    0 -0.00000000000E+00 -0.00000000000E+00 -0.45593999997E+02  0.45594000000E+02  0.51100000000E-03 0.  1.
    9900012    2    1    2    0    0  0.83064060513E+00  0.82763072194E+00 -0.13479349367E+00  0.90007701007E+02  0.89999961860E+02 0.  0.
         12    1    1    2    0    0 -0.83064060513E+00 -0.82763072194E+00  0.13479349367E+00  0.11802989929E+01  0.00000000000E+00 0. -1.
         11    1    3    3    0    0  0.18343122684E+02 -0.13346312802E+02  0.31231832618E+02  0.38600797714E+02  0.51100000000E-03 0. -1.
        -11    1    3    3    0    0  0.87664636325E+00  0.64309265780E+01  0.61328424644E+01  0.89295622767E+01  0.51100000000E-03 0.  1.
        -12    1    3    3    0    0 -0.18389128442E+02  0.77430169458E+01 -0.37499468576E+02  0.42477341016E+02  0.00000000000E+00 0.  1.
</event>
<event>
 7    1  0.2000468E-015  0.9000771E+02  0.7816164E-02  0.1186339E+00
        -11   -1    0    0    0    0  0.00000000000E+00  0.00000000000E+00  0.45593999997E+02  0.45594000000E+02  0.51100000000E-03 0.  1.
         11   -1    0    0    0    0 -0.00000000000E+00 -0.00000000000E+00 -0.45593999997E+02  0.45594000000E+02  0.51100000000E-03 0. -1.
    9900012    2    1    2    0    0  0.92881019950E+00 -0.72593824275E+00 -0.58368077915E-01  0.90007711242E+02  0.89999972231E+02 0.  0.
         12    1    1    2    0    0 -0.92881019950E+00  0.72593824275E+00  0.58368077915E-01  0.11802887577E+01  0.00000000000E+00 0. -1.
         11    1    3    3    0    0  0.48211882737E+01 -0.99907060205E+00  0.82249804208E+01  0.95860472366E+01  0.51100000000E-03 0. -1.
        -11    1    3    3    0    0 -0.88110481599E+01 -0.38660175409E+02  0.24817570265E+01  0.39729118421E+02  0.51100000000E-03 0.  1.
         12    1    3    3    0    0  0.49186700857E+01  0.38933307768E+02 -0.10765105525E+02  0.40692545585E+02  0.00000000000E+00 0. -1.
</event>
<event>
 7    1  0.2000468E-015  0.9000760E+02  0.7816164E-02  0.1186339E+00
        -11   -1    0    0    0    0  0.00000000000E+00  0.00000000000E+00  0.45593999997E+02  0.45594000000E+02  0.51100000000E-03 0. -1.
         11   -1    0    0    0    0 -0.00000000000E+00 -0.00000000000E+00 -0.45593999997E+02  0.45594000000E+02  0.51100000000E-03 0.  1.
    9900012    2    1    2    0    0 -0.38532432966E+00  0.36830986006E+00 -0.10531947499E+01  0.90007599147E+02  0.89999858656E+02 0.  0.
         12    1    1    2    0    0  0.38532432966E+00 -0.36830986006E+00  0.10531947499E+01  0.11804008528E+01  0.00000000000E+00 0. -1.
         11    1    3    3    0    0 -0.10302453911E+02  0.44951344246E+00  0.13966679675E+01  0.10406406709E+02  0.51100000000E-03 0. -1.
        -11    1    3    3    0    0 -0.14092866065E+02 -0.63584517356E+01 -0.35237706640E+02  0.38480316422E+02  0.51100000000E-03 0.  1.
         12    1    3    3    0    0  0.24009995646E+02  0.62772481532E+01  0.32787843922E+02  0.41120876017E+02  0.00000000000E+00 0. -1.
</event>
<event>
 7    1  0.2000468E-015  0.9000784E+02  0.7816164E-02  0.1186339E+00
        -11   -1    0    0    0    0  0.00000000000E+00  0.00000000000E+00  0.45593999997E+02  0.45594000000E+02  0.51100000000E-03 0. -1.
         11   -1    0    0    0    0 -0.00000000000E+00 -0.00000000000E+00 -0.45593999997E+02  0.45594000000E+02  0.51100000000E-03 0.  1.
    9900012    2    1    2    0    0  0.44647894068E+00  0.10740796223E+01 -0.19948800848E+00  0.90007836475E+02  0.90000099117E+02 0.  0.
         12    1    1    2    0    0 -0.44647894068E+00 -0.10740796223E+01  0.19948800848E+00  0.11801635247E+01  0.00000000000E+00 0. -1.
         11    1    3    3    0    0  0.17496660174E+02  0.23080047044E+02  0.27527433255E+02  0.39957243031E+02  0.51100000000E-03 0. -1.
        -11    1    3    3    0    0  0.24540607926E+01 -0.11420520123E+02  0.30824548082E+01  0.12081068750E+02  0.51100000000E-03 0.  1.
        -12    1    3    3    0    0 -0.19504242025E+02 -0.10585447299E+02 -0.30809376072E+02  0.37969524693E+02  0.00000000000E+00 0.  1.
</event>
<event>
 7    1  0.2000468E-015  0.9000776E+02  0.7816164E-02  0.1186339E+00
        -11   -1    0    0    0    0  0.00000000000E+00  0.00000000000E+00  0.45593999997E+02  0.45594000000E+02  0.51100000000E-03 0. -1.
         11   -1    0    0    0    0 -0.00000000000E+00 -0.00000000000E+00 -0.45593999997E+02  0.45594000000E+02  0.51100000000E-03 0.  1.
    9900012    2    1    2    0    0 -0.62858669396E+00  0.99699433271E+00  0.62026818625E-01  0.90007760085E+02  0.90000021718E+02 0.  0.
         12    1    1    2    0    0  0.62858669396E+00 -0.99699433271E+00 -0.62026818625E-01  0.11802399152E+01  0.00000000000E+00 0. -1.
         11    1    3    3    0    0  0.52147404061E+01 -0.31348358019E+02 -0.21336097636E+02  0.38277175060E+02  0.51100000000E-03 0. -1.
        -11    1    3    3    0    0 -0.16478410078E+01 -0.71503986661E+01  0.41401545186E+01  0.84252276390E+01  0.51100000000E-03 0.  1.
        -12    1    3    3    0    0 -0.41954860923E+01  0.39495751018E+02  0.17257969936E+02  0.43305357386E+02  0.00000000000E+00 0.  1.
</event>
<event>
 7    1  0.2000468E-015  0.9000778E+02  0.7816164E-02  0.1186339E+00
        -11   -1    0    0    0    0  0.00000000000E+00  0.00000000000E+00  0.45593999997E+02  0.45594000000E+02  0.51100000000E-03 0. -1.
         11   -1    0    0    0    0 -0.00000000000E+00 -0.00000000000E+00 -0.45593999997E+02  0.45594000000E+02  0.51100000000E-03 0.  1.
    9900012    2    1    2    0    0 -0.52475657425E+00 -0.82216223022E+00 -0.66453074501E+00  0.90007779128E+02  0.90000041013E+02 0.  0.
         12    1    1    2    0    0  0.52475657425E+00  0.82216223022E+00  0.66453074501E+00  0.11802208717E+01  0.00000000000E+00 0. -1.
         11    1    3    3    0    0 -0.23119950831E+02 -0.20314524302E+02  0.21266040931E+02  0.37409310622E+02  0.51100000000E-03 0. -1.
        -11    1    3    3    0    0 -0.87124927155E+01  0.28944255300E+01  0.25511351660E+01  0.95285633420E+01  0.51100000000E-03 0.  1.
        -12    1    3    3    0    0  0.31307686972E+02  0.16597936542E+02 -0.24481706842E+02  0.43069905165E+02  0.00000000000E+00 0.  1.
</event>
<event>
 7    1  0.2000468E-015  0.9000764E+02  0.7816164E-02  0.1186339E+00
        -11   -1    0    0    0    0  0.00000000000E+00  0.00000000000E+00  0.45593999997E+02  0.45594000000E+02  0.51100000000E-03 0.  1.
         11   -1    0    0    0    0 -0.00000000000E+00 -0.00000000000E+00 -0.45593999997E+02  0.45594000000E+02  0.51100000000E-03 0. -1.
    9900012    2    1    2    0    0  0.82301093970E+00 -0.84354431031E+00  0.65778986824E-01  0.90007643746E+02  0.89999903844E+02 0.  0.
         12    1    1    2    0    0 -0.82301093970E+00  0.84354431031E+00 -0.65778986824E-01  0.11803562536E+01  0.00000000000E+00 0. -1.
         11    1    3    3    0    0 -0.34981633505E+02 -0.16764153792E+02  0.72798949750E+01  0.39468321552E+02  0.51100000000E-03 0. -1.
        -11    1    3    3    0    0 -0.15496593391E+01 -0.18538802800E+01 -0.88156167993E+01  0.91407557660E+01  0.51100000000E-03 0.  1.
        -12    1    3    3    0    0  0.37354303784E+02  0.17774489762E+02  0.16015008112E+01  0.41398566428E+02  0.00000000000E+00 0.  1.
</event>
<event>
 7    1  0.2000468E-015  0.9000769E+02  0.7816164E-02  0.1186339E+00
        -11   -1    0    0    0    0  0.00000000000E+00  0.00000000000E+00  0.45593999997E+02  0.45594000000E+02  0.51100000000E-03 0. -1.
         11   -1    0    0    0    0 -0.00000000000E+00 -0.00000000000E+00 -0.45593999997E+02  0.45594000000E+02  0.51100000000E-03 0.  1.
    9900012    2    1    2    0    0 -0.10834241820E+00  0.38923005832E-01 -0.11746774486E+01  0.90007694875E+02  0.89999955647E+02 0.  0.
         12    1    1    2    0    0  0.10834241820E+00 -0.38923005832E-01  0.11746774486E+01  0.11803051251E+01  0.00000000000E+00 0. -1.
         11    1    3    3    0    0 -0.19206228809E+02  0.18776666947E+02 -0.24668319404E+02  0.36468732212E+02  0.51100000000E-03 0. -1.
        -11    1    3    3    0    0 -0.52029702293E+01 -0.14436210413E+02 -0.47203230413E+01  0.16054797419E+02  0.51100000000E-03 0.  1.
        -12    1    3    3    0    0  0.24300856620E+02 -0.43015335279E+01  0.28213964997E+02  0.37484165244E+02  0.00000000000E+00 0.  1.
</event>
<event>
 7    1  0.2000468E-015  0.9000780E+02  0.7816164E-02  0.1186339E+00
        -11   -1    0    0    0    0  0.00000000000E+00  0.00000000000E+00  0.45593999997E+02  0.45594000000E+02  0.51100000000E-03 0.  1.
         11   -1    0    0    0    0 -0.00000000000E+00 -0.00000000000E+00 -0.45593999997E+02  0.45594000000E+02  0.51100000000E-03 0. -1.
    9900012    2    1    2    0    0  0.96229645584E+00  0.52532271875E+00 -0.43692315685E+00  0.90007796512E+02  0.90000058626E+02 0.  0.
         12    1    1    2    0    0 -0.96229645584E+00 -0.52532271875E+00  0.43692315685E+00  0.11802034879E+01  0.00000000000E+00 0. -1.
         11    1    3    3    0    0 -0.85165538136E+01  0.35440321149E+01  0.66025872009E+00  0.92481238275E+01  0.51100000000E-03 0. -1.
        -11    1    3    3    0    0 -0.30877701132E+02 -0.20014216336E+02  0.20785523991E+01  0.36855415655E+02  0.51100000000E-03 0.  1.
         12    1    3    3    0    0  0.40356551402E+02  0.16995506939E+02 -0.31757342761E+01  0.43904257030E+02  0.00000000000E+00 0. -1.
</event>
<event>
 7    1  0.2000468E-015  0.9000765E+02  0.7816164E-02  0.1186339E+00
        -11   -1    0    0    0    0  0.00000000000E+00  0.00000000000E+00  0.45593999997E+02  0.45594000000E+02  0.51100000000E-03 0.  1.
         11   -1    0    0    0    0 -0.00000000000E+00 -0.00000000000E+00 -0.45593999997E+02  0.45594000000E+02  0.51100000000E-03 0. -1.
    9900012    2    1    2    0    0 -0.72439381662E+00  0.60254086022E+00  0.71093224785E+00  0.90007649819E+02  0.89999909996E+02 0.  0.
         12    1    1    2    0    0  0.72439381662E+00 -0.60254086022E+00 -0.71093224785E+00  0.11803501814E+01  0.00000000000E+00 0. -1.
         11    1    3    3    0    0  0.39187503998E+02 -0.50667029743E+01 -0.60982875253E+01  0.39981508972E+02  0.51100000000E-03 0. -1.
        -11    1    3    3    0    0  0.16413914791E+00  0.90752780773E+01 -0.72641719292E+00  0.91057836588E+01  0.51100000000E-03 0.  1.
        -12    1    3    3    0    0 -0.40076036963E+02 -0.34060342428E+01  0.75356369661E+01  0.40920357188E+02  0.00000000000E+00 0.  1.
</event>
<event>
 7    1  0.2000468E-015  0.9000787E+02  0.7816164E-02  0.1186339E+00
        -11   -1    0    0    0    0  0.00000000000E+00  0.00000000000E+00  0.45593999997E+02  0.45594000000E+02  0.51100000000E-03 0.  1.
         11   -1    0    0    0    0 -0.00000000000E+00 -0.00000000000E+00 -0.45593999997E+02  0.45594000000E+02  0.51100000000E-03 0. -1.
    9900012    2    1    2    0    0  0.39466441895E-01 -0.11700707235E+01 -0.14864067697E+00  0.90007865623E+02  0.90000128649E+02 0.  0.
         12    1    1    2    0    0 -0.39466441895E-01  0.11700707235E+01  0.14864067697E+00  0.11801343774E+01  0.00000000000E+00 0. -1.
         11    1    3    3    0    0  0.16153489386E+02  0.17293267995E+02  0.24561840928E+02  0.34106837545E+02  0.51100000000E-03 0. -1.
        -11    1    3    3    0    0  0.73668621890E+01  0.10103267147E+02 -0.24571142771E+01  0.12743001075E+02  0.51100000000E-03 0.  1.
        -12    1    3    3    0    0 -0.23480885134E+02 -0.28566605865E+02 -0.22253367328E+02  0.43158027003E+02  0.00000000000E+00 0.  1.
</event>
<event>
 7    1  0.2000468E-015  0.9000771E+02  0.7816164E-02  0.1186339E+00
        -11   -1    0    0    0    0  0.00000000000E+00  0.00000000000E+00  0.45593999997E+02  0.45594000000E+02  0.51100000000E-03 0.  1.
         11   -1    0    0    0    0 -0.00000000000E+00 -0.00000000000E+00 -0.45593999997E+02  0.45594000000E+02  0.51100000000E-03 0. -1.
    9900012    2    1    2    0    0  0.14629353199E-02 -0.66455495438E+00  0.97542023678E+00  0.90007711872E+02  0.89999972868E+02 0.  0.
         12    1    1    2    0    0 -0.14629353199E-02  0.66455495438E+00 -0.97542023678E+00  0.11802881283E+01  0.00000000000E+00 0. -1.
         11    1    3    3    0    0  0.14556090626E+02 -0.30106497527E+02 -0.48021260110E+01  0.33783744348E+02  0.51100000000E-03 0. -1.
        -11    1    3    3    0    0 -0.42717164487E+01 -0.11333245796E+02  0.73057604031E+01  0.14144403735E+02  0.51100000000E-03 0.  1.
        -12    1    3    3    0    0 -0.10282911242E+02  0.40775188369E+02 -0.15282141554E+01  0.42079563789E+02  0.00000000000E+00 0.  1.
</event>
<event>
 7    1  0.2000468E-015  0.9000779E+02  0.7816164E-02  0.1186339E+00
        -11   -1    0    0    0    0  0.00000000000E+00  0.00000000000E+00  0.45593999997E+02  0.45594000000E+02  0.51100000000E-03 0.  1.
         11   -1    0    0    0    0 -0.00000000000E+00 -0.00000000000E+00 -0.45593999997E+02  0.45594000000E+02  0.51100000000E-03 0. -1.
    9900012    2    1    2    0    0 -0.82816345542E+00  0.65156363015E+00  0.53150383727E+00  0.90007794000E+02  0.90000056081E+02 0.  0.
         12    1    1    2    0    0  0.82816345542E+00 -0.65156363015E+00 -0.53150383727E+00  0.11802059998E+01  0.00000000000E+00 0. -1.
         11    1    3    3    0    0 -0.36981028147E+01 -0.24100154900E+00  0.13536073243E+02  0.14034219796E+02  0.51100000000E-03 0. -1.
        -11    1    3    3    0    0 -0.74420067466E+01 -0.52683739227E+01  0.29983232100E+02  0.31339008211E+02  0.51100000000E-03 0.  1.
         12    1    3    3    0    0  0.10311946106E+02  0.61609391018E+01 -0.42987801506E+02  0.44634565993E+02  0.00000000000E+00 0. -1.
</event>
<event>
 7    1  0.2000468E-015  0.9000775E+02  0.7816164E-02  0.1186339E+00
        -11   -1    0    0    0    0  0.00000000000E+00  0.00000000000E+00  0.45593999997E+02  0.45594000000E+02  0.51100000000E-03 0. -1.
         11   -1    0    0    0    0 -0.00000000000E+00 -0.00000000000E+00 -0.45593999997E+02  0.45594000000E+02  0.51100000000E-03 0.  1.
    9900012    2    1    2    0    0  0.11359545740E+01  0.24297702018E+00  0.20871471777E+00  0.90007748984E+02  0.90000010471E+02 0.  0.
         12    1    1    2    0    0 -0.11359545740E+01 -0.24297702018E+00 -0.20871471777E+00  0.11802510157E+01  0.00000000000E+00 0. -1.
         11    1    3    3    0    0 -0.96575684985E+00  0.69869056220E+01 -0.55628936214E+01  0.89830575067E+01  0.51100000000E-03 0. -1.
        -11    1    3    3    0    0  0.43297961977E+01  0.36702538446E+02  0.64508781578E+01  0.37515827230E+02  0.51100000000E-03 0.  1.
         12    1    3    3    0    0 -0.22280847739E+01 -0.43446467047E+02 -0.67926981864E+00  0.43508864248E+02  0.00000000000E+00 0. -1.
</event>
<event>
 7    1  0.2000468E-015  0.9000781E+02  0.7816164E-02  0.1186339E+00
        -11   -1    0    0    0    0  0.00000000000E+00  0.00000000000E+00  0.45593999997E+02  0.45594000000E+02  0.51100000000E-03 0.  1.
         11   -1    0    0    0    0 -0.00000000000E+00 -0.00000000000E+00 -0.45593999997E+02  0.45594000000E+02  0.51100000000E-03 0. -1.
    9900012    2    1    2    0    0  0.17436175546E+00  0.11331486750E+01  0.28004928977E+00  0.90007806988E+02  0.90000069240E+02 0.  0.
         12    1    1    2    0    0 -0.17436175546E+00 -0.11331486750E+01 -0.28004928977E+00  0.11801930122E+01  0.00000000000E+00 0. -1.
         11    1    3    3    0    0 -0.40766109330E+01  0.31708858577E+01 -0.54973894991E+01  0.75428486255E+01  0.51100000000E-03 0. -1.
        -11    1    3    3    0    0  0.42038819324E+02  0.72024558703E+01 -0.23799048102E+01  0.42717697128E+02  0.51100000000E-03 0.  1.
         12    1    3    3    0    0 -0.37787846636E+02 -0.92401930530E+01  0.81573435990E+01  0.39747261234E+02  0.00000000000E+00 0. -1.
</event>
<event>
 7    1  0.2000468E-015  0.9000778E+02  0.7816164E-02  0.1186339E+00
        -11   -1    0    0    0    0  0.00000000000E+00  0.00000000000E+00  0.45593999997E+02  0.45594000000E+02  0.51100000000E-03 0. -1.
         11   -1    0    0    0    0 -0.00000000000E+00 -0.00000000000E+00 -0.45593999997E+02  0.45594000000E+02  0.51100000000E-03 0.  1.
    9900012    2    1    2    0    0 -0.95960270027E+00  0.68493694722E+00  0.54357313727E-01  0.90007775156E+02  0.90000036988E+02 0.  0.
         12    1    1    2    0    0  0.95960270027E+00 -0.68493694722E+00 -0.54357313727E-01  0.11802248437E+01  0.00000000000E+00 0. -1.
         11    1    3    3    0    0  0.19591264914E+02 -0.26999903539E+02  0.63665802740E+01  0.33960945168E+02  0.51100000000E-03 0. -1.
        -11    1    3    3    0    0  0.43269665278E+01 -0.71393919188E+01  0.73486256915E+01  0.11121863878E+02  0.51100000000E-03 0.  1.
        -12    1    3    3    0    0 -0.24877834142E+02  0.34824232405E+02 -0.13660848652E+02  0.44924966111E+02  0.00000000000E+00 0.  1.
</event>
<event>
 7    1  0.2000468E-015  0.9000828E+02  0.7816164E-02  0.1186338E+00
        -11   -1    0    0    0    0  0.00000000000E+00  0.00000000000E+00  0.45593999997E+02  0.45594000000E+02  0.51100000000E-03 0.  1.
         11   -1    0    0    0    0 -0.00000000000E+00 -0.00000000000E+00 -0.45593999997E+02  0.45594000000E+02  0.51100000000E-03 0. -1.
    9900012    2    1    2    0    0 -0.10016032802E+01 -0.12595522663E+00  0.61045987380E+00  0.90008281768E+02  0.90000550285E+02 0.  0.
         12    1    1    2    0    0  0.10016032802E+01  0.12595522663E+00 -0.61045987380E+00  0.11797182323E+01  0.00000000000E+00 0. -1.
         11    1    3    3    0    0  0.25689292461E+02  0.26399369809E+02 -0.20446655161E+02  0.42129943994E+02  0.51100000000E-03 0. -1.
        -11    1    3    3    0    0 -0.31124949139E+01  0.18732734966E+01  0.78952314363E+01  0.86908836073E+01  0.51100000000E-03 0.  1.
        -12    1    3    3    0    0 -0.23578400827E+02 -0.28398598532E+02  0.13161883598E+02  0.39187454166E+02  0.00000000000E+00 0.  1.
</event>
<event>
 7    1  0.2000468E-015  0.9000785E+02  0.7816164E-02  0.1186339E+00
        -11   -1    0    0    0    0  0.00000000000E+00  0.00000000000E+00  0.45593999997E+02  0.45594000000E+02  0.51100000000E-03 0.  1.
         11   -1    0    0    0    0 -0.00000000000E+00 -0.00000000000E+00 -0.45593999997E+02  0.45594000000E+02  0.51100000000E-03 0. -1.
    9900012    2    1    2    0    0  0.88102867697E+00  0.50586928171E+00 -0.60052776854E+00  0.90007852187E+02  0.90000115036E+02 0.  0.
         12    1    1    2    0    0 -0.88102867697E+00 -0.50586928171E+00  0.60052776854E+00  0.11801478130E+01  0.00000000000E+00 0. -1.
         11    1    3    3    0    0 -0.90332089178E+01  0.42180010943E+00 -0.10893823835E+02  0.14158113458E+02  0.51100000000E-03 0. -1.
        -11    1    3    3    0    0 -0.17503767721E+02 -0.11786154738E+02  0.32412004353E+02  0.38676004891E+02  0.51100000000E-03 0.  1.
         12    1    3    3    0    0  0.27418005315E+02  0.11870223910E+02 -0.22118708286E+02  0.37173733837E+02  0.00000000000E+00 0. -1.
</event>
<event>
 7    1  0.2000468E-015  0.9000778E+02  0.7816164E-02  0.1186339E+00
        -11   -1    0    0    0    0  0.00000000000E+00  0.00000000000E+00  0.45593999997E+02  0.45594000000E+02  0.51100000000E-03 0. -1.
         11   -1    0    0    0    0 -0.00000000000E+00 -0.00000000000E+00 -0.45593999997E+02  0.45594000000E+02  0.51100000000E-03 0.  1.
    9900012    2    1    2    0    0 -0.60552886777E+00 -0.54832865482E+00 -0.85181312381E+00  0.90007781748E+02  0.90000043668E+02 0.  0.
         12    1    1    2    0    0  0.60552886777E+00  0.54832865482E+00  0.85181312381E+00  0.11802182515E+01  0.00000000000E+00 0. -1.
         11    1    3    3    0    0 -0.86377728954E+01 -0.19765206698E+01 -0.75642097741E+01  0.11650537512E+02  0.51100000000E-03 0. -1.
        -11    1    3    3    0    0 -0.30181262472E+02 -0.14364006950E+02 -0.81757868157E+01  0.34410416887E+02  0.51100000000E-03 0.  1.
         12    1    3    3    0    0  0.38213506499E+02  0.15792198965E+02  0.14888183466E+02  0.43946827349E+02  0.00000000000E+00 0. -1.
</event>
<event>
 7    1  0.2000468E-015  0.9000775E+02  0.7816164E-02  0.1186339E+00
        -11   -1    0    0    0    0  0.00000000000E+00  0.00000000000E+00  0.45593999997E+02  0.45594000000E+02  0.51100000000E-03 0.  1.
         11   -1    0    0    0    0 -0.00000000000E+00 -0.00000000000E+00 -0.45593999997E+02  0.45594000000E+02  0.51100000000E-03 0. -1.
    9900012    2    1    2    0    0  0.10341782347E+01 -0.51766225871E+00  0.23555530725E+00  0.90007752086E+02  0.90000013614E+02 0.  0.
         12    1    1    2    0    0 -0.10341782347E+01  0.51766225871E+00 -0.23555530725E+00  0.11802479138E+01  0.00000000000E+00 0. -1.
         11    1    3    3    0    0  0.33314140147E+02  0.74208626929E+01 -0.50779702718E+01  0.34506331581E+02  0.51100000000E-03 0. -1.
        -11    1    3    3    0    0  0.82518587930E+01  0.75216362311E+01 -0.24521286911E+01  0.11431584340E+02  0.51100000000E-03 0.  1.
        -12    1    3    3    0    0 -0.40531820705E+02 -0.15460161183E+02  0.77656542701E+01  0.44069836166E+02  0.00000000000E+00 0.  1.
</event>
<event>
 7    1  0.2000468E-015  0.9000772E+02  0.7816164E-02  0.1186339E+00
        -11   -1    0    0    0    0  0.00000000000E+00  0.00000000000E+00  0.45593999997E+02  0.45594000000E+02  0.51100000000E-03 0.  1.
         11   -1    0    0    0    0 -0.00000000000E+00 -0.00000000000E+00 -0.45593999997E+02  0.45594000000E+02  0.51100000000E-03 0. -1.
    9900012    2    1    2    0    0  0.27417925468E+00 -0.95578940136E+00  0.63588456024E+00  0.90007721720E+02  0.89999982847E+02 0.  0.
         12    1    1    2    0    0 -0.27417925468E+00  0.95578940136E+00 -0.63588456024E+00  0.11802782796E+01  0.00000000000E+00 0. -1.
         11    1    3    3    0    0  0.15221472930E+02 -0.23662477527E+02 -0.27690145426E+02  0.39475945016E+02  0.51100000000E-03 0. -1.
        -11    1    3    3    0    0 -0.17215208618E+01  0.72006631498E+01 -0.67148460477E+01  0.99951158863E+01  0.51100000000E-03 0.  1.
        -12    1    3    3    0    0 -0.13225772814E+02  0.15506024976E+02  0.35040876034E+02  0.40536660819E+02  0.00000000000E+00 0.  1.
</event>
<event>
 7    1  0.2000468E-015  0.9000794E+02  0.7816164E-02  0.1186339E+00
        -11   -1    0    0    0    0  0.00000000000E+00  0.00000000000E+00  0.45593999997E+02  0.45594000000E+02  0.51100000000E-03 0. -1.
         11   -1    0    0    0    0 -0.00000000000E+00 -0.00000000000E+00 -0.45593999997E+02  0.45594000000E+02  0.51100000000E-03 0.  1.
    9900012    2    1    2    0    0  0.55668178186E+00  0.10208510817E+01  0.20129677006E+00  0.90007935626E+02  0.90000199576E+02 0.  0.
         12    1    1    2    0    0 -0.55668178186E+00 -0.10208510817E+01 -0.20129677006E+00  0.11800643741E+01  0.00000000000E+00 0. -1.
         11    1    3    3    0    0  0.26161081475E+02  0.21743789605E+02  0.24188800194E+02  0.41740778926E+02  0.51100000000E-03 0. -1.
        -11    1    3    3    0    0 -0.63350982112E+01 -0.51567279629E+01  0.54305126750E+01  0.98089643084E+01  0.51100000000E-03 0.  1.
        -12    1    3    3    0    0 -0.19269301482E+02 -0.15566210560E+02 -0.29418016099E+02  0.38458192391E+02  0.00000000000E+00 0.  1.
</event>
<event>
 7    1  0.2000468E-015  0.9000773E+02  0.7816164E-02  0.1186339E+00
        -11   -1    0    0    0    0  0.00000000000E+00  0.00000000000E+00  0.45593999997E+02  0.45594000000E+02  0.51100000000E-03 0.  1.
         11   -1    0    0    0    0 -0.00000000000E+00 -0.00000000000E+00 -0.45593999997E+02  0.45594000000E+02  0.51100000000E-03 0. -1.
    9900012    2    1    2    0    0  0.60835319290E+00  0.87319231004E+00  0.51037729578E+00  0.90007727404E+02  0.89999988605E+02 0.  0.
         12    1    1    2    0    0 -0.60835319290E+00 -0.87319231004E+00 -0.51037729578E+00  0.11802725963E+01  0.00000000000E+00 0. -1.
         11    1    3    3    0    0  0.39593763453E+02  0.19433025400E+02 -0.60571971759E+01  0.44519638571E+02  0.51100000000E-03 0. -1.
        -11    1    3    3    0    0 -0.66234058101E+01 -0.39687983223E+01 -0.36598719193E+01  0.85449123679E+01  0.51100000000E-03 0.  1.
        -12    1    3    3    0    0 -0.32362004450E+02 -0.14591034768E+02  0.10227446391E+02  0.36943176465E+02  0.00000000000E+00 0.  1.
</event>
<event>
 7    1  0.2000468E-015  0.9000764E+02  0.7816164E-02  0.1186339E+00
        -11   -1    0    0    0    0  0.00000000000E+00  0.00000000000E+00  0.45593999997E+02  0.45594000000E+02  0.51100000000E-03 0. -1.
         11   -1    0    0    0    0 -0.00000000000E+00 -0.00000000000E+00 -0.45593999997E+02  0.45594000000E+02  0.51100000000E-03 0.  1.
    9900012    2    1    2    0    0 -0.11797818342E+01 -0.36044179973E-01 -0.86832245659E-02  0.90007635752E+02  0.89999895744E+02 0.  0.
         12    1    1    2    0    0  0.11797818342E+01  0.36044179973E-01  0.86832245659E-02  0.11803642478E+01  0.00000000000E+00 0. -1.
         11    1    3    3    0    0 -0.12383011539E+01  0.68453712424E+01 -0.68581439107E+01  0.97686557599E+01  0.51100000000E-03 0. -1.
        -11    1    3    3    0    0 -0.22605842925E+02  0.29445243496E+02  0.37104985546E+01  0.37307027470E+02  0.51100000000E-03 0.  1.
         12    1    3    3    0    0  0.22664362245E+02 -0.36326658918E+02  0.31389621315E+01  0.42931952522E+02  0.00000000000E+00 0. -1.
</event>
<event>
 7    1  0.2000468E-015  0.9000764E+02  0.7816164E-02  0.1186339E+00
        -11   -1    0    0    0    0  0.00000000000E+00  0.00000000000E+00  0.45593999997E+02  0.45594000000E+02  0.51100000000E-03 0. -1.
         11   -1    0    0    0    0 -0.00000000000E+00 -0.00000000000E+00 -0.45593999997E+02  0.45594000000E+02  0.51100000000E-03 0.  1.
    9900012    2    1    2    0    0  0.75952602358E+00 -0.70515334981E+00 -0.56490918545E+00  0.90007642675E+02  0.89999902758E+02 0.  0.
         12    1    1    2    0    0 -0.75952602358E+00  0.70515334981E+00  0.56490918545E+00  0.11803573252E+01  0.00000000000E+00 0. -1.
         11    1    3    3    0    0  0.30634570389E+02 -0.10964712261E+02 -0.72380052712E+01  0.33333024742E+02  0.51100000000E-03 0. -1.
        -11    1    3    3    0    0 -0.99656550207E+01 -0.15618755124E+02 -0.88374140869E+01  0.20527047514E+02  0.51100000000E-03 0.  1.
        -12    1    3    3    0    0 -0.19909389345E+02  0.25878314035E+02  0.15510510173E+02  0.36147570419E+02  0.00000000000E+00 0.  1.
</event>
<event>
 7    1  0.2000468E-015  0.9000765E+02  0.7816164E-02  0.1186339E+00
        -11   -1    0    0    0    0  0.00000000000E+00  0.00000000000E+00  0.45593999997E+02  0.45594000000E+02  0.51100000000E-03 0. -1.
         11   -1    0    0    0    0 -0.00000000000E+00 -0.00000000000E+00 -0.45593999997E+02  0.45594000000E+02  0.51100000000E-03 0.  1.
    9900012    2    1    2    0    0 -0.86690519934E+00 -0.78716245058E+00 -0.14856186028E+00  0.90007652604E+02  0.89999912819E+02 0.  0.
         12    1    1    2    0    0  0.86690519934E+00  0.78716245058E+00  0.14856186028E+00  0.11803473957E+01  0.00000000000E+00 0. -1.
         11    1    3    3    0    0  0.24461467151E+02 -0.45266761847E+01  0.21197293065E+02  0.32683014029E+02  0.51100000000E-03 0. -1.
        -11    1    3    3    0    0  0.93578626890E+01  0.24149498214E+01  0.74669012139E+01  0.12212951762E+02  0.51100000000E-03 0.  1.
        -12    1    3    3    0    0 -0.34686235040E+02  0.13245639128E+01 -0.28812756139E+02  0.45111686813E+02  0.00000000000E+00 0.  1.
</event>
<event>
 7    1  0.2000468E-015  0.9000773E+02  0.7816164E-02  0.1186339E+00
        -11   -1    0    0    0    0  0.00000000000E+00  0.00000000000E+00  0.45593999997E+02  0.45594000000E+02  0.51100000000E-03 0.  1.
         11   -1    0    0    0    0 -0.00000000000E+00 -0.00000000000E+00 -0.45593999997E+02  0.45594000000E+02  0.51100000000E-03 0. -1.
    9900012    2    1    2    0    0  0.28246041945E+00 -0.11199387371E+01  0.24288055838E+00  0.90007729849E+02  0.89999991083E+02 0.  0.
         12    1    1    2    0    0 -0.28246041945E+00  0.11199387371E+01 -0.24288055838E+00  0.11802701509E+01  0.00000000000E+00 0. -1.
         11    1    3    3    0    0 -0.37792605570E+02  0.15940230416E+02 -0.71711996614E+00  0.41022996512E+02  0.51100000000E-03 0. -1.
        -11    1    3    3    0    0  0.98344394810E+00 -0.45046398453E+01  0.79657857520E+01  0.92039494264E+01  0.51100000000E-03 0.  1.
        -12    1    3    3    0    0  0.37091622042E+02 -0.12555529308E+02 -0.70057852275E+01  0.39780783911E+02  0.00000000000E+00 0.  1.
</event>
<event>
 7    1  0.2000468E-015  0.9000780E+02  0.7816164E-02  0.1186339E+00
        -11   -1    0    0    0    0  0.00000000000E+00  0.00000000000E+00  0.45593999997E+02  0.45594000000E+02  0.51100000000E-03 0.  1.
         11   -1    0    0    0    0 -0.00000000000E+00 -0.00000000000E+00 -0.45593999997E+02  0.45594000000E+02  0.51100000000E-03 0. -1.
    9900012    2    1    2    0    0  0.50785135978E+00  0.68067074754E+00  0.81953349826E+00  0.90007804751E+02  0.90000066974E+02 0.  0.
         12    1    1    2    0    0 -0.50785135978E+00 -0.68067074754E+00 -0.81953349826E+00  0.11801952487E+01  0.00000000000E+00 0. -1.
         11    1    3    3    0    0 -0.43794654773E+01  0.23908841702E+02  0.62142443265E+00  0.24314575833E+02  0.51100000000E-03 0. -1.
        -11    1    3    3    0    0  0.31806158515E+02 -0.77499146509E+01  0.79509492877E+01  0.33688432606E+02  0.51100000000E-03 0.  1.
         12    1    3    3    0    0 -0.26918841678E+02 -0.15478256303E+02 -0.77528402221E+01  0.32004796312E+02  0.00000000000E+00 0. -1.
</event>
<event>
 7    1  0.2000468E-015  0.9000775E+02  0.7816164E-02  0.1186339E+00
        -11   -1    0    0    0    0  0.00000000000E+00  0.00000000000E+00  0.45593999997E+02  0.45594000000E+02  0.51100000000E-03 0.  1.
         11   -1    0    0    0    0 -0.00000000000E+00 -0.00000000000E+00 -0.45593999997E+02  0.45594000000E+02  0.51100000000E-03 0. -1.
    9900012    2    1    2    0    0  0.20966883824E+00  0.32382256741E+00  0.11154222161E+01  0.90007750536E+02  0.90000012043E+02 0.  0.
         12    1    1    2    0    0 -0.20966883824E+00 -0.32382256741E+00 -0.11154222161E+01  0.11802494639E+01  0.00000000000E+00 0. -1.
         11    1    3    3    0    0 -0.83940803936E+01  0.30205779827E+01  0.52349554025E+01  0.10343560090E+02  0.51100000000E-03 0. -1.
        -11    1    3    3    0    0 -0.84921313671E+01  0.12241736033E+02  0.32968747327E+02  0.36178926142E+02  0.51100000000E-03 0.  1.
         12    1    3    3    0    0  0.17095880599E+02 -0.14938491448E+02 -0.37088280513E+02  0.43485264304E+02  0.00000000000E+00 0. -1.
</event>
<event>
 7    1  0.2111034E-015  0.9000781E+02  0.7816164E-02  0.1186339E+00
        -11   -1    0    0    0    0  0.00000000000E+00  0.00000000000E+00  0.45593999997E+02  0.45594000000E+02  0.51100000000E-03 0. -1.
         11   -1    0    0    0    0 -0.00000000000E+00 -0.00000000000E+00 -0.45593999997E+02  0.45594000000E+02  0.51100000000E-03 0.  1.
    9900012    2    1    2    0    0  0.34083940472E+00 -0.72500070363E+00 -0.86663735419E+00  0.90007806023E+02  0.90000068262E+02 0.  0.
         12    1    1    2    0    0 -0.34083940472E+00  0.72500070363E+00  0.86663735419E+00  0.11801939772E+01  0.00000000000E+00 0. -1.
         11    1    3    3    0    0 -0.34753639415E+02  0.29873528150E+01  0.16027787712E+02  0.38387884920E+02  0.51100000000E-03 0. -1.
        -11    1    3    3    0    0  0.54887345332E+00 -0.14835425689E+01  0.85260206184E+01  0.86715159268E+01  0.51100000000E-03 0.  1.
        -12    1    3    3    0    0  0.34545605366E+02 -0.22288109497E+01 -0.25420445685E+02  0.42948405176E+02  0.00000000000E+00 0.  1.
</event>
<event>
 7    1  0.2000468E-015  0.9000766E+02  0.7816164E-02  0.1186339E+00
        -11   -1    0    0    0    0  0.00000000000E+00  0.00000000000E+00  0.45593999997E+02  0.45594000000E+02  0.51100000000E-03 0.  1.
         11   -1    0    0    0    0 -0.00000000000E+00 -0.00000000000E+00 -0.45593999997E+02  0.45594000000E+02  0.51100000000E-03 0. -1.
    9900012    2    1    2    0    0  0.38440728586E+00  0.10961517103E+01  0.20947479201E+00  0.90007662242E+02  0.89999922584E+02 0.  0.
         12    1    1    2    0    0 -0.38440728586E+00 -0.10961517103E+01 -0.20947479201E+00  0.11803377575E+01  0.00000000000E+00 0. -1.
         11    1    3    3    0    0 -0.13879222582E+02  0.34160605643E+02  0.46672598516E+01  0.37166693587E+02  0.51100000000E-03 0. -1.
        -11    1    3    3    0    0 -0.76802210976E+01  0.30055884543E+01  0.49035189346E+01  0.95949912073E+01  0.51100000000E-03 0.  1.
        -12    1    3    3    0    0  0.21943850965E+02 -0.36070042387E+02 -0.93613039942E+01  0.43245977448E+02  0.00000000000E+00 0.  1.
</event>
<event>
 7    1  0.2000468E-015  0.9000778E+02  0.7816164E-02  0.1186339E+00
        -11   -1    0    0    0    0  0.00000000000E+00  0.00000000000E+00  0.45593999997E+02  0.45594000000E+02  0.51100000000E-03 0. -1.
         11   -1    0    0    0    0 -0.00000000000E+00 -0.00000000000E+00 -0.45593999997E+02  0.45594000000E+02  0.51100000000E-03 0.  1.
    9900012    2    1    2    0    0 -0.97264232680E+00 -0.47155701589E+00 -0.47384478360E+00  0.90007776295E+02  0.90000038142E+02 0.  0.
         12    1    1    2    0    0  0.97264232680E+00  0.47155701589E+00  0.47384478360E+00  0.11802237051E+01  0.00000000000E+00 0. -1.
         11    1    3    3    0    0  0.29391792311E+02  0.14973434362E+02 -0.13913831128E+02  0.35800501236E+02  0.51100000000E-03 0. -1.
        -11    1    3    3    0    0  0.58057281352E+01  0.13085396605E+01 -0.71817992648E+01  0.93272180292E+01  0.51100000000E-03 0.  1.
        -12    1    3    3    0    0 -0.36170162773E+02 -0.16753531038E+02  0.20621785610E+02  0.44880057030E+02  0.00000000000E+00 0.  1.
</event>
<event>
 7    1  0.2000468E-015  0.9000772E+02  0.7816164E-02  0.1186339E+00
        -11   -1    0    0    0    0  0.00000000000E+00  0.00000000000E+00  0.45593999997E+02  0.45594000000E+02  0.51100000000E-03 0. -1.
         11   -1    0    0    0    0 -0.00000000000E+00 -0.00000000000E+00 -0.45593999997E+02  0.45594000000E+02  0.51100000000E-03 0.  1.
    9900012    2    1    2    0    0  0.97426607300E+00 -0.33584780500E+00 -0.57539784757E+00  0.90007715792E+02  0.89999976840E+02 0.  0.
         12    1    1    2    0    0 -0.97426607300E+00  0.33584780500E+00  0.57539784757E+00  0.11802842082E+01  0.00000000000E+00 0. -1.
         11    1    3    3    0    0  0.52042092893E+01  0.68450490486E+01 -0.14284392199E+02  0.16672802750E+02  0.51100000000E-03 0. -1.
        -11    1    3    3    0    0  0.18571766016E+02 -0.24622671057E+02 -0.13605484866E+02  0.33708984583E+02  0.51100000000E-03 0.  1.
         12    1    3    3    0    0 -0.22801709232E+02  0.17441774203E+02  0.27314479217E+02  0.39625928458E+02  0.00000000000E+00 0. -1.
</event>
<event>
 7    1  0.2000468E-015  0.9000780E+02  0.7816164E-02  0.1186339E+00
        -11   -1    0    0    0    0  0.00000000000E+00  0.00000000000E+00  0.45593999997E+02  0.45594000000E+02  0.51100000000E-03 0.  1.
         11   -1    0    0    0    0 -0.00000000000E+00 -0.00000000000E+00 -0.45593999997E+02  0.45594000000E+02  0.51100000000E-03 0. -1.
    9900012    2    1    2    0    0 -0.62289288949E+00 -0.12148378245E+00  0.99504978196E+00  0.90007797505E+02  0.90000059632E+02 0.  0.
         12    1    1    2    0    0  0.62289288949E+00  0.12148378245E+00 -0.99504978196E+00  0.11802024952E+01  0.00000000000E+00 0. -1.
         11    1    3    3    0    0  0.19879614509E+02 -0.20658578504E+02  0.21021447974E+02  0.35551050814E+02  0.51100000000E-03 0. -1.
        -11    1    3    3    0    0 -0.94783312453E+01 -0.67669270523E+01  0.77407028271E+01  0.13983867328E+02  0.51100000000E-03 0.  1.
        -12    1    3    3    0    0 -0.11024176153E+02  0.27304021773E+02 -0.27767101020E+02  0.40472879362E+02  0.00000000000E+00 0.  1.
</event>
<event>
 7    1  0.2000468E-015  0.9000770E+02  0.7816164E-02  0.1186339E+00
        -11   -1    0    0    0    0  0.00000000000E+00  0.00000000000E+00  0.45593999997E+02  0.45594000000E+02  0.51100000000E-03 0.  1.
         11   -1    0    0    0    0 -0.00000000000E+00 -0.00000000000E+00 -0.45593999997E+02  0.45594000000E+02  0.51100000000E-03 0. -1.
    9900012    2    1    2    0    0  0.10951457375E+01  0.16607715297E+00  0.40764233646E+00  0.90007704240E+02  0.89999965136E+02 0.  0.
         12    1    1    2    0    0 -0.10951457375E+01 -0.16607715297E+00 -0.40764233646E+00  0.11802957602E+01  0.00000000000E+00 0. -1.
         11    1    3    3    0    0  0.10009682357E+02  0.28469429631E+02 -0.19826104812E+02  0.36107846747E+02  0.51100000000E-03 0. -1.
        -11    1    3    3    0    0  0.65948208813E+01  0.44759253820E+01 -0.52800234332E+01  0.95605553290E+01  0.51100000000E-03 0.  1.
        -12    1    3    3    0    0 -0.15509357501E+02 -0.32779277860E+02  0.25513770581E+02  0.44339302164E+02  0.00000000000E+00 0.  1.
</event>
<event>
 7    1  0.2000468E-015  0.9000768E+02  0.7816164E-02  0.1186339E+00
        -11   -1    0    0    0    0  0.00000000000E+00  0.00000000000E+00  0.45593999997E+02  0.45594000000E+02  0.51100000000E-03 0. -1.
         11   -1    0    0    0    0 -0.00000000000E+00 -0.00000000000E+00 -0.45593999997E+02  0.45594000000E+02  0.51100000000E-03 0.  1.
    9900012    2    1    2    0    0  0.68640893365E+00  0.93552335322E+00 -0.21633384364E+00  0.90007677374E+02  0.89999937916E+02 0.  0.
         12    1    1    2    0    0 -0.68640893365E+00 -0.93552335322E+00  0.21633384364E+00  0.11803226256E+01  0.00000000000E+00 0. -1.
         11    1    3    3    0    0 -0.11064078125E+02  0.16796695314E+00 -0.34038504190E+01  0.11577056430E+02  0.51100000000E-03 0. -1.
        -11    1    3    3    0    0  0.15940357714E+02 -0.55201778454E+01 -0.35345030595E+02  0.39164250989E+02  0.51100000000E-03 0.  1.
         12    1    3    3    0    0 -0.41898706554E+01  0.62877342455E+01  0.38532547170E+02  0.39266369956E+02  0.00000000000E+00 0. -1.
</event>
<event>
 7    1  0.2000468E-015  0.9000770E+02  0.7816164E-02  0.1186339E+00
        -11   -1    0    0    0    0  0.00000000000E+00  0.00000000000E+00  0.45593999997E+02  0.45594000000E+02  0.51100000000E-03 0.  1.
         11   -1    0    0    0    0 -0.00000000000E+00 -0.00000000000E+00 -0.45593999997E+02  0.45594000000E+02  0.51100000000E-03 0. -1.
    9900012    2    1    2    0    0  0.18178689192E+00 -0.48489432697E+00  0.10606280914E+01  0.90007703033E+02  0.89999963913E+02 0.  0.
         12    1    1    2    0    0 -0.18178689192E+00  0.48489432697E+00 -0.10606280914E+01  0.11802969672E+01  0.00000000000E+00 0. -1.
         11    1    3    3    0    0 -0.73928299248E+00  0.37384005909E+02 -0.21986744403E+01  0.37455902161E+02  0.51100000000E-03 0. -1.
        -11    1    3    3    0    0  0.65241011107E+01  0.32368289537E+01 -0.66903941380E+01  0.98895061030E+01  0.51100000000E-03 0.  1.
        -12    1    3    3    0    0 -0.56030312263E+01 -0.41105729190E+02  0.99496966698E+01  0.42662294769E+02  0.00000000000E+00 0.  1.
</event>
<event>
 7    1  0.2000468E-015  0.9000738E+02  0.7816164E-02  0.1186340E+00
        -11   -1    0    0    0    0  0.00000000000E+00  0.00000000000E+00  0.45593999997E+02  0.45594000000E+02  0.51100000000E-03 0.  1.
         11   -1    0    0    0    0 -0.00000000000E+00 -0.00000000000E+00 -0.45593999997E+02  0.45594000000E+02  0.51100000000E-03 0. -1.
    9900012    2    1    2    0    0 -0.88607363278E+00 -0.30645800531E+00 -0.71751780180E+00  0.90007375255E+02  0.89999631808E+02 0.  0.
         12    1    1    2    0    0  0.88607363278E+00  0.30645800531E+00  0.71751780180E+00  0.11806247446E+01  0.00000000000E+00 0. -1.
         11    1    3    3    0    0 -0.10331781944E+02 -0.83733851980E+01 -0.15793147950E+02  0.20646617646E+02  0.51100000000E-03 0. -1.
        -11    1    3    3    0    0  0.45780430125E+01 -0.28332232236E+02  0.15535406062E+02  0.32634685583E+02  0.51100000000E-03 0.  1.
        -12    1    3    3    0    0  0.48676652984E+01  0.36399159429E+02 -0.45977591387E+00  0.36726072027E+02  0.00000000000E+00 0.  1.
</event>
<event>
 7    1  0.2000468E-015  0.9000764E+02  0.7816164E-02  0.1186339E+00
        -11   -1    0    0    0    0  0.00000000000E+00  0.00000000000E+00  0.45593999997E+02  0.45594000000E+02  0.51100000000E-03 0.  1.
         11   -1    0    0    0    0 -0.00000000000E+00 -0.00000000000E+00 -0.45593999997E+02  0.45594000000E+02  0.51100000000E-03 0. -1.
    9900012    2    1    2    0    0  0.34145559980E+00  0.10342419483E+01  0.45497515559E+00  0.90007639578E+02  0.89999899620E+02 0.  0.
         12    1    1    2    0    0 -0.34145559980E+00 -0.10342419483E+01 -0.45497515559E+00  0.11803604223E+01  0.00000000000E+00 0. -1.
         11    1    3    3    0    0  0.14637807816E+02  0.14120958233E+02 -0.70132916010E+01  0.21514021902E+02  0.51100000000E-03 0. -1.
        -11    1    3    3    0    0 -0.93898610463E+01 -0.36911800066E+02 -0.89771480172E+01  0.39131057503E+02  0.51100000000E-03 0.  1.
         12    1    3    3    0    0 -0.49064911699E+01  0.23825083781E+02  0.16445414774E+02  0.29362560172E+02  0.00000000000E+00 0. -1.
</event>
<event>
 7    1  0.2000468E-015  0.9000779E+02  0.7816164E-02  0.1186339E+00
        -11   -1    0    0    0    0  0.00000000000E+00  0.00000000000E+00  0.45593999997E+02  0.45594000000E+02  0.51100000000E-03 0. -1.
         11   -1    0    0    0    0 -0.00000000000E+00 -0.00000000000E+00 -0.45593999997E+02  0.45594000000E+02  0.51100000000E-03 0.  1.
    9900012    2    1    2    0    0 -0.61469653919E-01  0.47840333953E+00 -0.10771464268E+01  0.90007791248E+02  0.90000053292E+02 0.  0.
         12    1    1    2    0    0  0.61469653919E-01 -0.47840333953E+00  0.10771464268E+01  0.11802087520E+01  0.00000000000E+00 0. -1.
         11    1    3    3    0    0  0.30410715775E+02  0.17223804146E+01  0.18779215004E+02  0.35783196401E+02  0.51100000000E-03 0. -1.
        -11    1    3    3    0    0  0.68106300344E+01  0.93985179432E+01 -0.58729412563E+01  0.13008007544E+02  0.51100000000E-03 0.  1.
        -12    1    3    3    0    0 -0.37282815464E+02 -0.10642495018E+02 -0.13983420175E+02  0.41216587303E+02  0.00000000000E+00 0.  1.
</event>
<event>
 7    1  0.2000468E-015  0.9000726E+02  0.7816164E-02  0.1186340E+00
        -11   -1    0    0    0    0  0.00000000000E+00  0.00000000000E+00  0.45593999997E+02  0.45594000000E+02  0.51100000000E-03 0. -1.
         11   -1    0    0    0    0 -0.00000000000E+00 -0.00000000000E+00 -0.45593999997E+02  0.45594000000E+02  0.51100000000E-03 0.  1.
    9900012    2    1    2    0    0 -0.80518062910E+00  0.46208771774E+00  0.72958572022E+00  0.90007264540E+02  0.89999519630E+02 0.  0.
         12    1    1    2    0    0  0.80518062910E+00 -0.46208771774E+00 -0.72958572022E+00  0.11807354604E+01  0.00000000000E+00 0. -1.
         11    1    3    3    0    0 -0.17074145117E+01  0.84136728604E+01  0.71606391626E+01  0.11179441345E+02  0.51100000000E-03 0. -1.
        -11    1    3    3    0    0  0.26258594664E+02 -0.29163733457E+02  0.11924200455E+02  0.41014920451E+02  0.51100000000E-03 0.  1.
         12    1    3    3    0    0 -0.25356360782E+02  0.21212148314E+02 -0.18355253898E+02  0.37812902743E+02  0.00000000000E+00 0. -1.
</event>
<event>
 7    1  0.2796742E-015  0.9000780E+02  0.7816164E-02  0.1186339E+00
        -11   -1    0    0    0    0  0.00000000000E+00  0.00000000000E+00  0.45593999997E+02  0.45594000000E+02  0.51100000000E-03 0.  1.
         11   -1    0    0    0    0 -0.00000000000E+00 -0.00000000000E+00 -0.45593999997E+02  0.45594000000E+02  0.51100000000E-03 0. -1.
    9900012    2    1    2    0    0 -0.23124089047E+00 -0.10205082016E+01  0.54585829351E+00  0.90007800603E+02  0.90000062771E+02 0.  0.
         12    1    1    2    0    0  0.23124089047E+00  0.10205082016E+01 -0.54585829351E+00  0.11801993965E+01  0.00000000000E+00 0. -1.
         11    1    3    3    0    0  0.94318878799E+01 -0.59826013197E+01 -0.35150567479E+02  0.36882440563E+02  0.51100000000E-03 0. -1.
        -11    1    3    3    0    0  0.54907056469E+01  0.62031891965E+01 -0.50036251257E+01  0.96779992440E+01  0.51100000000E-03 0.  1.
        -12    1    3    3    0    0 -0.15153834417E+02 -0.12410960784E+01  0.40700050898E+02  0.43447360796E+02  0.00000000000E+00 0.  1.
</event>
<event>
 7    1  0.2000468E-015  0.9000772E+02  0.7816164E-02  0.1186339E+00
        -11   -1    0    0    0    0  0.00000000000E+00  0.00000000000E+00  0.45593999997E+02  0.45594000000E+02  0.51100000000E-03 0.  1.
         11   -1    0    0    0    0 -0.00000000000E+00 -0.00000000000E+00 -0.45593999997E+02  0.45594000000E+02  0.51100000000E-03 0. -1.
    9900012    2    1    2    0    0 -0.10939685049E+01 -0.26378949234E-02  0.44303263647E+00  0.90007723776E+02  0.89999984930E+02 0.  0.
         12    1    1    2    0    0  0.10939685049E+01  0.26378949234E-02 -0.44303263647E+00  0.11802762241E+01  0.00000000000E+00 0. -1.
         11    1    3    3    0    0  0.92446025803E+01 -0.36940258391E+00 -0.34155028817E+01  0.98622915862E+01  0.51100000000E-03 0. -1.
        -11    1    3    3    0    0  0.23761182099E+02 -0.19674331112E+02  0.20705963031E+02  0.37153869041E+02  0.51100000000E-03 0.  1.
         12    1    3    3    0    0 -0.34099753184E+02  0.20041095801E+02 -0.16847427513E+02  0.42991563148E+02  0.00000000000E+00 0. -1.
</event>
<event>
 7    1  0.2000468E-015  0.9000793E+02  0.7816164E-02  0.1186339E+00
        -11   -1    0    0    0    0  0.00000000000E+00  0.00000000000E+00  0.45593999997E+02  0.45594000000E+02  0.51100000000E-03 0. -1.
         11   -1    0    0    0    0 -0.00000000000E+00 -0.00000000000E+00 -0.45593999997E+02  0.45594000000E+02  0.51100000000E-03 0.  1.
    9900012    2    1    2    0    0 -0.26580628585E+00 -0.11160011614E+01  0.27648367990E+00  0.90007934409E+02  0.90000198343E+02 0.  0.
         12    1    1    2    0    0  0.26580628585E+00  0.11160011614E+01 -0.27648367990E+00  0.11800655910E+01  0.00000000000E+00 0. -1.
         11    1    3    3    0    0 -0.16014116287E+02 -0.36720334258E+02 -0.51829757160E+01  0.40394283086E+02  0.51100000000E-03 0. -1.
        -11    1    3    3    0    0  0.62974346562E+01 -0.47196187577E+01  0.14637360910E+01  0.80046866318E+01  0.51100000000E-03 0.  1.
        -12    1    3    3    0    0  0.94508753452E+01  0.40323951854E+02  0.39957233049E+01  0.41608964691E+02  0.00000000000E+00 0.  1.
</event>
<event>
 7    1  0.2000468E-015  0.9000768E+02  0.7816164E-02  0.1186339E+00
        -11   -1    0    0    0    0  0.00000000000E+00  0.00000000000E+00  0.45593999997E+02  0.45594000000E+02  0.51100000000E-03 0. -1.
         11   -1    0    0    0    0 -0.00000000000E+00 -0.00000000000E+00 -0.45593999997E+02  0.45594000000E+02  0.51100000000E-03 0.  1.
    9900012    2    1    2    0    0  0.45961655486E+00  0.13090112883E+00 -0.10792417934E+01  0.90007684224E+02  0.89999944855E+02 0.  0.
         12    1    1    2    0    0 -0.45961655486E+00 -0.13090112883E+00  0.10792417934E+01  0.11803157763E+01  0.00000000000E+00 0. -1.
         11    1    3    3    0    0 -0.90721937361E+01  0.30143556135E+00  0.10383954562E+02  0.13792101913E+02  0.51100000000E-03 0. -1.
        -11    1    3    3    0    0 -0.18261742716E+02 -0.39452027028E+01 -0.34951124237E+02  0.39631262370E+02  0.51100000000E-03 0.  1.
         12    1    3    3    0    0  0.27793553007E+02  0.37746682702E+01  0.23487927881E+02  0.36584319940E+02  0.00000000000E+00 0. -1.
</event>
<event>
 7    1  0.2000468E-015  0.9000772E+02  0.7816164E-02  0.1186339E+00
        -11   -1    0    0    0    0  0.00000000000E+00  0.00000000000E+00  0.45593999997E+02  0.45594000000E+02  0.51100000000E-03 0. -1.
         11   -1    0    0    0    0 -0.00000000000E+00 -0.00000000000E+00 -0.45593999997E+02  0.45594000000E+02  0.51100000000E-03 0.  1.
    9900012    2    1    2    0    0 -0.86791189308E+00 -0.44938389671E+00 -0.66170018379E+00  0.90007718646E+02  0.89999979732E+02 0.  0.
         12    1    1    2    0    0  0.86791189308E+00  0.44938389671E+00  0.66170018379E+00  0.11802813537E+01  0.00000000000E+00 0. -1.
         11    1    3    3    0    0  0.63677245444E+01  0.32951330781E+01  0.40238077149E+01  0.82217301502E+01  0.51100000000E-03 0. -1.
        -11    1    3    3    0    0  0.13776225169E+02 -0.16590436483E+02 -0.35989539579E+02  0.41955618480E+02  0.51100000000E-03 0.  1.
         12    1    3    3    0    0 -0.21011861607E+02  0.12845919508E+02  0.31304031680E+02  0.39830370017E+02  0.00000000000E+00 0. -1.
</event>
<event>
 7    1  0.2000468E-015  0.9000760E+02  0.7816164E-02  0.1186339E+00
        -11   -1    0    0    0    0  0.00000000000E+00  0.00000000000E+00  0.45593999997E+02  0.45594000000E+02  0.51100000000E-03 0.  1.
         11   -1    0    0    0    0 -0.00000000000E+00 -0.00000000000E+00 -0.45593999997E+02  0.45594000000E+02  0.51100000000E-03 0. -1.
    9900012    2    1    2    0    0  0.11463929006E+00  0.62473934212E+00  0.99494388061E+00  0.90007595519E+02  0.89999854980E+02 0.  0.
         12    1    1    2    0    0 -0.11463929006E+00 -0.62473934212E+00 -0.99494388061E+00  0.11804044807E+01  0.00000000000E+00 0. -1.
         11    1    3    3    0    0  0.37640759431E-01 -0.17771827732E+01  0.93134926900E+01  0.94816107167E+01  0.51100000000E-03 0. -1.
        -11    1    3    3    0    0 -0.27864275708E+02  0.25667652826E+02  0.10870797414E+02  0.39413455811E+02  0.51100000000E-03 0.  1.
         12    1    3    3    0    0  0.27941274239E+02 -0.23265730710E+02 -0.19189346223E+02  0.41112528991E+02  0.00000000000E+00 0. -1.
</event>
<event>
 7    1  0.2000468E-015  0.9000777E+02  0.7816164E-02  0.1186339E+00
        -11   -1    0    0    0    0  0.00000000000E+00  0.00000000000E+00  0.45593999997E+02  0.45594000000E+02  0.51100000000E-03 0. -1.
         11   -1    0    0    0    0 -0.00000000000E+00 -0.00000000000E+00 -0.45593999997E+02  0.45594000000E+02  0.51100000000E-03 0.  1.
    9900012    2    1    2    0    0  0.10411287485E+01  0.22863476083E+00  0.50667035517E+00  0.90007772152E+02  0.90000033944E+02 0.  0.
         12    1    1    2    0    0 -0.10411287485E+01 -0.22863476083E+00 -0.50667035517E+00  0.11802278482E+01  0.00000000000E+00 0. -1.
         11    1    3    3    0    0  0.36716490240E+01  0.21709463473E+02  0.29370805820E+02  0.36707302347E+02  0.51100000000E-03 0. -1.
        -11    1    3    3    0    0 -0.11454201613E+01  0.68609907628E+01  0.54021518423E+01  0.88072939307E+01  0.51100000000E-03 0.  1.
        -12    1    3    3    0    0 -0.14851001143E+01 -0.28341819475E+02 -0.34266287308E+02  0.44493175874E+02  0.00000000000E+00 0.  1.
</event>
<event>
 7    1  0.2000468E-015  0.9000770E+02  0.7816164E-02  0.1186339E+00
        -11   -1    0    0    0    0  0.00000000000E+00  0.00000000000E+00  0.45593999997E+02  0.45594000000E+02  0.51100000000E-03 0.  1.
         11   -1    0    0    0    0 -0.00000000000E+00 -0.00000000000E+00 -0.45593999997E+02  0.45594000000E+02  0.51100000000E-03 0. -1.
    9900012    2    1    2    0    0  0.38458005749E+00 -0.14615708226E+00  0.11062794694E+01  0.90007695811E+02  0.89999956596E+02 0.  0.
         12    1    1    2    0    0 -0.38458005749E+00  0.14615708226E+00 -0.11062794694E+01  0.11803041887E+01  0.00000000000E+00 0. -1.
         11    1    3    3    0    0  0.77853142013E+01  0.45843808352E+01  0.14151146345E+01  0.91449556885E+01  0.51100000000E-03 0. -1.
        -11    1    3    3    0    0  0.14585606048E+02  0.11985338078E+02  0.32739818477E+02  0.37792644083E+02  0.51100000000E-03 0.  1.
         12    1    3    3    0    0 -0.21986340192E+02 -0.16715875995E+02 -0.33048653642E+02  0.43070096040E+02  0.00000000000E+00 0. -1.
</event>
<event>
 7    1  0.2000468E-015  0.9000779E+02  0.7816164E-02  0.1186339E+00
        -11   -1    0    0    0    0  0.00000000000E+00  0.00000000000E+00  0.45593999997E+02  0.45594000000E+02  0.51100000000E-03 0.  1.
         11   -1    0    0    0    0 -0.00000000000E+00 -0.00000000000E+00 -0.45593999997E+02  0.45594000000E+02  0.51100000000E-03 0. -1.
    9900012    2    1    2    0    0  0.33560368849E+00  0.64483630709E+00  0.92975287070E+00  0.90007794891E+02  0.90000056984E+02 0.  0.
         12    1    1    2    0    0 -0.33560368849E+00 -0.64483630709E+00 -0.92975287070E+00  0.11802051090E+01  0.00000000000E+00 0. -1.
         11    1    3    3    0    0 -0.39717323928E+01 -0.80815533788E+00 -0.11857600386E+02  0.12531179531E+02  0.51100000000E-03 0. -1.
        -11    1    3    3    0    0 -0.27126357130E+02  0.15160644707E+02  0.26207989984E+02  0.40651483839E+02  0.51100000000E-03 0.  1.
         12    1    3    3    0    0  0.31433693211E+02 -0.13707653062E+02 -0.13420636727E+02  0.36825131521E+02  0.00000000000E+00 0. -1.
</event>
<event>
 7    1  0.2000468E-015  0.9000774E+02  0.7816164E-02  0.1186339E+00
        -11   -1    0    0    0    0  0.00000000000E+00  0.00000000000E+00  0.45593999997E+02  0.45594000000E+02  0.51100000000E-03 0.  1.
         11   -1    0    0    0    0 -0.00000000000E+00 -0.00000000000E+00 -0.45593999997E+02  0.45594000000E+02  0.51100000000E-03 0. -1.
    9900012    2    1    2    0    0  0.75552687735E-02  0.93335102571E+00  0.72236813764E+00  0.90007738611E+02  0.89999999961E+02 0.  0.
         12    1    1    2    0    0 -0.75552687735E-02 -0.93335102571E+00 -0.72236813764E+00  0.11802613887E+01  0.00000000000E+00 0. -1.
         11    1    3    3    0    0  0.24417047723E+02  0.33370110844E+02 -0.96422334503E+00  0.41360442988E+02  0.51100000000E-03 0. -1.
        -11    1    3    3    0    0 -0.99218318079E+01 -0.39280698074E-01 -0.69602779167E+01  0.12119808511E+02  0.51100000000E-03 0.  1.
        -12    1    3    3    0    0 -0.14487660647E+02 -0.32397479120E+02  0.86468693994E+01  0.36527487112E+02  0.00000000000E+00 0.  1.
</event>
<event>
 7    1  0.2000468E-015  0.9000778E+02  0.7816164E-02  0.1186339E+00
        -11   -1    0    0    0    0  0.00000000000E+00  0.00000000000E+00  0.45593999997E+02  0.45594000000E+02  0.51100000000E-03 0. -1.
         11   -1    0    0    0    0 -0.00000000000E+00 -0.00000000000E+00 -0.45593999997E+02  0.45594000000E+02  0.51100000000E-03 0.  1.
    9900012    2    1    2    0    0  0.98236750445E+00  0.64408157446E+00 -0.11417688017E+00  0.90007778263E+02  0.90000040136E+02 0.  0.
         12    1    1    2    0    0 -0.98236750445E+00 -0.64408157446E+00  0.11417688017E+00  0.11802217369E+01  0.00000000000E+00 0. -1.
         11    1    3    3    0    0  0.78640525597E+01 -0.50317355146E+01  0.38760048217E+00  0.93440847248E+01  0.51100000000E-03 0. -1.
        -11    1    3    3    0    0  0.16581896481E+02  0.49625317722E+01 -0.34936349525E+02  0.38988902663E+02  0.51100000000E-03 0.  1.
         12    1    3    3    0    0 -0.23463581536E+02  0.71328531683E+00  0.34434572163E+02  0.41674790875E+02  0.00000000000E+00 0. -1.
</event>
<event>
 7    1  0.2000468E-015  0.9000668E+02  0.7816164E-02  0.1186341E+00
        -11   -1    0    0    0    0  0.00000000000E+00  0.00000000000E+00  0.45593999997E+02  0.45594000000E+02  0.51100000000E-03 0. -1.
         11   -1    0    0    0    0 -0.00000000000E+00 -0.00000000000E+00 -0.45593999997E+02  0.45594000000E+02  0.51100000000E-03 0.  1.
    9900012    2    1    2    0    0 -0.81002250193E+00  0.84781807330E+00  0.14344084812E+00  0.90006684117E+02  0.89998931541E+02 0.  0.
         12    1    1    2    0    0  0.81002250193E+00 -0.84781807330E+00 -0.14344084812E+00  0.11813158832E+01  0.00000000000E+00 0. -1.
         11    1    3    3    0    0  0.48720385446E+00  0.10205811257E+02 -0.45626662933E+00  0.10227616072E+02  0.51100000000E-03 0. -1.
        -11    1    3    3    0    0 -0.38230985110E+02  0.78449302331E+01 -0.17988555884E+00  0.39027983703E+02  0.51100000000E-03 0.  1.
         12    1    3    3    0    0  0.36933758753E+02 -0.17202923417E+02  0.77959303630E+00  0.40751084342E+02  0.00000000000E+00 0. -1.
</event>
<event>
 7    1  0.2000468E-015  0.9000771E+02  0.7816164E-02  0.1186339E+00
        -11   -1    0    0    0    0  0.00000000000E+00  0.00000000000E+00  0.45593999997E+02  0.45594000000E+02  0.51100000000E-03 0.  1.
         11   -1    0    0    0    0 -0.00000000000E+00 -0.00000000000E+00 -0.45593999997E+02  0.45594000000E+02  0.51100000000E-03 0. -1.
    9900012    2    1    2    0    0  0.42645736278E+00 -0.10386745822E+01 -0.36383088865E+00  0.90007710338E+02  0.89999971315E+02 0.  0.
         12    1    1    2    0    0 -0.42645736278E+00  0.10386745822E+01  0.36383088865E+00  0.11802896617E+01  0.00000000000E+00 0. -1.
         11    1    3    3    0    0 -0.52753903612E+01  0.25553220459E+01 -0.76140733095E+01  0.96090336062E+01  0.51100000000E-03 0. -1.
        -11    1    3    3    0    0  0.29168958006E+02  0.19163016129E+02 -0.17835044646E+02  0.39193597897E+02  0.51100000000E-03 0.  1.
         12    1    3    3    0    0 -0.23467110282E+02 -0.22757012757E+02  0.25085287067E+02  0.41205078835E+02  0.00000000000E+00 0. -1.
</event>
<event>
 7    1  0.2000468E-015  0.9000725E+02  0.7816164E-02  0.1186340E+00
        -11   -1    0    0    0    0  0.00000000000E+00  0.00000000000E+00  0.45593999997E+02  0.45594000000E+02  0.51100000000E-03 0.  1.
         11   -1    0    0    0    0 -0.00000000000E+00 -0.00000000000E+00 -0.45593999997E+02  0.45594000000E+02  0.51100000000E-03 0. -1.
    9900012    2    1    2    0    0  0.67043437591E-01  0.11034353173E+01  0.41485448932E+00  0.90007250844E+02  0.89999505754E+02 0.  0.
         12    1    1    2    0    0 -0.67043437591E-01 -0.11034353173E+01 -0.41485448932E+00  0.11807491560E+01  0.00000000000E+00 0. -1.
         11    1    3    3    0    0 -0.20523704446E+01 -0.87181099164E+01  0.27683505887E+01  0.93745095978E+01  0.51100000000E-03 0. -1.
        -11    1    3    3    0    0  0.40314212316E+02 -0.13511971649E+01 -0.55143075939E+01  0.40712025704E+02  0.51100000000E-03 0.  1.
         12    1    3    3    0    0 -0.38194798434E+02  0.11172742399E+02  0.31608114946E+01  0.39920715542E+02  0.00000000000E+00 0. -1.
</event>
<event>
 7    1  0.2000468E-015  0.9000782E+02  0.7816164E-02  0.1186339E+00
        -11   -1    0    0    0    0  0.00000000000E+00  0.00000000000E+00  0.45593999997E+02  0.45594000000E+02  0.51100000000E-03 0. -1.
         11   -1    0    0    0    0 -0.00000000000E+00 -0.00000000000E+00 -0.45593999997E+02  0.45594000000E+02  0.51100000000E-03 0.  1.
    9900012    2    1    2    0    0  0.22957506960E+00  0.11226895659E+01  0.28227263279E+00  0.90007824414E+02  0.90000086897E+02 0.  0.
         12    1    1    2    0    0 -0.22957506960E+00 -0.11226895659E+01 -0.28227263279E+00  0.11801755857E+01  0.00000000000E+00 0. -1.
         11    1    3    3    0    0 -0.20434213684E+02  0.57303263322E+01 -0.35555819305E+02  0.41407849684E+02  0.51100000000E-03 0. -1.
        -11    1    3    3    0    0  0.88376616637E+01 -0.49210781543E+01 -0.75357882860E+00  0.10143429164E+02  0.51100000000E-03 0.  1.
        -12    1    3    3    0    0  0.11826127089E+02  0.31344138792E+00  0.36591670767E+02  0.38456545567E+02  0.00000000000E+00 0.  1.
</event>
<event>
 7    1  0.2000468E-015  0.9000775E+02  0.7816164E-02  0.1186339E+00
        -11   -1    0    0    0    0  0.00000000000E+00  0.00000000000E+00  0.45593999997E+02  0.45594000000E+02  0.51100000000E-03 0. -1.
         11   -1    0    0    0    0 -0.00000000000E+00 -0.00000000000E+00 -0.45593999997E+02  0.45594000000E+02  0.51100000000E-03 0.  1.
    9900012    2    1    2    0    0 -0.21687021472E+00  0.24949120894E+00 -0.11330142659E+01  0.90007745841E+02  0.90000007286E+02 0.  0.
         12    1    1    2    0    0  0.21687021472E+00 -0.24949120894E+00  0.11330142659E+01  0.11802541592E+01  0.00000000000E+00 0. -1.
         11    1    3    3    0    0  0.27168872156E+02 -0.23840076412E+02 -0.34515285199E+01  0.36309914719E+02  0.51100000000E-03 0. -1.
        -11    1    3    3    0    0  0.51256894601E+01 -0.68175279036E+01  0.23218353639E+01  0.88398132829E+01  0.51100000000E-03 0.  1.
        -12    1    3    3    0    0 -0.32511431830E+02  0.30907095524E+02 -0.33211099720E-02  0.44858017839E+02  0.00000000000E+00 0.  1.
</event>
<event>
 7    1  0.2000468E-015  0.9000775E+02  0.7816164E-02  0.1186339E+00
        -11   -1    0    0    0    0  0.00000000000E+00  0.00000000000E+00  0.45593999997E+02  0.45594000000E+02  0.51100000000E-03 0.  1.
         11   -1    0    0    0    0 -0.00000000000E+00 -0.00000000000E+00 -0.45593999997E+02  0.45594000000E+02  0.51100000000E-03 0. -1.
    9900012    2    1    2    0    0  0.50474335450E+00  0.10638995343E+01 -0.79600990948E-01  0.90007752403E+02  0.90000013934E+02 0.  0.
         12    1    1    2    0    0 -0.50474335450E+00 -0.10638995343E+01  0.79600990948E-01  0.11802475972E+01  0.00000000000E+00 0. -1.
         11    1    3    3    0    0 -0.36153339844E+01  0.87743446441E+01 -0.61828686340E+00  0.95101021371E+01  0.51100000000E-03 0. -1.
        -11    1    3    3    0    0 -0.24696286859E+02  0.24837299561E+02 -0.86231646995E+01  0.36071553942E+02  0.51100000000E-03 0.  1.
         12    1    3    3    0    0  0.28816364197E+02 -0.32547744670E+02  0.91618505719E+01  0.44426096324E+02  0.00000000000E+00 0. -1.
</event>
<event>
 7    1  0.2000468E-015  0.9000752E+02  0.7816164E-02  0.1186339E+00
        -11   -1    0    0    0    0  0.00000000000E+00  0.00000000000E+00  0.45593999997E+02  0.45594000000E+02  0.51100000000E-03 0.  1.
         11   -1    0    0    0    0 -0.00000000000E+00 -0.00000000000E+00 -0.45593999997E+02  0.45594000000E+02  0.51100000000E-03 0. -1.
    9900012    2    1    2    0    0 -0.97988867657E+00 -0.38745608072E+00  0.53220096030E+00  0.90007516245E+02  0.89999774659E+02 0.  0.
         12    1    1    2    0    0  0.97988867657E+00  0.38745608072E+00 -0.53220096030E+00  0.11804837547E+01  0.00000000000E+00 0. -1.
         11    1    3    3    0    0 -0.23873985750E+02 -0.26088638689E+02 -0.16038045764E+02  0.38830441363E+02  0.51100000000E-03 0. -1.
        -11    1    3    3    0    0 -0.63822375525E+01  0.37205884033E+01 -0.47778537714E+01  0.87979327779E+01  0.51100000000E-03 0.  1.
        -12    1    3    3    0    0  0.29276334626E+02  0.21980594205E+02  0.21348100496E+02  0.42379142105E+02  0.00000000000E+00 0.  1.
</event>
<event>
 7    1  0.2000468E-015  0.9000775E+02  0.7816164E-02  0.1186339E+00
        -11   -1    0    0    0    0  0.00000000000E+00  0.00000000000E+00  0.45593999997E+02  0.45594000000E+02  0.51100000000E-03 0.  1.
         11   -1    0    0    0    0 -0.00000000000E+00 -0.00000000000E+00 -0.45593999997E+02  0.45594000000E+02  0.51100000000E-03 0. -1.
    9900012    2    1    2    0    0 -0.16406030486E+00  0.10067456737E+01 -0.59374655344E+00  0.90007751041E+02  0.90000012555E+02 0.  0.
         12    1    1    2    0    0  0.16406030486E+00 -0.10067456737E+01  0.59374655344E+00  0.11802489589E+01  0.00000000000E+00 0. -1.
         11    1    3    3    0    0  0.78256535497E+01 -0.84437126561E+01 -0.24945165208E+01  0.11779632839E+02  0.51100000000E-03 0. -1.
        -11    1    3    3    0    0  0.21030948633E+02 -0.24277138084E+02  0.85534121364E+01  0.33239150010E+02  0.51100000000E-03 0.  1.
         12    1    3    3    0    0 -0.29020662488E+02  0.33727596414E+02 -0.66526421690E+01  0.44988968191E+02  0.00000000000E+00 0. -1.
</event>
<event>
 7    1  0.2000468E-015  0.9000791E+02  0.7816164E-02  0.1186339E+00
        -11   -1    0    0    0    0  0.00000000000E+00  0.00000000000E+00  0.45593999997E+02  0.45594000000E+02  0.51100000000E-03 0. -1.
         11   -1    0    0    0    0 -0.00000000000E+00 -0.00000000000E+00 -0.45593999997E+02  0.45594000000E+02  0.51100000000E-03 0.  1.
    9900012    2    1    2    0    0  0.32189191414E+00 -0.40597836463E+00 -0.10602776892E+01  0.90007906099E+02  0.90000169659E+02 0.  0.
         12    1    1    2    0    0 -0.32189191414E+00  0.40597836463E+00  0.10602776892E+01  0.11800939010E+01  0.00000000000E+00 0. -1.
         11    1    3    3    0    0 -0.35634864804E+01 -0.28616196389E+01  0.88606014994E+01  0.99698325987E+01  0.51100000000E-03 0. -1.
        -11    1    3    3    0    0 -0.24575623923E+02  0.26044376176E+02  0.11130105982E+02  0.37498667724E+02  0.51100000000E-03 0.  1.
         12    1    3    3    0    0  0.28461002318E+02 -0.23588734902E+02 -0.21050985171E+02  0.42539405777E+02  0.00000000000E+00 0. -1.
</event>
<event>
 7    1  0.2000468E-015  0.9000774E+02  0.7816164E-02  0.1186339E+00
        -11   -1    0    0    0    0  0.00000000000E+00  0.00000000000E+00  0.45593999997E+02  0.45594000000E+02  0.51100000000E-03 0.  1.
         11   -1    0    0    0    0 -0.00000000000E+00 -0.00000000000E+00 -0.45593999997E+02  0.45594000000E+02  0.51100000000E-03 0. -1.
    9900012    2    1    2    0    0 -0.36797669233E+00  0.18791998325E+00  0.11055775437E+01  0.90007736270E+02  0.89999997589E+02 0.  0.
         12    1    1    2    0    0  0.36797669233E+00 -0.18791998325E+00 -0.11055775437E+01  0.11802637295E+01  0.00000000000E+00 0. -1.
         11    1    3    3    0    0 -0.19583349260E+02  0.33588840263E+02  0.14428384021E+01  0.38907576915E+02  0.51100000000E-03 0. -1.
        -11    1    3    3    0    0 -0.34565576009E+01 -0.44096300961E+00  0.93167726445E+01  0.99470845776E+01  0.51100000000E-03 0.  1.
        -12    1    3    3    0    0  0.22671930169E+02 -0.32959957270E+02 -0.96540335029E+01  0.41153074778E+02  0.00000000000E+00 0.  1.
</event>
<event>
 7    1  0.2000468E-015  0.9000759E+02  0.7816164E-02  0.1186339E+00
        -11   -1    0    0    0    0  0.00000000000E+00  0.00000000000E+00  0.45593999997E+02  0.45594000000E+02  0.51100000000E-03 0.  1.
         11   -1    0    0    0    0 -0.00000000000E+00 -0.00000000000E+00 -0.45593999997E+02  0.45594000000E+02  0.51100000000E-03 0. -1.
    9900012    2    1    2    0    0  0.38585297370E-01 -0.84460055248E+00 -0.82373197429E+00  0.90007587664E+02  0.89999847021E+02 0.  0.
         12    1    1    2    0    0 -0.38585297370E-01  0.84460055248E+00  0.82373197429E+00  0.11804123364E+01  0.00000000000E+00 0. -1.
         11    1    3    3    0    0  0.95197038101E+01  0.21015970219E+02 -0.32151772348E+02  0.39573125101E+02  0.51100000000E-03 0. -1.
        -11    1    3    3    0    0 -0.25016017382E+01  0.80181289000E+01  0.38248998138E+01  0.92292069627E+01  0.51100000000E-03 0.  1.
        -12    1    3    3    0    0 -0.69795167745E+01 -0.29878699671E+02  0.27503140560E+02  0.41205255600E+02  0.00000000000E+00 0.  1.
</event>
<event>
 7    1  0.2000468E-015  0.9000781E+02  0.7816164E-02  0.1186339E+00
        -11   -1    0    0    0    0  0.00000000000E+00  0.00000000000E+00  0.45593999997E+02  0.45594000000E+02  0.51100000000E-03 0. -1.
         11   -1    0    0    0    0 -0.00000000000E+00 -0.00000000000E+00 -0.45593999997E+02  0.45594000000E+02  0.51100000000E-03 0.  1.
    9900012    2    1    2    0    0  0.72886519203E+00 -0.89173965152E+00  0.25770074003E+00  0.90007807751E+02  0.90000070013E+02 0.  0.
         12    1    1    2    0    0 -0.72886519203E+00  0.89173965152E+00 -0.25770074003E+00  0.11801922494E+01  0.00000000000E+00 0. -1.
         11    1    3    3    0    0  0.91487638629E+01 -0.30152806299E+01 -0.20064972482E+01  0.98396051224E+01  0.51100000000E-03 0. -1.
        -11    1    3    3    0    0  0.11308595021E+02  0.33995841839E+02 -0.15072866079E+02  0.38868919148E+02  0.51100000000E-03 0.  1.
         12    1    3    3    0    0 -0.19728493692E+02 -0.31872300860E+02  0.17337064067E+02  0.41299283480E+02  0.00000000000E+00 0. -1.
</event>
<event>
 7    1  0.2000468E-015  0.9000775E+02  0.7816164E-02  0.1186339E+00
        -11   -1    0    0    0    0  0.00000000000E+00  0.00000000000E+00  0.45593999997E+02  0.45594000000E+02  0.51100000000E-03 0.  1.
         11   -1    0    0    0    0 -0.00000000000E+00 -0.00000000000E+00 -0.45593999997E+02  0.45594000000E+02  0.51100000000E-03 0. -1.
    9900012    2    1    2    0    0  0.73294485191E+00  0.35087082174E+00  0.85595698064E+00  0.90007753906E+02  0.90000015458E+02 0.  0.
         12    1    1    2    0    0 -0.73294485191E+00 -0.35087082174E+00 -0.85595698064E+00  0.11802460939E+01  0.00000000000E+00 0. -1.
         11    1    3    3    0    0  0.28514376818E+01 -0.36946403095E+01 -0.82154495883E+01  0.94485277196E+01  0.51100000000E-03 0. -1.
        -11    1    3    3    0    0 -0.32669628645E+02 -0.17657415824E+01  0.28919349050E+02  0.43666362670E+02  0.51100000000E-03 0.  1.
         12    1    3    3    0    0  0.30551135815E+02  0.58112527136E+01 -0.19847942481E+02  0.36892863516E+02  0.00000000000E+00 0. -1.
</event>
<event>
 7    1  0.2000468E-015  0.9000773E+02  0.7816164E-02  0.1186339E+00
        -11   -1    0    0    0    0  0.00000000000E+00  0.00000000000E+00  0.45593999997E+02  0.45594000000E+02  0.51100000000E-03 0.  1.
         11   -1    0    0    0    0 -0.00000000000E+00 -0.00000000000E+00 -0.45593999997E+02  0.45594000000E+02  0.51100000000E-03 0. -1.
    9900012    2    1    2    0    0 -0.63185038461E+00 -0.39133483556E+00  0.91687322708E+00  0.90007731227E+02  0.89999992479E+02 0.  0.
         12    1    1    2    0    0  0.63185038461E+00  0.39133483556E+00 -0.91687322708E+00  0.11802687730E+01  0.00000000000E+00 0. -1.
         11    1    3    3    0    0  0.11062803546E+02 -0.98852918377E+00  0.18227192413E+01  0.11255448367E+02  0.51100000000E-03 0. -1.
        -11    1    3    3    0    0 -0.38838191496E+02  0.59917645016E+01  0.19976086258E+02  0.44083447948E+02  0.51100000000E-03 0.  1.
         12    1    3    3    0    0  0.27143537566E+02 -0.53945701534E+01 -0.20881932273E+02  0.34668834912E+02  0.00000000000E+00 0. -1.
</event>
<event>
 7    1  0.2000468E-015  0.9000774E+02  0.7816164E-02  0.1186339E+00
        -11   -1    0    0    0    0  0.00000000000E+00  0.00000000000E+00  0.45593999997E+02  0.45594000000E+02  0.51100000000E-03 0.  1.
         11   -1    0    0    0    0 -0.00000000000E+00 -0.00000000000E+00 -0.45593999997E+02  0.45594000000E+02  0.51100000000E-03 0. -1.
    9900012    2    1    2    0    0 -0.40746397157E+00 -0.95250518876E+00  0.56544515633E+00  0.90007736789E+02  0.89999998114E+02 0.  0.
         12    1    1    2    0    0  0.40746397157E+00  0.95250518876E+00 -0.56544515633E+00  0.11802632111E+01  0.00000000000E+00 0. -1.
         11    1    3    3    0    0 -0.53624299135E+00 -0.23792075752E+01 -0.89124965362E+01  0.92401720764E+01  0.51100000000E-03 0. -1.
        -11    1    3    3    0    0  0.26414974625E+02 -0.29514073328E+02  0.44067682231E+01  0.39852867090E+02  0.51100000000E-03 0.  1.
         12    1    3    3    0    0 -0.26286195605E+02  0.30940775715E+02  0.50711734695E+01  0.40914697623E+02  0.00000000000E+00 0. -1.
</event>
<event>
 7    1  0.2000468E-015  0.9000779E+02  0.7816164E-02  0.1186339E+00
        -11   -1    0    0    0    0  0.00000000000E+00  0.00000000000E+00  0.45593999997E+02  0.45594000000E+02  0.51100000000E-03 0. -1.
         11   -1    0    0    0    0 -0.00000000000E+00 -0.00000000000E+00 -0.45593999997E+02  0.45594000000E+02  0.51100000000E-03 0.  1.
    9900012    2    1    2    0    0 -0.76831450816E-01  0.11074111245E+01  0.40080134436E+00  0.90007786380E+02  0.90000048361E+02 0.  0.
         12    1    1    2    0    0  0.76831450816E-01 -0.11074111245E+01 -0.40080134436E+00  0.11802136197E+01  0.00000000000E+00 0. -1.
         11    1    3    3    0    0 -0.21475437039E+01  0.76085418702E+01  0.48640295710E+01  0.92822754365E+01  0.51100000000E-03 0. -1.
        -11    1    3    3    0    0 -0.72182740345E-01  0.36496745233E+02 -0.85369631868E+01  0.37481960510E+02  0.51100000000E-03 0.  1.
         12    1    3    3    0    0  0.21428949934E+01 -0.42997875979E+02  0.40737349602E+01  0.43243550434E+02  0.00000000000E+00 0. -1.
</event>
<event>
 7    1  0.2000468E-015  0.9000780E+02  0.7816164E-02  0.1186339E+00
        -11   -1    0    0    0    0  0.00000000000E+00  0.00000000000E+00  0.45593999997E+02  0.45594000000E+02  0.51100000000E-03 0.  1.
         11   -1    0    0    0    0 -0.00000000000E+00 -0.00000000000E+00 -0.45593999997E+02  0.45594000000E+02  0.51100000000E-03 0. -1.
    9900012    2    1    2    0    0 -0.73202283712E+00  0.37962831786E+00  0.84432532511E+00  0.90007804953E+02  0.90000067179E+02 0.  0.
         12    1    1    2    0    0  0.73202283712E+00 -0.37962831786E+00 -0.84432532511E+00  0.11801950468E+01  0.00000000000E+00 0. -1.
         11    1    3    3    0    0  0.22892896782E+01 -0.80146084049E+01  0.50006060814E+01  0.97201263653E+01  0.51100000000E-03 0. -1.
        -11    1    3    3    0    0  0.28082903462E+02  0.12642221114E+02  0.23271286906E+02  0.38600881027E+02  0.51100000000E-03 0.  1.
         12    1    3    3    0    0 -0.31104215977E+02 -0.42479843916E+01 -0.27427567663E+02  0.41686797560E+02  0.00000000000E+00 0. -1.
</event>
<event>
 7    1  0.2000468E-015  0.9000770E+02  0.7816164E-02  0.1186339E+00
        -11   -1    0    0    0    0  0.00000000000E+00  0.00000000000E+00  0.45593999997E+02  0.45594000000E+02  0.51100000000E-03 0.  1.
         11   -1    0    0    0    0 -0.00000000000E+00 -0.00000000000E+00 -0.45593999997E+02  0.45594000000E+02  0.51100000000E-03 0. -1.
    9900012    2    1    2    0    0  0.91437412772E+00  0.62867334243E+00  0.40223572144E+00  0.90007701821E+02  0.89999962685E+02 0.  0.
         12    1    1    2    0    0 -0.91437412772E+00 -0.62867334243E+00 -0.40223572144E+00  0.11802981795E+01  0.00000000000E+00 0. -1.
         11    1    3    3    0    0 -0.85156165899E+01  0.31763386432E+01  0.15891944642E+02  0.18307341638E+02  0.51100000000E-03 0. -1.
        -11    1    3    3    0    0  0.89656732678E+01  0.33107834016E+02 -0.62624386755E+01  0.34867321503E+02  0.51100000000E-03 0.  1.
         12    1    3    3    0    0  0.46431744983E+00 -0.35655499317E+02 -0.92272702446E+01  0.36833038680E+02  0.00000000000E+00 0. -1.
</event>
<event>
 7    1  0.2000468E-015  0.9000777E+02  0.7816164E-02  0.1186339E+00
        -11   -1    0    0    0    0  0.00000000000E+00  0.00000000000E+00  0.45593999997E+02  0.45594000000E+02  0.51100000000E-03 0.  1.
         11   -1    0    0    0    0 -0.00000000000E+00 -0.00000000000E+00 -0.45593999997E+02  0.45594000000E+02  0.51100000000E-03 0. -1.
    9900012    2    1    2    0    0 -0.39893501344E+00  0.93821212019E+00  0.59459397481E+00  0.90007774122E+02  0.90000035941E+02 0.  0.
         12    1    1    2    0    0  0.39893501344E+00 -0.93821212019E+00 -0.59459397481E+00  0.11802258777E+01  0.00000000000E+00 0. -1.
         11    1    3    3    0    0  0.99325896390E+01  0.42697238108E+01 -0.33544581630E+02  0.35243805631E+02  0.51100000000E-03 0. -1.
        -11    1    3    3    0    0 -0.94940903636E+00  0.31789228655E+01 -0.92867739732E+01  0.98615971928E+01  0.51100000000E-03 0.  1.
        -12    1    3    3    0    0 -0.93821156161E+01 -0.65104345561E+01  0.43425949578E+02  0.44902371299E+02  0.00000000000E+00 0.  1.
</event>
<event>
 7    1  0.2220773E-015  0.9000769E+02  0.7816164E-02  0.1186339E+00
        -11   -1    0    0    0    0  0.00000000000E+00  0.00000000000E+00  0.45593999997E+02  0.45594000000E+02  0.51100000000E-03 0. -1.
         11   -1    0    0    0    0 -0.00000000000E+00 -0.00000000000E+00 -0.45593999997E+02  0.45594000000E+02  0.51100000000E-03 0.  1.
    9900012    2    1    2    0    0 -0.11643590923E+01 -0.16015922980E+00 -0.10836378116E+00  0.90007692505E+02  0.89999953246E+02 0.  0.
         12    1    1    2    0    0  0.11643590923E+01  0.16015922980E+00  0.10836378116E+00  0.11803074954E+01  0.00000000000E+00 0. -1.
         11    1    3    3    0    0 -0.17245887433E+02  0.21342777543E+02 -0.27245470645E+02  0.38668468518E+02  0.51100000000E-03 0. -1.
        -11    1    3    3    0    0  0.30381592606E+01 -0.35317469983E+01 -0.83008849849E+01  0.95188413342E+01  0.51100000000E-03 0.  1.
        -12    1    3    3    0    0  0.13043369080E+02 -0.17971189774E+02  0.35437991849E+02  0.41820382652E+02  0.00000000000E+00 0.  1.
</event>
<event>
 7    1  0.2000468E-015  0.9000769E+02  0.7816164E-02  0.1186339E+00
        -11   -1    0    0    0    0  0.00000000000E+00  0.00000000000E+00  0.45593999997E+02  0.45594000000E+02  0.51100000000E-03 0.  1.
         11   -1    0    0    0    0 -0.00000000000E+00 -0.00000000000E+00 -0.45593999997E+02  0.45594000000E+02  0.51100000000E-03 0. -1.
    9900012    2    1    2    0    0  0.71673477073E+00 -0.70788546925E+00  0.61507170449E+00  0.90007693357E+02  0.89999954110E+02 0.  0.
         12    1    1    2    0    0 -0.71673477073E+00  0.70788546925E+00 -0.61507170449E+00  0.11803066427E+01  0.00000000000E+00 0. -1.
         11    1    3    3    0    0 -0.28718998147E+01  0.37841243587E+01  0.70417568660E+01  0.84943360970E+01  0.51100000000E-03 0. -1.
        -11    1    3    3    0    0 -0.21375163415E+02 -0.20081338631E+02  0.24941355683E+02  0.38499727217E+02  0.51100000000E-03 0.  1.
         12    1    3    3    0    0  0.24963798000E+02  0.15589328803E+02 -0.31368040844E+02  0.43013630044E+02  0.00000000000E+00 0. -1.
</event>
<event>
 7    1  0.2000468E-015  0.9000779E+02  0.7816164E-02  0.1186339E+00
        -11   -1    0    0    0    0  0.00000000000E+00  0.00000000000E+00  0.45593999997E+02  0.45594000000E+02  0.51100000000E-03 0.  1.
         11   -1    0    0    0    0 -0.00000000000E+00 -0.00000000000E+00 -0.45593999997E+02  0.45594000000E+02  0.51100000000E-03 0. -1.
    9900012    2    1    2    0    0  0.48466508392E+00  0.90244004943E+00  0.58617306351E+00  0.90007789363E+02  0.90000051383E+02 0.  0.
         12    1    1    2    0    0 -0.48466508392E+00 -0.90244004943E+00 -0.58617306351E+00  0.11802106366E+01  0.00000000000E+00 0. -1.
         11    1    3    3    0    0 -0.46529418781E+01 -0.28330261072E+02 -0.14286577984E+02  0.32068050631E+02  0.51100000000E-03 0. -1.
        -11    1    3    3    0    0 -0.98048288347E+01 -0.85216980355E+00 -0.11569782455E+02  0.15189494006E+02  0.51100000000E-03 0.  1.
        -12    1    3    3    0    0  0.14942435797E+02  0.30084870925E+02  0.26442533503E+02  0.42750244726E+02  0.00000000000E+00 0.  1.
</event>
<event>
 7    1  0.2000468E-015  0.9000777E+02  0.7816164E-02  0.1186339E+00
        -11   -1    0    0    0    0  0.00000000000E+00  0.00000000000E+00  0.45593999997E+02  0.45594000000E+02  0.51100000000E-03 0.  1.
         11   -1    0    0    0    0 -0.00000000000E+00 -0.00000000000E+00 -0.45593999997E+02  0.45594000000E+02  0.51100000000E-03 0. -1.
    9900012    2    1    2    0    0  0.74151194235E+00  0.57837960098E+00  0.71314011184E+00  0.90007774707E+02  0.90000036533E+02 0.  0.
         12    1    1    2    0    0 -0.74151194235E+00 -0.57837960098E+00 -0.71314011184E+00  0.11802252931E+01  0.00000000000E+00 0. -1.
         11    1    3    3    0    0 -0.46046535701E+00 -0.17415179820E+01 -0.14075280296E+02  0.14190082061E+02  0.51100000000E-03 0. -1.
        -11    1    3    3    0    0 -0.31204612094E+02 -0.60082100806E+01 -0.10941857407E+02  0.33608788257E+02  0.51100000000E-03 0.  1.
         12    1    3    3    0    0  0.32406589393E+02  0.83281076636E+01  0.25730277814E+02  0.42208904390E+02  0.00000000000E+00 0. -1.
</event>
<event>
 7    1  0.2000468E-015  0.9000723E+02  0.7816164E-02  0.1186340E+00
        -11   -1    0    0    0    0  0.00000000000E+00  0.00000000000E+00  0.45593999997E+02  0.45594000000E+02  0.51100000000E-03 0. -1.
         11   -1    0    0    0    0 -0.00000000000E+00 -0.00000000000E+00 -0.45593999997E+02  0.45594000000E+02  0.51100000000E-03 0.  1.
    9900012    2    1    2    0    0  0.10700349635E+01  0.34479315108E+00 -0.36104453135E+00  0.90007233176E+02  0.89999487852E+02 0.  0.
         12    1    1    2    0    0 -0.10700349635E+01 -0.34479315108E+00  0.36104453135E+00  0.11807668245E+01  0.00000000000E+00 0. -1.
         11    1    3    3    0    0  0.42868355871E+01  0.73702318957E+01  0.38463079035E+01  0.93536817509E+01  0.51100000000E-03 0. -1.
        -11    1    3    3    0    0  0.26029084941E+02  0.21254633284E+02  0.13589563205E+02  0.36248433446E+02  0.51100000000E-03 0.  1.
         12    1    3    3    0    0 -0.29245885565E+02 -0.28280072028E+02 -0.17796915640E+02  0.44405117979E+02  0.00000000000E+00 0. -1.
</event>
<event>
 7    1  0.2000468E-015  0.9000767E+02  0.7816164E-02  0.1186339E+00
        -11   -1    0    0    0    0  0.00000000000E+00  0.00000000000E+00  0.45593999997E+02  0.45594000000E+02  0.51100000000E-03 0.  1.
         11   -1    0    0    0    0 -0.00000000000E+00 -0.00000000000E+00 -0.45593999997E+02  0.45594000000E+02  0.51100000000E-03 0. -1.
    9900012    2    1    2    0    0  0.14143370736E+00 -0.67241618534E+00  0.95970799528E+00  0.90007666803E+02  0.89999927205E+02 0.  0.
         12    1    1    2    0    0 -0.14143370736E+00  0.67241618534E+00 -0.95970799528E+00  0.11803331971E+01  0.00000000000E+00 0. -1.
         11    1    3    3    0    0 -0.21247335678E+02  0.79996280423E+01 -0.17183877479E+02  0.28473302718E+02  0.51100000000E-03 0. -1.
        -11    1    3    3    0    0  0.90441908498E+01  0.20273849398E+02 -0.46458841550E+01  0.22680621627E+02  0.51100000000E-03 0.  1.
        -12    1    3    3    0    0  0.12344578535E+02 -0.28945893626E+02  0.22789469629E+02  0.38853742458E+02  0.00000000000E+00 0.  1.
</event>
<event>
 7    1  0.2000468E-015  0.9000756E+02  0.7816164E-02  0.1186339E+00
        -11   -1    0    0    0    0  0.00000000000E+00  0.00000000000E+00  0.45593999997E+02  0.45594000000E+02  0.51100000000E-03 0.  1.
         11   -1    0    0    0    0 -0.00000000000E+00 -0.00000000000E+00 -0.45593999997E+02  0.45594000000E+02  0.51100000000E-03 0. -1.
    9900012    2    1    2    0    0  0.10240202211E+01 -0.50404513120E+00  0.30124664937E+00  0.90007564296E+02  0.89999823345E+02 0.  0.
         12    1    1    2    0    0 -0.10240202211E+01  0.50404513120E+00 -0.30124664937E+00  0.11804357040E+01  0.00000000000E+00 0. -1.
         11    1    3    3    0    0 -0.46920834952E+01  0.39190522884E+01 -0.57072930249E+01  0.83634808721E+01  0.51100000000E-03 0. -1.
        -11    1    3    3    0    0  0.24069885629E+02 -0.24175028055E+02 -0.23688848238E+02  0.41532552375E+02  0.51100000000E-03 0.  1.
         12    1    3    3    0    0 -0.18353781912E+02  0.19751930635E+02  0.29697387912E+02  0.40111531049E+02  0.00000000000E+00 0. -1.
</event>
<event>
 7    1  0.2000468E-015  0.9000784E+02  0.7816164E-02  0.1186339E+00
        -11   -1    0    0    0    0  0.00000000000E+00  0.00000000000E+00  0.45593999997E+02  0.45594000000E+02  0.51100000000E-03 0. -1.
         11   -1    0    0    0    0 -0.00000000000E+00 -0.00000000000E+00 -0.45593999997E+02  0.45594000000E+02  0.51100000000E-03 0.  1.
    9900012    2    1    2    0    0 -0.57846419833E+00  0.92899515758E+00 -0.44173964177E+00  0.90007836137E+02  0.90000098774E+02 0.  0.
         12    1    1    2    0    0  0.57846419833E+00 -0.92899515758E+00  0.44173964177E+00  0.11801638626E+01  0.00000000000E+00 0. -1.
         11    1    3    3    0    0 -0.33583527674E+02  0.18900311062E+02  0.56914312475E+01  0.38954684946E+02  0.51100000000E-03 0. -1.
        -11    1    3    3    0    0  0.17783298558E+01  0.10788613558E+01  0.10618904628E+02  0.10820699361E+02  0.51100000000E-03 0.  1.
        -12    1    3    3    0    0  0.31226733620E+02 -0.19050177261E+02 -0.16752075517E+02  0.40232451831E+02  0.00000000000E+00 0.  1.
</event>
<event>
 7    1  0.2000468E-015  0.9000770E+02  0.7816164E-02  0.1186339E+00
        -11   -1    0    0    0    0  0.00000000000E+00  0.00000000000E+00  0.45593999997E+02  0.45594000000E+02  0.51100000000E-03 0.  1.
         11   -1    0    0    0    0 -0.00000000000E+00 -0.00000000000E+00 -0.45593999997E+02  0.45594000000E+02  0.51100000000E-03 0. -1.
    9900012    2    1    2    0    0 -0.70385016289E+00  0.93672595876E+00  0.14233264331E+00  0.90007695313E+02  0.89999956091E+02 0.  0.
         12    1    1    2    0    0  0.70385016289E+00 -0.93672595876E+00 -0.14233264331E+00  0.11803046873E+01  0.00000000000E+00 0. -1.
         11    1    3    3    0    0  0.33294379648E+02 -0.10473991778E+02  0.29657050604E+01  0.35028782832E+02  0.51100000000E-03 0. -1.
        -11    1    3    3    0    0  0.87953246616E+01 -0.34723450651E+01 -0.19921613585E+01  0.96635202330E+01  0.51100000000E-03 0.  1.
        -12    1    3    3    0    0 -0.42793554472E+02  0.14883062802E+02 -0.83121105851E+00  0.45315392248E+02  0.00000000000E+00 0.  1.
</event>
<event>
 7    1  0.2000468E-015  0.9000765E+02  0.7816164E-02  0.1186339E+00
        -11   -1    0    0    0    0  0.00000000000E+00  0.00000000000E+00  0.45593999997E+02  0.45594000000E+02  0.51100000000E-03 0.  1.
         11   -1    0    0    0    0 -0.00000000000E+00 -0.00000000000E+00 -0.45593999997E+02  0.45594000000E+02  0.51100000000E-03 0. -1.
    9900012    2    1    2    0    0 -0.52161689476E+00  0.67744269817E+00 -0.81376755946E+00  0.90007648173E+02  0.89999908329E+02 0.  0.
         12    1    1    2    0    0  0.52161689476E+00 -0.67744269817E+00  0.81376755946E+00  0.11803518268E+01  0.00000000000E+00 0. -1.
         11    1    3    3    0    0 -0.55567666991E+01  0.92788720988E+01  0.35219799265E+01  0.11374509503E+02  0.51100000000E-03 0. -1.
        -11    1    3    3    0    0  0.35818847785E+02 -0.11249002662E+02  0.16868957850E+02  0.41159344708E+02  0.51100000000E-03 0.  1.
         12    1    3    3    0    0 -0.30783697981E+02  0.26475732616E+01 -0.21204705336E+02  0.37473793962E+02  0.00000000000E+00 0. -1.
</event>
<event>
 7    1  0.2000468E-015  0.9000773E+02  0.7816164E-02  0.1186339E+00
        -11   -1    0    0    0    0  0.00000000000E+00  0.00000000000E+00  0.45593999997E+02  0.45594000000E+02  0.51100000000E-03 0.  1.
         11   -1    0    0    0    0 -0.00000000000E+00 -0.00000000000E+00 -0.45593999997E+02  0.45594000000E+02  0.51100000000E-03 0. -1.
    9900012    2    1    2    0    0 -0.35935632090E+00 -0.11241686124E+01 -0.12117386953E-01  0.90007729325E+02  0.89999990552E+02 0.  0.
         12    1    1    2    0    0  0.35935632090E+00  0.11241686124E+01  0.12117386953E-01  0.11802706747E+01  0.00000000000E+00 0. -1.
         11    1    3    3    0    0  0.96973110060E+01 -0.33467452786E+02  0.24228162041E+02  0.42439510753E+02  0.51100000000E-03 0. -1.
        -11    1    3    3    0    0 -0.85020092832E+01  0.73805817403E-01 -0.65675446155E+01  0.10743474842E+02  0.51100000000E-03 0.  1.
        -12    1    3    3    0    0 -0.15546580438E+01  0.32269478357E+02 -0.17672734813E+02  0.36824743730E+02  0.00000000000E+00 0.  1.
</event>
<event>
 7    1  0.2000468E-015  0.9000773E+02  0.7816164E-02  0.1186339E+00
        -11   -1    0    0    0    0  0.00000000000E+00  0.00000000000E+00  0.45593999997E+02  0.45594000000E+02  0.51100000000E-03 0.  1.
         11   -1    0    0    0    0 -0.00000000000E+00 -0.00000000000E+00 -0.45593999997E+02  0.45594000000E+02  0.51100000000E-03 0. -1.
    9900012    2    1    2    0    0 -0.29154384949E-02 -0.11784828385E+01  0.64888423126E-01  0.90007728503E+02  0.89999989719E+02 0.  0.
         12    1    1    2    0    0  0.29154384950E-02  0.11784828385E+01 -0.64888423126E-01  0.11802714975E+01  0.00000000000E+00 0. -1.
         11    1    3    3    0    0 -0.71118541350E+01 -0.29255747917E+01 -0.14383110125E+01  0.78234388813E+01  0.51100000000E-03 0. -1.
        -11    1    3    3    0    0 -0.25829119531E+02  0.13703484957E+02  0.26243738173E+02  0.39289473262E+02  0.51100000000E-03 0.  1.
         12    1    3    3    0    0  0.32938058228E+02 -0.11956393003E+02 -0.24740538737E+02  0.42894816359E+02  0.00000000000E+00 0. -1.
</event>
<event>
 7    1  0.2000468E-015  0.9000767E+02  0.7816164E-02  0.1186339E+00
        -11   -1    0    0    0    0  0.00000000000E+00  0.00000000000E+00  0.45593999997E+02  0.45594000000E+02  0.51100000000E-03 0.  1.
         11   -1    0    0    0    0 -0.00000000000E+00 -0.00000000000E+00 -0.45593999997E+02  0.45594000000E+02  0.51100000000E-03 0. -1.
    9900012    2    1    2    0    0  0.52664073838E+00  0.44703092083E+00  0.95707625590E+00  0.90007668660E+02  0.89999929087E+02 0.  0.
         12    1    1    2    0    0 -0.52664073838E+00 -0.44703092083E+00 -0.95707625590E+00  0.11803313395E+01  0.00000000000E+00 0. -1.
         11    1    3    3    0    0 -0.33348980155E+01 -0.84419112340E+01  0.25267262162E+01  0.94218764420E+01  0.51100000000E-03 0. -1.
        -11    1    3    3    0    0 -0.43088827083E+01 -0.23873599164E+02 -0.28477545684E+02  0.37409702159E+02  0.51100000000E-03 0.  1.
         12    1    3    3    0    0  0.81704214621E+01  0.32762541318E+02  0.26907895724E+02  0.43176090059E+02  0.00000000000E+00 0. -1.
</event>
<event>
 7    1  0.2000468E-015  0.9000784E+02  0.7816164E-02  0.1186339E+00
        -11   -1    0    0    0    0  0.00000000000E+00  0.00000000000E+00  0.45593999997E+02  0.45594000000E+02  0.51100000000E-03 0.  1.
         11   -1    0    0    0    0 -0.00000000000E+00 -0.00000000000E+00 -0.45593999997E+02  0.45594000000E+02  0.51100000000E-03 0. -1.
    9900012    2    1    2    0    0 -0.44775705009E+00 -0.99957038746E+00  0.43947815106E+00  0.90007843917E+02  0.90000106656E+02 0.  0.
         12    1    1    2    0    0  0.44775705009E+00  0.99957038746E+00 -0.43947815106E+00  0.11801560832E+01  0.00000000000E+00 0. -1.
         11    1    3    3    0    0 -0.30746627530E+02 -0.16197161557E+02 -0.16208851278E+02  0.38346186342E+02  0.51100000000E-03 0. -1.
        -11    1    3    3    0    0 -0.11216313820E+01 -0.90551300539E+01  0.43497814150E+01  0.10108117326E+02  0.51100000000E-03 0.  1.
        -12    1    3    3    0    0  0.31420501861E+02  0.24252721224E+02  0.12298548014E+02  0.41553540249E+02  0.00000000000E+00 0.  1.
</event>
<event>
 7    1  0.2000468E-015  0.9000772E+02  0.7816164E-02  0.1186339E+00
        -11   -1    0    0    0    0  0.00000000000E+00  0.00000000000E+00  0.45593999997E+02  0.45594000000E+02  0.51100000000E-03 0. -1.
         11   -1    0    0    0    0 -0.00000000000E+00 -0.00000000000E+00 -0.45593999997E+02  0.45594000000E+02  0.51100000000E-03 0.  1.
    9900012    2    1    2    0    0  0.11771929049E+01 -0.76372196894E-01 -0.37945921263E-01  0.90007722176E+02  0.89999983309E+02 0.  0.
         12    1    1    2    0    0 -0.11771929049E+01  0.76372196894E-01  0.37945921263E-01  0.11802778236E+01  0.00000000000E+00 0. -1.
         11    1    3    3    0    0 -0.15608355650E+01  0.50174922454E+01  0.74741618435E+01  0.91364397671E+01  0.51100000000E-03 0. -1.
        -11    1    3    3    0    0 -0.21611052268E+02  0.30058011593E+02 -0.89452132026E+01  0.38085935469E+02  0.51100000000E-03 0.  1.
         12    1    3    3    0    0  0.24349080738E+02 -0.35151876035E+02  0.14331054378E+01  0.42785346940E+02  0.00000000000E+00 0. -1.
</event>
<event>
 7    1  0.2000468E-015  0.9000774E+02  0.7816164E-02  0.1186339E+00
        -11   -1    0    0    0    0  0.00000000000E+00  0.00000000000E+00  0.45593999997E+02  0.45594000000E+02  0.51100000000E-03 0.  1.
         11   -1    0    0    0    0 -0.00000000000E+00 -0.00000000000E+00 -0.45593999997E+02  0.45594000000E+02  0.51100000000E-03 0. -1.
    9900012    2    1    2    0    0 -0.62023199027E+00  0.88644697247E+00  0.47174926992E+00  0.90007735906E+02  0.89999997220E+02 0.  0.
         12    1    1    2    0    0  0.62023199027E+00 -0.88644697247E+00 -0.47174926992E+00  0.11802640935E+01  0.00000000000E+00 0. -1.
         11    1    3    3    0    0 -0.25573769405E+02 -0.25005324842E+02  0.14310886966E+02  0.38523829483E+02  0.51100000000E-03 0. -1.
        -11    1    3    3    0    0  0.63681058137E+01 -0.45629065572E+01  0.67069891876E+01  0.10312933246E+02  0.51100000000E-03 0.  1.
        -12    1    3    3    0    0  0.18585431601E+02  0.30454678372E+02 -0.20546126883E+02  0.41170973178E+02  0.00000000000E+00 0.  1.
</event>
<event>
 7    1  0.2000468E-015  0.9000776E+02  0.7816164E-02  0.1186339E+00
        -11   -1    0    0    0    0  0.00000000000E+00  0.00000000000E+00  0.45593999997E+02  0.45594000000E+02  0.51100000000E-03 0.  1.
         11   -1    0    0    0    0 -0.00000000000E+00 -0.00000000000E+00 -0.45593999997E+02  0.45594000000E+02  0.51100000000E-03 0. -1.
    9900012    2    1    2    0    0 -0.95840306581E+00  0.79024260561E-01 -0.68424883122E+00  0.90007755223E+02  0.90000016792E+02 0.  0.
         12    1    1    2    0    0  0.95840306581E+00 -0.79024260561E-01  0.68424883122E+00  0.11802447769E+01  0.00000000000E+00 0. -1.
         11    1    3    3    0    0 -0.17644242777E+01 -0.92758729538E+00  0.83049575309E+01  0.85408390146E+01  0.51100000000E-03 0. -1.
        -11    1    3    3    0    0  0.95847414794E+01 -0.34862267079E+02 -0.21989731643E+02  0.42317764983E+02  0.51100000000E-03 0.  1.
         12    1    3    3    0    0 -0.87787202675E+01  0.35868878635E+02  0.13000525281E+02  0.39149151226E+02  0.00000000000E+00 0. -1.
</event>
<event>
 7    1  0.2000468E-015  0.9000770E+02  0.7816164E-02  0.1186339E+00
        -11   -1    0    0    0    0  0.00000000000E+00  0.00000000000E+00  0.45593999997E+02  0.45594000000E+02  0.51100000000E-03 0.  1.
         11   -1    0    0    0    0 -0.00000000000E+00 -0.00000000000E+00 -0.45593999997E+02  0.45594000000E+02  0.51100000000E-03 0. -1.
    9900012    2    1    2    0    0  0.28896548680E-01  0.28986254118E+00  0.11437937074E+01  0.90007695231E+02  0.89999956008E+02 0.  0.
         12    1    1    2    0    0 -0.28896548680E-01 -0.28986254118E+00 -0.11437937074E+01  0.11803047693E+01  0.00000000000E+00 0. -1.
         11    1    3    3    0    0 -0.28722798366E+02  0.21897234950E+01 -0.13047075416E+02  0.31623096182E+02  0.51100000000E-03 0. -1.
        -11    1    3    3    0    0 -0.11031266944E+02  0.60378262198E+01 -0.49674881041E+01  0.13521099592E+02  0.51100000000E-03 0.  1.
        -12    1    3    3    0    0  0.39782961858E+02 -0.79376871736E+01  0.19158357227E+02  0.44863499457E+02  0.00000000000E+00 0.  1.
</event>
<event>
 7    1  0.2000468E-015  0.9000771E+02  0.7816164E-02  0.1186339E+00
        -11   -1    0    0    0    0  0.00000000000E+00  0.00000000000E+00  0.45593999997E+02  0.45594000000E+02  0.51100000000E-03 0.  1.
         11   -1    0    0    0    0 -0.00000000000E+00 -0.00000000000E+00 -0.45593999997E+02  0.45594000000E+02  0.51100000000E-03 0. -1.
    9900012    2    1    2    0    0  0.11630298727E+01 -0.22455527208E-01 -0.19985709010E+00  0.90007709531E+02  0.89999970496E+02 0.  0.
         12    1    1    2    0    0 -0.11630298727E+01  0.22455527208E-01  0.19985709010E+00  0.11802904693E+01  0.00000000000E+00 0. -1.
         11    1    3    3    0    0 -0.52670688460E+01 -0.26583692394E+01  0.83120742003E+01  0.10193111351E+02  0.51100000000E-03 0. -1.
        -11    1    3    3    0    0  0.17499667037E+01 -0.37790862032E+02  0.16533865080E+01  0.37867470523E+02  0.51100000000E-03 0.  1.
         12    1    3    3    0    0  0.46801320150E+01  0.40426775744E+02 -0.10165317798E+02  0.41947127657E+02  0.00000000000E+00 0. -1.
</event>
<event>
 7    1  0.2000468E-015  0.9000775E+02  0.7816164E-02  0.1186339E+00
        -11   -1    0    0    0    0  0.00000000000E+00  0.00000000000E+00  0.45593999997E+02  0.45594000000E+02  0.51100000000E-03 0. -1.
         11   -1    0    0    0    0 -0.00000000000E+00 -0.00000000000E+00 -0.45593999997E+02  0.45594000000E+02  0.51100000000E-03 0.  1.
    9900012    2    1    2    0    0 -0.98609943925E+00 -0.64836015488E+00 -0.15382263310E-01  0.90007745956E+02  0.90000007403E+02 0.  0.
         12    1    1    2    0    0  0.98609943925E+00  0.64836015488E+00  0.15382263310E-01  0.11802540441E+01  0.00000000000E+00 0. -1.
         11    1    3    3    0    0 -0.58157114135E+01  0.56088795862E+01  0.32344460619E+02  0.33338358725E+02  0.51100000000E-03 0. -1.
        -11    1    3    3    0    0 -0.29594214028E+01  0.19692359503E+01  0.11153079961E+02  0.11705864263E+02  0.51100000000E-03 0.  1.
        -12    1    3    3    0    0  0.77890333770E+01 -0.82264756914E+01 -0.43512922844E+02  0.44963522968E+02  0.00000000000E+00 0.  1.
</event>
<event>
 7    1  0.2000468E-015  0.9000780E+02  0.7816164E-02  0.1186339E+00
        -11   -1    0    0    0    0  0.00000000000E+00  0.00000000000E+00  0.45593999997E+02  0.45594000000E+02  0.51100000000E-03 0. -1.
         11   -1    0    0    0    0 -0.00000000000E+00 -0.00000000000E+00 -0.45593999997E+02  0.45594000000E+02  0.51100000000E-03 0.  1.
    9900012    2    1    2    0    0  0.80821453817E+00 -0.33334047707E+00 -0.79281390547E+00  0.90007796415E+02  0.90000058528E+02 0.  0.
         12    1    1    2    0    0 -0.80821453817E+00  0.33334047707E+00  0.79281390547E+00  0.11802035850E+01  0.00000000000E+00 0. -1.
         11    1    3    3    0    0  0.33756930708E+02 -0.42967229586E+01 -0.20808397343E+02  0.39887110691E+02  0.51100000000E-03 0. -1.
        -11    1    3    3    0    0 -0.42700058146E+01  0.37604312592E+01 -0.81394222971E+01  0.99309611068E+01  0.51100000000E-03 0.  1.
        -12    1    3    3    0    0 -0.28678710355E+02  0.20295122225E+00  0.28155005735E+02  0.40189724617E+02  0.00000000000E+00 0.  1.
</event>
<event>
 7    1  0.2000468E-015  0.9000768E+02  0.7816164E-02  0.1186339E+00
        -11   -1    0    0    0    0  0.00000000000E+00  0.00000000000E+00  0.45593999997E+02  0.45594000000E+02  0.51100000000E-03 0. -1.
         11   -1    0    0    0    0 -0.00000000000E+00 -0.00000000000E+00 -0.45593999997E+02  0.45594000000E+02  0.51100000000E-03 0.  1.
    9900012    2    1    2    0    0  0.22963035358E+00  0.28093333638E+00 -0.11231670434E+01  0.90007678922E+02  0.89999939484E+02 0.  0.
         12    1    1    2    0    0 -0.22963035358E+00 -0.28093333638E+00  0.11231670434E+01  0.11803210776E+01  0.00000000000E+00 0. -1.
         11    1    3    3    0    0  0.11971137885E+01 -0.20258487965E+01 -0.11001050472E+02  0.11249900289E+02  0.51100000000E-03 0. -1.
        -11    1    3    3    0    0 -0.81610620130E+01  0.67738079256E+01 -0.33201348323E+02  0.34854224102E+02  0.51100000000E-03 0.  1.
         12    1    3    3    0    0  0.71935785780E+01 -0.44670257927E+01  0.43079231752E+02  0.43903554532E+02  0.00000000000E+00 0. -1.
</event>
<event>
 7    1  0.2000468E-015  0.9000778E+02  0.7816164E-02  0.1186339E+00
        -11   -1    0    0    0    0  0.00000000000E+00  0.00000000000E+00  0.45593999997E+02  0.45594000000E+02  0.51100000000E-03 0. -1.
         11   -1    0    0    0    0 -0.00000000000E+00 -0.00000000000E+00 -0.45593999997E+02  0.45594000000E+02  0.51100000000E-03 0.  1.
    9900012    2    1    2    0    0 -0.57342160005E+00  0.99635036614E+00  0.26719701998E+00  0.90007779414E+02  0.90000041303E+02 0.  0.
         12    1    1    2    0    0  0.57342160005E+00 -0.99635036614E+00 -0.26719701998E+00  0.11802205857E+01  0.00000000000E+00 0. -1.
         11    1    3    3    0    0  0.57712861760E+01 -0.31826055064E+01 -0.46468044070E+01  0.80640878834E+01  0.51100000000E-03 0. -1.
        -11    1    3    3    0    0 -0.14927470026E-01  0.41046251473E+02 -0.90206648533E+01  0.42025794192E+02  0.51100000000E-03 0.  1.
         12    1    3    3    0    0 -0.63297803060E+01 -0.36867295600E+02  0.13934666280E+02  0.39917897339E+02  0.00000000000E+00 0. -1.
</event>
<event>
 7    1  0.2000468E-015  0.9000783E+02  0.7816164E-02  0.1186339E+00
        -11   -1    0    0    0    0  0.00000000000E+00  0.00000000000E+00  0.45593999997E+02  0.45594000000E+02  0.51100000000E-03 0.  1.
         11   -1    0    0    0    0 -0.00000000000E+00 -0.00000000000E+00 -0.45593999997E+02  0.45594000000E+02  0.51100000000E-03 0. -1.
    9900012    2    1    2    0    0 -0.11614861016E+01 -0.18323473351E+00  0.10086693201E+00  0.90007830915E+02  0.90000093483E+02 0.  0.
         12    1    1    2    0    0  0.11614861016E+01  0.18323473351E+00 -0.10086693201E+00  0.11801690852E+01  0.00000000000E+00 0. -1.
         11    1    3    3    0    0  0.87673150080E+01  0.18077995629E+02  0.36926013079E+01  0.20428290263E+02  0.51100000000E-03 0. -1.
        -11    1    3    3    0    0 -0.28469355172E+02 -0.14381878070E+01  0.20282888619E+02  0.34985256024E+02  0.51100000000E-03 0.  1.
         12    1    3    3    0    0  0.18540554062E+02 -0.16823042555E+02 -0.23874622995E+02  0.34594284628E+02  0.00000000000E+00 0. -1.
</event>
<event>
 7    1  0.2000468E-015  0.9000777E+02  0.7816164E-02  0.1186339E+00
        -11   -1    0    0    0    0  0.00000000000E+00  0.00000000000E+00  0.45593999997E+02  0.45594000000E+02  0.51100000000E-03 0.  1.
         11   -1    0    0    0    0 -0.00000000000E+00 -0.00000000000E+00 -0.45593999997E+02  0.45594000000E+02  0.51100000000E-03 0. -1.
    9900012    2    1    2    0    0 -0.11319039266E+00 -0.47658582126E+00  0.10737821381E+01  0.90007765197E+02  0.90000026898E+02 0.  0.
         12    1    1    2    0    0  0.11319039266E+00  0.47658582126E+00 -0.10737821381E+01  0.11802348030E+01  0.00000000000E+00 0. -1.
         11    1    3    3    0    0  0.20914328223E+02 -0.48326803916E+01  0.11633591769E+02  0.24415248975E+02  0.51100000000E-03 0. -1.
        -11    1    3    3    0    0  0.17162577292E+02 -0.11965418660E+02 -0.11842666557E+02  0.24041090958E+02  0.51100000000E-03 0.  1.
         12    1    3    3    0    0 -0.38190095908E+02  0.16321513231E+02  0.12828569252E+01  0.41551425264E+02  0.00000000000E+00 0. -1.
</event>
<event>
 7    1  0.2000468E-015  0.9000789E+02  0.7816164E-02  0.1186339E+00
        -11   -1    0    0    0    0  0.00000000000E+00  0.00000000000E+00  0.45593999997E+02  0.45594000000E+02  0.51100000000E-03 0. -1.
         11   -1    0    0    0    0 -0.00000000000E+00 -0.00000000000E+00 -0.45593999997E+02  0.45594000000E+02  0.51100000000E-03 0.  1.
    9900012    2    1    2    0    0 -0.47828519351E+00 -0.10702594932E+01 -0.13581782096E+00  0.90007890433E+02  0.90000153787E+02 0.  0.
         12    1    1    2    0    0  0.47828519351E+00  0.10702594932E+01  0.13581782096E+00  0.11801095667E+01  0.00000000000E+00 0. -1.
         11    1    3    3    0    0  0.35549001282E+01 -0.40245560084E+01 -0.90186687497E+01  0.10496225620E+02  0.51100000000E-03 0. -1.
        -11    1    3    3    0    0  0.17204832910E+02  0.22491040631E+02 -0.23020297476E+02  0.36493660824E+02  0.51100000000E-03 0.  1.
         12    1    3    3    0    0 -0.21238018232E+02 -0.19536744116E+02  0.31903148405E+02  0.43018003990E+02  0.00000000000E+00 0. -1.
</event>
<event>
 7    1  0.2000468E-015  0.9000768E+02  0.7816164E-02  0.1186339E+00
        -11   -1    0    0    0    0  0.00000000000E+00  0.00000000000E+00  0.45593999997E+02  0.45594000000E+02  0.51100000000E-03 0. -1.
         11   -1    0    0    0    0 -0.00000000000E+00 -0.00000000000E+00 -0.45593999997E+02  0.45594000000E+02  0.51100000000E-03 0.  1.
    9900012    2    1    2    0    0 -0.93685778938E-01  0.11723508434E+01 -0.99815448739E-01  0.90007683666E+02  0.89999944290E+02 0.  0.
         12    1    1    2    0    0  0.93685778938E-01 -0.11723508434E+01  0.99815448739E-01  0.11803163343E+01  0.00000000000E+00 0. -1.
         11    1    3    3    0    0 -0.11198040797E+02  0.34395861873E+02 -0.75130564105E+01  0.36944789193E+02  0.51100000000E-03 0. -1.
        -11    1    3    3    0    0 -0.45348088812E+01 -0.96440313554E+00  0.15613120850E+02  0.16286930587E+02  0.51100000000E-03 0.  1.
        -12    1    3    3    0    0  0.15639163899E+02 -0.32259107894E+02 -0.81998798883E+01  0.36775963886E+02  0.00000000000E+00 0.  1.
</event>
<event>
 7    1  0.2000468E-015  0.9000767E+02  0.7816164E-02  0.1186339E+00
        -11   -1    0    0    0    0  0.00000000000E+00  0.00000000000E+00  0.45593999997E+02  0.45594000000E+02  0.51100000000E-03 0. -1.
         11   -1    0    0    0    0 -0.00000000000E+00 -0.00000000000E+00 -0.45593999997E+02  0.45594000000E+02  0.51100000000E-03 0.  1.
    9900012    2    1    2    0    0  0.10175809103E+01  0.56899607684E+00  0.18427809374E+00  0.90007667055E+02  0.89999927460E+02 0.  0.
         12    1    1    2    0    0 -0.10175809103E+01 -0.56899607684E+00 -0.18427809374E+00  0.11803329447E+01  0.00000000000E+00 0. -1.
         11    1    3    3    0    0  0.33694192384E+02 -0.19428452520E+02  0.99305682039E+01  0.40141992388E+02  0.51100000000E-03 0. -1.
        -11    1    3    3    0    0 -0.36525830075E+01 -0.59048864196E+01  0.46823606014E+01  0.83745774412E+01  0.51100000000E-03 0.  1.
        -12    1    3    3    0    0 -0.29024028466E+02  0.25902335017E+02 -0.14428650712E+02  0.41491097227E+02  0.00000000000E+00 0.  1.
</event>
<event>
 7    1  0.2000468E-015  0.9000787E+02  0.7816164E-02  0.1186339E+00
        -11   -1    0    0    0    0  0.00000000000E+00  0.00000000000E+00  0.45593999997E+02  0.45594000000E+02  0.51100000000E-03 0. -1.
         11   -1    0    0    0    0 -0.00000000000E+00 -0.00000000000E+00 -0.45593999997E+02  0.45594000000E+02  0.51100000000E-03 0.  1.
    9900012    2    1    2    0    0  0.54695960708E-01  0.10831634353E+01 -0.46526549778E+00  0.90007870067E+02  0.90000133152E+02 0.  0.
         12    1    1    2    0    0 -0.54695960708E-01 -0.10831634353E+01  0.46526549778E+00  0.11801299331E+01  0.00000000000E+00 0. -1.
         11    1    3    3    0    0 -0.63793231846E+01  0.57158342004E+01  0.47429131296E+01  0.97909013945E+01  0.51100000000E-03 0. -1.
        -11    1    3    3    0    0 -0.15867278722E+02 -0.27288528641E+02 -0.27111888469E+02  0.41611162277E+02  0.51100000000E-03 0.  1.
         12    1    3    3    0    0  0.22301297867E+02  0.22655857876E+02  0.21903709842E+02  0.38605806396E+02  0.00000000000E+00 0. -1.
</event>
<event>
 7    1  0.2000468E-015  0.9000775E+02  0.7816164E-02  0.1186339E+00
        -11   -1    0    0    0    0  0.00000000000E+00  0.00000000000E+00  0.45593999997E+02  0.45594000000E+02  0.51100000000E-03 0.  1.
         11   -1    0    0    0    0 -0.00000000000E+00 -0.00000000000E+00 -0.45593999997E+02  0.45594000000E+02  0.51100000000E-03 0. -1.
    9900012    2    1    2    0    0 -0.63305568224E+00 -0.69783237498E-01  0.99365726184E+00  0.90007752589E+02  0.90000014123E+02 0.  0.
         12    1    1    2    0    0  0.63305568224E+00  0.69783237498E-01 -0.99365726184E+00  0.11802474110E+01  0.00000000000E+00 0. -1.
         11    1    3    3    0    0 -0.62480543432E+01 -0.75418036039E+01  0.27020627575E+01  0.10159632281E+02  0.51100000000E-03 0. -1.
        -11    1    3    3    0    0 -0.30840775107E+02  0.47518380429E+01  0.20253523327E+02  0.37201324995E+02  0.51100000000E-03 0.  1.
         12    1    3    3    0    0  0.36455773768E+02  0.27201823234E+01 -0.21961928822E+02  0.42646795313E+02  0.00000000000E+00 0. -1.
</event>
<event>
 7    1  0.2000468E-015  0.9000827E+02  0.7816164E-02  0.1186338E+00
        -11   -1    0    0    0    0  0.00000000000E+00  0.00000000000E+00  0.45593999997E+02  0.45594000000E+02  0.51100000000E-03 0. -1.
         11   -1    0    0    0    0 -0.00000000000E+00 -0.00000000000E+00 -0.45593999997E+02  0.45594000000E+02  0.51100000000E-03 0.  1.
    9900012    2    1    2    0    0 -0.28910650180E+00  0.10796237169E+01  0.37760627734E+00  0.90008272726E+02  0.90000541125E+02 0.  0.
         12    1    1    2    0    0  0.28910650180E+00 -0.10796237169E+01 -0.37760627734E+00  0.11797272736E+01  0.00000000000E+00 0. -1.
         11    1    3    3    0    0  0.13668657254E+02 -0.38427444919E+02  0.99995482125E+00  0.40798291926E+02  0.51100000000E-03 0. -1.
        -11    1    3    3    0    0  0.64930690852E+01  0.62414754071E+01  0.40634962744E+01  0.98806863950E+01  0.51100000000E-03 0.  1.
        -12    1    3    3    0    0 -0.20450832841E+02  0.33265593229E+02 -0.46858448183E+01  0.39329294406E+02  0.00000000000E+00 0.  1.
</event>
<event>
 7    1  0.2000468E-015  0.9000780E+02  0.7816164E-02  0.1186339E+00
        -11   -1    0    0    0    0  0.00000000000E+00  0.00000000000E+00  0.45593999997E+02  0.45594000000E+02  0.51100000000E-03 0.  1.
         11   -1    0    0    0    0 -0.00000000000E+00 -0.00000000000E+00 -0.45593999997E+02  0.45594000000E+02  0.51100000000E-03 0. -1.
    9900012    2    1    2    0    0 -0.16275476966E+00 -0.48306300067E+00  0.10644422037E+01  0.90007798245E+02  0.90000060382E+02 0.  0.
         12    1    1    2    0    0  0.16275476966E+00  0.48306300067E+00 -0.10644422037E+01  0.11802017550E+01  0.00000000000E+00 0. -1.
         11    1    3    3    0    0  0.19857989688E+02 -0.30958383018E+02  0.13761206508E+02  0.39269989030E+02  0.51100000000E-03 0. -1.
        -11    1    3    3    0    0 -0.70206293507E+01 -0.12889502186E+01  0.79502688833E+01  0.10684446861E+02  0.51100000000E-03 0.  1.
        -12    1    3    3    0    0 -0.13000115107E+02  0.31764270236E+02 -0.20647033188E+02  0.40053362354E+02  0.00000000000E+00 0.  1.
</event>
<event>
 7    1  0.2000468E-015  0.9000771E+02  0.7816164E-02  0.1186339E+00
        -11   -1    0    0    0    0  0.00000000000E+00  0.00000000000E+00  0.45593999997E+02  0.45594000000E+02  0.51100000000E-03 0.  1.
         11   -1    0    0    0    0 -0.00000000000E+00 -0.00000000000E+00 -0.45593999997E+02  0.45594000000E+02  0.51100000000E-03 0. -1.
    9900012    2    1    2    0    0  0.52480201805E+00  0.71222650774E+00  0.78127909029E+00  0.90007711572E+02  0.89999972565E+02 0.  0.
         12    1    1    2    0    0 -0.52480201805E+00 -0.71222650774E+00 -0.78127909029E+00  0.11802884281E+01  0.00000000000E+00 0. -1.
         11    1    3    3    0    0 -0.58360506256E+01 -0.75196569523E+01  0.20180418438E+01  0.97302220288E+01  0.51100000000E-03 0. -1.
        -11    1    3    3    0    0 -0.95863800650E+01  0.40917242212E+02 -0.92633853971E+01  0.43034052821E+02  0.51100000000E-03 0.  1.
         12    1    3    3    0    0  0.15947232709E+02 -0.32685358752E+02  0.80266226436E+01  0.37243436722E+02  0.00000000000E+00 0. -1.
</event>
<event>
 7    1  0.2000468E-015  0.9000771E+02  0.7816164E-02  0.1186339E+00
        -11   -1    0    0    0    0  0.00000000000E+00  0.00000000000E+00  0.45593999997E+02  0.45594000000E+02  0.51100000000E-03 0.  1.
         11   -1    0    0    0    0 -0.00000000000E+00 -0.00000000000E+00 -0.45593999997E+02  0.45594000000E+02  0.51100000000E-03 0. -1.
    9900012    2    1    2    0    0  0.88465706471E+00 -0.76997817662E+00  0.13264866802E+00  0.90007711822E+02  0.89999972818E+02 0.  0.
         12    1    1    2    0    0 -0.88465706471E+00  0.76997817662E+00 -0.13264866802E+00  0.11802881783E+01  0.00000000000E+00 0. -1.
         11    1    3    3    0    0  0.80291462959E+01 -0.29670872845E+00 -0.31540958358E+01  0.86315437271E+01  0.51100000000E-03 0. -1.
        -11    1    3    3    0    0  0.23994529052E+02 -0.90846336198E+01  0.29985686985E+02  0.39464026868E+02  0.51100000000E-03 0.  1.
         12    1    3    3    0    0 -0.31139018283E+02  0.86113641716E+01 -0.26698942482E+02  0.41912141226E+02  0.00000000000E+00 0. -1.
</event>
<event>
 7    1  0.2000468E-015  0.9000768E+02  0.7816164E-02  0.1186339E+00
        -11   -1    0    0    0    0  0.00000000000E+00  0.00000000000E+00  0.45593999997E+02  0.45594000000E+02  0.51100000000E-03 0. -1.
         11   -1    0    0    0    0 -0.00000000000E+00 -0.00000000000E+00 -0.45593999997E+02  0.45594000000E+02  0.51100000000E-03 0.  1.
    9900012    2    1    2    0    0 -0.34755364734E+00 -0.10632139358E+01 -0.37673948220E+00  0.90007682226E+02  0.89999942831E+02 0.  0.
         12    1    1    2    0    0  0.34755364734E+00  0.10632139358E+01  0.37673948220E+00  0.11803177744E+01  0.00000000000E+00 0. -1.
         11    1    3    3    0    0  0.39567106552E+01  0.12854030717E+01  0.46300163125E+01  0.62245378608E+01  0.51100000000E-03 0. -1.
        -11    1    3    3    0    0 -0.45134594415E+01  0.28360820184E+02  0.27006414690E+02  0.39421489981E+02  0.51100000000E-03 0.  1.
         12    1    3    3    0    0  0.20919513898E+00 -0.30709437192E+02 -0.32013170484E+02  0.44361654384E+02  0.00000000000E+00 0. -1.
</event>
<event>
 7    1  0.2000468E-015  0.9000774E+02  0.7816164E-02  0.1186339E+00
        -11   -1    0    0    0    0  0.00000000000E+00  0.00000000000E+00  0.45593999997E+02  0.45594000000E+02  0.51100000000E-03 0.  1.
         11   -1    0    0    0    0 -0.00000000000E+00 -0.00000000000E+00 -0.45593999997E+02  0.45594000000E+02  0.51100000000E-03 0. -1.
    9900012    2    1    2    0    0  0.10398655755E+01  0.18294901877E+00  0.52747932263E+00  0.90007735117E+02  0.89999996420E+02 0.  0.
         12    1    1    2    0    0 -0.10398655755E+01 -0.18294901877E+00 -0.52747932263E+00  0.11802648831E+01  0.00000000000E+00 0. -1.
         11    1    3    3    0    0 -0.15135159691E+02  0.95145898088E+01  0.10360719123E+02  0.20662646953E+02  0.51100000000E-03 0. -1.
        -11    1    3    3    0    0 -0.14427185007E+02  0.19153385579E+02  0.58671968897E+01  0.24686430402E+02  0.51100000000E-03 0.  1.
        -12    1    3    3    0    0  0.30602210273E+02 -0.28485026369E+02 -0.15700436690E+02  0.44658657762E+02  0.00000000000E+00 0.  1.
</event>
<event>
 7    1  0.2000468E-015  0.9000767E+02  0.7816164E-02  0.1186339E+00
        -11   -1    0    0    0    0  0.00000000000E+00  0.00000000000E+00  0.45593999997E+02  0.45594000000E+02  0.51100000000E-03 0.  1.
         11   -1    0    0    0    0 -0.00000000000E+00 -0.00000000000E+00 -0.45593999997E+02  0.45594000000E+02  0.51100000000E-03 0. -1.
    9900012    2    1    2    0    0  0.61064824957E+00  0.89162360768E+00  0.47464530713E+00  0.90007672880E+02  0.89999933362E+02 0.  0.
         12    1    1    2    0    0 -0.61064824957E+00 -0.89162360768E+00 -0.47464530713E+00  0.11803271199E+01  0.00000000000E+00 0. -1.
         11    1    3    3    0    0 -0.26658920879E+01 -0.28029285780E+02 -0.22836999687E+02  0.36252950182E+02  0.51100000000E-03 0. -1.
        -11    1    3    3    0    0 -0.10022840581E+01 -0.10960469243E+01 -0.91881525679E+01  0.93074185500E+01  0.51100000000E-03 0.  1.
        -12    1    3    3    0    0  0.42788243956E+01  0.30016956312E+02  0.32499797562E+02  0.44447304148E+02  0.00000000000E+00 0.  1.
</event>
<event>
 7    1  0.2000468E-015  0.9000753E+02  0.7816164E-02  0.1186339E+00
        -11   -1    0    0    0    0  0.00000000000E+00  0.00000000000E+00  0.45593999997E+02  0.45594000000E+02  0.51100000000E-03 0.  1.
         11   -1    0    0    0    0 -0.00000000000E+00 -0.00000000000E+00 -0.45593999997E+02  0.45594000000E+02  0.51100000000E-03 0. -1.
    9900012    2    1    2    0    0 -0.52296142299E+00 -0.10541149583E+01 -0.94141647824E-01  0.90007529905E+02  0.89999788499E+02 0.  0.
         12    1    1    2    0    0  0.52296142299E+00  0.10541149583E+01  0.94141647824E-01  0.11804700950E+01  0.00000000000E+00 0. -1.
         11    1    3    3    0    0  0.17849477090E+02  0.28179406482E+02 -0.17664906314E+02  0.37745618254E+02  0.51100000000E-03 0. -1.
        -11    1    3    3    0    0  0.89807866940E+01 -0.36878907466E+01 -0.21697545086E+01  0.99480099865E+01  0.51100000000E-03 0.  1.
        -12    1    3    3    0    0 -0.27353225207E+02 -0.25545630694E+02  0.19740519175E+02  0.42313901664E+02  0.00000000000E+00 0.  1.
</event>
<event>
 7    1  0.2000468E-015  0.9000761E+02  0.7816164E-02  0.1186339E+00
        -11   -1    0    0    0    0  0.00000000000E+00  0.00000000000E+00  0.45593999997E+02  0.45594000000E+02  0.51100000000E-03 0. -1.
         11   -1    0    0    0    0 -0.00000000000E+00 -0.00000000000E+00 -0.45593999997E+02  0.45594000000E+02  0.51100000000E-03 0.  1.
    9900012    2    1    2    0    0 -0.11466851189E+01 -0.27944654195E+00  0.18611495123E-01  0.90007608743E+02  0.89999868378E+02 0.  0.
         12    1    1    2    0    0  0.11466851189E+01  0.27944654195E+00 -0.18611495123E-01  0.11803912569E+01  0.00000000000E+00 0. -1.
         11    1    3    3    0    0 -0.19577299057E+02  0.16205492959E+02 -0.34108877062E+02  0.42535915825E+02  0.51100000000E-03 0. -1.
        -11    1    3    3    0    0 -0.44746698266E+01 -0.64878436283E+01  0.64846104625E+01  0.10206123560E+02  0.51100000000E-03 0.  1.
        -12    1    3    3    0    0  0.22905283765E+02 -0.99970958724E+01  0.27642878095E+02  0.37265569358E+02  0.00000000000E+00 0.  1.
</event>
<event>
 7    1  0.2000468E-015  0.9000779E+02  0.7816164E-02  0.1186339E+00
        -11   -1    0    0    0    0  0.00000000000E+00  0.00000000000E+00  0.45593999997E+02  0.45594000000E+02  0.51100000000E-03 0. -1.
         11   -1    0    0    0    0 -0.00000000000E+00 -0.00000000000E+00 -0.45593999997E+02  0.45594000000E+02  0.51100000000E-03 0.  1.
    9900012    2    1    2    0    0  0.48991133052E-02  0.77929556979E+00 -0.88631760693E+00  0.90007794727E+02  0.90000056817E+02 0.  0.
         12    1    1    2    0    0 -0.48991133052E-02 -0.77929556979E+00  0.88631760693E+00  0.11802052731E+01  0.00000000000E+00 0. -1.
         11    1    3    3    0    0 -0.14752668756E+02 -0.24650032147E+02  0.20812023954E+02  0.35474013891E+02  0.51100000000E-03 0. -1.
        -11    1    3    3    0    0 -0.79831840611E+00  0.16565158067E+01  0.11037156398E+02  0.11189288561E+02  0.51100000000E-03 0.  1.
        -12    1    3    3    0    0  0.15555886275E+02  0.23772811910E+02 -0.32735497959E+02  0.43344492274E+02  0.00000000000E+00 0.  1.
</event>
<event>
 7    1  0.2000468E-015  0.9000724E+02  0.7816164E-02  0.1186340E+00
        -11   -1    0    0    0    0  0.00000000000E+00  0.00000000000E+00  0.45593999997E+02  0.45594000000E+02  0.51100000000E-03 0.  1.
         11   -1    0    0    0    0 -0.00000000000E+00 -0.00000000000E+00 -0.45593999997E+02  0.45594000000E+02  0.51100000000E-03 0. -1.
    9900012    2    1    2    0    0 -0.60464988226E+00 -0.10002613754E+01  0.16750586547E+00  0.90007244939E+02  0.89999499771E+02 0.  0.
         12    1    1    2    0    0  0.60464988226E+00  0.10002613754E+01 -0.16750586547E+00  0.11807550610E+01  0.00000000000E+00 0. -1.
         11    1    3    3    0    0 -0.19574746287E+02  0.49554187552E+01 -0.39252642218E+02  0.44141780532E+02  0.51100000000E-03 0. -1.
        -11    1    3    3    0    0  0.77907237050E+01 -0.27314282933E+01  0.52863218830E+01  0.98031258117E+01  0.51100000000E-03 0.  1.
        -12    1    3    3    0    0  0.11179372700E+02 -0.32242518372E+01  0.34133826200E+02  0.36062338595E+02  0.00000000000E+00 0.  1.
</event>
<event>
 7    1  0.2000468E-015  0.9000779E+02  0.7816164E-02  0.1186339E+00
        -11   -1    0    0    0    0  0.00000000000E+00  0.00000000000E+00  0.45593999997E+02  0.45594000000E+02  0.51100000000E-03 0. -1.
         11   -1    0    0    0    0 -0.00000000000E+00 -0.00000000000E+00 -0.45593999997E+02  0.45594000000E+02  0.51100000000E-03 0.  1.
    9900012    2    1    2    0    0  0.86958047608E+00  0.48862531673E-01 -0.79644655091E+00  0.90007794569E+02  0.90000056657E+02 0.  0.
         12    1    1    2    0    0 -0.86958047608E+00 -0.48862531673E-01  0.79644655091E+00  0.11802054312E+01  0.00000000000E+00 0. -1.
         11    1    3    3    0    0 -0.30762244072E+02  0.18775903657E+02  0.15798873965E+01  0.36074177231E+02  0.51100000000E-03 0. -1.
        -11    1    3    3    0    0 -0.22446912205E+01  0.63760318737E+01  0.80382709598E+01  0.10502676869E+02  0.51100000000E-03 0.  1.
        -12    1    3    3    0    0  0.33876515768E+02 -0.25103072999E+02 -0.10414604907E+02  0.43430940468E+02  0.00000000000E+00 0.  1.
</event>
<event>
 7    1  0.2000468E-015  0.9000794E+02  0.7816164E-02  0.1186339E+00
        -11   -1    0    0    0    0  0.00000000000E+00  0.00000000000E+00  0.45593999997E+02  0.45594000000E+02  0.51100000000E-03 0. -1.
         11   -1    0    0    0    0 -0.00000000000E+00 -0.00000000000E+00 -0.45593999997E+02  0.45594000000E+02  0.51100000000E-03 0.  1.
    9900012    2    1    2    0    0  0.95561920839E+00 -0.29808498145E+00 -0.62487815786E+00  0.90007942612E+02  0.90000206654E+02 0.  0.
         12    1    1    2    0    0 -0.95561920839E+00  0.29808498145E+00  0.62487815786E+00  0.11800573883E+01  0.00000000000E+00 0. -1.
         11    1    3    3    0    0 -0.48353870171E+01 -0.93130140123E+01  0.17738769521E+01  0.10642360514E+02  0.51100000000E-03 0. -1.
        -11    1    3    3    0    0 -0.58291436278E+01 -0.60638378231E+01 -0.38040066367E+02  0.38958897495E+02  0.51100000000E-03 0.  1.
         12    1    3    3    0    0  0.11620149853E+02  0.15078766854E+02  0.35641311257E+02  0.40406684603E+02  0.00000000000E+00 0. -1.
</event>
<event>
 7    1  0.2000468E-015  0.9000780E+02  0.7816164E-02  0.1186339E+00
        -11   -1    0    0    0    0  0.00000000000E+00  0.00000000000E+00  0.45593999997E+02  0.45594000000E+02  0.51100000000E-03 0.  1.
         11   -1    0    0    0    0 -0.00000000000E+00 -0.00000000000E+00 -0.45593999997E+02  0.45594000000E+02  0.51100000000E-03 0. -1.
    9900012    2    1    2    0    0 -0.11326017172E+00  0.48892352615E+00  0.10681729582E+01  0.90007801902E+02  0.90000064087E+02 0.  0.
         12    1    1    2    0    0  0.11326017172E+00 -0.48892352615E+00 -0.10681729582E+01  0.11801980976E+01  0.00000000000E+00 0. -1.
         11    1    3    3    0    0 -0.23823050149E+01  0.58341421484E+01 -0.77188742287E+01  0.99646179761E+01  0.51100000000E-03 0. -1.
        -11    1    3    3    0    0 -0.26773797015E+02 -0.30371019031E+02 -0.91169130746E+00  0.40497730614E+02  0.51100000000E-03 0.  1.
         12    1    3    3    0    0  0.29042841858E+02  0.25025800409E+02  0.96987384943E+01  0.39545453312E+02  0.00000000000E+00 0. -1.
</event>
<event>
 7    1  0.2000468E-015  0.9000776E+02  0.7816164E-02  0.1186339E+00
        -11   -1    0    0    0    0  0.00000000000E+00  0.00000000000E+00  0.45593999997E+02  0.45594000000E+02  0.51100000000E-03 0.  1.
         11   -1    0    0    0    0 -0.00000000000E+00 -0.00000000000E+00 -0.45593999997E+02  0.45594000000E+02  0.51100000000E-03 0. -1.
    9900012    2    1    2    0    0 -0.73847605374E+00  0.14967639444E+00  0.90842036672E+00  0.90007755336E+02  0.90000016906E+02 0.  0.
         12    1    1    2    0    0  0.73847605374E+00 -0.14967639444E+00 -0.90842036672E+00  0.11802446643E+01  0.00000000000E+00 0. -1.
         11    1    3    3    0    0  0.17391890186E+01 -0.39832347450E+01  0.88237588480E+01  0.98361403988E+01  0.51100000000E-03 0. -1.
        -11    1    3    3    0    0  0.48186434883E+01 -0.20167580415E+00  0.35554989777E+02  0.35880597772E+02  0.51100000000E-03 0.  1.
         12    1    3    3    0    0 -0.72963085606E+01  0.43345869436E+01 -0.43470328258E+02  0.44291017165E+02  0.00000000000E+00 0. -1.
</event>
<event>
 7    1  0.2000468E-015  0.9000761E+02  0.7816164E-02  0.1186339E+00
        -11   -1    0    0    0    0  0.00000000000E+00  0.00000000000E+00  0.45593999997E+02  0.45594000000E+02  0.51100000000E-03 0.  1.
         11   -1    0    0    0    0 -0.00000000000E+00 -0.00000000000E+00 -0.45593999997E+02  0.45594000000E+02  0.51100000000E-03 0. -1.
    9900012    2    1    2    0    0  0.14106990958E+00  0.18445008380E-01  0.11717878553E+01  0.90007606966E+02  0.89999866577E+02 0.  0.
         12    1    1    2    0    0 -0.14106990958E+00 -0.18445008380E-01 -0.11717878553E+01  0.11803930344E+01  0.00000000000E+00 0. -1.
         11    1    3    3    0    0 -0.14318178422E+02  0.21222475646E+02 -0.20101676166E+02  0.32549671132E+02  0.51100000000E-03 0. -1.
        -11    1    3    3    0    0 -0.16264117546E+02 -0.16588864999E+01  0.26617759863E+01  0.16563769970E+02  0.51100000000E-03 0.  1.
        -12    1    3    3    0    0  0.30723365877E+02 -0.19545144137E+02  0.18611688035E+02  0.40894165864E+02  0.00000000000E+00 0.  1.
</event>
<event>
 7    1  0.2000468E-015  0.9000762E+02  0.7816164E-02  0.1186339E+00
        -11   -1    0    0    0    0  0.00000000000E+00  0.00000000000E+00  0.45593999997E+02  0.45594000000E+02  0.51100000000E-03 0. -1.
         11   -1    0    0    0    0 -0.00000000000E+00 -0.00000000000E+00 -0.45593999997E+02  0.45594000000E+02  0.51100000000E-03 0.  1.
    9900012    2    1    2    0    0  0.22669948113E+00 -0.11271087329E+01 -0.26747313276E+00  0.90007615051E+02  0.89999874770E+02 0.  0.
         12    1    1    2    0    0 -0.22669948113E+00  0.11271087329E+01  0.26747313276E+00  0.11803849488E+01  0.00000000000E+00 0. -1.
         11    1    3    3    0    0  0.20837563920E+01 -0.12001278957E+02  0.67995412008E+01  0.13950143301E+02  0.51100000000E-03 0. -1.
        -11    1    3    3    0    0 -0.24203705966E+02 -0.19042440199E+02 -0.19791219630E+02  0.36607735330E+02  0.51100000000E-03 0.  1.
         12    1    3    3    0    0  0.22346649056E+02  0.29916610424E+02  0.12724205297E+02  0.39449736421E+02  0.00000000000E+00 0. -1.
</event>
<event>
 7    1  0.2000468E-015  0.9000774E+02  0.7816164E-02  0.1186339E+00
        -11   -1    0    0    0    0  0.00000000000E+00  0.00000000000E+00  0.45593999997E+02  0.45594000000E+02  0.51100000000E-03 0. -1.
         11   -1    0    0    0    0 -0.00000000000E+00 -0.00000000000E+00 -0.45593999997E+02  0.45594000000E+02  0.51100000000E-03 0.  1.
    9900012    2    1    2    0    0  0.11966076263E+00  0.61855674153E+00 -0.99804295795E+00  0.90007736942E+02  0.89999998269E+02 0.  0.
         12    1    1    2    0    0 -0.11966076263E+00 -0.61855674153E+00  0.99804295795E+00  0.11802630582E+01  0.00000000000E+00 0. -1.
         11    1    3    3    0    0 -0.18388111335E+02  0.74806553802E+01  0.38569121700E+02  0.43378104988E+02  0.51100000000E-03 0. -1.
        -11    1    3    3    0    0  0.48310580914E+01  0.36795014695E+01 -0.45562121866E+01  0.75918985173E+01  0.51100000000E-03 0.  1.
        -12    1    3    3    0    0  0.13676714006E+02 -0.10541600108E+02 -0.35010952472E+02  0.39037733436E+02  0.00000000000E+00 0.  1.
</event>
<event>
 7    1  0.2000468E-015  0.9000773E+02  0.7816164E-02  0.1186339E+00
        -11   -1    0    0    0    0  0.00000000000E+00  0.00000000000E+00  0.45593999997E+02  0.45594000000E+02  0.51100000000E-03 0. -1.
         11   -1    0    0    0    0 -0.00000000000E+00 -0.00000000000E+00 -0.45593999997E+02  0.45594000000E+02  0.51100000000E-03 0.  1.
    9900012    2    1    2    0    0 -0.10016368577E+01  0.60458302292E+00  0.15568832609E+00  0.90007730590E+02  0.89999991833E+02 0.  0.
         12    1    1    2    0    0  0.10016368577E+01 -0.60458302292E+00 -0.15568832609E+00  0.11802694104E+01  0.00000000000E+00 0. -1.
         11    1    3    3    0    0  0.32511982184E+01 -0.37618034179E+01  0.77610869323E+01  0.92171538688E+01  0.51100000000E-03 0. -1.
        -11    1    3    3    0    0  0.32982865759E+02  0.14658049450E+02 -0.18628222839E+02  0.40616973469E+02  0.51100000000E-03 0.  1.
         12    1    3    3    0    0 -0.37235700835E+02 -0.10291663009E+02  0.11022824232E+02  0.40173603252E+02  0.00000000000E+00 0. -1.
</event>
<event>
 7    1  0.2000468E-015  0.9000766E+02  0.7816164E-02  0.1186339E+00
        -11   -1    0    0    0    0  0.00000000000E+00  0.00000000000E+00  0.45593999997E+02  0.45594000000E+02  0.51100000000E-03 0.  1.
         11   -1    0    0    0    0 -0.00000000000E+00 -0.00000000000E+00 -0.45593999997E+02  0.45594000000E+02  0.51100000000E-03 0. -1.
    9900012    2    1    2    0    0  0.10522282765E+01  0.16458579760E+00  0.50885233505E+00  0.90007659571E+02  0.89999919877E+02 0.  0.
         12    1    1    2    0    0 -0.10522282765E+01 -0.16458579760E+00 -0.50885233505E+00  0.11803404295E+01  0.00000000000E+00 0. -1.
         11    1    3    3    0    0  0.17594664542E+02 -0.35810319245E+01 -0.35494732823E+02  0.39777783604E+02  0.51100000000E-03 0. -1.
        -11    1    3    3    0    0  0.50635938355E+01  0.69872547725E+01  0.62855876888E+00  0.86519823263E+01  0.51100000000E-03 0.  1.
        -12    1    3    3    0    0 -0.21606030101E+02 -0.32416370504E+01  0.35375026389E+02  0.41577893640E+02  0.00000000000E+00 0.  1.
</event>
<event>
 7    1  0.2000468E-015  0.9000774E+02  0.7816164E-02  0.1186339E+00
        -11   -1    0    0    0    0  0.00000000000E+00  0.00000000000E+00  0.45593999997E+02  0.45594000000E+02  0.51100000000E-03 0. -1.
         11   -1    0    0    0    0 -0.00000000000E+00 -0.00000000000E+00 -0.45593999997E+02  0.45594000000E+02  0.51100000000E-03 0.  1.
    9900012    2    1    2    0    0  0.74325840624E-01  0.11778629631E+01 -0.11342037005E-01  0.90007739803E+02  0.90000001169E+02 0.  0.
         12    1    1    2    0    0 -0.74325840624E-01 -0.11778629631E+01  0.11342037005E-01  0.11802601969E+01  0.00000000000E+00 0. -1.
         11    1    3    3    0    0  0.15754177909E+02  0.22787256997E+01  0.28546689632E+02  0.32684861965E+02  0.51100000000E-03 0. -1.
        -11    1    3    3    0    0 -0.90760937808E+01 -0.52569767574E+01  0.12048034674E+02  0.15973929470E+02  0.51100000000E-03 0.  1.
        -12    1    3    3    0    0 -0.66037582880E+01  0.41561140208E+01 -0.40606066344E+02  0.41348948368E+02  0.00000000000E+00 0.  1.
</event>
<event>
 7    1  0.2000468E-015  0.9000803E+02  0.7816164E-02  0.1186338E+00
        -11   -1    0    0    0    0  0.00000000000E+00  0.00000000000E+00  0.45593999997E+02  0.45594000000E+02  0.51100000000E-03 0. -1.
         11   -1    0    0    0    0 -0.00000000000E+00 -0.00000000000E+00 -0.45593999997E+02  0.45594000000E+02  0.51100000000E-03 0.  1.
    9900012    2    1    2    0    0 -0.51580677289E+00 -0.10015863459E+01 -0.35084692401E+00  0.90008031611E+02  0.90000296828E+02 0.  0.
         12    1    1    2    0    0  0.51580677289E+00  0.10015863459E+01  0.35084692401E+00  0.11799683892E+01  0.00000000000E+00 0. -1.
         11    1    3    3    0    0 -0.19573398983E+02 -0.47277241988E+01  0.28662011971E+02  0.35028277924E+02  0.51100000000E-03 0. -1.
        -11    1    3    3    0    0 -0.18065320323E+01 -0.31733118501E+01  0.97554056347E+01  0.10416400791E+02  0.51100000000E-03 0.  1.
        -12    1    3    3    0    0  0.20864124242E+02  0.68994497029E+01 -0.38768264530E+02  0.44563352895E+02  0.00000000000E+00 0.  1.
</event>
<event>
 7    1  0.2000468E-015  0.9000774E+02  0.7816164E-02  0.1186339E+00
        -11   -1    0    0    0    0  0.00000000000E+00  0.00000000000E+00  0.45593999997E+02  0.45594000000E+02  0.51100000000E-03 0. -1.
         11   -1    0    0    0    0 -0.00000000000E+00 -0.00000000000E+00 -0.45593999997E+02  0.45594000000E+02  0.51100000000E-03 0.  1.
    9900012    2    1    2    0    0  0.59003780786E+00 -0.10048556382E+01  0.18742634939E+00  0.90007742357E+02  0.90000003756E+02 0.  0.
         12    1    1    2    0    0 -0.59003780786E+00  0.10048556382E+01 -0.18742634939E+00  0.11802576434E+01  0.00000000000E+00 0. -1.
         11    1    3    3    0    0  0.37122653053E+02 -0.60825576479E+01 -0.28113864984E+01  0.37722576417E+02  0.51100000000E-03 0. -1.
        -11    1    3    3    0    0  0.47950621273E+01 -0.75758383598E+01  0.93647944449E+00  0.90145960347E+01  0.51100000000E-03 0.  1.
        -12    1    3    3    0    0 -0.41327677372E+02  0.12653540370E+02  0.20623334033E+01  0.43270569905E+02  0.00000000000E+00 0.  1.
</event>
<event>
 7    1  0.3261441E-015  0.9000768E+02  0.7816164E-02  0.1186339E+00
        -11   -1    0    0    0    0  0.00000000000E+00  0.00000000000E+00  0.45593999997E+02  0.45594000000E+02  0.51100000000E-03 0. -1.
         11   -1    0    0    0    0 -0.00000000000E+00 -0.00000000000E+00 -0.45593999997E+02  0.45594000000E+02  0.51100000000E-03 0.  1.
    9900012    2    1    2    0    0 -0.18736359042E+00  0.53813024310E+00 -0.10336622699E+01  0.90007683533E+02  0.89999944156E+02 0.  0.
         12    1    1    2    0    0  0.18736359042E+00 -0.53813024310E+00  0.10336622699E+01  0.11803164668E+01  0.00000000000E+00 0. -1.
         11    1    3    3    0    0 -0.34117040800E+02  0.17256973429E+02  0.78517974218E+01  0.39031094372E+02  0.51100000000E-03 0. -1.
        -11    1    3    3    0    0 -0.60345667036E+01 -0.62508358988E+01 -0.32736999500E+01  0.92847216629E+01  0.51100000000E-03 0.  1.
        -12    1    3    3    0    0  0.39964243913E+02 -0.10468007287E+02 -0.56117597417E+01  0.41691867498E+02  0.00000000000E+00 0.  1.
</event>
<event>
 7    1  0.2000468E-015  0.9000774E+02  0.7816164E-02  0.1186339E+00
        -11   -1    0    0    0    0  0.00000000000E+00  0.00000000000E+00  0.45593999997E+02  0.45594000000E+02  0.51100000000E-03 0. -1.
         11   -1    0    0    0    0 -0.00000000000E+00 -0.00000000000E+00 -0.45593999997E+02  0.45594000000E+02  0.51100000000E-03 0.  1.
    9900012    2    1    2    0    0 -0.11458373818E+01  0.28237274647E+00  0.18024169585E-01  0.90007744712E+02  0.90000006142E+02 0.  0.
         12    1    1    2    0    0  0.11458373818E+01 -0.28237274647E+00 -0.18024169585E-01  0.11802552877E+01  0.00000000000E+00 0. -1.
         11    1    3    3    0    0  0.38962301976E+01 -0.35396802877E+02  0.14946422865E+02  0.38620070176E+02  0.51100000000E-03 0. -1.
        -11    1    3    3    0    0 -0.52421946805E+01 -0.55048777326E+01 -0.47513359107E+01  0.89643447679E+01  0.51100000000E-03 0.  1.
        -12    1    3    3    0    0  0.20012710113E+00  0.41184053356E+02 -0.10177062785E+02  0.42423329768E+02  0.00000000000E+00 0.  1.
</event>
<event>
 7    1  0.2000468E-015  0.9000776E+02  0.7816164E-02  0.1186339E+00
        -11   -1    0    0    0    0  0.00000000000E+00  0.00000000000E+00  0.45593999997E+02  0.45594000000E+02  0.51100000000E-03 0.  1.
         11   -1    0    0    0    0 -0.00000000000E+00 -0.00000000000E+00 -0.45593999997E+02  0.45594000000E+02  0.51100000000E-03 0. -1.
    9900012    2    1    2    0    0  0.66211190966E+00 -0.73865618827E+00  0.63949817320E+00  0.90007761440E+02  0.90000023091E+02 0.  0.
         12    1    1    2    0    0 -0.66211190966E+00  0.73865618827E+00 -0.63949817320E+00  0.11802385602E+01  0.00000000000E+00 0. -1.
         11    1    3    3    0    0 -0.29792366181E+02  0.22585077535E+02  0.19962427645E+01  0.37438693826E+02  0.51100000000E-03 0. -1.
        -11    1    3    3    0    0 -0.63788962256E+01 -0.17280774903E+01  0.63690519513E+01  0.91783109497E+01  0.51100000000E-03 0.  1.
        -12    1    3    3    0    0  0.36833374316E+02 -0.21595656233E+02 -0.77257965426E+01  0.43390756664E+02  0.00000000000E+00 0.  1.
</event>
<event>
 7    1  0.2000468E-015  0.9000776E+02  0.7816164E-02  0.1186339E+00
        -11   -1    0    0    0    0  0.00000000000E+00  0.00000000000E+00  0.45593999997E+02  0.45594000000E+02  0.51100000000E-03 0.  1.
         11   -1    0    0    0    0 -0.00000000000E+00 -0.00000000000E+00 -0.45593999997E+02  0.45594000000E+02  0.51100000000E-03 0. -1.
    9900012    2    1    2    0    0  0.76977489409E+00  0.50321147957E+00 -0.73972473395E+00  0.90007759405E+02  0.90000021029E+02 0.  0.
         12    1    1    2    0    0 -0.76977489409E+00 -0.50321147957E+00  0.73972473395E+00  0.11802405953E+01  0.00000000000E+00 0. -1.
         11    1    3    3    0    0 -0.90052933260E+01 -0.13335865534E+02 -0.34686753172E+02  0.38237566127E+02  0.51100000000E-03 0. -1.
        -11    1    3    3    0    0  0.63094541605E+01 -0.20435910897E+01 -0.58105561546E+01  0.88174848699E+01  0.51100000000E-03 0.  1.
        -12    1    3    3    0    0  0.34656140597E+01  0.15882668103E+02  0.39757584593E+02  0.42952708408E+02  0.00000000000E+00 0.  1.
</event>
<event>
 7    1  0.2876325E-015  0.9000772E+02  0.7816164E-02  0.1186339E+00
        -11   -1    0    0    0    0  0.00000000000E+00  0.00000000000E+00  0.45593999997E+02  0.45594000000E+02  0.51100000000E-03 0. -1.
         11   -1    0    0    0    0 -0.00000000000E+00 -0.00000000000E+00 -0.45593999997E+02  0.45594000000E+02  0.51100000000E-03 0.  1.
    9900012    2    1    2    0    0  0.85081851115E+00  0.14025522939E-01 -0.81790939696E+00  0.90007718408E+02  0.89999979491E+02 0.  0.
         12    1    1    2    0    0 -0.85081851115E+00 -0.14025522939E-01  0.81790939696E+00  0.11802815918E+01  0.00000000000E+00 0. -1.
         11    1    3    3    0    0  0.98671709960E+01 -0.33177056212E+02  0.10028475966E+02  0.36036765294E+02  0.51100000000E-03 0. -1.
        -11    1    3    3    0    0  0.77481058417E+01 -0.60613606286E+01  0.35259144096E+00  0.98436557127E+01  0.51100000000E-03 0.  1.
        -12    1    3    3    0    0 -0.16764458327E+02  0.39252442364E+02 -0.11198976804E+02  0.44127297402E+02  0.00000000000E+00 0.  1.
</event>
<event>
 7    1  0.2000468E-015  0.9000779E+02  0.7816164E-02  0.1186339E+00
        -11   -1    0    0    0    0  0.00000000000E+00  0.00000000000E+00  0.45593999997E+02  0.45594000000E+02  0.51100000000E-03 0. -1.
         11   -1    0    0    0    0 -0.00000000000E+00 -0.00000000000E+00 -0.45593999997E+02  0.45594000000E+02  0.51100000000E-03 0.  1.
    9900012    2    1    2    0    0  0.51927147287E+00 -0.46274615736E+00 -0.95348013653E+00  0.90007787630E+02  0.90000049626E+02 0.  0.
         12    1    1    2    0    0 -0.51927147287E+00  0.46274615736E+00  0.95348013653E+00  0.11802123705E+01  0.00000000000E+00 0. -1.
         11    1    3    3    0    0 -0.27251303381E+02  0.17155576550E+02 -0.13805546126E+02  0.35036273301E+02  0.51100000000E-03 0. -1.
        -11    1    3    3    0    0 -0.35057204192E+01 -0.78572204876E+01 -0.11346714915E+02  0.14239871104E+02  0.51100000000E-03 0.  1.
        -12    1    3    3    0    0  0.31276295273E+02 -0.97611022196E+01  0.24198780904E+02  0.40731643225E+02  0.00000000000E+00 0.  1.
</event>
<event>
 7    1  0.2000468E-015  0.9000778E+02  0.7816164E-02  0.1186339E+00
        -11   -1    0    0    0    0  0.00000000000E+00  0.00000000000E+00  0.45593999997E+02  0.45594000000E+02  0.51100000000E-03 0.  1.
         11   -1    0    0    0    0 -0.00000000000E+00 -0.00000000000E+00 -0.45593999997E+02  0.45594000000E+02  0.51100000000E-03 0. -1.
    9900012    2    1    2    0    0  0.40567178359E+00 -0.11075306942E+01 -0.41670075934E-01  0.90007775348E+02  0.90000037182E+02 0.  0.
         12    1    1    2    0    0 -0.40567178359E+00  0.11075306942E+01  0.41670075934E-01  0.11802246523E+01  0.00000000000E+00 0. -1.
         11    1    3    3    0    0  0.68145173289E+01 -0.14612440349E+01  0.40093681170E+01  0.80403926219E+01  0.51100000000E-03 0. -1.
        -11    1    3    3    0    0 -0.93360957038E+01  0.14629229280E+02  0.35664493452E+02  0.39662742287E+02  0.51100000000E-03 0.  1.
         12    1    3    3    0    0  0.29272501585E+01 -0.14275515939E+02 -0.39715531645E+02  0.42304640439E+02  0.00000000000E+00 0. -1.
</event>
<event>
 7    1  0.2000468E-015  0.9000856E+02  0.7816164E-02  0.1186337E+00
        -11   -1    0    0    0    0  0.00000000000E+00  0.00000000000E+00  0.45593999997E+02  0.45594000000E+02  0.51100000000E-03 0. -1.
         11   -1    0    0    0    0 -0.00000000000E+00 -0.00000000000E+00 -0.45593999997E+02  0.45594000000E+02  0.51100000000E-03 0.  1.
    9900012    2    1    2    0    0 -0.65338134280E+00 -0.97421057017E+00 -0.12281976246E+00  0.90008560257E+02  0.90000832448E+02 0.  0.
         12    1    1    2    0    0  0.65338134280E+00  0.97421057017E+00  0.12281976246E+00  0.11794397434E+01  0.00000000000E+00 0. -1.
         11    1    3    3    0    0  0.21967303273E+02  0.30910117326E+02 -0.82916207156E+01  0.38816861550E+02  0.51100000000E-03 0. -1.
        -11    1    3    3    0    0 -0.13640933115E+01  0.92274657893E+00 -0.85266449393E+01  0.86842320324E+01  0.51100000000E-03 0.  1.
        -12    1    3    3    0    0 -0.21256591305E+02 -0.32807074475E+02  0.16695445892E+02  0.42507466674E+02  0.00000000000E+00 0.  1.
</event>
<event>
 7    1  0.2000468E-015  0.9000772E+02  0.7816164E-02  0.1186339E+00
        -11   -1    0    0    0    0  0.00000000000E+00  0.00000000000E+00  0.45593999997E+02  0.45594000000E+02  0.51100000000E-03 0. -1.
         11   -1    0    0    0    0 -0.00000000000E+00 -0.00000000000E+00 -0.45593999997E+02  0.45594000000E+02  0.51100000000E-03 0.  1.
    9900012    2    1    2    0    0  0.10713724255E+01 -0.49423738091E+00 -0.31017072668E-01  0.90007715491E+02  0.89999976536E+02 0.  0.
         12    1    1    2    0    0 -0.10713724255E+01  0.49423738091E+00  0.31017072668E-01  0.11802845088E+01  0.00000000000E+00 0. -1.
         11    1    3    3    0    0  0.65909753370E+01  0.10087089981E+02  0.45171626162E+00  0.12057959530E+02  0.51100000000E-03 0. -1.
        -11    1    3    3    0    0 -0.40480198714E+02  0.12670009707E+01  0.42990938757E+01  0.40727558087E+02  0.51100000000E-03 0.  1.
         12    1    3    3    0    0  0.34960595802E+02 -0.11848328333E+02 -0.47818272100E+01  0.37222197874E+02  0.00000000000E+00 0. -1.
</event>
<event>
 7    1  0.2000468E-015  0.9000770E+02  0.7816164E-02  0.1186339E+00
        -11   -1    0    0    0    0  0.00000000000E+00  0.00000000000E+00  0.45593999997E+02  0.45594000000E+02  0.51100000000E-03 0.  1.
         11   -1    0    0    0    0 -0.00000000000E+00 -0.00000000000E+00 -0.45593999997E+02  0.45594000000E+02  0.51100000000E-03 0. -1.
    9900012    2    1    2    0    0  0.69978439646E+00  0.53563221380E+00  0.78517309666E+00  0.90007704757E+02  0.89999965659E+02 0.  0.
         12    1    1    2    0    0 -0.69978439646E+00 -0.53563221380E+00 -0.78517309666E+00  0.11802952435E+01  0.00000000000E+00 0. -1.
         11    1    3    3    0    0  0.89596143396E+01  0.40253346834E+01  0.46186678597E+01  0.10854036184E+02  0.51100000000E-03 0. -1.
        -11    1    3    3    0    0  0.88983347699E+01  0.33346740350E+02  0.10480650781E+02  0.36069786452E+02  0.51100000000E-03 0.  1.
         12    1    3    3    0    0 -0.17158164713E+02 -0.36836442819E+02 -0.14314145544E+02  0.43083882120E+02  0.00000000000E+00 0. -1.
</event>
<event>
 7    1  0.2000468E-015  0.9000773E+02  0.7816164E-02  0.1186339E+00
        -11   -1    0    0    0    0  0.00000000000E+00  0.00000000000E+00  0.45593999997E+02  0.45594000000E+02  0.51100000000E-03 0.  1.
         11   -1    0    0    0    0 -0.00000000000E+00 -0.00000000000E+00 -0.45593999997E+02  0.45594000000E+02  0.51100000000E-03 0. -1.
    9900012    2    1    2    0    0 -0.96008768979E+00 -0.60097149987E+00  0.33182542216E+00  0.90007727478E+02  0.89999988681E+02 0.  0.
         12    1    1    2    0    0  0.96008768979E+00  0.60097149987E+00 -0.33182542216E+00  0.11802725221E+01  0.00000000000E+00 0. -1.
         11    1    3    3    0    0  0.26726759259E+02  0.18753437545E+02 -0.79621781800E+01  0.33606656511E+02  0.51100000000E-03 0. -1.
        -11    1    3    3    0    0  0.49605474852E+01  0.99615342059E+01 -0.20615643908E+01  0.11317651836E+02  0.51100000000E-03 0.  1.
        -12    1    3    3    0    0 -0.32647394434E+02 -0.29315943251E+02  0.10355567993E+02  0.45083419130E+02  0.00000000000E+00 0.  1.
</event>
<event>
 7    1  0.2000468E-015  0.9000776E+02  0.7816164E-02  0.1186339E+00
        -11   -1    0    0    0    0  0.00000000000E+00  0.00000000000E+00  0.45593999997E+02  0.45594000000E+02  0.51100000000E-03 0. -1.
         11   -1    0    0    0    0 -0.00000000000E+00 -0.00000000000E+00 -0.45593999997E+02  0.45594000000E+02  0.51100000000E-03 0.  1.
    9900012    2    1    2    0    0  0.92090218050E+00 -0.46023418891E+00 -0.57714943370E+00  0.90007755193E+02  0.90000016762E+02 0.  0.
         12    1    1    2    0    0 -0.92090218050E+00  0.46023418891E+00  0.57714943370E+00  0.11802448066E+01  0.00000000000E+00 0. -1.
         11    1    3    3    0    0  0.12927968953E+02 -0.26470254426E+02  0.15333373260E+02  0.33210225631E+02  0.51100000000E-03 0. -1.
        -11    1    3    3    0    0  0.83941223438E+01 -0.69478789154E+01  0.58274106515E+01  0.12356901979E+02  0.51100000000E-03 0.  1.
        -12    1    3    3    0    0 -0.20401189116E+02  0.32957899153E+02 -0.21737933346E+02  0.44440627584E+02  0.00000000000E+00 0.  1.
</event>
<event>
 7    1  0.2000468E-015  0.9000774E+02  0.7816164E-02  0.1186339E+00
        -11   -1    0    0    0    0  0.00000000000E+00  0.00000000000E+00  0.45593999997E+02  0.45594000000E+02  0.51100000000E-03 0.  1.
         11   -1    0    0    0    0 -0.00000000000E+00 -0.00000000000E+00 -0.45593999997E+02  0.45594000000E+02  0.51100000000E-03 0. -1.
    9900012    2    1    2    0    0  0.44183696737E+00 -0.10791643980E+01  0.18219395561E+00  0.90007741409E+02  0.90000002796E+02 0.  0.
         12    1    1    2    0    0 -0.44183696737E+00  0.10791643980E+01 -0.18219395561E+00  0.11802585907E+01  0.00000000000E+00 0. -1.
         11    1    3    3    0    0  0.11989178305E+02 -0.13697682452E+02 -0.28974235155E+02  0.34218024550E+02  0.51100000000E-03 0. -1.
        -11    1    3    3    0    0  0.83253955313E+00 -0.14740841873E+01 -0.11178704772E+02  0.11306170304E+02  0.51100000000E-03 0.  1.
        -12    1    3    3    0    0 -0.12379880891E+02  0.14092602242E+02  0.40335133883E+02  0.44483546556E+02  0.00000000000E+00 0.  1.
</event>
<event>
 7    1  0.2000468E-015  0.9000784E+02  0.7816164E-02  0.1186339E+00
        -11   -1    0    0    0    0  0.00000000000E+00  0.00000000000E+00  0.45593999997E+02  0.45594000000E+02  0.51100000000E-03 0. -1.
         11   -1    0    0    0    0 -0.00000000000E+00 -0.00000000000E+00 -0.45593999997E+02  0.45594000000E+02  0.51100000000E-03 0.  1.
    9900012    2    1    2    0    0 -0.99572179872E+00  0.61344478412E+00 -0.15811372751E+00  0.90007840539E+02  0.90000103234E+02 0.  0.
         12    1    1    2    0    0  0.99572179872E+00 -0.61344478412E+00  0.15811372751E+00  0.11801594614E+01  0.00000000000E+00 0. -1.
         11    1    3    3    0    0 -0.96269679720E+01 -0.95706361677E-01 -0.28116994020E+00  0.96315486210E+01  0.51100000000E-03 0. -1.
        -11    1    3    3    0    0 -0.17747001738E+02  0.78633678445E+01 -0.32476559176E+02  0.37835373934E+02  0.51100000000E-03 0.  1.
         12    1    3    3    0    0  0.26378247911E+02 -0.71542166987E+01  0.32599615389E+02  0.42540917984E+02  0.00000000000E+00 0. -1.
</event>
<event>
 7    1  0.2000468E-015  0.9000769E+02  0.7816164E-02  0.1186339E+00
        -11   -1    0    0    0    0  0.00000000000E+00  0.00000000000E+00  0.45593999997E+02  0.45594000000E+02  0.51100000000E-03 0.  1.
         11   -1    0    0    0    0 -0.00000000000E+00 -0.00000000000E+00 -0.45593999997E+02  0.45594000000E+02  0.51100000000E-03 0. -1.
    9900012    2    1    2    0    0 -0.78391171647E+00 -0.56678203370E+00  0.67629597277E+00  0.90007688306E+02  0.89999948991E+02 0.  0.
         12    1    1    2    0    0  0.78391171647E+00  0.56678203370E+00 -0.67629597277E+00  0.11803116943E+01  0.00000000000E+00 0. -1.
         11    1    3    3    0    0  0.13406855236E+02 -0.11517056417E+01 -0.20298682055E+02  0.24353781773E+02  0.51100000000E-03 0. -1.
        -11    1    3    3    0    0  0.86445339684E+01  0.48808610779E+01 -0.17839695398E+02  0.20415815060E+02  0.51100000000E-03 0.  1.
        -12    1    3    3    0    0 -0.22835300921E+02 -0.42959374699E+01  0.38814673426E+02  0.45238091473E+02  0.00000000000E+00 0.  1.
</event>
<event>
 7    1  0.2000468E-015  0.9000728E+02  0.7816164E-02  0.1186340E+00
        -11   -1    0    0    0    0  0.00000000000E+00  0.00000000000E+00  0.45593999997E+02  0.45594000000E+02  0.51100000000E-03 0.  1.
         11   -1    0    0    0    0 -0.00000000000E+00 -0.00000000000E+00 -0.45593999997E+02  0.45594000000E+02  0.51100000000E-03 0. -1.
    9900012    2    1    2    0    0 -0.15943250053E+00  0.23046788708E-01  0.11696761775E+01  0.90007283168E+02  0.89999538505E+02 0.  0.
         12    1    1    2    0    0  0.15943250053E+00 -0.23046788708E-01 -0.11696761775E+01  0.11807168318E+01  0.00000000000E+00 0. -1.
         11    1    3    3    0    0 -0.67862017822E+01 -0.40534560416E+01  0.52389902797E+01  0.94831460983E+01  0.51100000000E-03 0. -1.
        -11    1    3    3    0    0  0.28559252659E+02 -0.34062037831E+01  0.28540355435E+02  0.40518946498E+02  0.51100000000E-03 0.  1.
         12    1    3    3    0    0 -0.21932483378E+02  0.74827066133E+01 -0.32609669537E+02  0.40005190572E+02  0.00000000000E+00 0. -1.
</event>
<event>
 7    1  0.2000468E-015  0.9000770E+02  0.7816164E-02  0.1186339E+00
        -11   -1    0    0    0    0  0.00000000000E+00  0.00000000000E+00  0.45593999997E+02  0.45594000000E+02  0.51100000000E-03 0. -1.
         11   -1    0    0    0    0 -0.00000000000E+00 -0.00000000000E+00 -0.45593999997E+02  0.45594000000E+02  0.51100000000E-03 0.  1.
    9900012    2    1    2    0    0  0.11036445008E+01 -0.12232898437E+00 -0.40012881724E+00  0.90007704005E+02  0.89999964898E+02 0.  0.
         12    1    1    2    0    0 -0.11036445008E+01  0.12232898437E+00  0.40012881724E+00  0.11802959946E+01  0.00000000000E+00 0. -1.
         11    1    3    3    0    0 -0.91811878859E+01 -0.26551578247E+02  0.27081955481E+02  0.39021953197E+02  0.51100000000E-03 0. -1.
        -11    1    3    3    0    0  0.48585220650E+01  0.48179137269E+01  0.70912678963E+01  0.98541163974E+01  0.51100000000E-03 0.  1.
        -12    1    3    3    0    0  0.54263103217E+01  0.21611335536E+02 -0.34573352194E+02  0.41131634411E+02  0.00000000000E+00 0.  1.
</event>
<event>
 7    1  0.2000468E-015  0.9000775E+02  0.7816164E-02  0.1186339E+00
        -11   -1    0    0    0    0  0.00000000000E+00  0.00000000000E+00  0.45593999997E+02  0.45594000000E+02  0.51100000000E-03 0.  1.
         11   -1    0    0    0    0 -0.00000000000E+00 -0.00000000000E+00 -0.45593999997E+02  0.45594000000E+02  0.51100000000E-03 0. -1.
    9900012    2    1    2    0    0  0.61565101436E+00  0.10053596443E+01 -0.56734490689E-01  0.90007748761E+02  0.90000010244E+02 0.  0.
         12    1    1    2    0    0 -0.61565101436E+00 -0.10053596443E+01  0.56734490689E-01  0.11802512394E+01  0.00000000000E+00 0. -1.
         11    1    3    3    0    0 -0.95506726234E+00  0.99207845685E+01  0.24187231045E+01  0.10255941773E+02  0.51100000000E-03 0. -1.
        -11    1    3    3    0    0  0.33353138928E+02 -0.83297829827E+01  0.20956032466E+02  0.40261302238E+02  0.51100000000E-03 0.  1.
         12    1    3    3    0    0 -0.31782420652E+02 -0.58564194156E+00 -0.23431490061E+02  0.39490504750E+02  0.00000000000E+00 0. -1.
</event>
<event>
 7    1  0.2000468E-015  0.9000774E+02  0.7816164E-02  0.1186339E+00
        -11   -1    0    0    0    0  0.00000000000E+00  0.00000000000E+00  0.45593999997E+02  0.45594000000E+02  0.51100000000E-03 0. -1.
         11   -1    0    0    0    0 -0.00000000000E+00 -0.00000000000E+00 -0.45593999997E+02  0.45594000000E+02  0.51100000000E-03 0.  1.
    9900012    2    1    2    0    0  0.71186414137E+00 -0.91903800247E+00  0.20405227817E+00  0.90007737852E+02  0.89999999192E+02 0.  0.
         12    1    1    2    0    0 -0.71186414137E+00  0.91903800247E+00 -0.20405227817E+00  0.11802621480E+01  0.00000000000E+00 0. -1.
         11    1    3    3    0    0 -0.22227274956E+01  0.20816085716E+02  0.30427256928E+02  0.36933289949E+02  0.51100000000E-03 0. -1.
        -11    1    3    3    0    0 -0.46728352623E+01 -0.71474372300E+01  0.78495878738E+01  0.11599020579E+02  0.51100000000E-03 0.  1.
        -12    1    3    3    0    0  0.76074268992E+01 -0.14587686488E+02 -0.38072792524E+02  0.41475427324E+02  0.00000000000E+00 0.  1.
</event>
<event>
 7    1  0.2000468E-015  0.9000766E+02  0.7816164E-02  0.1186339E+00
        -11   -1    0    0    0    0  0.00000000000E+00  0.00000000000E+00  0.45593999997E+02  0.45594000000E+02  0.51100000000E-03 0.  1.
         11   -1    0    0    0    0 -0.00000000000E+00 -0.00000000000E+00 -0.45593999997E+02  0.45594000000E+02  0.51100000000E-03 0. -1.
    9900012    2    1    2    0    0  0.30735512039E+00  0.54080339583E+00  0.10031247292E+01  0.90007663308E+02  0.89999923664E+02 0.  0.
         12    1    1    2    0    0 -0.30735512039E+00 -0.54080339583E+00 -0.10031247292E+01  0.11803366915E+01  0.00000000000E+00 0. -1.
         11    1    3    3    0    0  0.24586328165E+02  0.26533292359E+02 -0.90800569305E+01  0.37295449724E+02  0.51100000000E-03 0. -1.
        -11    1    3    3    0    0 -0.21197546968E+00  0.70733331610E+01 -0.54838464861E+01  0.89526280024E+01  0.51100000000E-03 0.  1.
        -12    1    3    3    0    0 -0.24066997575E+02 -0.33065822124E+02  0.15567028146E+02  0.43759585582E+02  0.00000000000E+00 0.  1.
</event>
<event>
 7    1  0.2000468E-015  0.9000775E+02  0.7816164E-02  0.1186339E+00
        -11   -1    0    0    0    0  0.00000000000E+00  0.00000000000E+00  0.45593999997E+02  0.45594000000E+02  0.51100000000E-03 0. -1.
         11   -1    0    0    0    0 -0.00000000000E+00 -0.00000000000E+00 -0.45593999997E+02  0.45594000000E+02  0.51100000000E-03 0.  1.
    9900012    2    1    2    0    0  0.56311859561E+00  0.10091871158E+01 -0.23965269362E+00  0.90007748077E+02  0.90000009552E+02 0.  0.
         12    1    1    2    0    0 -0.56311859561E+00 -0.10091871158E+01  0.23965269362E+00  0.11802519227E+01  0.00000000000E+00 0. -1.
         11    1    3    3    0    0 -0.48975896192E+00 -0.69726722689E+01  0.90608933453E+01  0.11443679954E+02  0.51100000000E-03 0. -1.
        -11    1    3    3    0    0  0.12456186230E+02 -0.24254574918E+02  0.19772927084E+02  0.33680997989E+02  0.51100000000E-03 0.  1.
         12    1    3    3    0    0 -0.11403308672E+02  0.32236434303E+02 -0.29073473123E+02  0.44883070134E+02  0.00000000000E+00 0. -1.
</event>
<event>
 7    1  0.2000468E-015  0.9000771E+02  0.7816164E-02  0.1186339E+00
        -11   -1    0    0    0    0  0.00000000000E+00  0.00000000000E+00  0.45593999997E+02  0.45594000000E+02  0.51100000000E-03 0.  1.
         11   -1    0    0    0    0 -0.00000000000E+00 -0.00000000000E+00 -0.45593999997E+02  0.45594000000E+02  0.51100000000E-03 0. -1.
    9900012    2    1    2    0    0  0.34701548639E-01  0.29166562454E+00  0.11431557863E+01  0.90007712668E+02  0.89999973675E+02 0.  0.
         12    1    1    2    0    0 -0.34701548639E-01 -0.29166562454E+00 -0.11431557863E+01  0.11802873319E+01  0.00000000000E+00 0. -1.
         11    1    3    3    0    0 -0.40589009405E+02  0.10633090849E+02 -0.33657936338E+01  0.42093454034E+02  0.51100000000E-03 0. -1.
        -11    1    3    3    0    0  0.41636972031E+01 -0.71026279498E+01 -0.55798424474E+01  0.99457699647E+01  0.51100000000E-03 0.  1.
        -12    1    3    3    0    0  0.36460013750E+02 -0.32387972749E+01  0.10088791868E+02  0.37968488669E+02  0.00000000000E+00 0.  1.
</event>
<event>
 7    1  0.2000468E-015  0.9000798E+02  0.7816164E-02  0.1186339E+00
        -11   -1    0    0    0    0  0.00000000000E+00  0.00000000000E+00  0.45593999997E+02  0.45594000000E+02  0.51100000000E-03 0.  1.
         11   -1    0    0    0    0 -0.00000000000E+00 -0.00000000000E+00 -0.45593999997E+02  0.45594000000E+02  0.51100000000E-03 0. -1.
    9900012    2    1    2    0    0  0.80556773735E+00 -0.83093151607E+00  0.23035363005E+00  0.90007979085E+02  0.90000243609E+02 0.  0.
         12    1    1    2    0    0 -0.80556773735E+00  0.83093151607E+00 -0.23035363005E+00  0.11800209145E+01  0.00000000000E+00 0. -1.
         11    1    3    3    0    0 -0.64735294953E+01  0.14491504561E+01 -0.69347046033E+01  0.95967051308E+01  0.51100000000E-03 0. -1.
        -11    1    3    3    0    0 -0.26210098833E+02 -0.37494962123E+01  0.29876698140E+02  0.39920484650E+02  0.51100000000E-03 0.  1.
         12    1    3    3    0    0  0.33489196065E+02  0.14694142401E+01 -0.22711639906E+02  0.40490789305E+02  0.00000000000E+00 0. -1.
</event>
<event>
 7    1  0.2000468E-015  0.9000719E+02  0.7816164E-02  0.1186340E+00
        -11   -1    0    0    0    0  0.00000000000E+00  0.00000000000E+00  0.45593999997E+02  0.45594000000E+02  0.51100000000E-03 0.  1.
         11   -1    0    0    0    0 -0.00000000000E+00 -0.00000000000E+00 -0.45593999997E+02  0.45594000000E+02  0.51100000000E-03 0. -1.
    9900012    2    1    2    0    0 -0.61128242861E+00  0.10031640505E+01  0.11964397038E+00  0.90007187145E+02  0.89999441213E+02 0.  0.
         12    1    1    2    0    0  0.61128242861E+00 -0.10031640505E+01 -0.11964397038E+00  0.11808128554E+01  0.00000000000E+00 0. -1.
         11    1    3    3    0    0  0.13816256649E+01 -0.61643156080E+01 -0.24589220445E+01  0.67789360725E+01  0.51100000000E-03 0. -1.
        -11    1    3    3    0    0  0.21566109866E+00  0.18277941500E+02  0.40080949368E+02  0.44052379705E+02  0.51100000000E-03 0.  1.
         12    1    3    3    0    0 -0.22085691921E+01 -0.11110461842E+02 -0.37502383353E+02  0.39175871367E+02  0.00000000000E+00 0. -1.
</event>
<event>
 7    1  0.2000468E-015  0.9000779E+02  0.7816164E-02  0.1186339E+00
        -11   -1    0    0    0    0  0.00000000000E+00  0.00000000000E+00  0.45593999997E+02  0.45594000000E+02  0.51100000000E-03 0. -1.
         11   -1    0    0    0    0 -0.00000000000E+00 -0.00000000000E+00 -0.45593999997E+02  0.45594000000E+02  0.51100000000E-03 0.  1.
    9900012    2    1    2    0    0  0.95324028835E+00  0.34583151461E+00 -0.60383729500E+00  0.90007794102E+02  0.90000056184E+02 0.  0.
         12    1    1    2    0    0 -0.95324028835E+00 -0.34583151461E+00  0.60383729500E+00  0.11802058984E+01  0.00000000000E+00 0. -1.
         11    1    3    3    0    0 -0.69664273363E+01  0.10585763895E+00  0.78507424478E+01  0.10496498126E+02  0.51100000000E-03 0. -1.
        -11    1    3    3    0    0 -0.31972760616E+02 -0.16208644807E+02 -0.22511838005E+01  0.35917202239E+02  0.51100000000E-03 0.  1.
         12    1    3    3    0    0  0.39892428241E+02  0.16448618682E+02 -0.62033959423E+01  0.43594093737E+02  0.00000000000E+00 0. -1.
</event>
<event>
 7    1  0.2000468E-015  0.9000763E+02  0.7816164E-02  0.1186339E+00
        -11   -1    0    0    0    0  0.00000000000E+00  0.00000000000E+00  0.45593999997E+02  0.45594000000E+02  0.51100000000E-03 0. -1.
         11   -1    0    0    0    0 -0.00000000000E+00 -0.00000000000E+00 -0.45593999997E+02  0.45594000000E+02  0.51100000000E-03 0.  1.
    9900012    2    1    2    0    0 -0.85601396181E+00 -0.42398484617E+00 -0.69335819625E+00  0.90007631989E+02  0.89999891931E+02 0.  0.
         12    1    1    2    0    0  0.85601396181E+00  0.42398484617E+00  0.69335819625E+00  0.11803680108E+01  0.00000000000E+00 0. -1.
         11    1    3    3    0    0 -0.52905403224E+01 -0.91575658738E+01  0.87280514546E+01  0.13712392647E+02  0.51100000000E-03 0. -1.
        -11    1    3    3    0    0 -0.17515345342E+02  0.36162591889E+02 -0.89295724008E+01  0.41161360985E+02  0.51100000000E-03 0.  1.
         12    1    3    3    0    0  0.21949871703E+02 -0.27429010861E+02 -0.49183725005E+00  0.35133878358E+02  0.00000000000E+00 0. -1.
</event>
<event>
 7    1  0.2000468E-015  0.9000771E+02  0.7816164E-02  0.1186339E+00
        -11   -1    0    0    0    0  0.00000000000E+00  0.00000000000E+00  0.45593999997E+02  0.45594000000E+02  0.51100000000E-03 0. -1.
         11   -1    0    0    0    0 -0.00000000000E+00 -0.00000000000E+00 -0.45593999997E+02  0.45594000000E+02  0.51100000000E-03 0.  1.
    9900012    2    1    2    0    0 -0.11019302415E+01 -0.36290206903E+00 -0.21712774730E+00  0.90007706550E+02  0.89999967477E+02 0.  0.
         12    1    1    2    0    0  0.11019302415E+01  0.36290206903E+00  0.21712774730E+00  0.11802934497E+01  0.00000000000E+00 0. -1.
         11    1    3    3    0    0  0.14012738426E+00  0.30187389985E+01 -0.89668509722E+01  0.94623906834E+01  0.51100000000E-03 0. -1.
        -11    1    3    3    0    0  0.15995417362E+02  0.34697060157E+02  0.25757270971E+01  0.38293259596E+02  0.51100000000E-03 0.  1.
         12    1    3    3    0    0 -0.17237474988E+02 -0.38078701225E+02  0.61739961279E+01  0.42252056271E+02  0.00000000000E+00 0. -1.
</event>
<event>
 7    1  0.2000468E-015  0.9000774E+02  0.7816164E-02  0.1186339E+00
        -11   -1    0    0    0    0  0.00000000000E+00  0.00000000000E+00  0.45593999997E+02  0.45594000000E+02  0.51100000000E-03 0.  1.
         11   -1    0    0    0    0 -0.00000000000E+00 -0.00000000000E+00 -0.45593999997E+02  0.45594000000E+02  0.51100000000E-03 0. -1.
    9900012    2    1    2    0    0  0.40669734347E-01  0.49465296215E+00  0.10708278836E+01  0.90007742428E+02  0.90000003828E+02 0.  0.
         12    1    1    2    0    0 -0.40669734347E-01 -0.49465296215E+00 -0.10708278836E+01  0.11802575721E+01  0.00000000000E+00 0. -1.
         11    1    3    3    0    0 -0.53408424872E+01 -0.66702807424E+00 -0.35101134258E+02  0.35511394669E+02  0.51100000000E-03 0. -1.
        -11    1    3    3    0    0 -0.75070241361E+01 -0.80110966774E+01 -0.37122753375E+01  0.11589394712E+02  0.51100000000E-03 0.  1.
        -12    1    3    3    0    0  0.12888536358E+02  0.91727777137E+01  0.39884237479E+02  0.42906953046E+02  0.00000000000E+00 0.  1.
</event>
<event>
 7    1  0.2629879E-015  0.9000769E+02  0.7816164E-02  0.1186339E+00
        -11   -1    0    0    0    0  0.00000000000E+00  0.00000000000E+00  0.45593999997E+02  0.45594000000E+02  0.51100000000E-03 0. -1.
         11   -1    0    0    0    0 -0.00000000000E+00 -0.00000000000E+00 -0.45593999997E+02  0.45594000000E+02  0.51100000000E-03 0.  1.
    9900012    2    1    2    0    0  0.58628140331E+00 -0.44253446911E+00 -0.92388547430E+00  0.90007691985E+02  0.89999952719E+02 0.  0.
         12    1    1    2    0    0 -0.58628140331E+00  0.44253446911E+00  0.92388547430E+00  0.11803080148E+01  0.00000000000E+00 0. -1.
         11    1    3    3    0    0 -0.13093278892E+02 -0.18118267507E+02  0.28771343723E+02  0.36434815623E+02  0.51100000000E-03 0. -1.
        -11    1    3    3    0    0 -0.26902704267E+01 -0.95649751697E+01  0.20388772862E+00  0.99382028271E+01  0.51100000000E-03 0.  1.
        -12    1    3    3    0    0  0.16369830723E+02  0.27240708208E+02 -0.29899116926E+02  0.43634673535E+02  0.00000000000E+00 0.  1.
</event>
<event>
 7    1  0.2000468E-015  0.9000766E+02  0.7816164E-02  0.1186339E+00
        -11   -1    0    0    0    0  0.00000000000E+00  0.00000000000E+00  0.45593999997E+02  0.45594000000E+02  0.51100000000E-03 0. -1.
         11   -1    0    0    0    0 -0.00000000000E+00 -0.00000000000E+00 -0.45593999997E+02  0.45594000000E+02  0.51100000000E-03 0.  1.
    9900012    2    1    2    0    0  0.10942506396E+01 -0.34463424948E+00 -0.27757279280E+00  0.90007659421E+02  0.89999919725E+02 0.  0.
         12    1    1    2    0    0 -0.10942506396E+01  0.34463424948E+00  0.27757279280E+00  0.11803405794E+01  0.00000000000E+00 0. -1.
         11    1    3    3    0    0  0.76366174279E+01  0.91394515026E+01  0.59352651846E+01  0.13306948282E+02  0.51100000000E-03 0. -1.
        -11    1    3    3    0    0  0.23688755892E+02  0.10003378036E+02 -0.25221631277E+02  0.36018820252E+02  0.51100000000E-03 0.  1.
         12    1    3    3    0    0 -0.30231122680E+02 -0.19487463788E+02  0.19008793299E+02  0.40681890886E+02  0.00000000000E+00 0. -1.
</event>
<event>
 7    1  0.2000468E-015  0.9000768E+02  0.7816164E-02  0.1186339E+00
        -11   -1    0    0    0    0  0.00000000000E+00  0.00000000000E+00  0.45593999997E+02  0.45594000000E+02  0.51100000000E-03 0.  1.
         11   -1    0    0    0    0 -0.00000000000E+00 -0.00000000000E+00 -0.45593999997E+02  0.45594000000E+02  0.51100000000E-03 0. -1.
    9900012    2    1    2    0    0 -0.36862415615E+00 -0.92514311229E+00  0.63354489492E+00  0.90007681111E+02  0.89999941701E+02 0.  0.
         12    1    1    2    0    0  0.36862415615E+00  0.92514311229E+00 -0.63354489492E+00  0.11803188894E+01  0.00000000000E+00 0. -1.
         11    1    3    3    0    0 -0.21196756055E+02 -0.94226190639E+01 -0.27681198850E+02  0.36115605870E+02  0.51100000000E-03 0. -1.
        -11    1    3    3    0    0 -0.51826727140E+01 -0.34301288390E+01 -0.63883975211E+01  0.89127719292E+01  0.51100000000E-03 0.  1.
        -12    1    3    3    0    0  0.26010804613E+02  0.11927604791E+02  0.34703141266E+02  0.44979303312E+02  0.00000000000E+00 0.  1.
</event>
<event>
 7    1  0.2051105E-015  0.9000771E+02  0.7816164E-02  0.1186339E+00
        -11   -1    0    0    0    0  0.00000000000E+00  0.00000000000E+00  0.45593999997E+02  0.45594000000E+02  0.51100000000E-03 0.  1.
         11   -1    0    0    0    0 -0.00000000000E+00 -0.00000000000E+00 -0.45593999997E+02  0.45594000000E+02  0.51100000000E-03 0. -1.
    9900012    2    1    2    0    0  0.44997031057E+00 -0.75443409060E+00  0.78831881966E+00  0.90007707393E+02  0.89999968330E+02 0.  0.
         12    1    1    2    0    0 -0.44997031057E+00  0.75443409060E+00 -0.78831881966E+00  0.11802926073E+01  0.00000000000E+00 0. -1.
         11    1    3    3    0    0  0.23586997118E+02 -0.20438524978E+02 -0.23181950244E+02  0.38877789979E+02  0.51100000000E-03 0. -1.
        -11    1    3    3    0    0 -0.63067428609E+01 -0.20114340221E+01 -0.70716363221E+01  0.96865325516E+01  0.51100000000E-03 0.  1.
        -12    1    3    3    0    0 -0.16830283946E+02  0.21695524909E+02  0.31041905386E+02  0.41443384862E+02  0.00000000000E+00 0.  1.
</event>
<event>
 7    1  0.2000468E-015  0.9000748E+02  0.7816164E-02  0.1186340E+00
        -11   -1    0    0    0    0  0.00000000000E+00  0.00000000000E+00  0.45593999997E+02  0.45594000000E+02  0.51100000000E-03 0. -1.
         11   -1    0    0    0    0 -0.00000000000E+00 -0.00000000000E+00 -0.45593999997E+02  0.45594000000E+02  0.51100000000E-03 0.  1.
    9900012    2    1    2    0    0 -0.55695174409E+00  0.67206027684E+00 -0.79483768794E+00  0.90007480110E+02  0.89999738047E+02 0.  0.
         12    1    1    2    0    0  0.55695174409E+00 -0.67206027684E+00  0.79483768794E+00  0.11805198902E+01  0.00000000000E+00 0. -1.
         11    1    3    3    0    0  0.89713266934E+01 -0.11730273231E+01  0.15598087707E+01  0.91811600249E+01  0.51100000000E-03 0. -1.
        -11    1    3    3    0    0 -0.14533853816E+02  0.38336707119E+02  0.95877061116E+01  0.42105345602E+02  0.51100000000E-03 0.  1.
         12    1    3    3    0    0  0.50055753784E+01 -0.36491619519E+02 -0.11942352570E+02  0.38720974483E+02  0.00000000000E+00 0. -1.
</event>
<event>
 7    1  0.2000468E-015  0.9000793E+02  0.7816164E-02  0.1186339E+00
        -11   -1    0    0    0    0  0.00000000000E+00  0.00000000000E+00  0.45593999997E+02  0.45594000000E+02  0.51100000000E-03 0.  1.
         11   -1    0    0    0    0 -0.00000000000E+00 -0.00000000000E+00 -0.45593999997E+02  0.45594000000E+02  0.51100000000E-03 0. -1.
    9900012    2    1    2    0    0 -0.10836488498E+01  0.46327227112E+00 -0.60397325193E-01  0.90007930568E+02  0.90000194452E+02 0.  0.
         12    1    1    2    0    0  0.10836488498E+01 -0.46327227112E+00  0.60397325193E-01  0.11800694318E+01  0.00000000000E+00 0. -1.
         11    1    3    3    0    0 -0.73877662719E+01 -0.14545300098E+00 -0.22321163371E+01  0.77189760116E+01  0.51100000000E-03 0. -1.
        -11    1    3    3    0    0 -0.18651221907E+02  0.24227398437E+02 -0.24185330983E+02  0.38984165358E+02  0.51100000000E-03 0.  1.
         12    1    3    3    0    0  0.24955339329E+02 -0.23618673165E+02  0.26357049995E+02  0.43304789199E+02  0.00000000000E+00 0. -1.
</event>
<event>
 7    1  0.2000468E-015  0.9000797E+02  0.7816164E-02  0.1186339E+00
        -11   -1    0    0    0    0  0.00000000000E+00  0.00000000000E+00  0.45593999997E+02  0.45594000000E+02  0.51100000000E-03 0.  1.
         11   -1    0    0    0    0 -0.00000000000E+00 -0.00000000000E+00 -0.45593999997E+02  0.45594000000E+02  0.51100000000E-03 0. -1.
    9900012    2    1    2    0    0 -0.88735540894E+00  0.74652190962E+00  0.21858810764E+00  0.90007968075E+02  0.90000232453E+02 0.  0.
         12    1    1    2    0    0  0.88735540894E+00 -0.74652190962E+00 -0.21858810764E+00  0.11800319250E+01  0.00000000000E+00 0. -1.
         11    1    3    3    0    0  0.31684730777E+02 -0.19505740795E+02 -0.19489500464E+02  0.42002817965E+02  0.51100000000E-03 0. -1.
        -11    1    3    3    0    0 -0.91589611255E+01  0.67998501341E+00 -0.33297727536E+01  0.97691522339E+01  0.51100000000E-03 0.  1.
        -12    1    3    3    0    0 -0.23413125061E+02  0.19572277691E+02  0.23037861325E+02  0.38235997876E+02  0.00000000000E+00 0.  1.
</event>
<event>
 7    1  0.2000468E-015  0.9000777E+02  0.7816164E-02  0.1186339E+00
        -11   -1    0    0    0    0  0.00000000000E+00  0.00000000000E+00  0.45593999997E+02  0.45594000000E+02  0.51100000000E-03 0.  1.
         11   -1    0    0    0    0 -0.00000000000E+00 -0.00000000000E+00 -0.45593999997E+02  0.45594000000E+02  0.51100000000E-03 0. -1.
    9900012    2    1    2    0    0  0.40640017981E+00 -0.76658390356E+00  0.80007930977E+00  0.90007771679E+02  0.90000033465E+02 0.  0.
         12    1    1    2    0    0 -0.40640017981E+00  0.76658390356E+00 -0.80007930977E+00  0.11802283208E+01  0.00000000000E+00 0. -1.
         11    1    3    3    0    0  0.23198524990E+01  0.38457169254E+01  0.72901300480E+01  0.85625493088E+01  0.51100000000E-03 0. -1.
        -11    1    3    3    0    0  0.12591408845E+02 -0.25493867074E+02  0.27125626050E+02  0.39297333548E+02  0.51100000000E-03 0.  1.
         12    1    3    3    0    0 -0.14504861164E+02  0.20881566245E+02 -0.33615676789E+02  0.42147888822E+02  0.00000000000E+00 0. -1.
</event>
<event>
 7    1  0.2000468E-015  0.9000775E+02  0.7816164E-02  0.1186339E+00
        -11   -1    0    0    0    0  0.00000000000E+00  0.00000000000E+00  0.45593999997E+02  0.45594000000E+02  0.51100000000E-03 0. -1.
         11   -1    0    0    0    0 -0.00000000000E+00 -0.00000000000E+00 -0.45593999997E+02  0.45594000000E+02  0.51100000000E-03 0.  1.
    9900012    2    1    2    0    0 -0.25189823527E+00  0.92398101028E+00  0.68978769352E+00  0.90007745498E+02  0.90000006938E+02 0.  0.
         12    1    1    2    0    0  0.25189823527E+00 -0.92398101028E+00 -0.68978769352E+00  0.11802545024E+01  0.00000000000E+00 0. -1.
         11    1    3    3    0    0 -0.12834066105E+02 -0.29169405330E+01  0.34612023186E+02  0.37029906078E+02  0.51100000000E-03 0. -1.
        -11    1    3    3    0    0 -0.39106341180E+01  0.36000167226E+01  0.70388678419E+01  0.88203650925E+01  0.51100000000E-03 0.  1.
        -12    1    3    3    0    0  0.16492801988E+02  0.24090482075E+00 -0.40961103334E+02  0.44157474327E+02  0.00000000000E+00 0.  1.
</event>
<event>
 7    1  0.2000468E-015  0.9000775E+02  0.7816164E-02  0.1186339E+00
        -11   -1    0    0    0    0  0.00000000000E+00  0.00000000000E+00  0.45593999997E+02  0.45594000000E+02  0.51100000000E-03 0.  1.
         11   -1    0    0    0    0 -0.00000000000E+00 -0.00000000000E+00 -0.45593999997E+02  0.45594000000E+02  0.51100000000E-03 0. -1.
    9900012    2    1    2    0    0  0.63631046665E-01  0.82666662585E+00  0.83998353952E+00  0.90007746228E+02  0.90000007678E+02 0.  0.
         12    1    1    2    0    0 -0.63631046665E-01 -0.82666662585E+00 -0.83998353952E+00  0.11802537723E+01  0.00000000000E+00 0. -1.
         11    1    3    3    0    0  0.58201681997E+00 -0.21979279646E+02 -0.34311860838E+02  0.40752070767E+02  0.51100000000E-03 0. -1.
        -11    1    3    3    0    0 -0.63589318381E+00 -0.58048564204E+01  0.70146284101E+01  0.91271972804E+01  0.51100000000E-03 0.  1.
        -12    1    3    3    0    0  0.11750741050E+00  0.28610802693E+02  0.28137215967E+02  0.40128478181E+02  0.00000000000E+00 0.  1.
</event>
<event>
 7    1  0.2000468E-015  0.9000777E+02  0.7816164E-02  0.1186339E+00
        -11   -1    0    0    0    0  0.00000000000E+00  0.00000000000E+00  0.45593999997E+02  0.45594000000E+02  0.51100000000E-03 0.  1.
         11   -1    0    0    0    0 -0.00000000000E+00 -0.00000000000E+00 -0.45593999997E+02  0.45594000000E+02  0.51100000000E-03 0. -1.
    9900012    2    1    2    0    0 -0.10606967463E+01 -0.43364307391E+00  0.28253886729E+00  0.90007766076E+02  0.90000027788E+02 0.  0.
         12    1    1    2    0    0  0.10606967463E+01  0.43364307391E+00 -0.28253886729E+00  0.11802339237E+01  0.00000000000E+00 0. -1.
         11    1    3    3    0    0  0.43054303852E+01 -0.30052128935E+01  0.76381339592E+01  0.92687176015E+01  0.51100000000E-03 0. -1.
        -11    1    3    3    0    0  0.22700322743E+02 -0.29559204048E+02  0.91869191945E+00  0.37281298149E+02  0.51100000000E-03 0.  1.
         12    1    3    3    0    0 -0.28066449874E+02  0.32130773867E+02 -0.82742870113E+01  0.43457750326E+02  0.00000000000E+00 0. -1.
</event>
<event>
 7    1  0.2000468E-015  0.9000772E+02  0.7816164E-02  0.1186339E+00
        -11   -1    0    0    0    0  0.00000000000E+00  0.00000000000E+00  0.45593999997E+02  0.45594000000E+02  0.51100000000E-03 0. -1.
         11   -1    0    0    0    0 -0.00000000000E+00 -0.00000000000E+00 -0.45593999997E+02  0.45594000000E+02  0.51100000000E-03 0.  1.
    9900012    2    1    2    0    0 -0.92726141867E+00  0.38003181797E+00 -0.62355313077E+00  0.90007721885E+02  0.89999983014E+02 0.  0.
         12    1    1    2    0    0  0.92726141867E+00 -0.38003181797E+00  0.62355313077E+00  0.11802781147E+01  0.00000000000E+00 0. -1.
         11    1    3    3    0    0 -0.22452386276E+02  0.29058670477E+02  0.27094891389E+01  0.36821967778E+02  0.51100000000E-03 0. -1.
        -11    1    3    3    0    0  0.25183068989E+01  0.92714255712E+01 -0.47520429009E+01  0.10718354060E+02  0.51100000000E-03 0.  1.
        -12    1    3    3    0    0  0.19006817959E+02 -0.37950064230E+02  0.14190006312E+01  0.42467400047E+02  0.00000000000E+00 0.  1.
</event>
<event>
 7    1  0.2000468E-015  0.9000778E+02  0.7816164E-02  0.1186339E+00
        -11   -1    0    0    0    0  0.00000000000E+00  0.00000000000E+00  0.45593999997E+02  0.45594000000E+02  0.51100000000E-03 0.  1.
         11   -1    0    0    0    0 -0.00000000000E+00 -0.00000000000E+00 -0.45593999997E+02  0.45594000000E+02  0.51100000000E-03 0. -1.
    9900012    2    1    2    0    0 -0.59689613710E+00  0.53643764672E+00  0.86537422072E+00  0.90007778458E+02  0.90000040333E+02 0.  0.
         12    1    1    2    0    0  0.59689613710E+00 -0.53643764672E+00 -0.86537422072E+00  0.11802215424E+01  0.00000000000E+00 0. -1.
         11    1    3    3    0    0 -0.39473494798E+02 -0.17469502749E+02 -0.92414063255E+01  0.44144579611E+02  0.51100000000E-03 0. -1.
        -11    1    3    3    0    0  0.90390378430E+01  0.97683221295E+00 -0.22283870379E+01  0.93607753606E+01  0.51100000000E-03 0.  1.
        -12    1    3    3    0    0  0.29837560818E+02  0.17029108183E+02  0.12335167584E+02  0.36502423486E+02  0.00000000000E+00 0.  1.
</event>
<event>
 7    1  0.2000468E-015  0.9000770E+02  0.7816164E-02  0.1186339E+00
        -11   -1    0    0    0    0  0.00000000000E+00  0.00000000000E+00  0.45593999997E+02  0.45594000000E+02  0.51100000000E-03 0.  1.
         11   -1    0    0    0    0 -0.00000000000E+00 -0.00000000000E+00 -0.45593999997E+02  0.45594000000E+02  0.51100000000E-03 0. -1.
    9900012    2    1    2    0    0  0.78917939629E+00  0.57264058437E-02  0.87765270175E+00  0.90007698693E+02  0.89999959515E+02 0.  0.
         12    1    1    2    0    0 -0.78917939629E+00 -0.57264058437E-02 -0.87765270175E+00  0.11803013074E+01  0.00000000000E+00 0. -1.
         11    1    3    3    0    0  0.71832638589E+00 -0.29987963358E+01  0.90578255083E+01  0.95683319058E+01  0.51100000000E-03 0. -1.
        -11    1    3    3    0    0 -0.38469349128E+02  0.24127149444E+01  0.66984676373E+01  0.39122646699E+02  0.51100000000E-03 0.  1.
         12    1    3    3    0    0  0.38540202139E+02  0.59180779728E+00 -0.14878640444E+02  0.41316720088E+02  0.00000000000E+00 0. -1.
</event>
<event>
 7    1  0.2000468E-015  0.9000780E+02  0.7816164E-02  0.1186339E+00
        -11   -1    0    0    0    0  0.00000000000E+00  0.00000000000E+00  0.45593999997E+02  0.45594000000E+02  0.51100000000E-03 0. -1.
         11   -1    0    0    0    0 -0.00000000000E+00 -0.00000000000E+00 -0.45593999997E+02  0.45594000000E+02  0.51100000000E-03 0.  1.
    9900012    2    1    2    0    0  0.11699271273E+01 -0.55898284515E-01 -0.14495880786E+00  0.90007802069E+02  0.90000064256E+02 0.  0.
         12    1    1    2    0    0 -0.11699271273E+01  0.55898284515E-01  0.14495880786E+00  0.11801979315E+01  0.00000000000E+00 0. -1.
         11    1    3    3    0    0 -0.44625036231E+01 -0.11450265876E+01  0.83394327807E+01  0.95273901903E+01  0.51100000000E-03 0. -1.
        -11    1    3    3    0    0  0.34970850905E+02  0.24152880213E+02 -0.74402719087E+01  0.43147186258E+02  0.51100000000E-03 0.  1.
         12    1    3    3    0    0 -0.29338420155E+02 -0.23063751910E+02 -0.10441196799E+01  0.37333225621E+02  0.00000000000E+00 0. -1.
</event>
<event>
 7    1  0.2000468E-015  0.9000836E+02  0.7816164E-02  0.1186338E+00
        -11   -1    0    0    0    0  0.00000000000E+00  0.00000000000E+00  0.45593999997E+02  0.45594000000E+02  0.51100000000E-03 0.  1.
         11   -1    0    0    0    0 -0.00000000000E+00 -0.00000000000E+00 -0.45593999997E+02  0.45594000000E+02  0.51100000000E-03 0. -1.
    9900012    2    1    2    0    0 -0.61690290908E+00  0.71792435886E+00 -0.70396842087E+00  0.90008357630E+02  0.90000627148E+02 0.  0.
         12    1    1    2    0    0  0.61690290908E+00 -0.71792435886E+00  0.70396842087E+00  0.11796423703E+01  0.00000000000E+00 0. -1.
         11    1    3    3    0    0 -0.31541167001E+02 -0.20435837775E+02 -0.15160315999E+02  0.40525348398E+02  0.51100000000E-03 0. -1.
        -11    1    3    3    0    0 -0.24138520650E+01 -0.82529909205E+00  0.87887494506E+01  0.91514981041E+01  0.51100000000E-03 0.  1.
        -12    1    3    3    0    0  0.33338116157E+02  0.21979061226E+02  0.56675981273E+01  0.40331511127E+02  0.00000000000E+00 0.  1.
</event>
<event>
 7    1  0.2605356E-015  0.9000771E+02  0.7816164E-02  0.1186339E+00
        -11   -1    0    0    0    0  0.00000000000E+00  0.00000000000E+00  0.45593999997E+02  0.45594000000E+02  0.51100000000E-03 0. -1.
         11   -1    0    0    0    0 -0.00000000000E+00 -0.00000000000E+00 -0.45593999997E+02  0.45594000000E+02  0.51100000000E-03 0.  1.
    9900012    2    1    2    0    0  0.55489021807E+00  0.40925829520E+00 -0.95795641512E+00  0.90007713594E+02  0.89999974614E+02 0.  0.
         12    1    1    2    0    0 -0.55489021807E+00 -0.40925829520E+00  0.95795641512E+00  0.11802864057E+01  0.00000000000E+00 0. -1.
         11    1    3    3    0    0 -0.15592412527E+02  0.76333934430E+01  0.31817312782E+02  0.36245460637E+02  0.51100000000E-03 0. -1.
        -11    1    3    3    0    0  0.16036945971E+01  0.61637672762E+01  0.69277184980E+01  0.94104807127E+01  0.51100000000E-03 0.  1.
        -12    1    3    3    0    0  0.14543608148E+02 -0.13387902424E+02 -0.39702987695E+02  0.44351772244E+02  0.00000000000E+00 0.  1.
</event>
<event>
 7    1  0.2000468E-015  0.9000795E+02  0.7816164E-02  0.1186339E+00
        -11   -1    0    0    0    0  0.00000000000E+00  0.00000000000E+00  0.45593999997E+02  0.45594000000E+02  0.51100000000E-03 0. -1.
         11   -1    0    0    0    0 -0.00000000000E+00 -0.00000000000E+00 -0.45593999997E+02  0.45594000000E+02  0.51100000000E-03 0.  1.
    9900012    2    1    2    0    0 -0.96732813213E+00  0.63834549897E+00  0.22206058556E+00  0.90007949325E+02  0.90000213456E+02 0.  0.
         12    1    1    2    0    0  0.96732813213E+00 -0.63834549897E+00 -0.22206058556E+00  0.11800506747E+01  0.00000000000E+00 0. -1.
         11    1    3    3    0    0 -0.34486182850E+01 -0.13839097407E+01 -0.78614549557E+01  0.86954383747E+01  0.51100000000E-03 0. -1.
        -11    1    3    3    0    0  0.20233841507E+02  0.29123963398E+02 -0.17953351994E+02  0.39748414235E+02  0.51100000000E-03 0.  1.
         12    1    3    3    0    0 -0.17752551354E+02 -0.27101708158E+02  0.26036867536E+02  0.41564096715E+02  0.00000000000E+00 0. -1.
</event>
<event>
 7    1  0.2000468E-015  0.9000775E+02  0.7816164E-02  0.1186339E+00
        -11   -1    0    0    0    0  0.00000000000E+00  0.00000000000E+00  0.45593999997E+02  0.45594000000E+02  0.51100000000E-03 0. -1.
         11   -1    0    0    0    0 -0.00000000000E+00 -0.00000000000E+00 -0.45593999997E+02  0.45594000000E+02  0.51100000000E-03 0.  1.
    9900012    2    1    2    0    0 -0.61630646714E+00  0.98819158363E+00 -0.19138375948E+00  0.90007752564E+02  0.90000014098E+02 0.  0.
         12    1    1    2    0    0  0.61630646714E+00 -0.98819158363E+00  0.19138375948E+00  0.11802474363E+01  0.00000000000E+00 0. -1.
         11    1    3    3    0    0  0.10754469549E+02 -0.55592371538E+01  0.92456309714E+01  0.15233037299E+02  0.51100000000E-03 0. -1.
        -11    1    3    3    0    0  0.15958940306E+01 -0.26258595420E+02 -0.24933327543E+02  0.36245434661E+02  0.51100000000E-03 0.  1.
         12    1    3    3    0    0 -0.12966670047E+02  0.32806024157E+02  0.15496312812E+02  0.38529280604E+02  0.00000000000E+00 0. -1.
</event>
<event>
 7    1  0.2000468E-015  0.9000775E+02  0.7816164E-02  0.1186339E+00
        -11   -1    0    0    0    0  0.00000000000E+00  0.00000000000E+00  0.45593999997E+02  0.45594000000E+02  0.51100000000E-03 0. -1.
         11   -1    0    0    0    0 -0.00000000000E+00 -0.00000000000E+00 -0.45593999997E+02  0.45594000000E+02  0.51100000000E-03 0.  1.
    9900012    2    1    2    0    0  0.34907360085E+00  0.11265543911E+01 -0.44866485498E-01  0.90007749952E+02  0.90000011451E+02 0.  0.
         12    1    1    2    0    0 -0.34907360085E+00 -0.11265543911E+01  0.44866485498E-01  0.11802500483E+01  0.00000000000E+00 0. -1.
         11    1    3    3    0    0 -0.15608427768E+02  0.47501062076E+01  0.10749691064E+02  0.19538228799E+02  0.51100000000E-03 0. -1.
        -11    1    3    3    0    0 -0.36412763942E+01 -0.16242956177E+01  0.27296158545E+02  0.27585820662E+02  0.51100000000E-03 0.  1.
        -12    1    3    3    0    0  0.19598777763E+02 -0.19992561987E+01 -0.38090716095E+02  0.42883700490E+02  0.00000000000E+00 0.  1.
</event>
<event>
 7    1  0.2000468E-015  0.9000772E+02  0.7816164E-02  0.1186339E+00
        -11   -1    0    0    0    0  0.00000000000E+00  0.00000000000E+00  0.45593999997E+02  0.45594000000E+02  0.51100000000E-03 0.  1.
         11   -1    0    0    0    0 -0.00000000000E+00 -0.00000000000E+00 -0.45593999997E+02  0.45594000000E+02  0.51100000000E-03 0. -1.
    9900012    2    1    2    0    0 -0.75007014521E+00  0.61838456612E+00  0.66937231665E+00  0.90007718681E+02  0.89999979767E+02 0.  0.
         12    1    1    2    0    0  0.75007014521E+00 -0.61838456612E+00 -0.66937231665E+00  0.11802813193E+01  0.00000000000E+00 0. -1.
         11    1    3    3    0    0 -0.48791935484E+01  0.53294809199E+01 -0.16216092210E+01  0.74053705704E+01  0.51100000000E-03 0. -1.
        -11    1    3    3    0    0 -0.32672999837E+02  0.71510350812E+01  0.21159515084E+02  0.39577611094E+02  0.51100000000E-03 0.  1.
         12    1    3    3    0    0  0.36802123240E+02 -0.11862131435E+02 -0.18868533546E+02  0.43024737016E+02  0.00000000000E+00 0. -1.
</event>
<event>
 7    1  0.2000468E-015  0.9000771E+02  0.7816164E-02  0.1186339E+00
        -11   -1    0    0    0    0  0.00000000000E+00  0.00000000000E+00  0.45593999997E+02  0.45594000000E+02  0.51100000000E-03 0. -1.
         11   -1    0    0    0    0 -0.00000000000E+00 -0.00000000000E+00 -0.45593999997E+02  0.45594000000E+02  0.51100000000E-03 0.  1.
    9900012    2    1    2    0    0  0.97371468406E+00 -0.65634166677E+00 -0.11907165902E+00  0.90007710743E+02  0.89999971725E+02 0.  0.
         12    1    1    2    0    0 -0.97371468406E+00  0.65634166677E+00  0.11907165902E+00  0.11802892567E+01  0.00000000000E+00 0. -1.
         11    1    3    3    0    0 -0.32868860508E+02 -0.76192935530E+01  0.11796337009E+02  0.35743099927E+02  0.51100000000E-03 0. -1.
        -11    1    3    3    0    0 -0.56335054325E+01 -0.45415758634E+01  0.60122966418E+01  0.94079756564E+01  0.51100000000E-03 0.  1.
        -12    1    3    3    0    0  0.39476080624E+02  0.11504527750E+02 -0.17927705310E+02  0.44856635160E+02  0.00000000000E+00 0.  1.
</event>
<event>
 7    1  0.2000468E-015  0.9000773E+02  0.7816164E-02  0.1186339E+00
        -11   -1    0    0    0    0  0.00000000000E+00  0.00000000000E+00  0.45593999997E+02  0.45594000000E+02  0.51100000000E-03 0. -1.
         11   -1    0    0    0    0 -0.00000000000E+00 -0.00000000000E+00 -0.45593999997E+02  0.45594000000E+02  0.51100000000E-03 0.  1.
    9900012    2    1    2    0    0  0.55647987156E+00  0.90036065378E+00 -0.52222598392E+00  0.90007729212E+02  0.89999990438E+02 0.  0.
         12    1    1    2    0    0 -0.55647987156E+00 -0.90036065378E+00  0.52222598392E+00  0.11802707878E+01  0.00000000000E+00 0. -1.
         11    1    3    3    0    0 -0.21122870639E+02  0.12028998123E+02  0.22708699207E+02  0.33264958738E+02  0.51100000000E-03 0. -1.
        -11    1    3    3    0    0 -0.10755400725E+02  0.23358360038E+01  0.46047874022E+01  0.11930584306E+02  0.51100000000E-03 0.  1.
        -12    1    3    3    0    0  0.32434751236E+02 -0.13464473473E+02 -0.27835712593E+02  0.44812186169E+02  0.00000000000E+00 0.  1.
</event>
<event>
 7    1  0.2000468E-015  0.9000778E+02  0.7816164E-02  0.1186339E+00
        -11   -1    0    0    0    0  0.00000000000E+00  0.00000000000E+00  0.45593999997E+02  0.45594000000E+02  0.51100000000E-03 0.  1.
         11   -1    0    0    0    0 -0.00000000000E+00 -0.00000000000E+00 -0.45593999997E+02  0.45594000000E+02  0.51100000000E-03 0. -1.
    9900012    2    1    2    0    0  0.11527004589E+01  0.41464832031E-01 -0.24994077046E+00  0.90007784736E+02  0.90000046695E+02 0.  0.
         12    1    1    2    0    0 -0.11527004589E+01 -0.41464832031E-01  0.24994077046E+00  0.11802152638E+01  0.00000000000E+00 0. -1.
         11    1    3    3    0    0 -0.37248099183E+02 -0.54513589856E+01  0.17825934731E+02  0.41652156689E+02  0.51100000000E-03 0. -1.
        -11    1    3    3    0    0  0.58794669898E+01 -0.77557420649E+01 -0.40731142917E+01  0.10550352002E+02  0.51100000000E-03 0.  1.
        -12    1    3    3    0    0  0.32521332652E+02  0.13248565883E+02 -0.14002761210E+02  0.37805276046E+02  0.00000000000E+00 0.  1.
</event>
<event>
 7    1  0.3173750E-015  0.9000774E+02  0.7816164E-02  0.1186339E+00
        -11   -1    0    0    0    0  0.00000000000E+00  0.00000000000E+00  0.45593999997E+02  0.45594000000E+02  0.51100000000E-03 0. -1.
         11   -1    0    0    0    0 -0.00000000000E+00 -0.00000000000E+00 -0.45593999997E+02  0.45594000000E+02  0.51100000000E-03 0.  1.
    9900012    2    1    2    0    0  0.36035507165E+00 -0.73088373673E+00 -0.85379600554E+00  0.90007739676E+02  0.90000001039E+02 0.  0.
         12    1    1    2    0    0 -0.36035507165E+00  0.73088373673E+00  0.85379600554E+00  0.11802603244E+01  0.00000000000E+00 0. -1.
         11    1    3    3    0    0 -0.35906288310E+02  0.75864474837E+01  0.16572692181E+02  0.40267478839E+02  0.51100000000E-03 0. -1.
        -11    1    3    3    0    0  0.54833440859E+01 -0.18564936710E+01  0.75936719272E+01  0.95486902093E+01  0.51100000000E-03 0.  1.
        -12    1    3    3    0    0  0.30783299296E+02 -0.64608375494E+01 -0.25020160114E+02  0.40191570628E+02  0.00000000000E+00 0.  1.
</event>
<event>
 7    1  0.2000468E-015  0.9000774E+02  0.7816164E-02  0.1186339E+00
        -11   -1    0    0    0    0  0.00000000000E+00  0.00000000000E+00  0.45593999997E+02  0.45594000000E+02  0.51100000000E-03 0.  1.
         11   -1    0    0    0    0 -0.00000000000E+00 -0.00000000000E+00 -0.45593999997E+02  0.45594000000E+02  0.51100000000E-03 0. -1.
    9900012    2    1    2    0    0  0.58385019002E+00  0.82642675567E+00  0.60756883216E+00  0.90007744895E+02  0.90000006328E+02 0.  0.
         12    1    1    2    0    0 -0.58385019002E+00 -0.82642675567E+00 -0.60756883216E+00  0.11802551049E+01  0.00000000000E+00 0. -1.
         11    1    3    3    0    0  0.78912477251E+01  0.33207653998E+02 -0.12503692152E+02  0.36350548722E+02  0.51100000000E-03 0. -1.
        -11    1    3    3    0    0  0.29016109831E+00  0.72101285507E+01 -0.56758932901E+01  0.91807359227E+01  0.51100000000E-03 0.  1.
        -12    1    3    3    0    0 -0.75975586334E+01 -0.39591355793E+02  0.18787154274E+02  0.44476460251E+02  0.00000000000E+00 0.  1.
</event>
<event>
 7    1  0.2023292E-015  0.9000800E+02  0.7816164E-02  0.1186339E+00
        -11   -1    0    0    0    0  0.00000000000E+00  0.00000000000E+00  0.45593999997E+02  0.45594000000E+02  0.51100000000E-03 0.  1.
         11   -1    0    0    0    0 -0.00000000000E+00 -0.00000000000E+00 -0.45593999997E+02  0.45594000000E+02  0.51100000000E-03 0. -1.
    9900012    2    1    2    0    0 -0.99853479103E+00 -0.49598774891E+00  0.38642319063E+00  0.90008000653E+02  0.90000265462E+02 0.  0.
         12    1    1    2    0    0  0.99853479103E+00  0.49598774891E+00 -0.38642319063E+00  0.11799993467E+01  0.00000000000E+00 0. -1.
         11    1    3    3    0    0 -0.40150568791E+01 -0.10632672192E+02 -0.40771492817E+02  0.42325985239E+02  0.51100000000E-03 0. -1.
        -11    1    3    3    0    0 -0.15765102108E+01 -0.63150335082E+01  0.74456157355E+01  0.98895008265E+01  0.51100000000E-03 0.  1.
        -12    1    3    3    0    0  0.45930322989E+01  0.16451717951E+02  0.33712300272E+02  0.37792514588E+02  0.00000000000E+00 0.  1.
</event>
<event>
 7    1  0.2000468E-015  0.9000762E+02  0.7816164E-02  0.1186339E+00
        -11   -1    0    0    0    0  0.00000000000E+00  0.00000000000E+00  0.45593999997E+02  0.45594000000E+02  0.51100000000E-03 0.  1.
         11   -1    0    0    0    0 -0.00000000000E+00 -0.00000000000E+00 -0.45593999997E+02  0.45594000000E+02  0.51100000000E-03 0. -1.
    9900012    2    1    2    0    0  0.87607656739E+00 -0.61064336512E+00 -0.50289349040E+00  0.90007619835E+02  0.89999879617E+02 0.  0.
         12    1    1    2    0    0 -0.87607656739E+00  0.61064336512E+00  0.50289349040E+00  0.11803801650E+01  0.00000000000E+00 0. -1.
         11    1    3    3    0    0 -0.80048310356E+01  0.87711940699E+00 -0.37101006214E+01  0.88663129453E+01  0.51100000000E-03 0. -1.
        -11    1    3    3    0    0  0.78988042668E+01  0.39395029127E+02  0.11755697642E+01  0.40196285815E+02  0.51100000000E-03 0.  1.
         12    1    3    3    0    0  0.98210333622E+00 -0.40882791899E+02  0.20316373667E+01  0.40945021075E+02  0.00000000000E+00 0. -1.
</event>
<event>
 7    1  0.2000468E-015  0.9000772E+02  0.7816164E-02  0.1186339E+00
        -11   -1    0    0    0    0  0.00000000000E+00  0.00000000000E+00  0.45593999997E+02  0.45594000000E+02  0.51100000000E-03 0.  1.
         11   -1    0    0    0    0 -0.00000000000E+00 -0.00000000000E+00 -0.45593999997E+02  0.45594000000E+02  0.51100000000E-03 0. -1.
    9900012    2    1    2    0    0  0.13434200854E+00  0.10662545796E+01  0.48797903875E+00  0.90007716074E+02  0.89999977126E+02 0.  0.
         12    1    1    2    0    0 -0.13434200854E+00 -0.10662545796E+01 -0.48797903875E+00  0.11802839261E+01  0.00000000000E+00 0. -1.
         11    1    3    3    0    0  0.54204520027E+01 -0.38072018877E+01 -0.17503387856E+01  0.68512606324E+01  0.51100000000E-03 0. -1.
        -11    1    3    3    0    0 -0.27601246677E+02 -0.29390498806E+02 -0.77666510871E+01  0.41060334966E+02  0.51100000000E-03 0.  1.
         12    1    3    3    0    0  0.22315136683E+02  0.34263955273E+02  0.10004968911E+02  0.42096120475E+02  0.00000000000E+00 0. -1.
</event>
<event>
 7    1  0.2000468E-015  0.9000770E+02  0.7816164E-02  0.1186339E+00
        -11   -1    0    0    0    0  0.00000000000E+00  0.00000000000E+00  0.45593999997E+02  0.45594000000E+02  0.51100000000E-03 0.  1.
         11   -1    0    0    0    0 -0.00000000000E+00 -0.00000000000E+00 -0.45593999997E+02  0.45594000000E+02  0.51100000000E-03 0. -1.
    9900012    2    1    2    0    0 -0.13564373769E+00 -0.11462652821E+01 -0.24653520684E+00  0.90007702186E+02  0.89999963055E+02 0.  0.
         12    1    1    2    0    0  0.13564373769E+00  0.11462652821E+01  0.24653520684E+00  0.11802978136E+01  0.00000000000E+00 0. -1.
         11    1    3    3    0    0 -0.63952203908E+01 -0.14783879196E+01 -0.35927168813E+02  0.36521855565E+02  0.51100000000E-03 0. -1.
        -11    1    3    3    0    0  0.28776508685E+01 -0.81698825341E+01 -0.61776739017E+01  0.10639149883E+02  0.51100000000E-03 0.  1.
        -12    1    3    3    0    0  0.33819257845E+01  0.85020051716E+01  0.41858307508E+02  0.42846696738E+02  0.00000000000E+00 0.  1.
</event>
<event>
 7    1  0.2000468E-015  0.9000773E+02  0.7816164E-02  0.1186339E+00
        -11   -1    0    0    0    0  0.00000000000E+00  0.00000000000E+00  0.45593999997E+02  0.45594000000E+02  0.51100000000E-03 0.  1.
         11   -1    0    0    0    0 -0.00000000000E+00 -0.00000000000E+00 -0.45593999997E+02  0.45594000000E+02  0.51100000000E-03 0. -1.
    9900012    2    1    2    0    0 -0.28722298487E+00 -0.57344085564E+00  0.99081489913E+00  0.90007726463E+02  0.89999987652E+02 0.  0.
         12    1    1    2    0    0  0.28722298487E+00  0.57344085564E+00 -0.99081489913E+00  0.11802735371E+01  0.00000000000E+00 0. -1.
         11    1    3    3    0    0 -0.37016113282E+02  0.55237629556E+01 -0.33639563186E+01  0.37576865250E+02  0.51100000000E-03 0. -1.
        -11    1    3    3    0    0 -0.41881116967E+01  0.79341164435E+01  0.17420278739E+00  0.89733399688E+01  0.51100000000E-03 0.  1.
        -12    1    3    3    0    0  0.40917001994E+02 -0.14031320255E+02  0.41805684303E+01  0.43457521244E+02  0.00000000000E+00 0.  1.
</event>
<event>
 7    1  0.2000468E-015  0.9000774E+02  0.7816164E-02  0.1186339E+00
        -11   -1    0    0    0    0  0.00000000000E+00  0.00000000000E+00  0.45593999997E+02  0.45594000000E+02  0.51100000000E-03 0. -1.
         11   -1    0    0    0    0 -0.00000000000E+00 -0.00000000000E+00 -0.45593999997E+02  0.45594000000E+02  0.51100000000E-03 0.  1.
    9900012    2    1    2    0    0  0.51070658153E+00  0.69253968601E+00  0.80781822233E+00  0.90007744642E+02  0.90000006072E+02 0.  0.
         12    1    1    2    0    0 -0.51070658153E+00 -0.69253968601E+00 -0.80781822233E+00  0.11802553577E+01  0.00000000000E+00 0. -1.
         11    1    3    3    0    0  0.46401929040E+01 -0.54922575290E+01  0.37641463100E+02  0.38322004482E+02  0.51100000000E-03 0. -1.
        -11    1    3    3    0    0  0.11495392826E+02 -0.97604222069E+00 -0.56497280956E+00  0.11550580469E+02  0.51100000000E-03 0.  1.
        -12    1    3    3    0    0 -0.15624879148E+02  0.71608394357E+01 -0.36268672068E+02  0.40135159691E+02  0.00000000000E+00 0.  1.
</event>
<event>
 7    1  0.2000468E-015  0.9000778E+02  0.7816164E-02  0.1186339E+00
        -11   -1    0    0    0    0  0.00000000000E+00  0.00000000000E+00  0.45593999997E+02  0.45594000000E+02  0.51100000000E-03 0. -1.
         11   -1    0    0    0    0 -0.00000000000E+00 -0.00000000000E+00 -0.45593999997E+02  0.45594000000E+02  0.51100000000E-03 0.  1.
    9900012    2    1    2    0    0 -0.10144982171E+01 -0.59168134598E+00 -0.11673945951E+00  0.90007779025E+02  0.90000040908E+02 0.  0.
         12    1    1    2    0    0  0.10144982171E+01  0.59168134598E+00  0.11673945951E+00  0.11802209747E+01  0.00000000000E+00 0. -1.
         11    1    3    3    0    0 -0.18299687038E+02 -0.18850676752E+02  0.26688189836E+02  0.37449780195E+02  0.51100000000E-03 0. -1.
        -11    1    3    3    0    0 -0.71926316065E+01 -0.42549214355E+01  0.19635765006E+01  0.85845173880E+01  0.51100000000E-03 0.  1.
        -12    1    3    3    0    0  0.24477820427E+02  0.22513916841E+02 -0.28768505796E+02  0.43973481442E+02  0.00000000000E+00 0.  1.
</event>
<event>
 7    1  0.2000468E-015  0.9000773E+02  0.7816164E-02  0.1186339E+00
        -11   -1    0    0    0    0  0.00000000000E+00  0.00000000000E+00  0.45593999997E+02  0.45594000000E+02  0.51100000000E-03 0.  1.
         11   -1    0    0    0    0 -0.00000000000E+00 -0.00000000000E+00 -0.45593999997E+02  0.45594000000E+02  0.51100000000E-03 0. -1.
    9900012    2    1    2    0    0 -0.29796257489E-01  0.10028018670E+01  0.62173036583E+00  0.90007725435E+02  0.89999986611E+02 0.  0.
         12    1    1    2    0    0  0.29796257489E-01 -0.10028018670E+01 -0.62173036583E+00  0.11802745652E+01  0.00000000000E+00 0. -1.
         11    1    3    3    0    0 -0.68933845404E+01 -0.34875698187E+02  0.77516380007E+01  0.36385724762E+02  0.51100000000E-03 0. -1.
        -11    1    3    3    0    0  0.10449087365E+02 -0.45824042741E+01  0.29206230496E+01  0.11777601409E+02  0.51100000000E-03 0.  1.
        -12    1    3    3    0    0 -0.35854990817E+01  0.40460904329E+02 -0.10050530684E+02  0.41844399264E+02  0.00000000000E+00 0.  1.
</event>
<event>
 7    1  0.2000468E-015  0.9000766E+02  0.7816164E-02  0.1186339E+00
        -11   -1    0    0    0    0  0.00000000000E+00  0.00000000000E+00  0.45593999997E+02  0.45594000000E+02  0.51100000000E-03 0. -1.
         11   -1    0    0    0    0 -0.00000000000E+00 -0.00000000000E+00 -0.45593999997E+02  0.45594000000E+02  0.51100000000E-03 0.  1.
    9900012    2    1    2    0    0 -0.99035333777E+00 -0.25139454064E+00 -0.59093557415E+00  0.90007659455E+02  0.89999919760E+02 0.  0.
         12    1    1    2    0    0  0.99035333777E+00  0.25139454064E+00  0.59093557415E+00  0.11803405447E+01  0.00000000000E+00 0. -1.
         11    1    3    3    0    0 -0.13751406373E+02  0.96666288446E+01  0.20462971119E+02  0.26481655495E+02  0.51100000000E-03 0. -1.
        -11    1    3    3    0    0  0.56749640583E+01  0.42138132160E+01  0.19103308808E+02  0.20369041376E+02  0.51100000000E-03 0.  1.
        -12    1    3    3    0    0  0.70860889770E+01 -0.14131836601E+02 -0.40157215501E+02  0.43156962585E+02  0.00000000000E+00 0.  1.
</event>
<event>
 7    1  0.2000468E-015  0.9000794E+02  0.7816164E-02  0.1186339E+00
        -11   -1    0    0    0    0  0.00000000000E+00  0.00000000000E+00  0.45593999997E+02  0.45594000000E+02  0.51100000000E-03 0. -1.
         11   -1    0    0    0    0 -0.00000000000E+00 -0.00000000000E+00 -0.45593999997E+02  0.45594000000E+02  0.51100000000E-03 0.  1.
    9900012    2    1    2    0    0  0.10275434143E+01  0.51693108726E+00  0.26358469868E+00  0.90007940633E+02  0.90000204649E+02 0.  0.
         12    1    1    2    0    0 -0.10275434143E+01 -0.51693108726E+00 -0.26358469868E+00  0.11800593674E+01  0.00000000000E+00 0. -1.
         11    1    3    3    0    0 -0.43273156777E+01 -0.50327895003E+01 -0.72877570455E+01  0.98572833044E+01  0.51100000000E-03 0. -1.
        -11    1    3    3    0    0  0.25782150059E+02 -0.27054052744E+02 -0.87224544905E+01  0.38376063427E+02  0.51100000000E-03 0.  1.
         12    1    3    3    0    0 -0.20427290967E+02  0.32603773332E+02  0.16273796235E+02  0.41774593901E+02  0.00000000000E+00 0. -1.
</event>
<event>
 7    1  0.2000468E-015  0.9000779E+02  0.7816164E-02  0.1186339E+00
        -11   -1    0    0    0    0  0.00000000000E+00  0.00000000000E+00  0.45593999997E+02  0.45594000000E+02  0.51100000000E-03 0. -1.
         11   -1    0    0    0    0 -0.00000000000E+00 -0.00000000000E+00 -0.45593999997E+02  0.45594000000E+02  0.51100000000E-03 0.  1.
    9900012    2    1    2    0    0 -0.75853345329E+00 -0.20542519766E+00 -0.88052452215E+00  0.90007789872E+02  0.90000051899E+02 0.  0.
         12    1    1    2    0    0  0.75853345329E+00  0.20542519766E+00  0.88052452215E+00  0.11802101278E+01  0.00000000000E+00 0. -1.
         11    1    3    3    0    0 -0.30567091848E+02 -0.16462686252E+02 -0.19456968487E+02  0.39798753317E+02  0.51100000000E-03 0. -1.
        -11    1    3    3    0    0  0.75264090507E+01 -0.72621831026E+00 -0.84098346533E+01  0.11309268119E+02  0.51100000000E-03 0.  1.
        -12    1    3    3    0    0  0.22282149344E+02  0.16983479365E+02  0.26986278618E+02  0.38899768436E+02  0.00000000000E+00 0.  1.
</event>
<event>
 7    1  0.2000468E-015  0.9000783E+02  0.7816164E-02  0.1186339E+00
        -11   -1    0    0    0    0  0.00000000000E+00  0.00000000000E+00  0.45593999997E+02  0.45594000000E+02  0.51100000000E-03 0.  1.
         11   -1    0    0    0    0 -0.00000000000E+00 -0.00000000000E+00 -0.45593999997E+02  0.45594000000E+02  0.51100000000E-03 0. -1.
    9900012    2    1    2    0    0  0.36499421795E+00  0.10756408941E+01 -0.32028413323E+00  0.90007827962E+02  0.90000090492E+02 0.  0.
         12    1    1    2    0    0 -0.36499421795E+00 -0.10756408941E+01  0.32028413323E+00  0.11801720375E+01  0.00000000000E+00 0. -1.
         11    1    3    3    0    0 -0.46377449159E+01 -0.38982266421E+02 -0.12950074281E+02  0.41337999436E+02  0.51100000000E-03 0. -1.
        -11    1    3    3    0    0 -0.39829846547E+01  0.67008815168E+01 -0.56101153175E+01  0.96041331727E+01  0.51100000000E-03 0.  1.
        -12    1    3    3    0    0  0.89857237886E+01  0.33357025798E+02  0.18239905466E+02  0.39065695354E+02  0.00000000000E+00 0.  1.
</event>
<event>
 7    1  0.2000468E-015  0.9000794E+02  0.7816164E-02  0.1186339E+00
        -11   -1    0    0    0    0  0.00000000000E+00  0.00000000000E+00  0.45593999997E+02  0.45594000000E+02  0.51100000000E-03 0.  1.
         11   -1    0    0    0    0 -0.00000000000E+00 -0.00000000000E+00 -0.45593999997E+02  0.45594000000E+02  0.51100000000E-03 0. -1.
    9900012    2    1    2    0    0  0.95147890960E+00  0.47424381697E+00  0.51217261439E+00  0.90007940637E+02  0.90000204653E+02 0.  0.
         12    1    1    2    0    0 -0.95147890960E+00 -0.47424381697E+00 -0.51217261439E+00  0.11800593630E+01  0.00000000000E+00 0. -1.
         11    1    3    3    0    0  0.63158884809E+01 -0.32900423280E+01 -0.59385313096E+01  0.92725929599E+01  0.51100000000E-03 0. -1.
        -11    1    3    3    0    0  0.15370284922E+02  0.29785213673E+02  0.25754258543E+02  0.42269213921E+02  0.51100000000E-03 0.  1.
         12    1    3    3    0    0 -0.20734694494E+02 -0.26020927528E+02 -0.19303554619E+02  0.38466133756E+02  0.00000000000E+00 0. -1.
</event>
<event>
 7    1  0.2000468E-015  0.9000775E+02  0.7816164E-02  0.1186339E+00
        -11   -1    0    0    0    0  0.00000000000E+00  0.00000000000E+00  0.45593999997E+02  0.45594000000E+02  0.51100000000E-03 0. -1.
         11   -1    0    0    0    0 -0.00000000000E+00 -0.00000000000E+00 -0.45593999997E+02  0.45594000000E+02  0.51100000000E-03 0.  1.
    9900012    2    1    2    0    0  0.27409113695E+00 -0.98260765348E+00 -0.59358253325E+00  0.90007752579E+02  0.90000014113E+02 0.  0.
         12    1    1    2    0    0 -0.27409113695E+00  0.98260765348E+00  0.59358253325E+00  0.11802474214E+01  0.00000000000E+00 0. -1.
         11    1    3    3    0    0 -0.95657046629E+01 -0.41053909012E+01  0.20840708137E+01  0.10616039354E+02  0.51100000000E-03 0. -1.
        -11    1    3    3    0    0  0.90403787210E+01 -0.28907788371E+02  0.23243215748E+02  0.38178996248E+02  0.51100000000E-03 0.  1.
         12    1    3    3    0    0  0.79941707878E+00  0.32030571619E+02 -0.25920869095E+02  0.41212716976E+02  0.00000000000E+00 0. -1.
</event>
<event>
 7    1  0.2000468E-015  0.9000766E+02  0.7816164E-02  0.1186339E+00
        -11   -1    0    0    0    0  0.00000000000E+00  0.00000000000E+00  0.45593999997E+02  0.45594000000E+02  0.51100000000E-03 0. -1.
         11   -1    0    0    0    0 -0.00000000000E+00 -0.00000000000E+00 -0.45593999997E+02  0.45594000000E+02  0.51100000000E-03 0.  1.
    9900012    2    1    2    0    0  0.55792199040E+00 -0.72486040134E+00  0.74598417550E+00  0.90007664480E+02  0.89999924851E+02 0.  0.
         12    1    1    2    0    0 -0.55792199040E+00  0.72486040134E+00 -0.74598417550E+00  0.11803355196E+01  0.00000000000E+00 0. -1.
         11    1    3    3    0    0  0.36338880127E+02 -0.16531446634E+02  0.10259712269E+02  0.41219711702E+02  0.51100000000E-03 0. -1.
        -11    1    3    3    0    0 -0.42769568038E+01  0.18192383961E+01  0.86544169914E+01  0.98234882586E+01  0.51100000000E-03 0.  1.
        -12    1    3    3    0    0 -0.31504001333E+02  0.13987347837E+02 -0.18168145085E+02  0.38964464520E+02  0.00000000000E+00 0.  1.
</event>
<event>
 7    1  0.2000468E-015  0.9000769E+02  0.7816164E-02  0.1186339E+00
        -11   -1    0    0    0    0  0.00000000000E+00  0.00000000000E+00  0.45593999997E+02  0.45594000000E+02  0.51100000000E-03 0. -1.
         11   -1    0    0    0    0 -0.00000000000E+00 -0.00000000000E+00 -0.45593999997E+02  0.45594000000E+02  0.51100000000E-03 0.  1.
    9900012    2    1    2    0    0  0.11285405224E+01 -0.27982434841E+00 -0.20304185830E+00  0.90007690137E+02  0.89999950847E+02 0.  0.
         12    1    1    2    0    0 -0.11285405224E+01  0.27982434841E+00  0.20304185830E+00  0.11803098631E+01  0.00000000000E+00 0. -1.
         11    1    3    3    0    0  0.38498115441E+02 -0.41129189849E+01  0.14825718525E+02  0.41458689380E+02  0.51100000000E-03 0. -1.
        -11    1    3    3    0    0 -0.11648024749E+00 -0.43658166943E+01 -0.89017492354E+01  0.99153952402E+01  0.51100000000E-03 0.  1.
        -12    1    3    3    0    0 -0.37253094671E+02  0.81989113308E+01 -0.61270111482E+01  0.38633605516E+02  0.00000000000E+00 0.  1.
</event>
<event>
 7    1  0.2000468E-015  0.9000771E+02  0.7816164E-02  0.1186339E+00
        -11   -1    0    0    0    0  0.00000000000E+00  0.00000000000E+00  0.45593999997E+02  0.45594000000E+02  0.51100000000E-03 0.  1.
         11   -1    0    0    0    0 -0.00000000000E+00 -0.00000000000E+00 -0.45593999997E+02  0.45594000000E+02  0.51100000000E-03 0. -1.
    9900012    2    1    2    0    0 -0.81962483978E+00 -0.34474187142E+00  0.77617070919E+00  0.90007714947E+02  0.89999975985E+02 0.  0.
         12    1    1    2    0    0  0.81962483978E+00  0.34474187142E+00 -0.77617070919E+00  0.11802850527E+01  0.00000000000E+00 0. -1.
         11    1    3    3    0    0  0.41029542241E+01  0.79652784406E+01  0.83732590099E+01  0.12263415540E+02  0.51100000000E-03 0. -1.
        -11    1    3    3    0    0  0.94342419507E+01  0.80217043771E+00  0.32680441787E+02  0.34024398220E+02  0.51100000000E-03 0.  1.
         12    1    3    3    0    0 -0.14356821015E+02 -0.91121907497E+01 -0.40277530087E+02  0.43719901187E+02  0.00000000000E+00 0. -1.
</event>
<event>
 7    1  0.2000468E-015  0.9000781E+02  0.7816164E-02  0.1186339E+00
        -11   -1    0    0    0    0  0.00000000000E+00  0.00000000000E+00  0.45593999997E+02  0.45594000000E+02  0.51100000000E-03 0.  1.
         11   -1    0    0    0    0 -0.00000000000E+00 -0.00000000000E+00 -0.45593999997E+02  0.45594000000E+02  0.51100000000E-03 0. -1.
    9900012    2    1    2    0    0 -0.10895132060E+01  0.44931749886E+00 -0.62656042366E-01  0.90007808905E+02  0.90000071183E+02 0.  0.
         12    1    1    2    0    0  0.10895132060E+01 -0.44931749886E+00  0.62656042366E-01  0.11801910949E+01  0.00000000000E+00 0. -1.
         11    1    3    3    0    0 -0.14958570864E+02 -0.93341169141E+01 -0.34811892918E+02  0.39022461092E+02  0.51100000000E-03 0. -1.
        -11    1    3    3    0    0  0.95709369423E+01 -0.72020307392E+01 -0.10131833261E+00  0.11978411681E+02  0.51100000000E-03 0.  1.
        -12    1    3    3    0    0  0.42981207159E+01  0.16985465152E+02  0.34850555208E+02  0.39006936133E+02  0.00000000000E+00 0.  1.
</event>
<event>
 7    1  0.2000468E-015  0.9000764E+02  0.7816164E-02  0.1186339E+00
        -11   -1    0    0    0    0  0.00000000000E+00  0.00000000000E+00  0.45593999997E+02  0.45594000000E+02  0.51100000000E-03 0.  1.
         11   -1    0    0    0    0 -0.00000000000E+00 -0.00000000000E+00 -0.45593999997E+02  0.45594000000E+02  0.51100000000E-03 0. -1.
    9900012    2    1    2    0    0 -0.77992445712E-01 -0.10934513831E+01  0.43765007041E+00  0.90007637203E+02  0.89999897214E+02 0.  0.
         12    1    1    2    0    0  0.77992445712E-01  0.10934513831E+01 -0.43765007041E+00  0.11803627971E+01  0.00000000000E+00 0. -1.
         11    1    3    3    0    0  0.29082400428E+02  0.20092319270E+02 -0.32269713979E+00  0.35349560704E+02  0.51100000000E-03 0. -1.
        -11    1    3    3    0    0  0.51281214253E+01  0.80534966511E+01  0.95341355216E+00  0.95950734925E+01  0.51100000000E-03 0.  1.
        -12    1    3    3    0    0 -0.34288514299E+02 -0.29239267304E+02 -0.19306634196E+00  0.45063003006E+02  0.00000000000E+00 0.  1.
</event>
<event>
 7    1  0.2000468E-015  0.9000775E+02  0.7816164E-02  0.1186339E+00
        -11   -1    0    0    0    0  0.00000000000E+00  0.00000000000E+00  0.45593999997E+02  0.45594000000E+02  0.51100000000E-03 0. -1.
         11   -1    0    0    0    0 -0.00000000000E+00 -0.00000000000E+00 -0.45593999997E+02  0.45594000000E+02  0.51100000000E-03 0.  1.
    9900012    2    1    2    0    0 -0.11067403708E+01  0.18781999893E+00  0.36446841005E+00  0.90007750949E+02  0.90000012462E+02 0.  0.
         12    1    1    2    0    0  0.11067403708E+01 -0.18781999893E+00 -0.36446841005E+00  0.11802490510E+01  0.00000000000E+00 0. -1.
         11    1    3    3    0    0  0.31429826795E+02 -0.13679265019E+02  0.16684023785E+02  0.38122341924E+02  0.51100000000E-03 0. -1.
        -11    1    3    3    0    0  0.48354118837E+01  0.80400913639E+01  0.23982729200E+01  0.96838004153E+01  0.51100000000E-03 0.  1.
        -12    1    3    3    0    0 -0.37371979050E+02  0.58269936537E+01 -0.18717828295E+02  0.42201608610E+02  0.00000000000E+00 0.  1.
</event>
<event>
 7    1  0.2000468E-015  0.9000854E+02  0.7816164E-02  0.1186337E+00
        -11   -1    0    0    0    0  0.00000000000E+00  0.00000000000E+00  0.45593999997E+02  0.45594000000E+02  0.51100000000E-03 0.  1.
         11   -1    0    0    0    0 -0.00000000000E+00 -0.00000000000E+00 -0.45593999997E+02  0.45594000000E+02  0.51100000000E-03 0. -1.
    9900012    2    1    2    0    0  0.50585534509E+00  0.55947203641E+00 -0.90676175476E+00  0.90008544418E+02  0.90000816401E+02 0.  0.
         12    1    1    2    0    0 -0.50585534509E+00 -0.55947203641E+00  0.90676175476E+00  0.11794555819E+01  0.00000000000E+00 0. -1.
         11    1    3    3    0    0  0.34724496934E+02  0.91714528577E+01 -0.22352267067E+02  0.42302837708E+02  0.51100000000E-03 0. -1.
        -11    1    3    3    0    0  0.23345168288E+01 -0.54817994065E+00  0.73104906562E+01  0.76937470693E+01  0.51100000000E-03 0.  1.
        -12    1    3    3    0    0 -0.36553158418E+02 -0.80638008806E+01  0.14135014656E+02  0.40011959641E+02  0.00000000000E+00 0.  1.
</event>
<event>
 7    1  0.2000468E-015  0.9000774E+02  0.7816164E-02  0.1186339E+00
        -11   -1    0    0    0    0  0.00000000000E+00  0.00000000000E+00  0.45593999997E+02  0.45594000000E+02  0.51100000000E-03 0.  1.
         11   -1    0    0    0    0 -0.00000000000E+00 -0.00000000000E+00 -0.45593999997E+02  0.45594000000E+02  0.51100000000E-03 0. -1.
    9900012    2    1    2    0    0  0.47594867320E+00  0.10172880436E+01 -0.36278429588E+00  0.90007739627E+02  0.90000000990E+02 0.  0.
         12    1    1    2    0    0 -0.47594867320E+00 -0.10172880436E+01  0.36278429588E+00  0.11802603732E+01  0.00000000000E+00 0. -1.
         11    1    3    3    0    0  0.48325346549E+01 -0.71891713212E+01 -0.52390621361E+01  0.10123504719E+02  0.51100000000E-03 0. -1.
        -11    1    3    3    0    0 -0.99699347133E+01  0.43141755562E+02  0.44090336019E+01  0.44497755547E+02  0.51100000000E-03 0.  1.
         12    1    3    3    0    0  0.56133487316E+01 -0.34935296197E+02  0.46724423825E+00  0.35386479361E+02  0.00000000000E+00 0. -1.
</event>
<event>
 7    1  0.2000468E-015  0.9000778E+02  0.7816164E-02  0.1186339E+00
        -11   -1    0    0    0    0  0.00000000000E+00  0.00000000000E+00  0.45593999997E+02  0.45594000000E+02  0.51100000000E-03 0. -1.
         11   -1    0    0    0    0 -0.00000000000E+00 -0.00000000000E+00 -0.45593999997E+02  0.45594000000E+02  0.51100000000E-03 0.  1.
    9900012    2    1    2    0    0 -0.55747487847E+00  0.33982714767E+00 -0.98318910551E+00  0.90007779026E+02  0.90000040909E+02 0.  0.
         12    1    1    2    0    0  0.55747487847E+00 -0.33982714767E+00  0.98318910551E+00  0.11802209741E+01  0.00000000000E+00 0. -1.
         11    1    3    3    0    0 -0.28925802736E+02 -0.19686195984E+02  0.17554418133E+02  0.39145957295E+02  0.51100000000E-03 0. -1.
        -11    1    3    3    0    0  0.68659592104E+01 -0.87656106808E+01 -0.20353782664E+01  0.11319014596E+02  0.51100000000E-03 0.  1.
        -12    1    3    3    0    0  0.21502368648E+02  0.28791633812E+02 -0.16502228972E+02  0.39542807135E+02  0.00000000000E+00 0.  1.
</event>
<event>
 7    1  0.2000468E-015  0.9000784E+02  0.7816164E-02  0.1186339E+00
        -11   -1    0    0    0    0  0.00000000000E+00  0.00000000000E+00  0.45593999997E+02  0.45594000000E+02  0.51100000000E-03 0.  1.
         11   -1    0    0    0    0 -0.00000000000E+00 -0.00000000000E+00 -0.45593999997E+02  0.45594000000E+02  0.51100000000E-03 0. -1.
    9900012    2    1    2    0    0  0.10148076017E+01  0.18030187801E+00 -0.57484277171E+00  0.90007835839E+02  0.90000098472E+02 0.  0.
         12    1    1    2    0    0 -0.10148076017E+01 -0.18030187801E+00  0.57484277171E+00  0.11801641614E+01  0.00000000000E+00 0. -1.
         11    1    3    3    0    0 -0.37298493515E+02 -0.91713616821E+01  0.11432146017E+02  0.40074748364E+02  0.51100000000E-03 0. -1.
        -11    1    3    3    0    0 -0.40240934146E+00  0.96797806133E+00 -0.10226470493E+02  0.10280059038E+02  0.51100000000E-03 0.  1.
        -12    1    3    3    0    0  0.38715710458E+02  0.83836854988E+01 -0.17805182951E+01  0.39653028437E+02  0.00000000000E+00 0.  1.
</event>
<event>
 7    1  0.2000468E-015  0.9000773E+02  0.7816164E-02  0.1186339E+00
        -11   -1    0    0    0    0  0.00000000000E+00  0.00000000000E+00  0.45593999997E+02  0.45594000000E+02  0.51100000000E-03 0. -1.
         11   -1    0    0    0    0 -0.00000000000E+00 -0.00000000000E+00 -0.45593999997E+02  0.45594000000E+02  0.51100000000E-03 0.  1.
    9900012    2    1    2    0    0  0.65435210845E+00 -0.79689839339E+00  0.57429005575E+00  0.90007731895E+02  0.89999993156E+02 0.  0.
         12    1    1    2    0    0 -0.65435210845E+00  0.79689839339E+00 -0.57429005575E+00  0.11802681049E+01  0.00000000000E+00 0. -1.
         11    1    3    3    0    0  0.75901720782E+01 -0.55874749355E+01 -0.74090973776E+00  0.94540750913E+01  0.51100000000E-03 0. -1.
        -11    1    3    3    0    0  0.17268165395E+02 -0.10077521174E+02 -0.31401362504E+02  0.37226221088E+02  0.51100000000E-03 0.  1.
         12    1    3    3    0    0 -0.24203985364E+02  0.14868097716E+02  0.32716562297E+02  0.43327435716E+02  0.00000000000E+00 0. -1.
</event>
<event>
 7    1  0.2000468E-015  0.9000771E+02  0.7816164E-02  0.1186339E+00
        -11   -1    0    0    0    0  0.00000000000E+00  0.00000000000E+00  0.45593999997E+02  0.45594000000E+02  0.51100000000E-03 0. -1.
         11   -1    0    0    0    0 -0.00000000000E+00 -0.00000000000E+00 -0.45593999997E+02  0.45594000000E+02  0.51100000000E-03 0.  1.
    9900012    2    1    2    0    0  0.10407576847E+01  0.45613731346E+00 -0.31913872897E+00  0.90007708792E+02  0.89999969748E+02 0.  0.
         12    1    1    2    0    0 -0.10407576847E+01 -0.45613731346E+00  0.31913872897E+00  0.11802912078E+01  0.00000000000E+00 0. -1.
         11    1    3    3    0    0  0.73748298591E+01  0.14202935410E+02  0.10320414422E+02  0.19042648025E+02  0.51100000000E-03 0. -1.
        -11    1    3    3    0    0  0.25398297557E+02 -0.10196643069E+02  0.13898208527E+02  0.30695362014E+02  0.51100000000E-03 0.  1.
        -12    1    3    3    0    0 -0.31732369731E+02 -0.35501550271E+01 -0.24537761678E+02  0.40269698753E+02  0.00000000000E+00 0.  1.
</event>
<event>
 7    1  0.2000468E-015  0.9000782E+02  0.7816164E-02  0.1186339E+00
        -11   -1    0    0    0    0  0.00000000000E+00  0.00000000000E+00  0.45593999997E+02  0.45594000000E+02  0.51100000000E-03 0.  1.
         11   -1    0    0    0    0 -0.00000000000E+00 -0.00000000000E+00 -0.45593999997E+02  0.45594000000E+02  0.51100000000E-03 0. -1.
    9900012    2    1    2    0    0  0.31322111865E+00  0.10772131891E+00  0.11327484451E+01  0.90007817645E+02  0.90000080038E+02 0.  0.
         12    1    1    2    0    0 -0.31322111865E+00 -0.10772131891E+00 -0.11327484451E+01  0.11801823552E+01  0.00000000000E+00 0. -1.
         11    1    3    3    0    0 -0.11235259023E+01 -0.98465790679E+01 -0.35400365831E+01  0.10523748812E+02  0.51100000000E-03 0. -1.
        -11    1    3    3    0    0 -0.30910788834E+02 -0.65716651894E+01  0.22722053958E+02  0.38922427803E+02  0.51100000000E-03 0.  1.
         12    1    3    3    0    0  0.32347535855E+02  0.16525965576E+02 -0.18049268930E+02  0.40561641030E+02  0.00000000000E+00 0. -1.
</event>
<event>
 7    1  0.2000468E-015  0.9000773E+02  0.7816164E-02  0.1186339E+00
        -11   -1    0    0    0    0  0.00000000000E+00  0.00000000000E+00  0.45593999997E+02  0.45594000000E+02  0.51100000000E-03 0. -1.
         11   -1    0    0    0    0 -0.00000000000E+00 -0.00000000000E+00 -0.45593999997E+02  0.45594000000E+02  0.51100000000E-03 0.  1.
    9900012    2    1    2    0    0  0.26824092857E+00 -0.79637768723E+00 -0.82877305548E+00  0.90007730796E+02  0.89999992042E+02 0.  0.
         12    1    1    2    0    0 -0.26824092857E+00  0.79637768723E+00  0.82877305548E+00  0.11802692040E+01  0.00000000000E+00 0. -1.
         11    1    3    3    0    0 -0.69067762524E+00 -0.84318943612E+01  0.65981113719E+01  0.10728884007E+02  0.51100000000E-03 0. -1.
        -11    1    3    3    0    0 -0.22943216059E+02 -0.25059301192E+02 -0.16506601875E+02  0.37773372170E+02  0.51100000000E-03 0.  1.
         12    1    3    3    0    0  0.23902134613E+02  0.32694817866E+02  0.90797174476E+01  0.41505474619E+02  0.00000000000E+00 0. -1.
</event>
<event>
 7    1  0.2000468E-015  0.9000774E+02  0.7816164E-02  0.1186339E+00
        -11   -1    0    0    0    0  0.00000000000E+00  0.00000000000E+00  0.45593999997E+02  0.45594000000E+02  0.51100000000E-03 0. -1.
         11   -1    0    0    0    0 -0.00000000000E+00 -0.00000000000E+00 -0.45593999997E+02  0.45594000000E+02  0.51100000000E-03 0.  1.
    9900012    2    1    2    0    0  0.93640862294E+00  0.68463478540E+00 -0.21775843046E+00  0.90007743828E+02  0.90000005246E+02 0.  0.
         12    1    1    2    0    0 -0.93640862294E+00 -0.68463478540E+00  0.21775843046E+00  0.11802561724E+01  0.00000000000E+00 0. -1.
         11    1    3    3    0    0  0.73843268417E+01  0.75947193440E+01  0.58819535045E+01  0.12116328739E+02  0.51100000000E-03 0. -1.
        -11    1    3    3    0    0  0.19040234305E+02  0.24379236198E+02  0.12614589840E+02  0.33406669350E+02  0.51100000000E-03 0.  1.
         12    1    3    3    0    0 -0.25488152524E+02 -0.31289320756E+02 -0.18714301775E+02  0.44484745738E+02  0.00000000000E+00 0. -1.
</event>
<event>
 7    1  0.2000468E-015  0.9000790E+02  0.7816164E-02  0.1186339E+00
        -11   -1    0    0    0    0  0.00000000000E+00  0.00000000000E+00  0.45593999997E+02  0.45594000000E+02  0.51100000000E-03 0.  1.
         11   -1    0    0    0    0 -0.00000000000E+00 -0.00000000000E+00 -0.45593999997E+02  0.45594000000E+02  0.51100000000E-03 0. -1.
    9900012    2    1    2    0    0  0.36671982543E+00 -0.11214727038E+01 -0.21478704832E-01  0.90007895856E+02  0.90000159281E+02 0.  0.
         12    1    1    2    0    0 -0.36671982543E+00  0.11214727038E+01  0.21478704832E-01  0.11801041439E+01  0.00000000000E+00 0. -1.
         11    1    3    3    0    0 -0.21104293510E+01  0.23236738813E+00 -0.93861375803E+01  0.96232783180E+01  0.51100000000E-03 0. -1.
        -11    1    3    3    0    0  0.23826491509E+02 -0.32110780010E+02 -0.49723994557E+01  0.40293034722E+02  0.51100000000E-03 0.  1.
         12    1    3    3    0    0 -0.21349342333E+02  0.30756939918E+02  0.14337058331E+02  0.40091582817E+02  0.00000000000E+00 0. -1.
</event>
<event>
 7    1  0.2000468E-015  0.9000773E+02  0.7816164E-02  0.1186339E+00
        -11   -1    0    0    0    0  0.00000000000E+00  0.00000000000E+00  0.45593999997E+02  0.45594000000E+02  0.51100000000E-03 0. -1.
         11   -1    0    0    0    0 -0.00000000000E+00 -0.00000000000E+00 -0.45593999997E+02  0.45594000000E+02  0.51100000000E-03 0.  1.
    9900012    2    1    2    0    0  0.11453988231E+01  0.17583714401E+00 -0.22403476362E+00  0.90007725142E+02  0.89999986314E+02 0.  0.
         12    1    1    2    0    0 -0.11453988231E+01 -0.17583714401E+00  0.22403476362E+00  0.11802748580E+01  0.00000000000E+00 0. -1.
         11    1    3    3    0    0  0.16630781269E+01  0.17834468094E+02  0.37649376099E+02  0.41693040210E+02  0.51100000000E-03 0. -1.
        -11    1    3    3    0    0 -0.19957520761E+01 -0.62666362397E+01  0.19562448171E+01  0.68615340964E+01  0.51100000000E-03 0.  1.
        -12    1    3    3    0    0  0.14780727723E+01 -0.11391994710E+02 -0.39829655680E+02  0.41453150835E+02  0.00000000000E+00 0.  1.
</event>
<event>
 7    1  0.2000468E-015  0.9000774E+02  0.7816164E-02  0.1186339E+00
        -11   -1    0    0    0    0  0.00000000000E+00  0.00000000000E+00  0.45593999997E+02  0.45594000000E+02  0.51100000000E-03 0. -1.
         11   -1    0    0    0    0 -0.00000000000E+00 -0.00000000000E+00 -0.45593999997E+02  0.45594000000E+02  0.51100000000E-03 0.  1.
    9900012    2    1    2    0    0  0.91706802206E+00  0.51758953076E+00  0.53301219913E+00  0.90007739569E+02  0.90000000932E+02 0.  0.
         12    1    1    2    0    0 -0.91706802206E+00 -0.51758953076E+00 -0.53301219913E+00  0.11802604305E+01  0.00000000000E+00 0. -1.
         11    1    3    3    0    0 -0.12546678940E+02 -0.20838559810E+02  0.20011745876E+02  0.31498169798E+02  0.51100000000E-03 0. -1.
        -11    1    3    3    0    0 -0.15328549019E+02  0.45629858953E+01  0.54396819650E+01  0.16893057611E+02  0.51100000000E-03 0.  1.
        -12    1    3    3    0    0  0.28792295980E+02  0.16793163445E+02 -0.24918415642E+02  0.41616512161E+02  0.00000000000E+00 0.  1.
</event>
<event>
 7    1  0.2000468E-015  0.9000749E+02  0.7816164E-02  0.1186340E+00
        -11   -1    0    0    0    0  0.00000000000E+00  0.00000000000E+00  0.45593999997E+02  0.45594000000E+02  0.51100000000E-03 0.  1.
         11   -1    0    0    0    0 -0.00000000000E+00 -0.00000000000E+00 -0.45593999997E+02  0.45594000000E+02  0.51100000000E-03 0. -1.
    9900012    2    1    2    0    0 -0.99655396157E-01 -0.67503106408E+00  0.96333246771E+00  0.90007488425E+02  0.89999746472E+02 0.  0.
         12    1    1    2    0    0  0.99655396157E-01  0.67503106408E+00 -0.96333246771E+00  0.11805115750E+01  0.00000000000E+00 0. -1.
         11    1    3    3    0    0 -0.91590244541E+01  0.53571128057E+01 -0.10930028558E+01  0.10666819679E+02  0.51100000000E-03 0. -1.
        -11    1    3    3    0    0 -0.28439265579E+02 -0.12670576234E+02  0.20245751295E+02  0.37137929056E+02  0.51100000000E-03 0.  1.
         12    1    3    3    0    0  0.37498634637E+02  0.66384323641E+01 -0.18189415972E+02  0.42202739690E+02  0.00000000000E+00 0. -1.
</event>
<event>
 7    1  0.2000468E-015  0.9000771E+02  0.7816164E-02  0.1186339E+00
        -11   -1    0    0    0    0  0.00000000000E+00  0.00000000000E+00  0.45593999997E+02  0.45594000000E+02  0.51100000000E-03 0.  1.
         11   -1    0    0    0    0 -0.00000000000E+00 -0.00000000000E+00 -0.45593999997E+02  0.45594000000E+02  0.51100000000E-03 0. -1.
    9900012    2    1    2    0    0 -0.10213182944E+01  0.27535659505E+00  0.52360398360E+00  0.90007714677E+02  0.89999975710E+02 0.  0.
         12    1    1    2    0    0  0.10213182944E+01 -0.27535659505E+00 -0.52360398360E+00  0.11802853233E+01  0.00000000000E+00 0. -1.
         11    1    3    3    0    0 -0.71890894548E+00  0.41246042496E+02  0.11261436232E+02  0.42761814717E+02  0.51100000000E-03 0. -1.
        -11    1    3    3    0    0  0.39407914574E+01 -0.76828408135E+01  0.52176855878E+01  0.10088613553E+02  0.51100000000E-03 0.  1.
        -12    1    3    3    0    0 -0.42432008063E+01 -0.33287845087E+02 -0.15955517836E+02  0.37157286406E+02  0.00000000000E+00 0.  1.
</event>
<event>
 7    1  0.2000468E-015  0.9000825E+02  0.7816164E-02  0.1186338E+00
        -11   -1    0    0    0    0  0.00000000000E+00  0.00000000000E+00  0.45593999997E+02  0.45594000000E+02  0.51100000000E-03 0. -1.
         11   -1    0    0    0    0 -0.00000000000E+00 -0.00000000000E+00 -0.45593999997E+02  0.45594000000E+02  0.51100000000E-03 0.  1.
    9900012    2    1    2    0    0  0.63694076730E+00 -0.99250878536E+00  0.32277196049E-01  0.90008250430E+02  0.90000518534E+02 0.  0.
         12    1    1    2    0    0 -0.63694076730E+00  0.99250878536E+00 -0.32277196049E-01  0.11797495698E+01  0.00000000000E+00 0. -1.
         11    1    3    3    0    0 -0.14912870205E+02  0.28341424084E+02  0.30247999810E+02  0.44051918342E+02  0.51100000000E-03 0. -1.
        -11    1    3    3    0    0  0.74986596551E+00 -0.54834638166E+01 -0.97750143190E+01  0.11233057446E+02  0.51100000000E-03 0.  1.
        -12    1    3    3    0    0  0.14799945007E+02 -0.23850469053E+02 -0.20440708295E+02  0.34723274642E+02  0.00000000000E+00 0.  1.
</event>
<event>
 7    1  0.2000468E-015  0.9000775E+02  0.7816164E-02  0.1186339E+00
        -11   -1    0    0    0    0  0.00000000000E+00  0.00000000000E+00  0.45593999997E+02  0.45594000000E+02  0.51100000000E-03 0.  1.
         11   -1    0    0    0    0 -0.00000000000E+00 -0.00000000000E+00 -0.45593999997E+02  0.45594000000E+02  0.51100000000E-03 0. -1.
    9900012    2    1    2    0    0 -0.75032523409E+00  0.88770038450E+00 -0.20492013259E+00  0.90007749099E+02  0.90000010587E+02 0.  0.
         12    1    1    2    0    0  0.75032523409E+00 -0.88770038450E+00  0.20492013259E+00  0.11802509014E+01  0.00000000000E+00 0. -1.
         11    1    3    3    0    0  0.72008353474E+01 -0.34717746217E+00 -0.60109907361E+01  0.93864035594E+01  0.51100000000E-03 0. -1.
        -11    1    3    3    0    0  0.19688031999E+02 -0.84735148429E+01  0.33851119765E+02  0.40066411960E+02  0.51100000000E-03 0.  1.
         12    1    3    3    0    0 -0.27639192581E+02  0.97083926896E+01 -0.28045049161E+02  0.40554933579E+02  0.00000000000E+00 0. -1.
</event>
<event>
 7    1  0.2000468E-015  0.9000772E+02  0.7816164E-02  0.1186339E+00
        -11   -1    0    0    0    0  0.00000000000E+00  0.00000000000E+00  0.45593999997E+02  0.45594000000E+02  0.51100000000E-03 0.  1.
         11   -1    0    0    0    0 -0.00000000000E+00 -0.00000000000E+00 -0.45593999997E+02  0.45594000000E+02  0.51100000000E-03 0. -1.
    9900012    2    1    2    0    0 -0.46559225397E-01 -0.61628629335E+00  0.10055261452E+01  0.90007720632E+02  0.89999981745E+02 0.  0.
         12    1    1    2    0    0  0.46559225397E-01  0.61628629335E+00 -0.10055261452E+01  0.11802793676E+01  0.00000000000E+00 0. -1.
         11    1    3    3    0    0 -0.19272062791E+01 -0.93721284884E+01  0.34034491079E+01  0.10155509959E+02  0.51100000000E-03 0. -1.
        -11    1    3    3    0    0 -0.75445534638E+01 -0.21921414396E+02  0.27515626543E+02  0.35980250143E+02  0.51100000000E-03 0.  1.
         12    1    3    3    0    0  0.94252005174E+01  0.30677256591E+02 -0.29913549505E+02  0.43871960530E+02  0.00000000000E+00 0. -1.
</event>
<event>
 7    1  0.2000468E-015  0.9000779E+02  0.7816164E-02  0.1186339E+00
        -11   -1    0    0    0    0  0.00000000000E+00  0.00000000000E+00  0.45593999997E+02  0.45594000000E+02  0.51100000000E-03 0.  1.
         11   -1    0    0    0    0 -0.00000000000E+00 -0.00000000000E+00 -0.45593999997E+02  0.45594000000E+02  0.51100000000E-03 0. -1.
    9900012    2    1    2    0    0  0.32385157744E+00 -0.94472155290E+00  0.62890282439E+00  0.90007789248E+02  0.90000051266E+02 0.  0.
         12    1    1    2    0    0 -0.32385157744E+00  0.94472155290E+00 -0.62890282439E+00  0.11802107520E+01  0.00000000000E+00 0. -1.
         11    1    3    3    0    0  0.84978554675E+01 -0.34638873194E+01  0.18906223556E+01  0.93694458780E+01  0.51100000000E-03 0. -1.
        -11    1    3    3    0    0  0.17842522259E+02  0.33919785790E+02 -0.84105055357E+01  0.39238298539E+02  0.51100000000E-03 0.  1.
         12    1    3    3    0    0 -0.26016526149E+02 -0.31400620023E+02  0.71487860045E+01  0.41400044831E+02  0.00000000000E+00 0. -1.
</event>
<event>
 7    1  0.2000468E-015  0.9000774E+02  0.7816164E-02  0.1186339E+00
        -11   -1    0    0    0    0  0.00000000000E+00  0.00000000000E+00  0.45593999997E+02  0.45594000000E+02  0.51100000000E-03 0.  1.
         11   -1    0    0    0    0 -0.00000000000E+00 -0.00000000000E+00 -0.45593999997E+02  0.45594000000E+02  0.51100000000E-03 0. -1.
    9900012    2    1    2    0    0 -0.81602134698E+00 -0.30076507694E+00  0.79790654043E+00  0.90007743537E+02  0.90000004952E+02 0.  0.
         12    1    1    2    0    0  0.81602134698E+00  0.30076507694E+00 -0.79790654043E+00  0.11802564626E+01  0.00000000000E+00 0. -1.
         11    1    3    3    0    0 -0.19653573749E+02  0.31386186020E+02 -0.33095878699E+01  0.37179416431E+02  0.51100000000E-03 0. -1.
        -11    1    3    3    0    0  0.30114432047E+01  0.70996304214E+01 -0.59575397249E+01  0.97450408994E+01  0.51100000000E-03 0.  1.
        -12    1    3    3    0    0  0.15826109198E+02 -0.38786581519E+02  0.10065034135E+02  0.43083286207E+02  0.00000000000E+00 0.  1.
</event>
<event>
 7    1  0.2000468E-015  0.9000778E+02  0.7816164E-02  0.1186339E+00
        -11   -1    0    0    0    0  0.00000000000E+00  0.00000000000E+00  0.45593999997E+02  0.45594000000E+02  0.51100000000E-03 0.  1.
         11   -1    0    0    0    0 -0.00000000000E+00 -0.00000000000E+00 -0.45593999997E+02  0.45594000000E+02  0.51100000000E-03 0. -1.
    9900012    2    1    2    0    0 -0.44811758160E+00 -0.75143035231E+00  0.79212166761E+00  0.90007782360E+02  0.90000044287E+02 0.  0.
         12    1    1    2    0    0  0.44811758160E+00  0.75143035231E+00 -0.79212166761E+00  0.11802176399E+01  0.00000000000E+00 0. -1.
         11    1    3    3    0    0 -0.10399760768E+02 -0.31515680567E+02  0.13447659378E+02  0.35808276818E+02  0.51100000000E-03 0. -1.
        -11    1    3    3    0    0 -0.68574391775E+01 -0.55968072535E+01  0.52828090623E+01  0.10308093682E+02  0.51100000000E-03 0.  1.
        -12    1    3    3    0    0  0.16809082364E+02  0.36361057468E+02 -0.17938346773E+02  0.43891411860E+02  0.00000000000E+00 0.  1.
</event>
<event>
 7    1  0.2000468E-015  0.9000776E+02  0.7816164E-02  0.1186339E+00
        -11   -1    0    0    0    0  0.00000000000E+00  0.00000000000E+00  0.45593999997E+02  0.45594000000E+02  0.51100000000E-03 0. -1.
         11   -1    0    0    0    0 -0.00000000000E+00 -0.00000000000E+00 -0.45593999997E+02  0.45594000000E+02  0.51100000000E-03 0.  1.
    9900012    2    1    2    0    0  0.96879540790E+00  0.57154174458E+00 -0.35739772322E+00  0.90007763735E+02  0.90000025417E+02 0.  0.
         12    1    1    2    0    0 -0.96879540790E+00 -0.57154174458E+00  0.35739772322E+00  0.11802362648E+01  0.00000000000E+00 0. -1.
         11    1    3    3    0    0  0.65642755160E+01  0.93159912827E+01  0.33353358110E+01  0.11874420906E+02  0.51100000000E-03 0. -1.
        -11    1    3    3    0    0 -0.36378046797E+02  0.98004686025E+01  0.11091667765E+02  0.39273866217E+02  0.51100000000E-03 0.  1.
         12    1    3    3    0    0  0.30782566688E+02 -0.18544918141E+02 -0.14784401299E+02  0.38859476612E+02  0.00000000000E+00 0. -1.
</event>
<event>
 7    1  0.2000468E-015  0.9000775E+02  0.7816164E-02  0.1186339E+00
        -11   -1    0    0    0    0  0.00000000000E+00  0.00000000000E+00  0.45593999997E+02  0.45594000000E+02  0.51100000000E-03 0. -1.
         11   -1    0    0    0    0 -0.00000000000E+00 -0.00000000000E+00 -0.45593999997E+02  0.45594000000E+02  0.51100000000E-03 0.  1.
    9900012    2    1    2    0    0 -0.10440241646E+01 -0.53161130559E+00  0.14276966254E+00  0.90007754173E+02  0.90000015728E+02 0.  0.
         12    1    1    2    0    0  0.10440241646E+01  0.53161130559E+00 -0.14276966254E+00  0.11802458274E+01  0.00000000000E+00 0. -1.
         11    1    3    3    0    0  0.49327237268E+01  0.14665514413E+02  0.37519252956E+02  0.40584521915E+02  0.51100000000E-03 0. -1.
        -11    1    3    3    0    0  0.34676481925E+01 -0.95480420520E+01  0.30985925514E+00  0.10162957445E+02  0.51100000000E-03 0.  1.
        -12    1    3    3    0    0 -0.94443960839E+01 -0.56490836667E+01 -0.37686342549E+02  0.39260274813E+02  0.00000000000E+00 0.  1.
</event>
<event>
 7    1  0.2000468E-015  0.9000772E+02  0.7816164E-02  0.1186339E+00
        -11   -1    0    0    0    0  0.00000000000E+00  0.00000000000E+00  0.45593999997E+02  0.45594000000E+02  0.51100000000E-03 0. -1.
         11   -1    0    0    0    0 -0.00000000000E+00 -0.00000000000E+00 -0.45593999997E+02  0.45594000000E+02  0.51100000000E-03 0.  1.
    9900012    2    1    2    0    0 -0.62280824751E+00  0.50891867183E+00 -0.86380661341E+00  0.90007724527E+02  0.89999985690E+02 0.  0.
         12    1    1    2    0    0  0.62280824751E+00 -0.50891867183E+00  0.86380661341E+00  0.11802754734E+01  0.00000000000E+00 0. -1.
         11    1    3    3    0    0 -0.41592553113E+02 -0.73349839880E-01  0.52323768909E+01  0.41920443972E+02  0.51100000000E-03 0. -1.
        -11    1    3    3    0    0  0.27841583958E+01 -0.50447297463E+01 -0.75071847631E+01  0.94635437081E+01  0.51100000000E-03 0.  1.
        -12    1    3    3    0    0  0.38185586469E+02  0.56269982580E+01  0.14110012588E+01  0.38623736846E+02  0.00000000000E+00 0.  1.
</event>
<event>
 7    1  0.2000468E-015  0.9000773E+02  0.7816164E-02  0.1186339E+00
        -11   -1    0    0    0    0  0.00000000000E+00  0.00000000000E+00  0.45593999997E+02  0.45594000000E+02  0.51100000000E-03 0.  1.
         11   -1    0    0    0    0 -0.00000000000E+00 -0.00000000000E+00 -0.45593999997E+02  0.45594000000E+02  0.51100000000E-03 0. -1.
    9900012    2    1    2    0    0  0.10616569936E+01  0.16650816388E+00  0.48805786500E+00  0.90007728413E+02  0.89999989628E+02 0.  0.
         12    1    1    2    0    0 -0.10616569936E+01 -0.16650816388E+00 -0.48805786500E+00  0.11802715875E+01  0.00000000000E+00 0. -1.
         11    1    3    3    0    0 -0.28141241496E+02  0.38138100374E+00 -0.28576020502E+02  0.40108152194E+02  0.51100000000E-03 0. -1.
        -11    1    3    3    0    0 -0.48439392623E+01 -0.16723011175E+01  0.89917442104E+01  0.10349483215E+02  0.51100000000E-03 0.  1.
        -12    1    3    3    0    0  0.34046837752E+02  0.14574282776E+01  0.20072334157E+02  0.39550093004E+02  0.00000000000E+00 0.  1.
</event>
<event>
 7    1  0.2000468E-015  0.9000778E+02  0.7816164E-02  0.1186339E+00
        -11   -1    0    0    0    0  0.00000000000E+00  0.00000000000E+00  0.45593999997E+02  0.45594000000E+02  0.51100000000E-03 0. -1.
         11   -1    0    0    0    0 -0.00000000000E+00 -0.00000000000E+00 -0.45593999997E+02  0.45594000000E+02  0.51100000000E-03 0.  1.
    9900012    2    1    2    0    0 -0.90044759594E+00  0.43435057920E+00  0.62725219046E+00  0.90007783236E+02  0.90000045175E+02 0.  0.
         12    1    1    2    0    0  0.90044759594E+00 -0.43435057920E+00 -0.62725219046E+00  0.11802167636E+01  0.00000000000E+00 0. -1.
         11    1    3    3    0    0  0.11746000661E+02  0.29604543483E+02  0.12047915474E+02  0.34052162837E+02  0.51100000000E-03 0. -1.
        -11    1    3    3    0    0  0.26999438153E+01 -0.10583798694E+01 -0.22027102412E+02  0.22217180413E+02  0.51100000000E-03 0.  1.
        -12    1    3    3    0    0 -0.15346392072E+02 -0.28111813034E+02  0.10606439129E+02  0.33738439986E+02  0.00000000000E+00 0.  1.
</event>
<event>
 7    1  0.2000468E-015  0.9000778E+02  0.7816164E-02  0.1186339E+00
        -11   -1    0    0    0    0  0.00000000000E+00  0.00000000000E+00  0.45593999997E+02  0.45594000000E+02  0.51100000000E-03 0. -1.
         11   -1    0    0    0    0 -0.00000000000E+00 -0.00000000000E+00 -0.45593999997E+02  0.45594000000E+02  0.51100000000E-03 0.  1.
    9900012    2    1    2    0    0 -0.11602883840E+01 -0.48095702949E-01 -0.21058086661E+00  0.90007776872E+02  0.90000038727E+02 0.  0.
         12    1    1    2    0    0  0.11602883840E+01  0.48095702949E-01  0.21058086661E+00  0.11802231281E+01  0.00000000000E+00 0. -1.
         11    1    3    3    0    0 -0.67435994264E+01  0.31718774337E+01  0.59019945646E+01  0.95063389262E+01  0.51100000000E-03 0. -1.
        -11    1    3    3    0    0 -0.25913806693E+02 -0.28813135563E+02  0.31294202350E+01  0.38878212788E+02  0.51100000000E-03 0.  1.
         12    1    3    3    0    0  0.31497117735E+02  0.25593162427E+02 -0.92419956663E+01  0.41623225158E+02  0.00000000000E+00 0. -1.
</event>
<event>
 7    1  0.2000468E-015  0.9000768E+02  0.7816164E-02  0.1186339E+00
        -11   -1    0    0    0    0  0.00000000000E+00  0.00000000000E+00  0.45593999997E+02  0.45594000000E+02  0.51100000000E-03 0. -1.
         11   -1    0    0    0    0 -0.00000000000E+00 -0.00000000000E+00 -0.45593999997E+02  0.45594000000E+02  0.51100000000E-03 0.  1.
    9900012    2    1    2    0    0 -0.27720072322E+00 -0.21648699493E+00 -0.11266963873E+01  0.90007681565E+02  0.89999942161E+02 0.  0.
         12    1    1    2    0    0  0.27720072322E+00  0.21648699493E+00  0.11266963873E+01  0.11803184354E+01  0.00000000000E+00 0. -1.
         11    1    3    3    0    0  0.16340037670E+01  0.74133756103E+01  0.42464925827E+01  0.86983220086E+01  0.51100000000E-03 0. -1.
        -11    1    3    3    0    0  0.27512965279E+02  0.69228400585E+01 -0.29226473742E+02  0.40731753468E+02  0.51100000000E-03 0.  1.
         12    1    3    3    0    0 -0.29424169770E+02 -0.14552702664E+02  0.23853284772E+02  0.40577606088E+02  0.00000000000E+00 0. -1.
</event>
<event>
 7    1  0.2000468E-015  0.9000771E+02  0.7816164E-02  0.1186339E+00
        -11   -1    0    0    0    0  0.00000000000E+00  0.00000000000E+00  0.45593999997E+02  0.45594000000E+02  0.51100000000E-03 0.  1.
         11   -1    0    0    0    0 -0.00000000000E+00 -0.00000000000E+00 -0.45593999997E+02  0.45594000000E+02  0.51100000000E-03 0. -1.
    9900012    2    1    2    0    0  0.25763605975E+00  0.17855962077E+00  0.11379032920E+01  0.90007710299E+02  0.89999971274E+02 0.  0.
         12    1    1    2    0    0 -0.25763605975E+00 -0.17855962077E+00 -0.11379032920E+01  0.11802897015E+01  0.00000000000E+00 0. -1.
         11    1    3    3    0    0 -0.31782649549E+00  0.38783501245E+02  0.36848983830E+00  0.38786553953E+02  0.51100000000E-03 0. -1.
        -11    1    3    3    0    0  0.10880543358E+02  0.25584882793E+00  0.16480922700E+01  0.11007628754E+02  0.51100000000E-03 0.  1.
        -12    1    3    3    0    0 -0.10305080803E+02 -0.38860790452E+02 -0.87867881625E+00  0.40213527592E+02  0.00000000000E+00 0.  1.
</event>
<event>
 7    1  0.2000468E-015  0.9000773E+02  0.7816164E-02  0.1186339E+00
        -11   -1    0    0    0    0  0.00000000000E+00  0.00000000000E+00  0.45593999997E+02  0.45594000000E+02  0.51100000000E-03 0. -1.
         11   -1    0    0    0    0 -0.00000000000E+00 -0.00000000000E+00 -0.45593999997E+02  0.45594000000E+02  0.51100000000E-03 0.  1.
    9900012    2    1    2    0    0 -0.73275060950E+00  0.82688924035E+00 -0.41517958999E+00  0.90007727420E+02  0.89999988622E+02 0.  0.
         12    1    1    2    0    0  0.73275060950E+00 -0.82688924035E+00  0.41517958999E+00  0.11802725802E+01  0.00000000000E+00 0. -1.
         11    1    3    3    0    0 -0.12203993609E+02  0.33392585164E+02  0.17195215013E+02  0.39492754064E+02  0.51100000000E-03 0. -1.
        -11    1    3    3    0    0 -0.17591018124E+01 -0.16995977679E+01  0.79462875560E+01  0.83142382660E+01  0.51100000000E-03 0.  1.
        -12    1    3    3    0    0  0.13230344812E+02 -0.30866098155E+02 -0.25556682159E+02  0.42200735090E+02  0.00000000000E+00 0.  1.
</event>
<event>
 7    1  0.2000468E-015  0.9000757E+02  0.7816164E-02  0.1186339E+00
        -11   -1    0    0    0    0  0.00000000000E+00  0.00000000000E+00  0.45593999997E+02  0.45594000000E+02  0.51100000000E-03 0. -1.
         11   -1    0    0    0    0 -0.00000000000E+00 -0.00000000000E+00 -0.45593999997E+02  0.45594000000E+02  0.51100000000E-03 0.  1.
    9900012    2    1    2    0    0 -0.11074934671E+01  0.25512375475E+00  0.31902702856E+00  0.90007572893E+02  0.89999832055E+02 0.  0.
         12    1    1    2    0    0  0.11074934671E+01 -0.25512375475E+00 -0.31902702856E+00  0.11804271069E+01  0.00000000000E+00 0. -1.
         11    1    3    3    0    0 -0.69218431147E+01  0.39077780562E+01 -0.87891710782E+01  0.11850408007E+02  0.51100000000E-03 0. -1.
        -11    1    3    3    0    0 -0.20930332310E+02 -0.15313221983E+02  0.31915936749E+02  0.41124209378E+02  0.51100000000E-03 0.  1.
         12    1    3    3    0    0  0.26744681958E+02  0.11660567681E+02 -0.22807738642E+02  0.37032955508E+02  0.00000000000E+00 0. -1.
</event>
<event>
 7    1  0.2000468E-015  0.9000770E+02  0.7816164E-02  0.1186339E+00
        -11   -1    0    0    0    0  0.00000000000E+00  0.00000000000E+00  0.45593999997E+02  0.45594000000E+02  0.51100000000E-03 0.  1.
         11   -1    0    0    0    0 -0.00000000000E+00 -0.00000000000E+00 -0.45593999997E+02  0.45594000000E+02  0.51100000000E-03 0. -1.
    9900012    2    1    2    0    0  0.41400821781E+00  0.10484385906E+01  0.34997555094E+00  0.90007699543E+02  0.89999960377E+02 0.  0.
         12    1    1    2    0    0 -0.41400821781E+00 -0.10484385906E+01 -0.34997555094E+00  0.11803004571E+01  0.00000000000E+00 0. -1.
         11    1    3    3    0    0  0.11343938940E+02  0.26761068780E+02 -0.26315616595E+02  0.39209073312E+02  0.51100000000E-03 0. -1.
        -11    1    3    3    0    0  0.88162501226E+01  0.14906230153E+01  0.21562234342E+01  0.91976911753E+01  0.51100000000E-03 0.  1.
        -12    1    3    3    0    0 -0.19746180845E+02 -0.27203253204E+02  0.24509368712E+02  0.41600935056E+02  0.00000000000E+00 0.  1.
</event>
<event>
 7    1  0.2000468E-015  0.9000767E+02  0.7816164E-02  0.1186339E+00
        -11   -1    0    0    0    0  0.00000000000E+00  0.00000000000E+00  0.45593999997E+02  0.45594000000E+02  0.51100000000E-03 0.  1.
         11   -1    0    0    0    0 -0.00000000000E+00 -0.00000000000E+00 -0.45593999997E+02  0.45594000000E+02  0.51100000000E-03 0. -1.
    9900012    2    1    2    0    0  0.45100692612E+00 -0.10856238529E+01 -0.10584784914E+00  0.90007665232E+02  0.89999925613E+02 0.  0.
         12    1    1    2    0    0 -0.45100692612E+00  0.10856238529E+01  0.10584784914E+00  0.11803347680E+01  0.00000000000E+00 0. -1.
         11    1    3    3    0    0 -0.10338127540E+02 -0.29510962753E+02 -0.12792512420E+02  0.33784940105E+02  0.51100000000E-03 0. -1.
        -11    1    3    3    0    0  0.99127316626E+01 -0.88045994971E+01 -0.60049759984E+01  0.14554825946E+02  0.51100000000E-03 0.  1.
        -12    1    3    3    0    0  0.87640280315E+00  0.37229938398E+02  0.18691640569E+02  0.41667899181E+02  0.00000000000E+00 0.  1.
</event>
<event>
 7    1  0.2000468E-015  0.9000787E+02  0.7816164E-02  0.1186339E+00
        -11   -1    0    0    0    0  0.00000000000E+00  0.00000000000E+00  0.45593999997E+02  0.45594000000E+02  0.51100000000E-03 0.  1.
         11   -1    0    0    0    0 -0.00000000000E+00 -0.00000000000E+00 -0.45593999997E+02  0.45594000000E+02  0.51100000000E-03 0. -1.
    9900012    2    1    2    0    0  0.28612862280E-01  0.10292778847E+01  0.57661137429E+00  0.90007867661E+02  0.90000130714E+02 0.  0.
         12    1    1    2    0    0 -0.28612862280E-01 -0.10292778847E+01 -0.57661137429E+00  0.11801323387E+01  0.00000000000E+00 0. -1.
         11    1    3    3    0    0 -0.85423451986E+01  0.34554068784E+01  0.47564295151E+01  0.10369914184E+02  0.51100000000E-03 0. -1.
        -11    1    3    3    0    0  0.20958395628E+02 -0.23971404533E+02  0.25595622075E+02  0.40853622266E+02  0.51100000000E-03 0.  1.
         12    1    3    3    0    0 -0.12387437567E+02  0.21545275539E+02 -0.29775440216E+02  0.38784331212E+02  0.00000000000E+00 0. -1.
</event>
<event>
 7    1  0.2000468E-015  0.9000785E+02  0.7816164E-02  0.1186339E+00
        -11   -1    0    0    0    0  0.00000000000E+00  0.00000000000E+00  0.45593999997E+02  0.45594000000E+02  0.51100000000E-03 0. -1.
         11   -1    0    0    0    0 -0.00000000000E+00 -0.00000000000E+00 -0.45593999997E+02  0.45594000000E+02  0.51100000000E-03 0.  1.
    9900012    2    1    2    0    0 -0.70086250211E+00 -0.82434547212E+00 -0.47117657174E+00  0.90007847016E+02  0.90000109796E+02 0.  0.
         12    1    1    2    0    0  0.70086250211E+00  0.82434547212E+00  0.47117657174E+00  0.11801529842E+01  0.00000000000E+00 0. -1.
         11    1    3    3    0    0  0.68751029096E+01 -0.29868047899E+01 -0.13402120078E+02  0.15355939103E+02  0.51100000000E-03 0. -1.
        -11    1    3    3    0    0 -0.23413531235E+02 -0.23818776986E+02 -0.11819279131E+02  0.35429125609E+02  0.51100000000E-03 0.  1.
         12    1    3    3    0    0  0.15837565823E+02  0.25981236304E+02  0.24750222638E+02  0.39222782304E+02  0.00000000000E+00 0. -1.
</event>
<event>
 7    1  0.2000468E-015  0.9000759E+02  0.7816164E-02  0.1186339E+00
        -11   -1    0    0    0    0  0.00000000000E+00  0.00000000000E+00  0.45593999997E+02  0.45594000000E+02  0.51100000000E-03 0. -1.
         11   -1    0    0    0    0 -0.00000000000E+00 -0.00000000000E+00 -0.45593999997E+02  0.45594000000E+02  0.51100000000E-03 0.  1.
    9900012    2    1    2    0    0  0.29821278313E-01 -0.11784437290E+01  0.61310491290E-01  0.90007585705E+02  0.89999845036E+02 0.  0.
         12    1    1    2    0    0 -0.29821278313E-01  0.11784437290E+01 -0.61310491290E-01  0.11804142949E+01  0.00000000000E+00 0. -1.
         11    1    3    3    0    0  0.10738917908E+02 -0.52755908699E+01  0.35185882929E+02  0.37164533827E+02  0.51100000000E-03 0. -1.
        -11    1    3    3    0    0 -0.34562033863E+01  0.54801547842E+01  0.73116823127E+01  0.97692444339E+01  0.51100000000E-03 0.  1.
        -12    1    3    3    0    0 -0.72528932430E+01 -0.13830076433E+01 -0.42436254750E+02  0.43073807444E+02  0.00000000000E+00 0.  1.
</event>
<event>
 7    1  0.2000468E-015  0.9000756E+02  0.7816164E-02  0.1186339E+00
        -11   -1    0    0    0    0  0.00000000000E+00  0.00000000000E+00  0.45593999997E+02  0.45594000000E+02  0.51100000000E-03 0.  1.
         11   -1    0    0    0    0 -0.00000000000E+00 -0.00000000000E+00 -0.45593999997E+02  0.45594000000E+02  0.51100000000E-03 0. -1.
    9900012    2    1    2    0    0  0.38829531404E+00  0.55808111122E+00  0.96499483150E+00  0.90007558217E+02  0.89999817186E+02 0.  0.
         12    1    1    2    0    0 -0.38829531404E+00 -0.55808111122E+00 -0.96499483150E+00  0.11804417827E+01  0.00000000000E+00 0. -1.
         11    1    3    3    0    0  0.20261163522E+02  0.85715348204E+01 -0.29987511793E+02  0.37191891862E+02  0.51100000000E-03 0. -1.
        -11    1    3    3    0    0  0.42601158235E+01 -0.24394932889E+01 -0.63578103000E+01  0.80325255311E+01  0.51100000000E-03 0.  1.
        -12    1    3    3    0    0 -0.24132984032E+02 -0.55739604203E+01  0.37310316925E+02  0.44783140824E+02  0.00000000000E+00 0.  1.
</event>
<event>
 7    1  0.2000468E-015  0.9000774E+02  0.7816164E-02  0.1186339E+00
        -11   -1    0    0    0    0  0.00000000000E+00  0.00000000000E+00  0.45593999997E+02  0.45594000000E+02  0.51100000000E-03 0. -1.
         11   -1    0    0    0    0 -0.00000000000E+00 -0.00000000000E+00 -0.45593999997E+02  0.45594000000E+02  0.51100000000E-03 0.  1.
    9900012    2    1    2    0    0  0.43361595701E+00 -0.60547012948E+00  0.91563385238E+00  0.90007744846E+02  0.90000006278E+02 0.  0.
         12    1    1    2    0    0 -0.43361595701E+00  0.60547012948E+00 -0.91563385238E+00  0.11802551536E+01  0.00000000000E+00 0. -1.
         11    1    3    3    0    0  0.48849748689E+01  0.11711250037E+02  0.19888612285E+01  0.12844139759E+02  0.51100000000E-03 0. -1.
        -11    1    3    3    0    0  0.25912985476E+02 -0.25464053264E+01 -0.25913149683E+02  0.36734974114E+02  0.51100000000E-03 0.  1.
         12    1    3    3    0    0 -0.30364344388E+02 -0.97703148398E+01  0.24839922307E+02  0.40428630974E+02  0.00000000000E+00 0. -1.
</event>
<event>
 7    1  0.2000468E-015  0.9000798E+02  0.7816164E-02  0.1186339E+00
        -11   -1    0    0    0    0  0.00000000000E+00  0.00000000000E+00  0.45593999997E+02  0.45594000000E+02  0.51100000000E-03 0.  1.
         11   -1    0    0    0    0 -0.00000000000E+00 -0.00000000000E+00 -0.45593999997E+02  0.45594000000E+02  0.51100000000E-03 0. -1.
    9900012    2    1    2    0    0  0.21896263002E+00  0.11552967624E+01  0.98942267018E-01  0.90007981011E+02  0.90000245560E+02 0.  0.
         12    1    1    2    0    0 -0.21896263002E+00 -0.11552967624E+01 -0.98942267018E-01  0.11800189891E+01  0.00000000000E+00 0. -1.
         11    1    3    3    0    0  0.67700482198E+01  0.43269237370E+02 -0.39207344692E+01  0.43970815486E+02  0.51100000000E-03 0. -1.
        -11    1    3    3    0    0  0.49623179945E+01 -0.70765461229E+01  0.29785999568E+01  0.91418905524E+01  0.51100000000E-03 0.  1.
        -12    1    3    3    0    0 -0.11513403584E+02 -0.35037394485E+02  0.10410767794E+01  0.36895274972E+02  0.00000000000E+00 0.  1.
</event>
<event>
 7    1  0.2000468E-015  0.9000778E+02  0.7816164E-02  0.1186339E+00
        -11   -1    0    0    0    0  0.00000000000E+00  0.00000000000E+00  0.45593999997E+02  0.45594000000E+02  0.51100000000E-03 0.  1.
         11   -1    0    0    0    0 -0.00000000000E+00 -0.00000000000E+00 -0.45593999997E+02  0.45594000000E+02  0.51100000000E-03 0. -1.
    9900012    2    1    2    0    0 -0.72533167460E+00 -0.86363053385E+00  0.34780097372E+00  0.90007775761E+02  0.90000037601E+02 0.  0.
         12    1    1    2    0    0  0.72533167460E+00  0.86363053385E+00 -0.34780097372E+00  0.11802242391E+01  0.00000000000E+00 0. -1.
         11    1    3    3    0    0  0.15669159490E+02 -0.30843219907E+02 -0.26793457533E+02  0.43757469536E+02  0.51100000000E-03 0. -1.
        -11    1    3    3    0    0 -0.93449186661E+01  0.54031418190E+01  0.32896538919E+01  0.11284647508E+02  0.51100000000E-03 0.  1.
        -12    1    3    3    0    0 -0.70495724980E+01  0.24576447554E+02  0.23851604615E+02  0.34965658717E+02  0.00000000000E+00 0.  1.
</event>
<event>
 7    1  0.2000468E-015  0.9000772E+02  0.7816164E-02  0.1186339E+00
        -11   -1    0    0    0    0  0.00000000000E+00  0.00000000000E+00  0.45593999997E+02  0.45594000000E+02  0.51100000000E-03 0. -1.
         11   -1    0    0    0    0 -0.00000000000E+00 -0.00000000000E+00 -0.45593999997E+02  0.45594000000E+02  0.51100000000E-03 0.  1.
    9900012    2    1    2    0    0  0.21130099891E+00  0.10687849053E+01  0.45399728759E+00  0.90007719176E+02  0.89999980269E+02 0.  0.
         12    1    1    2    0    0 -0.21130099891E+00 -0.10687849053E+01 -0.45399728759E+00  0.11802808238E+01  0.00000000000E+00 0. -1.
         11    1    3    3    0    0 -0.19688101417E+01 -0.26838394333E+02  0.12464629206E+02  0.29657083559E+02  0.51100000000E-03 0. -1.
        -11    1    3    3    0    0 -0.16380984877E+02 -0.72407903824E+01  0.24022437486E+01  0.18070320589E+02  0.51100000000E-03 0.  1.
        -12    1    3    3    0    0  0.18561096018E+02  0.35147969621E+02 -0.14412875667E+02  0.42280315028E+02  0.00000000000E+00 0.  1.
</event>
<event>
 7    1  0.2000468E-015  0.9000780E+02  0.7816164E-02  0.1186339E+00
        -11   -1    0    0    0    0  0.00000000000E+00  0.00000000000E+00  0.45593999997E+02  0.45594000000E+02  0.51100000000E-03 0.  1.
         11   -1    0    0    0    0 -0.00000000000E+00 -0.00000000000E+00 -0.45593999997E+02  0.45594000000E+02  0.51100000000E-03 0. -1.
    9900012    2    1    2    0    0 -0.32675014978E+00 -0.11317413653E+01  0.72646292775E-01  0.90007795924E+02  0.90000058030E+02 0.  0.
         12    1    1    2    0    0  0.32675014978E+00  0.11317413653E+01 -0.72646292775E-01  0.11802040765E+01  0.00000000000E+00 0. -1.
         11    1    3    3    0    0 -0.37187929354E+01 -0.64178003576E+00 -0.33861376110E+01  0.50702298461E+01  0.51100000000E-03 0. -1.
        -11    1    3    3    0    0 -0.34428716431E+02  0.15537138810E+02  0.17362786558E+02  0.41571691748E+02  0.51100000000E-03 0.  1.
         12    1    3    3    0    0  0.37820759216E+02 -0.16027100139E+02 -0.13904002654E+02  0.43365874330E+02  0.00000000000E+00 0. -1.
</event>
<event>
 7    1  0.2000468E-015  0.9000772E+02  0.7816164E-02  0.1186339E+00
        -11   -1    0    0    0    0  0.00000000000E+00  0.00000000000E+00  0.45593999997E+02  0.45594000000E+02  0.51100000000E-03 0.  1.
         11   -1    0    0    0    0 -0.00000000000E+00 -0.00000000000E+00 -0.45593999997E+02  0.45594000000E+02  0.51100000000E-03 0. -1.
    9900012    2    1    2    0    0  0.15914203394E+00  0.23114922873E+00  0.11464321145E+01  0.90007719209E+02  0.89999980302E+02 0.  0.
         12    1    1    2    0    0 -0.15914203394E+00 -0.23114922873E+00 -0.11464321145E+01  0.11802807912E+01  0.00000000000E+00 0. -1.
         11    1    3    3    0    0 -0.31094406310E+02  0.40430421308E+01 -0.26808632952E+02  0.41254225171E+02  0.51100000000E-03 0. -1.
        -11    1    3    3    0    0  0.27554339972E+01 -0.98541104913E+01  0.38165259525E+01  0.10920704222E+02  0.51100000000E-03 0.  1.
        -12    1    3    3    0    0  0.28498114347E+02  0.60422175892E+01  0.24138539114E+02  0.37832789816E+02  0.00000000000E+00 0.  1.
</event>
<event>
 7    1  0.2000468E-015  0.9000785E+02  0.7816164E-02  0.1186339E+00
        -11   -1    0    0    0    0  0.00000000000E+00  0.00000000000E+00  0.45593999997E+02  0.45594000000E+02  0.51100000000E-03 0. -1.
         11   -1    0    0    0    0 -0.00000000000E+00 -0.00000000000E+00 -0.45593999997E+02  0.45594000000E+02  0.51100000000E-03 0.  1.
    9900012    2    1    2    0    0  0.98532464612E-02  0.11797181415E+01 -0.30374207518E-01  0.90007849767E+02  0.90000112584E+02 0.  0.
         12    1    1    2    0    0 -0.98532464612E-02 -0.11797181415E+01  0.30374207518E-01  0.11801502330E+01  0.00000000000E+00 0. -1.
         11    1    3    3    0    0  0.14311915776E+02 -0.25621367359E+02 -0.30134677042E+02  0.42064048298E+02  0.51100000000E-03 0. -1.
        -11    1    3    3    0    0 -0.17077121497E+01 -0.26798143740E+01  0.90454063791E+01  0.95873386656E+01  0.51100000000E-03 0.  1.
        -12    1    3    3    0    0 -0.12594350380E+02  0.29480899874E+02  0.21058896455E+02  0.38356462804E+02  0.00000000000E+00 0.  1.
</event>
<event>
 7    1  0.2000468E-015  0.9000794E+02  0.7816164E-02  0.1186339E+00
        -11   -1    0    0    0    0  0.00000000000E+00  0.00000000000E+00  0.45593999997E+02  0.45594000000E+02  0.51100000000E-03 0. -1.
         11   -1    0    0    0    0 -0.00000000000E+00 -0.00000000000E+00 -0.45593999997E+02  0.45594000000E+02  0.51100000000E-03 0.  1.
    9900012    2    1    2    0    0  0.68865075108E+00 -0.40046616834E+00 -0.87059010910E+00  0.90007940617E+02  0.90000204633E+02 0.  0.
         12    1    1    2    0    0 -0.68865075108E+00  0.40046616834E+00  0.87059010910E+00  0.11800593828E+01  0.00000000000E+00 0. -1.
         11    1    3    3    0    0 -0.18023344391E+02  0.22840730492E+02  0.18677566573E+02  0.34574432834E+02  0.51100000000E-03 0. -1.
        -11    1    3    3    0    0 -0.72762090898E+01  0.58234061575E+01  0.37139332080E+01  0.10032376495E+02  0.51100000000E-03 0.  1.
        -12    1    3    3    0    0  0.25988204232E+02 -0.29064602818E+02 -0.23262089890E+02  0.45401131288E+02  0.00000000000E+00 0.  1.
</event>
<event>
 7    1  0.2000468E-015  0.9000769E+02  0.7816164E-02  0.1186339E+00
        -11   -1    0    0    0    0  0.00000000000E+00  0.00000000000E+00  0.45593999997E+02  0.45594000000E+02  0.51100000000E-03 0. -1.
         11   -1    0    0    0    0 -0.00000000000E+00 -0.00000000000E+00 -0.45593999997E+02  0.45594000000E+02  0.51100000000E-03 0.  1.
    9900012    2    1    2    0    0 -0.11793063238E+01  0.75455907326E-02 -0.48028559078E-01  0.90007691954E+02  0.89999952688E+02 0.  0.
         12    1    1    2    0    0  0.11793063238E+01 -0.75455907326E-02  0.48028559078E-01  0.11803080461E+01  0.00000000000E+00 0. -1.
         11    1    3    3    0    0 -0.33631640230E+02  0.15673243572E+02  0.59024717493E+01  0.37570959020E+02  0.51100000000E-03 0. -1.
        -11    1    3    3    0    0 -0.60018617231E+01  0.43418850494E+01 -0.52568253056E+01  0.90834201973E+01  0.51100000000E-03 0.  1.
        -12    1    3    3    0    0  0.38454195630E+02 -0.20007583031E+02 -0.69367500279E+00  0.43353312737E+02  0.00000000000E+00 0.  1.
</event>
<event>
 7    1  0.2000468E-015  0.9000765E+02  0.7816164E-02  0.1186339E+00
        -11   -1    0    0    0    0  0.00000000000E+00  0.00000000000E+00  0.45593999997E+02  0.45594000000E+02  0.51100000000E-03 0. -1.
         11   -1    0    0    0    0 -0.00000000000E+00 -0.00000000000E+00 -0.45593999997E+02  0.45594000000E+02  0.51100000000E-03 0.  1.
    9900012    2    1    2    0    0  0.62885163546E+00 -0.38377265762E+00 -0.92222419173E+00  0.90007646963E+02  0.89999907103E+02 0.  0.
         12    1    1    2    0    0 -0.62885163546E+00  0.38377265762E+00  0.92222419173E+00  0.11803530370E+01  0.00000000000E+00 0. -1.
         11    1    3    3    0    0  0.19759495853E+02  0.20328003039E+02  0.27549868389E+02  0.39530502558E+02  0.51100000000E-03 0. -1.
        -11    1    3    3    0    0 -0.61191178150E+01  0.65646405537E+01 -0.26002494803E-01  0.89743403559E+01  0.51100000000E-03 0.  1.
        -12    1    3    3    0    0 -0.13011526403E+02 -0.27276416250E+02 -0.28446090086E+02  0.41502804050E+02  0.00000000000E+00 0.  1.
</event>
<event>
 7    1  0.2000468E-015  0.9000773E+02  0.7816164E-02  0.1186339E+00
        -11   -1    0    0    0    0  0.00000000000E+00  0.00000000000E+00  0.45593999997E+02  0.45594000000E+02  0.51100000000E-03 0.  1.
         11   -1    0    0    0    0 -0.00000000000E+00 -0.00000000000E+00 -0.45593999997E+02  0.45594000000E+02  0.51100000000E-03 0. -1.
    9900012    2    1    2    0    0  0.16873754252E+00 -0.50779716170E-01  0.11670370091E+01  0.90007734641E+02  0.89999995938E+02 0.  0.
         12    1    1    2    0    0 -0.16873754252E+00  0.50779716170E-01 -0.11670370091E+01  0.11802653594E+01  0.00000000000E+00 0. -1.
         11    1    3    3    0    0 -0.66568314984E-01  0.14763020442E+02 -0.77774750781E+01  0.16686531178E+02  0.51100000000E-03 0. -1.
        -11    1    3    3    0    0 -0.23526755598E+01 -0.12896798639E+02  0.40002912653E+02  0.42096264898E+02  0.51100000000E-03 0.  1.
         12    1    3    3    0    0  0.25879814173E+01 -0.19170015198E+01 -0.31058400565E+02  0.31224938564E+02  0.00000000000E+00 0. -1.
</event>
<event>
 7    1  0.2000468E-015  0.9000782E+02  0.7816164E-02  0.1186339E+00
        -11   -1    0    0    0    0  0.00000000000E+00  0.00000000000E+00  0.45593999997E+02  0.45594000000E+02  0.51100000000E-03 0. -1.
         11   -1    0    0    0    0 -0.00000000000E+00 -0.00000000000E+00 -0.45593999997E+02  0.45594000000E+02  0.51100000000E-03 0.  1.
    9900012    2    1    2    0    0  0.98072907316E+00  0.48496111869E+00 -0.44250779966E+00  0.90007817830E+02  0.90000080225E+02 0.  0.
         12    1    1    2    0    0 -0.98072907316E+00 -0.48496111869E+00  0.44250779966E+00  0.11801821700E+01  0.00000000000E+00 0. -1.
         11    1    3    3    0    0  0.55794778243E+01  0.39820173979E+01  0.66976045750E+01  0.95835767150E+01  0.51100000000E-03 0. -1.
        -11    1    3    3    0    0 -0.67652012748E+01  0.33208437697E+02  0.15475334224E+02  0.37256600116E+02  0.51100000000E-03 0.  1.
         12    1    3    3    0    0  0.21664525237E+01 -0.36705493976E+02 -0.22615446599E+02  0.43167640999E+02  0.00000000000E+00 0. -1.
</event>
<event>
 7    1  0.2000468E-015  0.9000775E+02  0.7816164E-02  0.1186339E+00
        -11   -1    0    0    0    0  0.00000000000E+00  0.00000000000E+00  0.45593999997E+02  0.45594000000E+02  0.51100000000E-03 0.  1.
         11   -1    0    0    0    0 -0.00000000000E+00 -0.00000000000E+00 -0.45593999997E+02  0.45594000000E+02  0.51100000000E-03 0. -1.
    9900012    2    1    2    0    0  0.33541598918E+00 -0.11051406001E+01 -0.24320040830E+00  0.90007751691E+02  0.90000013214E+02 0.  0.
         12    1    1    2    0    0 -0.33541598918E+00  0.11051406001E+01  0.24320040830E+00  0.11802483088E+01  0.00000000000E+00 0. -1.
         11    1    3    3    0    0  0.20224661793E+02 -0.43534175221E+01 -0.28323960256E+02  0.35074719010E+02  0.51100000000E-03 0. -1.
        -11    1    3    3    0    0  0.86787668925E+01  0.13536380865E+02  0.14569701141E+02  0.21698635748E+02  0.51100000000E-03 0.  1.
        -12    1    3    3    0    0 -0.28568012697E+02 -0.10288103943E+02  0.13511058707E+02  0.33234396934E+02  0.00000000000E+00 0.  1.
</event>
<event>
 7    1  0.2000468E-015  0.9000765E+02  0.7816164E-02  0.1186339E+00
        -11   -1    0    0    0    0  0.00000000000E+00  0.00000000000E+00  0.45593999997E+02  0.45594000000E+02  0.51100000000E-03 0.  1.
         11   -1    0    0    0    0 -0.00000000000E+00 -0.00000000000E+00 -0.45593999997E+02  0.45594000000E+02  0.51100000000E-03 0. -1.
    9900012    2    1    2    0    0 -0.97723726824E+00 -0.43244072304E-01  0.66056919929E+00  0.90007654968E+02  0.89999915213E+02 0.  0.
         12    1    1    2    0    0  0.97723726824E+00  0.43244072304E-01 -0.66056919929E+00  0.11803450323E+01  0.00000000000E+00 0. -1.
         11    1    3    3    0    0 -0.18180503557E+02 -0.98797864097E+01 -0.28417328701E+02  0.35152317987E+02  0.51100000000E-03 0. -1.
        -11    1    3    3    0    0 -0.26599061099E+01 -0.20146072275E+01 -0.93921482580E+01  0.99672559892E+01  0.51100000000E-03 0.  1.
        -12    1    3    3    0    0  0.19863172399E+02  0.11851149565E+02  0.38470046158E+02  0.44888080992E+02  0.00000000000E+00 0.  1.
</event>
<event>
 7    1  0.2000468E-015  0.9000776E+02  0.7816164E-02  0.1186339E+00
        -11   -1    0    0    0    0  0.00000000000E+00  0.00000000000E+00  0.45593999997E+02  0.45594000000E+02  0.51100000000E-03 0. -1.
         11   -1    0    0    0    0 -0.00000000000E+00 -0.00000000000E+00 -0.45593999997E+02  0.45594000000E+02  0.51100000000E-03 0.  1.
    9900012    2    1    2    0    0  0.48269796102E+00  0.10609777364E+01 -0.18516671985E+00  0.90007763671E+02  0.90000025351E+02 0.  0.
         12    1    1    2    0    0 -0.48269796102E+00 -0.10609777364E+01  0.18516671985E+00  0.11802363293E+01  0.00000000000E+00 0. -1.
         11    1    3    3    0    0  0.93254104942E+01 -0.49451621704E+01 -0.41845459603E+00  0.10563759477E+02  0.51100000000E-03 0. -1.
        -11    1    3    3    0    0 -0.39618914953E+02 -0.65990842986E+01  0.15238171372E+02  0.42958214612E+02  0.51100000000E-03 0.  1.
         12    1    3    3    0    0  0.30776202420E+02  0.12605224205E+02 -0.15004883496E+02  0.36485789582E+02  0.00000000000E+00 0. -1.
</event>
<event>
 7    1  0.2000468E-015  0.9000772E+02  0.7816164E-02  0.1186339E+00
        -11   -1    0    0    0    0  0.00000000000E+00  0.00000000000E+00  0.45593999997E+02  0.45594000000E+02  0.51100000000E-03 0.  1.
         11   -1    0    0    0    0 -0.00000000000E+00 -0.00000000000E+00 -0.45593999997E+02  0.45594000000E+02  0.51100000000E-03 0. -1.
    9900012    2    1    2    0    0  0.93010523314E+00 -0.45764347345E+00  0.56438705807E+00  0.90007717811E+02  0.89999978886E+02 0.  0.
         12    1    1    2    0    0 -0.93010523314E+00  0.45764347345E+00 -0.56438705807E+00  0.11802821886E+01  0.00000000000E+00 0. -1.
         11    1    3    3    0    0 -0.67455411691E+01  0.46579982960E+01  0.27316718187E+01  0.86406773447E+01  0.51100000000E-03 0. -1.
        -11    1    3    3    0    0 -0.16233827373E+02 -0.22196075224E+02  0.28006324774E+02  0.39249931645E+02  0.51100000000E-03 0.  1.
         12    1    3    3    0    0  0.23909473775E+02  0.17080433454E+02 -0.30173609534E+02  0.42117108822E+02  0.00000000000E+00 0. -1.
</event>
<event>
 7    1  0.2000468E-015  0.9000773E+02  0.7816164E-02  0.1186339E+00
        -11   -1    0    0    0    0  0.00000000000E+00  0.00000000000E+00  0.45593999997E+02  0.45594000000E+02  0.51100000000E-03 0. -1.
         11   -1    0    0    0    0 -0.00000000000E+00 -0.00000000000E+00 -0.45593999997E+02  0.45594000000E+02  0.51100000000E-03 0.  1.
    9900012    2    1    2    0    0 -0.53042763903E+00 -0.21284129518E-01 -0.10541521071E+01  0.90007727506E+02  0.89999988709E+02 0.  0.
         12    1    1    2    0    0  0.53042763903E+00  0.21284129518E-01  0.10541521071E+01  0.11802724937E+01  0.00000000000E+00 0. -1.
         11    1    3    3    0    0  0.35218754348E+02  0.13394489564E+02  0.32553876618E+01  0.37820240052E+02  0.51100000000E-03 0. -1.
        -11    1    3    3    0    0  0.32627705599E+01  0.71852042635E+01 -0.55878640958E+00  0.79110729075E+01  0.51100000000E-03 0.  1.
        -12    1    3    3    0    0 -0.39011952547E+02 -0.20600977957E+02 -0.37507533593E+01  0.44276414547E+02  0.00000000000E+00 0.  1.
</event>
<event>
 7    1  0.2000468E-015  0.9000822E+02  0.7816164E-02  0.1186338E+00
        -11   -1    0    0    0    0  0.00000000000E+00  0.00000000000E+00  0.45593999997E+02  0.45594000000E+02  0.51100000000E-03 0. -1.
         11   -1    0    0    0    0 -0.00000000000E+00 -0.00000000000E+00 -0.45593999997E+02  0.45594000000E+02  0.51100000000E-03 0.  1.
    9900012    2    1    2    0    0  0.34629809000E+00 -0.31880229057E-01 -0.11273595163E+01  0.90008221124E+02  0.90000488842E+02 0.  0.
         12    1    1    2    0    0 -0.34629809000E+00  0.31880229057E-01  0.11273595163E+01  0.11797788755E+01  0.00000000000E+00 0. -1.
         11    1    3    3    0    0 -0.40461143160E+01 -0.60132280965E+01 -0.63103366088E+01  0.96099064292E+01  0.51100000000E-03 0. -1.
        -11    1    3    3    0    0 -0.28251709877E+01 -0.31953295068E+02 -0.16541337400E+02  0.36091695722E+02  0.51100000000E-03 0.  1.
         12    1    3    3    0    0  0.72175833937E+01  0.37934642936E+02  0.21724314493E+02  0.44306618974E+02  0.00000000000E+00 0. -1.
</event>
<event>
 7    1  0.2000468E-015  0.9000775E+02  0.7816164E-02  0.1186339E+00
        -11   -1    0    0    0    0  0.00000000000E+00  0.00000000000E+00  0.45593999997E+02  0.45594000000E+02  0.51100000000E-03 0. -1.
         11   -1    0    0    0    0 -0.00000000000E+00 -0.00000000000E+00 -0.45593999997E+02  0.45594000000E+02  0.51100000000E-03 0.  1.
    9900012    2    1    2    0    0  0.58359822554E+00  0.63168644237E+00 -0.80832119162E+00  0.90007746722E+02  0.90000008179E+02 0.  0.
         12    1    1    2    0    0 -0.58359822554E+00 -0.63168644237E+00  0.80832119162E+00  0.11802532775E+01  0.00000000000E+00 0. -1.
         11    1    3    3    0    0 -0.29401098796E+01  0.16126534689E+02  0.37427005210E+02  0.40859394102E+02  0.51100000000E-03 0. -1.
        -11    1    3    3    0    0  0.11112854388E+01 -0.72956498080E+01  0.22936442628E+01  0.77280182267E+01  0.51100000000E-03 0.  1.
        -12    1    3    3    0    0  0.24124226663E+01 -0.81991984387E+01 -0.40528970664E+02  0.41420334393E+02  0.00000000000E+00 0.  1.
</event>
<event>
 7    1  0.2000468E-015  0.9000822E+02  0.7816164E-02  0.1186338E+00
        -11   -1    0    0    0    0  0.00000000000E+00  0.00000000000E+00  0.45593999997E+02  0.45594000000E+02  0.51100000000E-03 0. -1.
         11   -1    0    0    0    0 -0.00000000000E+00 -0.00000000000E+00 -0.45593999997E+02  0.45594000000E+02  0.51100000000E-03 0.  1.
    9900012    2    1    2    0    0 -0.86684867108E+00  0.76807434894E+00 -0.22477694507E+00  0.90008216334E+02  0.90000483988E+02 0.  0.
         12    1    1    2    0    0  0.86684867108E+00 -0.76807434894E+00  0.22477694507E+00  0.11797836662E+01  0.00000000000E+00 0. -1.
         11    1    3    3    0    0  0.79202092719E+01 -0.81583790733E+01 -0.24531800397E+01  0.11632151847E+02  0.51100000000E-03 0. -1.
        -11    1    3    3    0    0  0.22063235128E+02 -0.71566201010E+01 -0.25069714217E+02  0.34153976734E+02  0.51100000000E-03 0.  1.
         12    1    3    3    0    0 -0.30850293071E+02  0.16083073523E+02  0.27298117311E+02  0.44222087753E+02  0.00000000000E+00 0. -1.
</event>
<event>
 7    1  0.2000468E-015  0.9000781E+02  0.7816164E-02  0.1186339E+00
        -11   -1    0    0    0    0  0.00000000000E+00  0.00000000000E+00  0.45593999997E+02  0.45594000000E+02  0.51100000000E-03 0.  1.
         11   -1    0    0    0    0 -0.00000000000E+00 -0.00000000000E+00 -0.45593999997E+02  0.45594000000E+02  0.51100000000E-03 0. -1.
    9900012    2    1    2    0    0  0.14229672083E+00  0.11712880465E+01 -0.26095297172E-01  0.90007811452E+02  0.90000073763E+02 0.  0.
         12    1    1    2    0    0 -0.14229672083E+00 -0.11712880465E+01  0.26095297172E-01  0.11801885481E+01  0.00000000000E+00 0. -1.
         11    1    3    3    0    0  0.10685093725E+02 -0.10699224988E+02 -0.35163943392E+02  0.38277245961E+02  0.51100000000E-03 0. -1.
        -11    1    3    3    0    0 -0.93507139173E+01 -0.28712553340E+01 -0.34762570323E+01  0.10380959550E+02  0.51100000000E-03 0.  1.
        -12    1    3    3    0    0 -0.11920830866E+01  0.14741768369E+02  0.38614105127E+02  0.41349605941E+02  0.00000000000E+00 0.  1.
</event>
<event>
 7    1  0.2000468E-015  0.9000779E+02  0.7816164E-02  0.1186339E+00
        -11   -1    0    0    0    0  0.00000000000E+00  0.00000000000E+00  0.45593999997E+02  0.45594000000E+02  0.51100000000E-03 0.  1.
         11   -1    0    0    0    0 -0.00000000000E+00 -0.00000000000E+00 -0.45593999997E+02  0.45594000000E+02  0.51100000000E-03 0. -1.
    9900012    2    1    2    0    0 -0.46569261943E+00  0.46876341343E-01  0.10834328799E+01  0.90007790776E+02  0.90000052814E+02 0.  0.
         12    1    1    2    0    0  0.46569261943E+00 -0.46876341343E-01 -0.10834328799E+01  0.11802092240E+01  0.00000000000E+00 0. -1.
         11    1    3    3    0    0 -0.19419350261E+02  0.31109582152E+02 -0.18824121756E+02  0.41222140002E+02  0.51100000000E-03 0. -1.
        -11    1    3    3    0    0  0.10989061291E+01  0.10027703722E+01  0.10892137708E+02  0.10993261900E+02  0.51100000000E-03 0.  1.
        -12    1    3    3    0    0  0.17854751512E+02 -0.32065476183E+02  0.90154169279E+01  0.37792388874E+02  0.00000000000E+00 0.  1.
</event>
<event>
 7    1  0.2000468E-015  0.9000777E+02  0.7816164E-02  0.1186339E+00
        -11   -1    0    0    0    0  0.00000000000E+00  0.00000000000E+00  0.45593999997E+02  0.45594000000E+02  0.51100000000E-03 0. -1.
         11   -1    0    0    0    0 -0.00000000000E+00 -0.00000000000E+00 -0.45593999997E+02  0.45594000000E+02  0.51100000000E-03 0.  1.
    9900012    2    1    2    0    0 -0.54717180162E+00 -0.10374362653E+01  0.13146320023E+00  0.90007765465E+02  0.90000027169E+02 0.  0.
         12    1    1    2    0    0  0.54717180162E+00  0.10374362653E+01 -0.13146320023E+00  0.11802345352E+01  0.00000000000E+00 0. -1.
         11    1    3    3    0    0 -0.21070630565E+02 -0.10479734187E+02  0.30312625160E+02  0.38375142285E+02  0.51100000000E-03 0. -1.
        -11    1    3    3    0    0  0.71558946085E+01 -0.26096578616E+01  0.69869059965E+01  0.10336053283E+02  0.51100000000E-03 0.  1.
        -12    1    3    3    0    0  0.13367564155E+02  0.12051955783E+02 -0.37168067956E+02  0.41296569897E+02  0.00000000000E+00 0.  1.
</event>
<event>
 7    1  0.4448390E-015  0.9000818E+02  0.7816164E-02  0.1186338E+00
        -11   -1    0    0    0    0  0.00000000000E+00  0.00000000000E+00  0.45593999997E+02  0.45594000000E+02  0.51100000000E-03 0. -1.
         11   -1    0    0    0    0 -0.00000000000E+00 -0.00000000000E+00 -0.45593999997E+02  0.45594000000E+02  0.51100000000E-03 0.  1.
    9900012    2    1    2    0    0  0.58521649797E+00  0.14368513927E+00 -0.10143209620E+01  0.90008181886E+02  0.90000449086E+02 0.  0.
         12    1    1    2    0    0 -0.58521649797E+00 -0.14368513927E+00  0.10143209620E+01  0.11798181142E+01  0.00000000000E+00 0. -1.
         11    1    3    3    0    0 -0.27438925358E+01  0.66605215898E+01  0.37296754026E+02  0.37986041584E+02  0.51100000000E-03 0. -1.
        -11    1    3    3    0    0  0.72859225629E+01  0.63895116885E+01  0.16610606150E+01  0.98320725098E+01  0.51100000000E-03 0.  1.
        -12    1    3    3    0    0 -0.39568135291E+01 -0.12906348139E+02 -0.39972135603E+02  0.42190067792E+02  0.00000000000E+00 0.  1.
</event>
<event>
 7    1  0.2000468E-015  0.9000775E+02  0.7816164E-02  0.1186339E+00
        -11   -1    0    0    0    0  0.00000000000E+00  0.00000000000E+00  0.45593999997E+02  0.45594000000E+02  0.51100000000E-03 0. -1.
         11   -1    0    0    0    0 -0.00000000000E+00 -0.00000000000E+00 -0.45593999997E+02  0.45594000000E+02  0.51100000000E-03 0.  1.
    9900012    2    1    2    0    0  0.16533538880E+00 -0.11515237993E+01 -0.19912517384E+00  0.90007748465E+02  0.90000009945E+02 0.  0.
         12    1    1    2    0    0 -0.16533538880E+00  0.11515237993E+01  0.19912517384E+00  0.11802515351E+01  0.00000000000E+00 0. -1.
         11    1    3    3    0    0 -0.59040991465E+01  0.20984924551E+01 -0.50097339506E+01  0.80224367765E+01  0.51100000000E-03 0. -1.
        -11    1    3    3    0    0  0.34011692896E+02  0.20925015677E+02 -0.11559719505E+02  0.41572570885E+02  0.51100000000E-03 0.  1.
         12    1    3    3    0    0 -0.27942258360E+02 -0.24175031932E+02  0.16370328282E+02  0.40412740803E+02  0.00000000000E+00 0. -1.
</event>
<event>
 7    1  0.2000468E-015  0.9000776E+02  0.7816164E-02  0.1186339E+00
        -11   -1    0    0    0    0  0.00000000000E+00  0.00000000000E+00  0.45593999997E+02  0.45594000000E+02  0.51100000000E-03 0. -1.
         11   -1    0    0    0    0 -0.00000000000E+00 -0.00000000000E+00 -0.45593999997E+02  0.45594000000E+02  0.51100000000E-03 0.  1.
    9900012    2    1    2    0    0  0.90871378956E+00 -0.67147396879E+00 -0.34106007269E+00  0.90007762729E+02  0.90000024397E+02 0.  0.
         12    1    1    2    0    0 -0.90871378956E+00  0.67147396879E+00  0.34106007269E+00  0.11802372708E+01  0.00000000000E+00 0. -1.
         11    1    3    3    0    0 -0.34900884940E+02  0.17043973338E+02  0.10502418702E+02  0.40235178582E+02  0.51100000000E-03 0. -1.
        -11    1    3    3    0    0  0.63393429686E+00  0.14727855511E+01 -0.95491145682E+01  0.96827970788E+01  0.51100000000E-03 0.  1.
        -12    1    3    3    0    0  0.35175664432E+02 -0.19188232858E+02 -0.12943642061E+01  0.40089787068E+02  0.00000000000E+00 0.  1.
</event>
<event>
 7    1  0.2000468E-015  0.9000774E+02  0.7816164E-02  0.1186339E+00
        -11   -1    0    0    0    0  0.00000000000E+00  0.00000000000E+00  0.45593999997E+02  0.45594000000E+02  0.51100000000E-03 0.  1.
         11   -1    0    0    0    0 -0.00000000000E+00 -0.00000000000E+00 -0.45593999997E+02  0.45594000000E+02  0.51100000000E-03 0. -1.
    9900012    2    1    2    0    0  0.42679375110E+00 -0.38987531600E+00 -0.10290123983E+01  0.90007736392E+02  0.89999997713E+02 0.  0.
         12    1    1    2    0    0 -0.42679375110E+00  0.38987531600E+00  0.10290123983E+01  0.11802636078E+01  0.00000000000E+00 0. -1.
         11    1    3    3    0    0 -0.59287677510E+01 -0.45071013841E+01  0.68805603012E+01  0.10139347131E+02  0.51100000000E-03 0. -1.
        -11    1    3    3    0    0  0.10423539511E+02  0.27365255358E+02  0.25590565977E+02  0.38889387293E+02  0.51100000000E-03 0.  1.
         12    1    3    3    0    0 -0.40679780091E+01 -0.23248029290E+02 -0.33500138676E+02  0.40979001968E+02  0.00000000000E+00 0. -1.
</event>
<event>
 7    1  0.2000468E-015  0.9000777E+02  0.7816164E-02  0.1186339E+00
        -11   -1    0    0    0    0  0.00000000000E+00  0.00000000000E+00  0.45593999997E+02  0.45594000000E+02  0.51100000000E-03 0.  1.
         11   -1    0    0    0    0 -0.00000000000E+00 -0.00000000000E+00 -0.45593999997E+02  0.45594000000E+02  0.51100000000E-03 0. -1.
    9900012    2    1    2    0    0 -0.68789354830E+00  0.92455044004E+00  0.25486921357E+00  0.90007767241E+02  0.90000028968E+02 0.  0.
         12    1    1    2    0    0  0.68789354830E+00 -0.92455044004E+00 -0.25486921357E+00  0.11802327592E+01  0.00000000000E+00 0. -1.
         11    1    3    3    0    0 -0.66933392091E+01  0.21913009665E+01 -0.54224242643E+01  0.88884911463E+01  0.51100000000E-03 0. -1.
        -11    1    3    3    0    0 -0.10696914704E+02  0.29631933336E+02  0.25728668690E+02  0.40674806088E+02  0.51100000000E-03 0.  1.
         12    1    3    3    0    0  0.16702360365E+02 -0.30898683863E+02 -0.20051375213E+02  0.40444470007E+02  0.00000000000E+00 0. -1.
</event>
<event>
 7    1  0.2000468E-015  0.9000774E+02  0.7816164E-02  0.1186339E+00
        -11   -1    0    0    0    0  0.00000000000E+00  0.00000000000E+00  0.45593999997E+02  0.45594000000E+02  0.51100000000E-03 0.  1.
         11   -1    0    0    0    0 -0.00000000000E+00 -0.00000000000E+00 -0.45593999997E+02  0.45594000000E+02  0.51100000000E-03 0. -1.
    9900012    2    1    2    0    0 -0.27528336832E+00 -0.10720473146E+01  0.40981654155E+00  0.90007739022E+02  0.90000000377E+02 0.  0.
         12    1    1    2    0    0  0.27528336832E+00  0.10720473146E+01 -0.40981654155E+00  0.11802609776E+01  0.00000000000E+00 0. -1.
         11    1    3    3    0    0  0.13090017653E+01  0.33130783934E+02 -0.26949498849E+02  0.42727483171E+02  0.51100000000E-03 0. -1.
        -11    1    3    3    0    0  0.62385911279E+01 -0.66945299747E+01  0.27621079772E+01  0.95585559360E+01  0.51100000000E-03 0.  1.
        -12    1    3    3    0    0 -0.78228762615E+01 -0.27508301274E+02  0.24597207413E+02  0.37721699915E+02  0.00000000000E+00 0.  1.
</event>
<event>
 7    1  0.2000468E-015  0.9000782E+02  0.7816164E-02  0.1186339E+00
        -11   -1    0    0    0    0  0.00000000000E+00  0.00000000000E+00  0.45593999997E+02  0.45594000000E+02  0.51100000000E-03 0.  1.
         11   -1    0    0    0    0 -0.00000000000E+00 -0.00000000000E+00 -0.45593999997E+02  0.45594000000E+02  0.51100000000E-03 0. -1.
    9900012    2    1    2    0    0  0.24442770032E+00 -0.80535701494E+00  0.82732625395E+00  0.90007824779E+02  0.90000087266E+02 0.  0.
         12    1    1    2    0    0 -0.24442770032E+00  0.80535701494E+00 -0.82732625395E+00  0.11801752212E+01  0.00000000000E+00 0. -1.
         11    1    3    3    0    0 -0.10555461326E+01  0.12300862499E+01 -0.92216509402E+01  0.93630196061E+01  0.51100000000E-03 0. -1.
        -11    1    3    3    0    0 -0.25083717426E+02 -0.21348133983E+02  0.28100151739E+02  0.43296122603E+02  0.51100000000E-03 0.  1.
         12    1    3    3    0    0  0.26383691259E+02  0.19312690719E+02 -0.18051174544E+02  0.37348682569E+02  0.00000000000E+00 0. -1.
</event>
<event>
 7    1  0.2000468E-015  0.9000774E+02  0.7816164E-02  0.1186339E+00
        -11   -1    0    0    0    0  0.00000000000E+00  0.00000000000E+00  0.45593999997E+02  0.45594000000E+02  0.51100000000E-03 0.  1.
         11   -1    0    0    0    0 -0.00000000000E+00 -0.00000000000E+00 -0.45593999997E+02  0.45594000000E+02  0.51100000000E-03 0. -1.
    9900012    2    1    2    0    0  0.11097697923E+01 -0.22412777077E-01  0.40116197905E+00  0.90007736361E+02  0.89999997681E+02 0.  0.
         12    1    1    2    0    0 -0.11097697923E+01  0.22412777077E-01 -0.40116197905E+00  0.11802636392E+01  0.00000000000E+00 0. -1.
         11    1    3    3    0    0  0.74568039981E+01  0.20370552838E+02  0.31791481869E+02  0.38487162385E+02  0.51100000000E-03 0. -1.
        -11    1    3    3    0    0 -0.10337015682E+02  0.13374930874E+01  0.28183874081E+01  0.10797503823E+02  0.51100000000E-03 0.  1.
        -12    1    3    3    0    0  0.39899814762E+01 -0.21730458703E+02 -0.34208707298E+02  0.40723070152E+02  0.00000000000E+00 0.  1.
</event>
<event>
 7    1  0.2000468E-015  0.9000784E+02  0.7816164E-02  0.1186339E+00
        -11   -1    0    0    0    0  0.00000000000E+00  0.00000000000E+00  0.45593999997E+02  0.45594000000E+02  0.51100000000E-03 0.  1.
         11   -1    0    0    0    0 -0.00000000000E+00 -0.00000000000E+00 -0.45593999997E+02  0.45594000000E+02  0.51100000000E-03 0. -1.
    9900012    2    1    2    0    0  0.48715219376E+00  0.10689798133E+00  0.10695986781E+01  0.90007836549E+02  0.90000099192E+02 0.  0.
         12    1    1    2    0    0 -0.48715219376E+00 -0.10689798133E+00 -0.10695986781E+01  0.11801634508E+01  0.00000000000E+00 0. -1.
         11    1    3    3    0    0 -0.14741861197E+02  0.35617390817E+01  0.13997691386E+02  0.20638406461E+02  0.51100000000E-03 0. -1.
        -11    1    3    3    0    0 -0.79626430266E+01  0.18878512100E+02  0.16069788656E+02  0.26039201423E+02  0.51100000000E-03 0.  1.
         12    1    3    3    0    0  0.23191656418E+02 -0.22333353200E+02 -0.28997881364E+02  0.43330228665E+02  0.00000000000E+00 0. -1.
</event>
<event>
 7    1  0.2000468E-015  0.9000773E+02  0.7816164E-02  0.1186339E+00
        -11   -1    0    0    0    0  0.00000000000E+00  0.00000000000E+00  0.45593999997E+02  0.45594000000E+02  0.51100000000E-03 0. -1.
         11   -1    0    0    0    0 -0.00000000000E+00 -0.00000000000E+00 -0.45593999997E+02  0.45594000000E+02  0.51100000000E-03 0.  1.
    9900012    2    1    2    0    0 -0.20680650087E+00 -0.97160740346E+00 -0.63736799265E+00  0.90007733999E+02  0.89999995288E+02 0.  0.
         12    1    1    2    0    0  0.20680650087E+00  0.97160740346E+00  0.63736799265E+00  0.11802660011E+01  0.00000000000E+00 0. -1.
         11    1    3    3    0    0 -0.29410009622E+01  0.12707661051E+02 -0.25641306757E+01  0.13293190077E+02  0.51100000000E-03 0. -1.
        -11    1    3    3    0    0  0.11766530193E+02  0.19505575504E+02  0.26125616873E+02  0.34662177741E+02  0.51100000000E-03 0.  1.
         12    1    3    3    0    0 -0.90323357320E+01 -0.33184843958E+02 -0.24198854190E+02  0.42052366181E+02  0.00000000000E+00 0. -1.
</event>
<event>
 7    1  0.2000468E-015  0.9000774E+02  0.7816164E-02  0.1186339E+00
        -11   -1    0    0    0    0  0.00000000000E+00  0.00000000000E+00  0.45593999997E+02  0.45594000000E+02  0.51100000000E-03 0.  1.
         11   -1    0    0    0    0 -0.00000000000E+00 -0.00000000000E+00 -0.45593999997E+02  0.45594000000E+02  0.51100000000E-03 0. -1.
    9900012    2    1    2    0    0  0.87690162057E+00 -0.77503208330E+00  0.15295047615E+00  0.90007735186E+02  0.89999996491E+02 0.  0.
         12    1    1    2    0    0 -0.87690162057E+00  0.77503208330E+00 -0.15295047615E+00  0.11802648137E+01  0.00000000000E+00 0. -1.
         11    1    3    3    0    0  0.98395757309E+01  0.32031416260E+02  0.52523833361E+01  0.33917788978E+02  0.51100000000E-03 0. -1.
        -11    1    3    3    0    0  0.22994757525E+01  0.10478760210E+02 -0.36778801675E+01  0.11341023193E+02  0.51100000000E-03 0.  1.
        -12    1    3    3    0    0 -0.11262149863E+02 -0.43285208553E+02 -0.14215526925E+01  0.44748923016E+02  0.00000000000E+00 0.  1.
</event>
<event>
 7    1  0.2000468E-015  0.9000783E+02  0.7816164E-02  0.1186339E+00
        -11   -1    0    0    0    0  0.00000000000E+00  0.00000000000E+00  0.45593999997E+02  0.45594000000E+02  0.51100000000E-03 0.  1.
         11   -1    0    0    0    0 -0.00000000000E+00 -0.00000000000E+00 -0.45593999997E+02  0.45594000000E+02  0.51100000000E-03 0. -1.
    9900012    2    1    2    0    0 -0.85595619089E+00 -0.71764075842E+00  0.38096792192E+00  0.90007828056E+02  0.90000090587E+02 0.  0.
         12    1    1    2    0    0  0.85595619089E+00  0.71764075842E+00 -0.38096792192E+00  0.11801719436E+01  0.00000000000E+00 0. -1.
         11    1    3    3    0    0  0.78327285638E+01 -0.30212275643E+02 -0.19488760902E+02  0.36795992146E+02  0.51100000000E-03 0. -1.
        -11    1    3    3    0    0  0.10066161828E+02 -0.11690181072E+01 -0.30487582095E+01  0.10582492342E+02  0.51100000000E-03 0.  1.
        -12    1    3    3    0    0 -0.18754846583E+02  0.30663652992E+02  0.22918487034E+02  0.42629343568E+02  0.00000000000E+00 0.  1.
</event>
<event>
 7    1  0.2000468E-015  0.9000719E+02  0.7816164E-02  0.1186340E+00
        -11   -1    0    0    0    0  0.00000000000E+00  0.00000000000E+00  0.45593999997E+02  0.45594000000E+02  0.51100000000E-03 0.  1.
         11   -1    0    0    0    0 -0.00000000000E+00 -0.00000000000E+00 -0.45593999997E+02  0.45594000000E+02  0.51100000000E-03 0. -1.
    9900012    2    1    2    0    0  0.11217916539E+01  0.23659331576E+00 -0.28268723431E+00  0.90007193079E+02  0.89999447226E+02 0.  0.
         12    1    1    2    0    0 -0.11217916539E+01 -0.23659331576E+00  0.28268723431E+00  0.11808069209E+01  0.00000000000E+00 0. -1.
         11    1    3    3    0    0 -0.73038342698E+01  0.61097347335E+01 -0.11357471190E+02  0.14821167486E+02  0.51100000000E-03 0. -1.
        -11    1    3    3    0    0 -0.98325003426E+01  0.10265885985E+02  0.36981488783E+02  0.39619401698E+02  0.51100000000E-03 0.  1.
         12    1    3    3    0    0  0.18258126266E+02 -0.16139027403E+02 -0.25906704827E+02  0.35566623895E+02  0.00000000000E+00 0. -1.
</event>
<event>
 7    1  0.2000468E-015  0.9000773E+02  0.7816164E-02  0.1186339E+00
        -11   -1    0    0    0    0  0.00000000000E+00  0.00000000000E+00  0.45593999997E+02  0.45594000000E+02  0.51100000000E-03 0.  1.
         11   -1    0    0    0    0 -0.00000000000E+00 -0.00000000000E+00 -0.45593999997E+02  0.45594000000E+02  0.51100000000E-03 0. -1.
    9900012    2    1    2    0    0 -0.90638029523E+00 -0.71665585501E+00  0.24067256859E+00  0.90007727091E+02  0.89999988289E+02 0.  0.
         12    1    1    2    0    0  0.90638029523E+00  0.71665585501E+00 -0.24067256859E+00  0.11802729089E+01  0.00000000000E+00 0. -1.
         11    1    3    3    0    0  0.13219090496E+02 -0.24257361639E+01  0.93746011064E+01  0.16386326484E+02  0.51100000000E-03 0. -1.
        -11    1    3    3    0    0 -0.31338430772E+02  0.49959216446E+00  0.21815167979E+02  0.38187018602E+02  0.51100000000E-03 0.  1.
         12    1    3    3    0    0  0.17212959980E+02  0.12094881444E+01 -0.30949096516E+02  0.35434382004E+02  0.00000000000E+00 0. -1.
</event>
<event>
 7    1  0.2000468E-015  0.9000740E+02  0.7816164E-02  0.1186340E+00
        -11   -1    0    0    0    0  0.00000000000E+00  0.00000000000E+00  0.45593999997E+02  0.45594000000E+02  0.51100000000E-03 0.  1.
         11   -1    0    0    0    0 -0.00000000000E+00 -0.00000000000E+00 -0.45593999997E+02  0.45594000000E+02  0.51100000000E-03 0. -1.
    9900012    2    1    2    0    0 -0.26309029418E+00 -0.35896509257E+00  0.10935000301E+01  0.90007400679E+02  0.89999657567E+02 0.  0.
         12    1    1    2    0    0  0.26309029418E+00  0.35896509257E+00 -0.10935000301E+01  0.11805993209E+01  0.00000000000E+00 0. -1.
         11    1    3    3    0    0 -0.12623845473E+02  0.12183276171E+02  0.66473429358E+01  0.18761152980E+02  0.51100000000E-03 0. -1.
        -11    1    3    3    0    0 -0.23922646582E+02 -0.18322189694E+02 -0.14487602167E+02  0.33434806287E+02  0.51100000000E-03 0.  1.
        -12    1    3    3    0    0  0.36283401760E+02  0.57799484307E+01  0.89337592608E+01  0.37811441412E+02  0.00000000000E+00 0.  1.
</event>
<event>
 7    1  0.2000468E-015  0.9000773E+02  0.7816164E-02  0.1186339E+00
        -11   -1    0    0    0    0  0.00000000000E+00  0.00000000000E+00  0.45593999997E+02  0.45594000000E+02  0.51100000000E-03 0.  1.
         11   -1    0    0    0    0 -0.00000000000E+00 -0.00000000000E+00 -0.45593999997E+02  0.45594000000E+02  0.51100000000E-03 0. -1.
    9900012    2    1    2    0    0  0.18144592937E+00 -0.88621275204E+00 -0.75811735240E+00  0.90007729867E+02  0.89999991101E+02 0.  0.
         12    1    1    2    0    0 -0.18144592937E+00  0.88621275204E+00  0.75811735240E+00  0.11802701331E+01  0.00000000000E+00 0. -1.
         11    1    3    3    0    0  0.23543463089E+02  0.21146732287E+02 -0.21275221560E+02  0.38132846646E+02  0.51100000000E-03 0. -1.
        -11    1    3    3    0    0  0.68319947352E+01  0.19228627059E+01 -0.18200354512E+01  0.73270787052E+01  0.51100000000E-03 0.  1.
        -12    1    3    3    0    0 -0.30194011895E+02 -0.23955807745E+02  0.22337139659E+02  0.44547804516E+02  0.00000000000E+00 0.  1.
</event>
<event>
 7    1  0.2000468E-015  0.9000773E+02  0.7816164E-02  0.1186339E+00
        -11   -1    0    0    0    0  0.00000000000E+00  0.00000000000E+00  0.45593999997E+02  0.45594000000E+02  0.51100000000E-03 0. -1.
         11   -1    0    0    0    0 -0.00000000000E+00 -0.00000000000E+00 -0.45593999997E+02  0.45594000000E+02  0.51100000000E-03 0.  1.
    9900012    2    1    2    0    0  0.10996267821E+01  0.42859444767E+00 -0.13126176615E-01  0.90007726914E+02  0.89999988109E+02 0.  0.
         12    1    1    2    0    0 -0.10996267821E+01 -0.42859444767E+00  0.13126176615E-01  0.11802730858E+01  0.00000000000E+00 0. -1.
         11    1    3    3    0    0  0.10523738821E+02  0.35295636384E+01 -0.59404906072E+01  0.12589532445E+02  0.51100000000E-03 0. -1.
        -11    1    3    3    0    0  0.18817491571E+02  0.19154111556E+01 -0.27496381979E+02  0.33373909138E+02  0.51100000000E-03 0.  1.
         12    1    3    3    0    0 -0.28241603611E+02 -0.50163803463E+01  0.33423746410E+02  0.44044285332E+02  0.00000000000E+00 0. -1.
</event>
<event>
 7    1  0.2000468E-015  0.9000774E+02  0.7816164E-02  0.1186339E+00
        -11   -1    0    0    0    0  0.00000000000E+00  0.00000000000E+00  0.45593999997E+02  0.45594000000E+02  0.51100000000E-03 0. -1.
         11   -1    0    0    0    0 -0.00000000000E+00 -0.00000000000E+00 -0.45593999997E+02  0.45594000000E+02  0.51100000000E-03 0.  1.
    9900012    2    1    2    0    0 -0.10040951140E+01  0.70324747373E-01 -0.61633475046E+00  0.90007736855E+02  0.89999998181E+02 0.  0.
         12    1    1    2    0    0  0.10040951140E+01 -0.70324747373E-01  0.61633475046E+00  0.11802631455E+01  0.00000000000E+00 0. -1.
         11    1    3    3    0    0  0.21688782702E+02 -0.30032981166E+02  0.15100299476E+02  0.40005028401E+02  0.51100000000E-03 0. -1.
        -11    1    3    3    0    0  0.39939385705E+01 -0.15217374615E+01  0.23191858466E+01  0.48627002230E+01  0.51100000000E-03 0.  1.
        -12    1    3    3    0    0 -0.26686816386E+02  0.31625043375E+02 -0.18035820073E+02  0.45140008230E+02  0.00000000000E+00 0.  1.
</event>
<event>
 7    1  0.2000468E-015  0.9000768E+02  0.7816164E-02  0.1186339E+00
        -11   -1    0    0    0    0  0.00000000000E+00  0.00000000000E+00  0.45593999997E+02  0.45594000000E+02  0.51100000000E-03 0. -1.
         11   -1    0    0    0    0 -0.00000000000E+00 -0.00000000000E+00 -0.45593999997E+02  0.45594000000E+02  0.51100000000E-03 0.  1.
    9900012    2    1    2    0    0  0.55762613857E+00 -0.63110723024E+00 -0.82699419458E+00  0.90007676890E+02  0.89999937425E+02 0.  0.
         12    1    1    2    0    0 -0.55762613857E+00  0.63110723024E+00  0.82699419458E+00  0.11803231101E+01  0.00000000000E+00 0. -1.
         11    1    3    3    0    0 -0.35452383608E+01  0.57385882036E+01  0.32880910949E+01  0.75041090688E+01  0.51100000000E-03 0. -1.
        -11    1    3    3    0    0  0.26516650193E+02 -0.14585121249E+02 -0.33169011697E+02  0.44900354526E+02  0.51100000000E-03 0.  1.
         12    1    3    3    0    0 -0.22413785694E+02  0.82154258155E+01  0.29053926407E+02  0.37603213295E+02  0.00000000000E+00 0. -1.
</event>
<event>
 7    1  0.2000468E-015  0.9000769E+02  0.7816164E-02  0.1186339E+00
        -11   -1    0    0    0    0  0.00000000000E+00  0.00000000000E+00  0.45593999997E+02  0.45594000000E+02  0.51100000000E-03 0. -1.
         11   -1    0    0    0    0 -0.00000000000E+00 -0.00000000000E+00 -0.45593999997E+02  0.45594000000E+02  0.51100000000E-03 0.  1.
    9900012    2    1    2    0    0  0.47970037720E+00 -0.84542169891E+00  0.66953045330E+00  0.90007694392E+02  0.89999955158E+02 0.  0.
         12    1    1    2    0    0 -0.47970037720E+00  0.84542169891E+00 -0.66953045330E+00  0.11803056082E+01  0.00000000000E+00 0. -1.
         11    1    3    3    0    0  0.54173148185E+01  0.71189952203E+01  0.13297472241E+01  0.90440931404E+01  0.51100000000E-03 0. -1.
        -11    1    3    3    0    0  0.32398168124E+02  0.89460416982E+01 -0.15968699105E+02  0.37211185297E+02  0.51100000000E-03 0.  1.
         12    1    3    3    0    0 -0.37335782566E+02 -0.16910458617E+02  0.15308482334E+02  0.43752415954E+02  0.00000000000E+00 0. -1.
</event>
<event>
 7    1  0.2000468E-015  0.9000777E+02  0.7816164E-02  0.1186339E+00
        -11   -1    0    0    0    0  0.00000000000E+00  0.00000000000E+00  0.45593999997E+02  0.45594000000E+02  0.51100000000E-03 0. -1.
         11   -1    0    0    0    0 -0.00000000000E+00 -0.00000000000E+00 -0.45593999997E+02  0.45594000000E+02  0.51100000000E-03 0.  1.
    9900012    2    1    2    0    0 -0.67970713573E+00 -0.75887978358E+00 -0.59584745929E+00  0.90007773534E+02  0.90000035345E+02 0.  0.
         12    1    1    2    0    0  0.67970713573E+00  0.75887978358E+00  0.59584745929E+00  0.11802264660E+01  0.00000000000E+00 0. -1.
         11    1    3    3    0    0  0.64205919188E+01 -0.51884731265E+00  0.43143918512E+01  0.77528820724E+01  0.51100000000E-03 0. -1.
        -11    1    3    3    0    0  0.10027099421E+02  0.26433950074E+02  0.25686448037E+02  0.38198037284E+02  0.51100000000E-03 0.  1.
         12    1    3    3    0    0 -0.17127398476E+02 -0.26673982545E+02 -0.30596687348E+02  0.44056854178E+02  0.00000000000E+00 0. -1.
</event>
<event>
 7    1  0.2000468E-015  0.9000780E+02  0.7816164E-02  0.1186339E+00
        -11   -1    0    0    0    0  0.00000000000E+00  0.00000000000E+00  0.45593999997E+02  0.45594000000E+02  0.51100000000E-03 0.  1.
         11   -1    0    0    0    0 -0.00000000000E+00 -0.00000000000E+00 -0.45593999997E+02  0.45594000000E+02  0.51100000000E-03 0. -1.
    9900012    2    1    2    0    0  0.50553190257E+00 -0.10664358429E+01 -0.51978347284E-02  0.90007798776E+02  0.90000060920E+02 0.  0.
         12    1    1    2    0    0 -0.50553190257E+00  0.10664358429E+01  0.51978347284E-02  0.11802012239E+01  0.00000000000E+00 0. -1.
         11    1    3    3    0    0 -0.10352491634E+01 -0.58116688776E+01 -0.96023345177E+01  0.11271737418E+02  0.51100000000E-03 0. -1.
        -11    1    3    3    0    0 -0.15021242933E+02 -0.28205295093E+02  0.23134743307E+02  0.39451143947E+02  0.51100000000E-03 0.  1.
         12    1    3    3    0    0  0.16562023999E+02  0.32950528128E+02 -0.13537606624E+02  0.39284917411E+02  0.00000000000E+00 0. -1.
</event>
<event>
 7    1  0.2000468E-015  0.9000768E+02  0.7816164E-02  0.1186339E+00
        -11   -1    0    0    0    0  0.00000000000E+00  0.00000000000E+00  0.45593999997E+02  0.45594000000E+02  0.51100000000E-03 0.  1.
         11   -1    0    0    0    0 -0.00000000000E+00 -0.00000000000E+00 -0.45593999997E+02  0.45594000000E+02  0.51100000000E-03 0. -1.
    9900012    2    1    2    0    0  0.87078924727E+00 -0.63911639024E+00  0.47583772153E+00  0.90007675803E+02  0.89999936323E+02 0.  0.
         12    1    1    2    0    0 -0.87078924727E+00  0.63911639024E+00 -0.47583772153E+00  0.11803241973E+01  0.00000000000E+00 0. -1.
         11    1    3    3    0    0  0.24843763240E+02  0.24945540988E+02 -0.55691896679E+01  0.35644192528E+02  0.51100000000E-03 0. -1.
        -11    1    3    3    0    0  0.29050455460E+01  0.93624938981E+01 -0.37895362465E+00  0.98101573752E+01  0.51100000000E-03 0.  1.
        -12    1    3    3    0    0 -0.26878019539E+02 -0.34947151276E+02  0.64239810140E+01  0.44553325900E+02  0.00000000000E+00 0.  1.
</event>
<event>
 7    1  0.2000468E-015  0.9000777E+02  0.7816164E-02  0.1186339E+00
        -11   -1    0    0    0    0  0.00000000000E+00  0.00000000000E+00  0.45593999997E+02  0.45594000000E+02  0.51100000000E-03 0. -1.
         11   -1    0    0    0    0 -0.00000000000E+00 -0.00000000000E+00 -0.45593999997E+02  0.45594000000E+02  0.51100000000E-03 0.  1.
    9900012    2    1    2    0    0 -0.41423915247E+00 -0.11045810268E+01 -0.35271965278E-01  0.90007772297E+02  0.90000034091E+02 0.  0.
         12    1    1    2    0    0  0.41423915247E+00  0.11045810268E+01  0.35271965278E-01  0.11802277033E+01  0.00000000000E+00 0. -1.
         11    1    3    3    0    0 -0.37384580863E+00 -0.37136044784E+01  0.89162336015E+01  0.96659112767E+01  0.51100000000E-03 0. -1.
        -11    1    3    3    0    0  0.36193584938E+02 -0.13203915620E+02 -0.12856336127E+02  0.40615321705E+02  0.51100000000E-03 0.  1.
         12    1    3    3    0    0 -0.36233978282E+02  0.15812939071E+02  0.39048305602E+01  0.39726539315E+02  0.00000000000E+00 0. -1.
</event>
<event>
 7    1  0.2000468E-015  0.9000763E+02  0.7816164E-02  0.1186339E+00
        -11   -1    0    0    0    0  0.00000000000E+00  0.00000000000E+00  0.45593999997E+02  0.45594000000E+02  0.51100000000E-03 0. -1.
         11   -1    0    0    0    0 -0.00000000000E+00 -0.00000000000E+00 -0.45593999997E+02  0.45594000000E+02  0.51100000000E-03 0.  1.
    9900012    2    1    2    0    0  0.79342082997E+00 -0.38649196420E+00 -0.78382797750E+00  0.90007627622E+02  0.89999887507E+02 0.  0.
         12    1    1    2    0    0 -0.79342082997E+00  0.38649196420E+00  0.78382797750E+00  0.11803723777E+01  0.00000000000E+00 0. -1.
         11    1    3    3    0    0  0.96659734462E+01 -0.11733049400E+02  0.40294765894E+02  0.43066967035E+02  0.51100000000E-03 0. -1.
        -11    1    3    3    0    0 -0.17029204969E+01  0.77353869482E+01 -0.37588513869E+01  0.87672751450E+01  0.51100000000E-03 0.  1.
        -12    1    3    3    0    0 -0.71696321192E+01  0.36111704877E+01 -0.37319742484E+02  0.38173385442E+02  0.00000000000E+00 0.  1.
</event>
<event>
 7    1  0.2000468E-015  0.9000776E+02  0.7816164E-02  0.1186339E+00
        -11   -1    0    0    0    0  0.00000000000E+00  0.00000000000E+00  0.45593999997E+02  0.45594000000E+02  0.51100000000E-03 0.  1.
         11   -1    0    0    0    0 -0.00000000000E+00 -0.00000000000E+00 -0.45593999997E+02  0.45594000000E+02  0.51100000000E-03 0. -1.
    9900012    2    1    2    0    0 -0.35985110630E+00  0.10371348280E+01  0.43339275541E+00  0.90007758181E+02  0.90000019789E+02 0.  0.
         12    1    1    2    0    0  0.35985110630E+00 -0.10371348280E+01 -0.43339275541E+00  0.11802418187E+01  0.00000000000E+00 0. -1.
         11    1    3    3    0    0 -0.33092056370E+02  0.13730312958E+02 -0.13158556043E+02  0.38167437511E+02  0.51100000000E-03 0. -1.
        -11    1    3    3    0    0 -0.19425276704E+01 -0.13874040589E+02 -0.13306152808E+01  0.14072418175E+02  0.51100000000E-03 0.  1.
        -12    1    3    3    0    0  0.34674732934E+02  0.11808624590E+01  0.14922564080E+02  0.37767902495E+02  0.00000000000E+00 0.  1.
</event>
<event>
 7    1  0.2000468E-015  0.9000773E+02  0.7816164E-02  0.1186339E+00
        -11   -1    0    0    0    0  0.00000000000E+00  0.00000000000E+00  0.45593999997E+02  0.45594000000E+02  0.51100000000E-03 0.  1.
         11   -1    0    0    0    0 -0.00000000000E+00 -0.00000000000E+00 -0.45593999997E+02  0.45594000000E+02  0.51100000000E-03 0. -1.
    9900012    2    1    2    0    0  0.10679811061E+01 -0.12250055982E+00  0.48727738064E+00  0.90007733388E+02  0.89999994669E+02 0.  0.
         12    1    1    2    0    0 -0.10679811061E+01  0.12250055982E+00 -0.48727738064E+00  0.11802666122E+01  0.00000000000E+00 0. -1.
         11    1    3    3    0    0 -0.76287395575E+01 -0.35418390400E+01  0.14298366591E+01  0.85315135910E+01  0.51100000000E-03 0. -1.
        -11    1    3    3    0    0 -0.22119202629E+02 -0.28380845293E+02 -0.73730365326E+01  0.36730003709E+02  0.51100000000E-03 0.  1.
         12    1    3    3    0    0  0.30815923293E+02  0.31800183774E+02  0.64304772542E+01  0.44746216087E+02  0.00000000000E+00 0. -1.
</event>
<event>
 7    1  0.2000468E-015  0.9000778E+02  0.7816164E-02  0.1186339E+00
        -11   -1    0    0    0    0  0.00000000000E+00  0.00000000000E+00  0.45593999997E+02  0.45594000000E+02  0.51100000000E-03 0.  1.
         11   -1    0    0    0    0 -0.00000000000E+00 -0.00000000000E+00 -0.45593999997E+02  0.45594000000E+02  0.51100000000E-03 0. -1.
    9900012    2    1    2    0    0 -0.44056402869E+00 -0.41035059212E+00  0.10151061008E+01  0.90007777704E+02  0.90000039570E+02 0.  0.
         12    1    1    2    0    0  0.44056402869E+00  0.41035059212E+00 -0.10151061008E+01  0.11802222959E+01  0.00000000000E+00 0. -1.
         11    1    3    3    0    0 -0.36137879779E+02  0.15279266582E+02 -0.12205084188E+02  0.41089736219E+02  0.51100000000E-03 0. -1.
        -11    1    3    3    0    0  0.22421495757E+01  0.62361631705E+01 -0.46147949074E+00  0.66430361575E+01  0.51100000000E-03 0.  1.
        -12    1    3    3    0    0  0.33455166175E+02 -0.21925780345E+02  0.13681669780E+02  0.42275005328E+02  0.00000000000E+00 0.  1.
</event>
<event>
 7    1  0.2000468E-015  0.9000774E+02  0.7816164E-02  0.1186339E+00
        -11   -1    0    0    0    0  0.00000000000E+00  0.00000000000E+00  0.45593999997E+02  0.45594000000E+02  0.51100000000E-03 0.  1.
         11   -1    0    0    0    0 -0.00000000000E+00 -0.00000000000E+00 -0.45593999997E+02  0.45594000000E+02  0.51100000000E-03 0. -1.
    9900012    2    1    2    0    0 -0.40245116296E+00 -0.98316313512E+00 -0.51424276312E+00  0.90007736340E+02  0.89999997659E+02 0.  0.
         12    1    1    2    0    0  0.40245116296E+00  0.98316313512E+00  0.51424276312E+00  0.11802636605E+01  0.00000000000E+00 0. -1.
         11    1    3    3    0    0  0.47739388146E+01 -0.66917123322E+01  0.27460508137E+01  0.86666199337E+01  0.51100000000E-03 0. -1.
        -11    1    3    3    0    0  0.14162603888E+01 -0.34019410034E+02  0.14897793947E+02  0.37165445205E+02  0.51100000000E-03 0.  1.
         12    1    3    3    0    0 -0.65926503664E+01  0.39727959231E+02 -0.18158087524E+02  0.44175671201E+02  0.00000000000E+00 0. -1.
</event>
<event>
 7    1  0.2000468E-015  0.9000772E+02  0.7816164E-02  0.1186339E+00
        -11   -1    0    0    0    0  0.00000000000E+00  0.00000000000E+00  0.45593999997E+02  0.45594000000E+02  0.51100000000E-03 0. -1.
         11   -1    0    0    0    0 -0.00000000000E+00 -0.00000000000E+00 -0.45593999997E+02  0.45594000000E+02  0.51100000000E-03 0.  1.
    9900012    2    1    2    0    0  0.17617753733E+00  0.58788075551E+00 -0.10081733619E+01  0.90007722137E+02  0.89999983269E+02 0.  0.
         12    1    1    2    0    0 -0.17617753733E+00 -0.58788075551E+00  0.10081733619E+01  0.11802778635E+01  0.00000000000E+00 0. -1.
         11    1    3    3    0    0 -0.73704262421E+01  0.41942808408E+01 -0.69500449085E+01  0.10964410575E+02  0.51100000000E-03 0. -1.
        -11    1    3    3    0    0 -0.15596668585E+02  0.15357859663E+02 -0.26857055629E+02  0.34647097450E+02  0.51100000000E-03 0.  1.
         12    1    3    3    0    0  0.23143272365E+02 -0.18964259748E+02  0.32798927176E+02  0.44396214112E+02  0.00000000000E+00 0. -1.
</event>
<event>
 7    1  0.2000468E-015  0.9000766E+02  0.7816164E-02  0.1186339E+00
        -11   -1    0    0    0    0  0.00000000000E+00  0.00000000000E+00  0.45593999997E+02  0.45594000000E+02  0.51100000000E-03 0. -1.
         11   -1    0    0    0    0 -0.00000000000E+00 -0.00000000000E+00 -0.45593999997E+02  0.45594000000E+02  0.51100000000E-03 0.  1.
    9900012    2    1    2    0    0  0.10200074948E+00 -0.47723051523E+00 -0.10747357954E+01  0.90007656767E+02  0.89999917036E+02 0.  0.
         12    1    1    2    0    0 -0.10200074948E+00  0.47723051523E+00  0.10747357954E+01  0.11803432329E+01  0.00000000000E+00 0. -1.
         11    1    3    3    0    0  0.24956243548E+02  0.20227570743E+02 -0.19454383000E+02  0.37555848125E+02  0.51100000000E-03 0. -1.
        -11    1    3    3    0    0  0.94721173805E+01 -0.12564820150E+01  0.21681953594E+01  0.97980011278E+01  0.51100000000E-03 0.  1.
        -12    1    3    3    0    0 -0.34326360179E+02 -0.19448319243E+02  0.16211451845E+02  0.42653807514E+02  0.00000000000E+00 0.  1.
</event>
<event>
 7    1  0.2000468E-015  0.9000772E+02  0.7816164E-02  0.1186339E+00
        -11   -1    0    0    0    0  0.00000000000E+00  0.00000000000E+00  0.45593999997E+02  0.45594000000E+02  0.51100000000E-03 0.  1.
         11   -1    0    0    0    0 -0.00000000000E+00 -0.00000000000E+00 -0.45593999997E+02  0.45594000000E+02  0.51100000000E-03 0. -1.
    9900012    2    1    2    0    0  0.41409975265E+00  0.10695550413E+01 -0.27863086144E+00  0.90007719631E+02  0.89999980731E+02 0.  0.
         12    1    1    2    0    0 -0.41409975265E+00 -0.10695550413E+01  0.27863086144E+00  0.11802803686E+01  0.00000000000E+00 0. -1.
         11    1    3    3    0    0 -0.22589474610E+01  0.10767986174E+02 -0.43526419444E+02  0.44895451437E+02  0.51100000000E-03 0. -1.
        -11    1    3    3    0    0  0.29444769327E+01 -0.45477640604E+01  0.92053950477E+01  0.10681357620E+02  0.51100000000E-03 0.  1.
        -12    1    3    3    0    0 -0.27142971897E+00 -0.51506670727E+01  0.34042393535E+02  0.34430910574E+02  0.00000000000E+00 0.  1.
</event>
<event>
 7    1  0.2000468E-015  0.9000780E+02  0.7816164E-02  0.1186339E+00
        -11   -1    0    0    0    0  0.00000000000E+00  0.00000000000E+00  0.45593999997E+02  0.45594000000E+02  0.51100000000E-03 0.  1.
         11   -1    0    0    0    0 -0.00000000000E+00 -0.00000000000E+00 -0.45593999997E+02  0.45594000000E+02  0.51100000000E-03 0. -1.
    9900012    2    1    2    0    0 -0.47865970189E+00  0.68039402138E+00  0.83715056149E+00  0.90007799933E+02  0.90000062093E+02 0.  0.
         12    1    1    2    0    0  0.47865970189E+00 -0.68039402138E+00 -0.83715056149E+00  0.11802000666E+01  0.00000000000E+00 0. -1.
         11    1    3    3    0    0 -0.26865284245E+02  0.52819801799E+01  0.78683262017E+00  0.27390909405E+02  0.51100000000E-03 0. -1.
        -11    1    3    3    0    0 -0.14959541302E+02  0.10847417434E+02 -0.62119792976E-01  0.18478587611E+02  0.51100000000E-03 0.  1.
        -12    1    3    3    0    0  0.41346165846E+02 -0.15449003593E+02  0.11243773429E+00  0.44138302917E+02  0.00000000000E+00 0.  1.
</event>
<event>
 7    1  0.2000468E-015  0.9000769E+02  0.7816164E-02  0.1186339E+00
        -11   -1    0    0    0    0  0.00000000000E+00  0.00000000000E+00  0.45593999997E+02  0.45594000000E+02  0.51100000000E-03 0. -1.
         11   -1    0    0    0    0 -0.00000000000E+00 -0.00000000000E+00 -0.45593999997E+02  0.45594000000E+02  0.51100000000E-03 0.  1.
    9900012    2    1    2    0    0  0.18221669982E-01  0.15854191546E+00 -0.11694687280E+01  0.90007692975E+02  0.89999953722E+02 0.  0.
         12    1    1    2    0    0 -0.18221669982E-01 -0.15854191546E+00  0.11694687280E+01  0.11803070253E+01  0.00000000000E+00 0. -1.
         11    1    3    3    0    0 -0.32936389609E+00  0.59253638575E+01  0.70198023653E+01  0.91921729165E+01  0.51100000000E-03 0. -1.
        -11    1    3    3    0    0 -0.69750119140E+01 -0.38472971371E+02  0.12951341621E+02  0.41189289474E+02  0.51100000000E-03 0.  1.
         12    1    3    3    0    0  0.73225974801E+01  0.32706149429E+02 -0.21140612714E+02  0.39626230584E+02  0.00000000000E+00 0. -1.
</event>
<event>
 7    1  0.2000468E-015  0.9000701E+02  0.7816164E-02  0.1186341E+00
        -11   -1    0    0    0    0  0.00000000000E+00  0.00000000000E+00  0.45593999997E+02  0.45594000000E+02  0.51100000000E-03 0.  1.
         11   -1    0    0    0    0 -0.00000000000E+00 -0.00000000000E+00 -0.45593999997E+02  0.45594000000E+02  0.51100000000E-03 0. -1.
    9900012    2    1    2    0    0  0.35544946073E+00 -0.94524036622E+00  0.61231153962E+00  0.90007005042E+02  0.89999256706E+02 0.  0.
         12    1    1    2    0    0 -0.35544946073E+00  0.94524036622E+00 -0.61231153962E+00  0.11809949579E+01  0.00000000000E+00 0. -1.
         11    1    3    3    0    0 -0.11312448204E+01 -0.18470720082E+01  0.10523017296E+02  0.10743615924E+02  0.51100000000E-03 0. -1.
        -11    1    3    3    0    0 -0.17727510760E+02 -0.12377043298E+02  0.27609382480E+02  0.35067561075E+02  0.51100000000E-03 0.  1.
         12    1    3    3    0    0  0.19214205041E+02  0.13278874940E+02 -0.37520088237E+02  0.44195828043E+02  0.00000000000E+00 0. -1.
</event>
<event>
 7    1  0.2000468E-015  0.9000802E+02  0.7816164E-02  0.1186338E+00
        -11   -1    0    0    0    0  0.00000000000E+00  0.00000000000E+00  0.45593999997E+02  0.45594000000E+02  0.51100000000E-03 0. -1.
         11   -1    0    0    0    0 -0.00000000000E+00 -0.00000000000E+00 -0.45593999997E+02  0.45594000000E+02  0.51100000000E-03 0.  1.
    9900012    2    1    2    0    0 -0.70572660862E+00  0.79144732776E+00 -0.51760368128E+00  0.90008020132E+02  0.90000285197E+02 0.  0.
         12    1    1    2    0    0  0.70572660862E+00 -0.79144732776E+00  0.51760368128E+00  0.11799798683E+01  0.00000000000E+00 0. -1.
         11    1    3    3    0    0 -0.29535555986E+02 -0.73454863827E+01  0.13880331329E+02  0.33450991550E+02  0.51100000000E-03 0. -1.
        -11    1    3    3    0    0 -0.19505531764E+01 -0.40988474783E+01  0.12874275937E+02  0.13651087485E+02  0.51100000000E-03 0.  1.
        -12    1    3    3    0    0  0.30780382554E+02  0.12235781189E+02 -0.27272210948E+02  0.42905941097E+02  0.00000000000E+00 0.  1.
</event>
<event>
 7    1  0.2000468E-015  0.9000774E+02  0.7816164E-02  0.1186339E+00
        -11   -1    0    0    0    0  0.00000000000E+00  0.00000000000E+00  0.45593999997E+02  0.45594000000E+02  0.51100000000E-03 0.  1.
         11   -1    0    0    0    0 -0.00000000000E+00 -0.00000000000E+00 -0.45593999997E+02  0.45594000000E+02  0.51100000000E-03 0. -1.
    9900012    2    1    2    0    0 -0.80718502221E+00 -0.76140658821E+00  0.40213919632E+00  0.90007744271E+02  0.90000005695E+02 0.  0.
         12    1    1    2    0    0  0.80718502221E+00  0.76140658821E+00 -0.40213919632E+00  0.11802557290E+01  0.00000000000E+00 0. -1.
         11    1    3    3    0    0 -0.99391168131E+01  0.79963999983E+01  0.14723472975E+02  0.19480993626E+02  0.51100000000E-03 0. -1.
        -11    1    3    3    0    0 -0.94956208547E+01 -0.19585921095E+02  0.20290172461E+02  0.29756784425E+02  0.51100000000E-03 0.  1.
         12    1    3    3    0    0  0.18627552646E+02  0.10828114509E+02 -0.34611506240E+02  0.40769966220E+02  0.00000000000E+00 0. -1.
</event>
<event>
 7    1  0.2000468E-015  0.9000791E+02  0.7816164E-02  0.1186339E+00
        -11   -1    0    0    0    0  0.00000000000E+00  0.00000000000E+00  0.45593999997E+02  0.45594000000E+02  0.51100000000E-03 0. -1.
         11   -1    0    0    0    0 -0.00000000000E+00 -0.00000000000E+00 -0.45593999997E+02  0.45594000000E+02  0.51100000000E-03 0.  1.
    9900012    2    1    2    0    0  0.66239195749E+00  0.36882980810E+00 -0.90433120260E+00  0.90007909556E+02  0.90000173162E+02 0.  0.
         12    1    1    2    0    0 -0.66239195749E+00 -0.36882980810E+00  0.90433120260E+00  0.11800904443E+01  0.00000000000E+00 0. -1.
         11    1    3    3    0    0 -0.28197246140E+02  0.74281588493E+01  0.22145445362E+02  0.36615338102E+02  0.51100000000E-03 0. -1.
        -11    1    3    3    0    0 -0.33308194013E+01  0.89067142393E+00  0.75329962088E+01  0.82845449853E+01  0.51100000000E-03 0.  1.
        -12    1    3    3    0    0  0.32190457499E+02 -0.79500004652E+01 -0.30582772773E+02  0.45108026469E+02  0.00000000000E+00 0.  1.
</event>
<event>
 7    1  0.2000468E-015  0.9000777E+02  0.7816164E-02  0.1186339E+00
        -11   -1    0    0    0    0  0.00000000000E+00  0.00000000000E+00  0.45593999997E+02  0.45594000000E+02  0.51100000000E-03 0. -1.
         11   -1    0    0    0    0 -0.00000000000E+00 -0.00000000000E+00 -0.45593999997E+02  0.45594000000E+02  0.51100000000E-03 0.  1.
    9900012    2    1    2    0    0  0.33601248479E+00 -0.42256272661E+00 -0.10495116557E+01  0.90007771902E+02  0.90000033691E+02 0.  0.
         12    1    1    2    0    0 -0.33601248479E+00  0.42256272661E+00  0.10495116557E+01  0.11802280980E+01  0.00000000000E+00 0. -1.
         11    1    3    3    0    0 -0.33202098261E+02 -0.13685453126E+02 -0.17942184414E+02  0.40144650179E+02  0.51100000000E-03 0. -1.
        -11    1    3    3    0    0  0.65874336946E+01 -0.81687692455E+01 -0.18553420523E+01  0.10656705310E+02  0.51100000000E-03 0.  1.
        -12    1    3    3    0    0  0.26950677051E+02  0.21431659645E+02  0.18748014810E+02  0.39206416413E+02  0.00000000000E+00 0.  1.
</event>
<event>
 7    1  0.2000468E-015  0.9000773E+02  0.7816164E-02  0.1186339E+00
        -11   -1    0    0    0    0  0.00000000000E+00  0.00000000000E+00  0.45593999997E+02  0.45594000000E+02  0.51100000000E-03 0.  1.
         11   -1    0    0    0    0 -0.00000000000E+00 -0.00000000000E+00 -0.45593999997E+02  0.45594000000E+02  0.51100000000E-03 0. -1.
    9900012    2    1    2    0    0  0.97805620666E+00  0.56622570768E+00  0.34033302401E+00  0.90007732207E+02  0.89999993472E+02 0.  0.
         12    1    1    2    0    0 -0.97805620666E+00 -0.56622570768E+00 -0.34033302401E+00  0.11802677928E+01  0.00000000000E+00 0. -1.
         11    1    3    3    0    0  0.32854564099E+02 -0.13060320047E+02  0.10524880457E+01  0.35370921294E+02  0.51100000000E-03 0. -1.
        -11    1    3    3    0    0 -0.24790117626E+01 -0.80422719922E+01  0.13117859603E+02  0.15585309716E+02  0.51100000000E-03 0.  1.
        -12    1    3    3    0    0 -0.29397496130E+02  0.21668817747E+02 -0.13830014624E+02  0.39051501197E+02  0.00000000000E+00 0.  1.
</event>
<event>
 7    1  0.2000468E-015  0.9000767E+02  0.7816164E-02  0.1186339E+00
        -11   -1    0    0    0    0  0.00000000000E+00  0.00000000000E+00  0.45593999997E+02  0.45594000000E+02  0.51100000000E-03 0.  1.
         11   -1    0    0    0    0 -0.00000000000E+00 -0.00000000000E+00 -0.45593999997E+02  0.45594000000E+02  0.51100000000E-03 0. -1.
    9900012    2    1    2    0    0  0.11033583496E+01 -0.41220512541E+00 -0.76557445068E-01  0.90007672183E+02  0.89999932656E+02 0.  0.
         12    1    1    2    0    0 -0.11033583496E+01  0.41220512541E+00  0.76557445068E-01  0.11803278170E+01  0.00000000000E+00 0. -1.
         11    1    3    3    0    0 -0.17758946776E+01 -0.17451778124E+02 -0.13340591563E+02  0.22038369838E+02  0.51100000000E-03 0. -1.
        -11    1    3    3    0    0  0.33244266224E+02  0.11416927763E+02  0.11708939348E+02  0.37048977547E+02  0.51100000000E-03 0.  1.
         12    1    3    3    0    0 -0.30365013197E+02  0.56226452354E+01  0.15550947701E+01  0.30920324798E+02  0.00000000000E+00 0. -1.
</event>
<event>
 7    1  0.2000468E-015  0.9000770E+02  0.7816164E-02  0.1186339E+00
        -11   -1    0    0    0    0  0.00000000000E+00  0.00000000000E+00  0.45593999997E+02  0.45594000000E+02  0.51100000000E-03 0. -1.
         11   -1    0    0    0    0 -0.00000000000E+00 -0.00000000000E+00 -0.45593999997E+02  0.45594000000E+02  0.51100000000E-03 0.  1.
    9900012    2    1    2    0    0  0.11382234510E+01  0.26781111583E+00 -0.16071643127E+00  0.90007701229E+02  0.89999962085E+02 0.  0.
         12    1    1    2    0    0 -0.11382234510E+01 -0.26781111583E+00  0.16071643127E+00  0.11802987713E+01  0.00000000000E+00 0. -1.
         11    1    3    3    0    0 -0.18150129433E+02 -0.31466993233E+02  0.16211220010E+02  0.39779423274E+02  0.51100000000E-03 0. -1.
        -11    1    3    3    0    0  0.66347752671E+01  0.20579866946E+01  0.74034370305E+01  0.10152163917E+02  0.51100000000E-03 0.  1.
        -12    1    3    3    0    0  0.12653577617E+02  0.29676817654E+02 -0.23775373472E+02  0.40076114037E+02  0.00000000000E+00 0.  1.
</event>
<event>
 7    1  0.2000468E-015  0.9000775E+02  0.7816164E-02  0.1186339E+00
        -11   -1    0    0    0    0  0.00000000000E+00  0.00000000000E+00  0.45593999997E+02  0.45594000000E+02  0.51100000000E-03 0.  1.
         11   -1    0    0    0    0 -0.00000000000E+00 -0.00000000000E+00 -0.45593999997E+02  0.45594000000E+02  0.51100000000E-03 0. -1.
    9900012    2    1    2    0    0 -0.65166246137E+00 -0.33535506609E-01  0.98345878518E+00  0.90007754358E+02  0.90000015915E+02 0.  0.
         12    1    1    2    0    0  0.65166246137E+00  0.33535506609E-01 -0.98345878518E+00  0.11802456422E+01  0.00000000000E+00 0. -1.
         11    1    3    3    0    0 -0.14041229427E+00  0.19156073902E+01 -0.93917455217E+01  0.95861437237E+01  0.51100000000E-03 0. -1.
        -11    1    3    3    0    0  0.23866846871E+02  0.28432642261E+02 -0.69878996553E+01  0.37773962823E+02  0.51100000000E-03 0.  1.
         12    1    3    3    0    0 -0.24378097038E+02 -0.30381785158E+02  0.17363103962E+02  0.42647647811E+02  0.00000000000E+00 0. -1.
</event>
<event>
 7    1  0.2000468E-015  0.9000773E+02  0.7816164E-02  0.1186339E+00
        -11   -1    0    0    0    0  0.00000000000E+00  0.00000000000E+00  0.45593999997E+02  0.45594000000E+02  0.51100000000E-03 0.  1.
         11   -1    0    0    0    0 -0.00000000000E+00 -0.00000000000E+00 -0.45593999997E+02  0.45594000000E+02  0.51100000000E-03 0. -1.
    9900012    2    1    2    0    0 -0.64432465434E+00 -0.83359712195E+00  0.53198710084E+00  0.90007725160E+02  0.89999986332E+02 0.  0.
         12    1    1    2    0    0  0.64432465434E+00  0.83359712195E+00 -0.53198710084E+00  0.11802748398E+01  0.00000000000E+00 0. -1.
         11    1    3    3    0    0 -0.88954521349E+01  0.18965909666E+02 -0.33543889482E+02  0.39547785273E+02  0.51100000000E-03 0. -1.
        -11    1    3    3    0    0 -0.79376289648E+01  0.25833819117E+01  0.29727789546E+01  0.88609949023E+01  0.51100000000E-03 0.  1.
        -12    1    3    3    0    0  0.16188756445E+02 -0.22382888700E+02  0.31103097628E+02  0.41598944985E+02  0.00000000000E+00 0.  1.
</event>
<event>
 7    1  0.2000468E-015  0.9000769E+02  0.7816164E-02  0.1186339E+00
        -11   -1    0    0    0    0  0.00000000000E+00  0.00000000000E+00  0.45593999997E+02  0.45594000000E+02  0.51100000000E-03 0.  1.
         11   -1    0    0    0    0 -0.00000000000E+00 -0.00000000000E+00 -0.45593999997E+02  0.45594000000E+02  0.51100000000E-03 0. -1.
    9900012    2    1    2    0    0  0.84019763790E-01  0.18140996776E+00  0.11632512656E+01  0.90007693936E+02  0.89999954696E+02 0.  0.
         12    1    1    2    0    0 -0.84019763790E-01 -0.18140996776E+00 -0.11632512656E+01  0.11803060637E+01  0.00000000000E+00 0. -1.
         11    1    3    3    0    0  0.36538590632E+01 -0.98577972341E+01  0.72601389682E+01  0.12776402876E+02  0.51100000000E-03 0. -1.
        -11    1    3    3    0    0  0.20386855413E+02 -0.33912970598E+01  0.27141369866E+02  0.34114201264E+02  0.51100000000E-03 0.  1.
         12    1    3    3    0    0 -0.23956694713E+02  0.13430504262E+02 -0.33238257569E+02  0.43117089796E+02  0.00000000000E+00 0. -1.
</event>
<event>
 7    1  0.2000468E-015  0.9000774E+02  0.7816164E-02  0.1186339E+00
        -11   -1    0    0    0    0  0.00000000000E+00  0.00000000000E+00  0.45593999997E+02  0.45594000000E+02  0.51100000000E-03 0. -1.
         11   -1    0    0    0    0 -0.00000000000E+00 -0.00000000000E+00 -0.45593999997E+02  0.45594000000E+02  0.51100000000E-03 0.  1.
    9900012    2    1    2    0    0 -0.34361039561E-02  0.92160701259E+00 -0.73731873789E+00  0.90007741463E+02  0.90000002851E+02 0.  0.
         12    1    1    2    0    0  0.34361039561E-02 -0.92160701259E+00  0.73731873789E+00  0.11802585368E+01  0.00000000000E+00 0. -1.
         11    1    3    3    0    0  0.77065447389E+01 -0.18397210351E+01 -0.57018152143E+01  0.97614600495E+01  0.51100000000E-03 0. -1.
        -11    1    3    3    0    0  0.36269797952E+00 -0.16612055291E+00 -0.37207131728E+02  0.37209270317E+02  0.51100000000E-03 0.  1.
         12    1    3    3    0    0 -0.80726788223E+01  0.29274486006E+01  0.42171628205E+02  0.43037011096E+02  0.00000000000E+00 0. -1.
</event>
<event>
 7    1  0.2000468E-015  0.9000765E+02  0.7816164E-02  0.1186339E+00
        -11   -1    0    0    0    0  0.00000000000E+00  0.00000000000E+00  0.45593999997E+02  0.45594000000E+02  0.51100000000E-03 0.  1.
         11   -1    0    0    0    0 -0.00000000000E+00 -0.00000000000E+00 -0.45593999997E+02  0.45594000000E+02  0.51100000000E-03 0. -1.
    9900012    2    1    2    0    0 -0.82063668619E+00 -0.70130731875E+00 -0.47742973462E+00  0.90007654425E+02  0.89999914663E+02 0.  0.
         12    1    1    2    0    0  0.82063668619E+00  0.70130731875E+00  0.47742973462E+00  0.11803455755E+01  0.00000000000E+00 0. -1.
         11    1    3    3    0    0 -0.38669554854E+01  0.69355284918E+01 -0.21276032594E+01  0.82208026419E+01  0.51100000000E-03 0. -1.
        -11    1    3    3    0    0 -0.20879613846E+02 -0.25162528994E+01  0.34754203877E+02  0.40621970538E+02  0.51100000000E-03 0.  1.
         12    1    3    3    0    0  0.23925932646E+02 -0.51205829111E+01 -0.33104030352E+02  0.41164881244E+02  0.00000000000E+00 0. -1.
</event>
<event>
 7    1  0.2000468E-015  0.9000783E+02  0.7816164E-02  0.1186339E+00
        -11   -1    0    0    0    0  0.00000000000E+00  0.00000000000E+00  0.45593999997E+02  0.45594000000E+02  0.51100000000E-03 0. -1.
         11   -1    0    0    0    0 -0.00000000000E+00 -0.00000000000E+00 -0.45593999997E+02  0.45594000000E+02  0.51100000000E-03 0.  1.
    9900012    2    1    2    0    0 -0.64397300226E+00 -0.79146195363E+00 -0.59303177934E+00  0.90007830545E+02  0.90000093108E+02 0.  0.
         12    1    1    2    0    0  0.64397300226E+00  0.79146195363E+00  0.59303177934E+00  0.11801694552E+01  0.00000000000E+00 0. -1.
         11    1    3    3    0    0  0.11570700701E+02 -0.31631518980E+01 -0.20074781652E+01  0.12162097413E+02  0.51100000000E-03 0. -1.
        -11    1    3    3    0    0 -0.13175590147E+02  0.27811698228E+02 -0.26105852571E+02  0.40355944702E+02  0.51100000000E-03 0.  1.
         12    1    3    3    0    0  0.96091644380E+00 -0.25440008283E+02  0.27520298957E+02  0.37489788430E+02  0.00000000000E+00 0. -1.
</event>
<event>
 7    1  0.2000468E-015  0.9000763E+02  0.7816164E-02  0.1186339E+00
        -11   -1    0    0    0    0  0.00000000000E+00  0.00000000000E+00  0.45593999997E+02  0.45594000000E+02  0.51100000000E-03 0. -1.
         11   -1    0    0    0    0 -0.00000000000E+00 -0.00000000000E+00 -0.45593999997E+02  0.45594000000E+02  0.51100000000E-03 0.  1.
    9900012    2    1    2    0    0 -0.72508798346E+00 -0.39148893556E+00 -0.84513271782E+00  0.90007633328E+02  0.89999893288E+02 0.  0.
         12    1    1    2    0    0  0.72508798346E+00  0.39148893556E+00  0.84513271782E+00  0.11803666723E+01  0.00000000000E+00 0. -1.
         11    1    3    3    0    0  0.97862212349E+01 -0.40029702894E+02  0.39732190852E+01  0.41399682486E+02  0.51100000000E-03 0. -1.
        -11    1    3    3    0    0  0.56047854309E+01  0.59166074835E+01  0.55035024157E+01  0.98340430618E+01  0.51100000000E-03 0.  1.
        -12    1    3    3    0    0 -0.16116094649E+02  0.33721606475E+02 -0.10321854219E+02  0.38773907779E+02  0.00000000000E+00 0.  1.
</event>
<event>
 7    1  0.2000468E-015  0.9000775E+02  0.7816164E-02  0.1186339E+00
        -11   -1    0    0    0    0  0.00000000000E+00  0.00000000000E+00  0.45593999997E+02  0.45594000000E+02  0.51100000000E-03 0. -1.
         11   -1    0    0    0    0 -0.00000000000E+00 -0.00000000000E+00 -0.45593999997E+02  0.45594000000E+02  0.51100000000E-03 0.  1.
    9900012    2    1    2    0    0 -0.34507142691E+00 -0.17320281932E+00 -0.11153085610E+01  0.90007751428E+02  0.90000012947E+02 0.  0.
         12    1    1    2    0    0  0.34507142691E+00  0.17320281932E+00  0.11153085610E+01  0.11802485723E+01  0.00000000000E+00 0. -1.
         11    1    3    3    0    0  0.69021535063E+01 -0.80223089919E+00 -0.43646193657E+01  0.82056809534E+01  0.51100000000E-03 0. -1.
        -11    1    3    3    0    0  0.21844358205E+02 -0.15085828019E+02 -0.26364511682E+02  0.37414511475E+02  0.51100000000E-03 0.  1.
         12    1    3    3    0    0 -0.29091583138E+02  0.15714856099E+02  0.29613822486E+02  0.44387559000E+02  0.00000000000E+00 0. -1.
</event>
<event>
 7    1  0.2000468E-015  0.9000755E+02  0.7816164E-02  0.1186339E+00
        -11   -1    0    0    0    0  0.00000000000E+00  0.00000000000E+00  0.45593999997E+02  0.45594000000E+02  0.51100000000E-03 0.  1.
         11   -1    0    0    0    0 -0.00000000000E+00 -0.00000000000E+00 -0.45593999997E+02  0.45594000000E+02  0.51100000000E-03 0. -1.
    9900012    2    1    2    0    0 -0.11534927565E+01 -0.23803173487E+00  0.79155047645E-01  0.90007546626E+02  0.89999805442E+02 0.  0.
         12    1    1    2    0    0  0.11534927565E+01  0.23803173487E+00 -0.79155047645E-01  0.11804533737E+01  0.00000000000E+00 0. -1.
         11    1    3    3    0    0  0.11816508420E+02  0.67362757201E+01  0.70501257153E+01  0.15320298779E+02  0.51100000000E-03 0. -1.
        -11    1    3    3    0    0 -0.14100246771E+02  0.30317397494E+02  0.81757458465E+01  0.34420987351E+02  0.51100000000E-03 0.  1.
         12    1    3    3    0    0  0.11302455941E+01 -0.37291704949E+02 -0.15146716514E+02  0.40266260496E+02  0.00000000000E+00 0. -1.
</event>
<event>
 7    1  0.2000468E-015  0.9000768E+02  0.7816164E-02  0.1186339E+00
        -11   -1    0    0    0    0  0.00000000000E+00  0.00000000000E+00  0.45593999997E+02  0.45594000000E+02  0.51100000000E-03 0.  1.
         11   -1    0    0    0    0 -0.00000000000E+00 -0.00000000000E+00 -0.45593999997E+02  0.45594000000E+02  0.51100000000E-03 0. -1.
    9900012    2    1    2    0    0 -0.21534443364E+00  0.74203709586E+00  0.89228275389E+00  0.90007677676E+02  0.89999938221E+02 0.  0.
         12    1    1    2    0    0  0.21534443364E+00 -0.74203709586E+00 -0.89228275389E+00  0.11803223245E+01  0.00000000000E+00 0. -1.
         11    1    3    3    0    0 -0.77512707838E+01 -0.23437477280E+02 -0.20996343124E+02  0.32407467733E+02  0.51100000000E-03 0. -1.
        -11    1    3    3    0    0 -0.13182712433E+02 -0.64446590803E+01  0.81200990097E-01  0.14673926932E+02  0.51100000000E-03 0.  1.
         12    1    3    3    0    0  0.20718638783E+02  0.30624173456E+02  0.21807424888E+02  0.42926283011E+02  0.00000000000E+00 0. -1.
</event>
<event>
 7    1  0.2000468E-015  0.9000769E+02  0.7816164E-02  0.1186339E+00
        -11   -1    0    0    0    0  0.00000000000E+00  0.00000000000E+00  0.45593999997E+02  0.45594000000E+02  0.51100000000E-03 0. -1.
         11   -1    0    0    0    0 -0.00000000000E+00 -0.00000000000E+00 -0.45593999997E+02  0.45594000000E+02  0.51100000000E-03 0.  1.
    9900012    2    1    2    0    0  0.92394120460E+00 -0.17444649097E+00 -0.71346633648E+00  0.90007689388E+02  0.89999950088E+02 0.  0.
         12    1    1    2    0    0 -0.92394120460E+00  0.17444649097E+00  0.71346633648E+00  0.11803106121E+01  0.00000000000E+00 0. -1.
         11    1    3    3    0    0  0.30559245901E+00 -0.37509922347E+01  0.25491110689E+01  0.45454699425E+01  0.51100000000E-03 0. -1.
        -11    1    3    3    0    0 -0.11847104935E+02 -0.31322751767E+02  0.22485318041E+02  0.40336809507E+02  0.51100000000E-03 0.  1.
         12    1    3    3    0    0  0.12465453680E+02  0.34899297511E+02 -0.25747895446E+02  0.45125409938E+02  0.00000000000E+00 0. -1.
</event>
<event>
 7    1  0.2000468E-015  0.9000775E+02  0.7816164E-02  0.1186339E+00
        -11   -1    0    0    0    0  0.00000000000E+00  0.00000000000E+00  0.45593999997E+02  0.45594000000E+02  0.51100000000E-03 0. -1.
         11   -1    0    0    0    0 -0.00000000000E+00 -0.00000000000E+00 -0.45593999997E+02  0.45594000000E+02  0.51100000000E-03 0.  1.
    9900012    2    1    2    0    0  0.69221163750E+00 -0.90419233806E+00 -0.31028184413E+00  0.90007747672E+02  0.90000009141E+02 0.  0.
         12    1    1    2    0    0 -0.69221163750E+00  0.90419233806E+00  0.31028184413E+00  0.11802523281E+01  0.00000000000E+00 0. -1.
         11    1    3    3    0    0 -0.12014546966E+02  0.33793084445E+02 -0.20006858883E+02  0.41068190826E+02  0.51100000000E-03 0. -1.
        -11    1    3    3    0    0  0.82513088997E+01  0.13720683085E+01  0.49404659963E+01  0.97146731557E+01  0.51100000000E-03 0.  1.
        -12    1    3    3    0    0  0.44554497036E+01 -0.36069345092E+02  0.14756111042E+02  0.39224883690E+02  0.00000000000E+00 0.  1.
</event>
<event>
 7    1  0.2000468E-015  0.9000770E+02  0.7816164E-02  0.1186339E+00
        -11   -1    0    0    0    0  0.00000000000E+00  0.00000000000E+00  0.45593999997E+02  0.45594000000E+02  0.51100000000E-03 0. -1.
         11   -1    0    0    0    0 -0.00000000000E+00 -0.00000000000E+00 -0.45593999997E+02  0.45594000000E+02  0.51100000000E-03 0.  1.
    9900012    2    1    2    0    0  0.10673300918E+01  0.50112099338E+00 -0.52864047410E-01  0.90007699029E+02  0.89999959856E+02 0.  0.
         12    1    1    2    0    0 -0.10673300918E+01 -0.50112099338E+00  0.52864047410E-01  0.11803009711E+01  0.00000000000E+00 0. -1.
         11    1    3    3    0    0  0.53406430782E+01 -0.30163518288E+01  0.17635457339E+02  0.18671641670E+02  0.51100000000E-03 0. -1.
        -11    1    3    3    0    0 -0.35190811238E+02  0.67284445538E+01 -0.18331508605E+02  0.40245613049E+02  0.51100000000E-03 0.  1.
         12    1    3    3    0    0  0.30917498252E+02 -0.32109717317E+01  0.64318721870E+00  0.31090444310E+02  0.00000000000E+00 0. -1.
</event>
<event>
 7    1  0.2000468E-015  0.9000765E+02  0.7816164E-02  0.1186339E+00
        -11   -1    0    0    0    0  0.00000000000E+00  0.00000000000E+00  0.45593999997E+02  0.45594000000E+02  0.51100000000E-03 0. -1.
         11   -1    0    0    0    0 -0.00000000000E+00 -0.00000000000E+00 -0.45593999997E+02  0.45594000000E+02  0.51100000000E-03 0.  1.
    9900012    2    1    2    0    0 -0.53386780960E-01  0.11676913406E+01  0.16391852206E+00  0.90007651536E+02  0.89999911736E+02 0.  0.
         12    1    1    2    0    0  0.53386780960E-01 -0.11676913406E+01 -0.16391852206E+00  0.11803484643E+01  0.00000000000E+00 0. -1.
         11    1    3    3    0    0 -0.19812351275E+01 -0.61601582036E+01 -0.15938026631E+02  0.17201556176E+02  0.51100000000E-03 0. -1.
        -11    1    3    3    0    0  0.38116760088E+01 -0.39509370606E+01 -0.27339291762E+02  0.27885043517E+02  0.51100000000E-03 0.  1.
         12    1    3    3    0    0 -0.18838276623E+01  0.11278786605E+02  0.43441236915E+02  0.44921051843E+02  0.00000000000E+00 0. -1.
</event>
<event>
 7    1  0.2000468E-015  0.9000763E+02  0.7816164E-02  0.1186339E+00
        -11   -1    0    0    0    0  0.00000000000E+00  0.00000000000E+00  0.45593999997E+02  0.45594000000E+02  0.51100000000E-03 0.  1.
         11   -1    0    0    0    0 -0.00000000000E+00 -0.00000000000E+00 -0.45593999997E+02  0.45594000000E+02  0.51100000000E-03 0. -1.
    9900012    2    1    2    0    0  0.39675908323E+00 -0.15729915593E-02  0.11116922356E+01  0.90007627232E+02  0.89999887112E+02 0.  0.
         12    1    1    2    0    0 -0.39675908323E+00  0.15729915593E-02 -0.11116922356E+01  0.11803727678E+01  0.00000000000E+00 0. -1.
         11    1    3    3    0    0  0.16949867149E+01 -0.32912598999E+02 -0.22954796298E+02  0.40162604824E+02  0.51100000000E-03 0. -1.
        -11    1    3    3    0    0  0.15577128079E+01  0.48783590424E+01 -0.64982092861E+01  0.82735470220E+01  0.51100000000E-03 0.  1.
        -12    1    3    3    0    0 -0.28559404395E+01  0.28032666965E+02  0.30564697820E+02  0.41571475387E+02  0.00000000000E+00 0.  1.
</event>
<event>
 7    1  0.2000468E-015  0.9000763E+02  0.7816164E-02  0.1186339E+00
        -11   -1    0    0    0    0  0.00000000000E+00  0.00000000000E+00  0.45593999997E+02  0.45594000000E+02  0.51100000000E-03 0.  1.
         11   -1    0    0    0    0 -0.00000000000E+00 -0.00000000000E+00 -0.45593999997E+02  0.45594000000E+02  0.51100000000E-03 0. -1.
    9900012    2    1    2    0    0  0.47949075674E+00 -0.87170517191E+00 -0.63521402641E+00  0.90007627960E+02  0.89999887849E+02 0.  0.
         12    1    1    2    0    0 -0.47949075674E+00  0.87170517191E+00  0.63521402641E+00  0.11803720396E+01  0.00000000000E+00 0. -1.
         11    1    3    3    0    0 -0.25446182867E+02 -0.24872401094E+02 -0.20967941733E+02  0.41301321280E+02  0.51100000000E-03 0. -1.
        -11    1    3    3    0    0 -0.49684491345E+01  0.81129694521E+01  0.40472908763E+01  0.10338584228E+02  0.51100000000E-03 0.  1.
        -12    1    3    3    0    0  0.30894122758E+02  0.15887726470E+02  0.16285436831E+02  0.38367722452E+02  0.00000000000E+00 0.  1.
</event>
<event>
 7    1  0.2000468E-015  0.9000767E+02  0.7816164E-02  0.1186339E+00
        -11   -1    0    0    0    0  0.00000000000E+00  0.00000000000E+00  0.45593999997E+02  0.45594000000E+02  0.51100000000E-03 0.  1.
         11   -1    0    0    0    0 -0.00000000000E+00 -0.00000000000E+00 -0.45593999997E+02  0.45594000000E+02  0.51100000000E-03 0. -1.
    9900012    2    1    2    0    0 -0.27910354094E+00 -0.72371731228E+00  0.88966670605E+00  0.90007672765E+02  0.89999933245E+02 0.  0.
         12    1    1    2    0    0  0.27910354094E+00  0.72371731228E+00 -0.88966670605E+00  0.11803272353E+01  0.00000000000E+00 0. -1.
         11    1    3    3    0    0  0.26772781431E+02  0.28220167478E+02 -0.24338367246E+01  0.38975418401E+02  0.51100000000E-03 0. -1.
        -11    1    3    3    0    0  0.38665299852E+00  0.21861994238E+01  0.88909827634E+01  0.91639807519E+01  0.51100000000E-03 0.  1.
        -12    1    3    3    0    0 -0.27438537970E+02 -0.31130084214E+02 -0.55674793328E+01  0.41868273612E+02  0.00000000000E+00 0.  1.
</event>
<event>
 7    1  0.2000468E-015  0.9000814E+02  0.7816164E-02  0.1186338E+00
        -11   -1    0    0    0    0  0.00000000000E+00  0.00000000000E+00  0.45593999997E+02  0.45594000000E+02  0.51100000000E-03 0. -1.
         11   -1    0    0    0    0 -0.00000000000E+00 -0.00000000000E+00 -0.45593999997E+02  0.45594000000E+02  0.51100000000E-03 0.  1.
    9900012    2    1    2    0    0  0.98090207727E+00 -0.52665023811E-01 -0.65354763424E+00  0.90008141110E+02  0.90000407772E+02 0.  0.
         12    1    1    2    0    0 -0.98090207727E+00  0.52665023811E-01  0.65354763424E+00  0.11798588899E+01  0.00000000000E+00 0. -1.
         11    1    3    3    0    0  0.71539612373E+01  0.52938406653E+01  0.59460815287E+00  0.89194993969E+01  0.51100000000E-03 0. -1.
        -11    1    3    3    0    0  0.28328347395E+02  0.43131301219E+01 -0.25061879098E+02  0.38068308890E+02  0.51100000000E-03 0.  1.
         12    1    3    3    0    0 -0.34501406555E+02 -0.96596358110E+01  0.23813723311E+02  0.43020332823E+02  0.00000000000E+00 0. -1.
</event>
<event>
 7    1  0.2000468E-015  0.9000766E+02  0.7816164E-02  0.1186339E+00
        -11   -1    0    0    0    0  0.00000000000E+00  0.00000000000E+00  0.45593999997E+02  0.45594000000E+02  0.51100000000E-03 0.  1.
         11   -1    0    0    0    0 -0.00000000000E+00 -0.00000000000E+00 -0.45593999997E+02  0.45594000000E+02  0.51100000000E-03 0. -1.
    9900012    2    1    2    0    0 -0.82820612057E+00 -0.25280459692E+00  0.80209594583E+00  0.90007663841E+02  0.89999924203E+02 0.  0.
         12    1    1    2    0    0  0.82820612057E+00  0.25280459692E+00 -0.80209594583E+00  0.11803361592E+01  0.00000000000E+00 0. -1.
         11    1    3    3    0    0 -0.22684604655E+02 -0.23414190733E+02  0.20798188829E+02  0.38670147076E+02  0.51100000000E-03 0. -1.
        -11    1    3    3    0    0  0.64740584739E+01 -0.91075194890E+01 -0.75476942628E+01  0.13484362548E+02  0.51100000000E-03 0.  1.
        -12    1    3    3    0    0  0.15382340061E+02  0.32268905625E+02 -0.12448398620E+02  0.37853154217E+02  0.00000000000E+00 0.  1.
</event>
<event>
 8    1  0.2000468E-015  0.9000778E+02  0.7816164E-02  0.1186339E+00
        -11   -1    0    0    0    0  0.00000000000E+00  0.00000000000E+00  0.45593999997E+02  0.45594000000E+02  0.51100000000E-03 0.  1.
         11   -1    0    0    0    0 -0.00000000000E+00 -0.00000000000E+00 -0.45593999997E+02  0.45594000000E+02  0.51100000000E-03 0. -1.
    9900012    2    1    2    0    0  0.42592899294E+00 -0.91370568459E-01  0.10968789461E+01  0.90007784973E+02  0.90000046935E+02 0.  0.
         23    2    3    3    0    0  0.63018888339E+01 -0.20947236618E+02  0.13728938427E+02  0.64926657018E+02  0.59569174213E+02 0.  0.
         12    1    1    2    0    0 -0.42592899294E+00  0.91370568459E-01 -0.10968789461E+01  0.11802150271E+01  0.00000000000E+00 0. -1.
         11    1    4    4    0    0  0.12795250513E+02  0.13541014185E+02 -0.11329438607E+02  0.21804441755E+02  0.51100000000E-03 0. -1.
        -11    1    4    4    0    0 -0.64933616789E+01 -0.34488250803E+02  0.25058377034E+02  0.43122215263E+02  0.51100000000E-03 0.  1.
         12    1    3    3    0    0 -0.58759598409E+01  0.20855866050E+02 -0.12632059481E+02  0.25081127954E+02  0.00000000000E+00 0. -1.
</event>
<event>
 7    1  0.2000468E-015  0.9000745E+02  0.7816164E-02  0.1186340E+00
        -11   -1    0    0    0    0  0.00000000000E+00  0.00000000000E+00  0.45593999997E+02  0.45594000000E+02  0.51100000000E-03 0. -1.
         11   -1    0    0    0    0 -0.00000000000E+00 -0.00000000000E+00 -0.45593999997E+02  0.45594000000E+02  0.51100000000E-03 0.  1.
    9900012    2    1    2    0    0  0.39504434794E+00  0.81219084686E+00 -0.76025161157E+00  0.90007450754E+02  0.89999708304E+02 0.  0.
         12    1    1    2    0    0 -0.39504434794E+00 -0.81219084686E+00  0.76025161157E+00  0.11805492457E+01  0.00000000000E+00 0. -1.
         11    1    3    3    0    0  0.73627624675E+01  0.34677763906E+02  0.17830944806E+02  0.39682492029E+02  0.51100000000E-03 0. -1.
        -11    1    3    3    0    0  0.79465124836E+01 -0.21984820433E+01  0.34742948366E+01  0.89471285237E+01  0.51100000000E-03 0.  1.
        -12    1    3    3    0    0 -0.14914230603E+02 -0.31667091016E+02 -0.22065491255E+02  0.41377830202E+02  0.00000000000E+00 0.  1.
</event>
<event>
 7    1  0.2000468E-015  0.9000770E+02  0.7816164E-02  0.1186339E+00
        -11   -1    0    0    0    0  0.00000000000E+00  0.00000000000E+00  0.45593999997E+02  0.45594000000E+02  0.51100000000E-03 0. -1.
         11   -1    0    0    0    0 -0.00000000000E+00 -0.00000000000E+00 -0.45593999997E+02  0.45594000000E+02  0.51100000000E-03 0.  1.
    9900012    2    1    2    0    0  0.11064774840E+01 -0.39428243483E+00  0.11557331550E+00  0.90007699931E+02  0.89999960770E+02 0.  0.
         12    1    1    2    0    0 -0.11064774840E+01  0.39428243483E+00 -0.11557331550E+00  0.11803000688E+01  0.00000000000E+00 0. -1.
         11    1    3    3    0    0  0.27803634999E+01  0.58229977353E+01 -0.43463542984E+01  0.77800076970E+01  0.51100000000E-03 0. -1.
        -11    1    3    3    0    0  0.26888591975E+02 -0.30765581535E+02 -0.96925124982E+01  0.41993596945E+02  0.51100000000E-03 0.  1.
         12    1    3    3    0    0 -0.28562477991E+02  0.24548301365E+02  0.14154440112E+02  0.40234095289E+02  0.00000000000E+00 0. -1.
</event>
<event>
 7    1  0.2000468E-015  0.9000781E+02  0.7816164E-02  0.1186339E+00
        -11   -1    0    0    0    0  0.00000000000E+00  0.00000000000E+00  0.45593999997E+02  0.45594000000E+02  0.51100000000E-03 0. -1.
         11   -1    0    0    0    0 -0.00000000000E+00 -0.00000000000E+00 -0.45593999997E+02  0.45594000000E+02  0.51100000000E-03 0.  1.
    9900012    2    1    2    0    0 -0.27462047700E+00  0.13519113936E+00 -0.11398043658E+01  0.90007810590E+02  0.90000072890E+02 0.  0.
         12    1    1    2    0    0  0.27462047700E+00 -0.13519113936E+00  0.11398043658E+01  0.11801894098E+01  0.00000000000E+00 0. -1.
         11    1    3    3    0    0  0.39571581338E+02 -0.99401956278E+01 -0.97706721112E+01  0.41954541738E+02  0.51100000000E-03 0. -1.
        -11    1    3    3    0    0 -0.27265423165E+01  0.94771314537E+01  0.39967366910E+01  0.10640674698E+02  0.51100000000E-03 0.  1.
        -12    1    3    3    0    0 -0.37119659498E+02  0.59825531339E+00  0.46341310543E+01  0.37412594154E+02  0.00000000000E+00 0.  1.
</event>
<event>
 7    1  0.2000468E-015  0.9000768E+02  0.7816164E-02  0.1186339E+00
        -11   -1    0    0    0    0  0.00000000000E+00  0.00000000000E+00  0.45593999997E+02  0.45594000000E+02  0.51100000000E-03 0.  1.
         11   -1    0    0    0    0 -0.00000000000E+00 -0.00000000000E+00 -0.45593999997E+02  0.45594000000E+02  0.51100000000E-03 0. -1.
    9900012    2    1    2    0    0 -0.26118245783E-01 -0.80160100187E+00  0.86597041134E+00  0.90007681788E+02  0.89999942387E+02 0.  0.
         12    1    1    2    0    0  0.26118245783E-01  0.80160100187E+00 -0.86597041134E+00  0.11803182123E+01  0.00000000000E+00 0. -1.
         11    1    3    3    0    0 -0.57782801634E+01  0.97645010768E+01 -0.72645310210E+01  0.13472468747E+02  0.51100000000E-03 0. -1.
        -11    1    3    3    0    0  0.33254263196E+02  0.15430064457E+02 -0.37977537535E+01  0.36855879364E+02  0.51100000000E-03 0.  1.
         12    1    3    3    0    0 -0.27502101278E+02 -0.25996166536E+02  0.11928255186E+02  0.39679333677E+02  0.00000000000E+00 0. -1.
</event>
<event>
 7    1  0.2000468E-015  0.9000775E+02  0.7816164E-02  0.1186339E+00
        -11   -1    0    0    0    0  0.00000000000E+00  0.00000000000E+00  0.45593999997E+02  0.45594000000E+02  0.51100000000E-03 0.  1.
         11   -1    0    0    0    0 -0.00000000000E+00 -0.00000000000E+00 -0.45593999997E+02  0.45594000000E+02  0.51100000000E-03 0. -1.
    9900012    2    1    2    0    0 -0.85147891294E+00  0.35656059934E+00  0.73541892881E+00  0.90007748840E+02  0.90000010325E+02 0.  0.
         12    1    1    2    0    0  0.85147891294E+00 -0.35656059934E+00 -0.73541892881E+00  0.11802511602E+01  0.00000000000E+00 0. -1.
         11    1    3    3    0    0 -0.31228182828E+01  0.57664457230E+01  0.73591690234E+01  0.98570411016E+01  0.51100000000E-03 0. -1.
        -11    1    3    3    0    0 -0.19950444802E+02  0.25377640096E+02  0.15920106390E+02  0.35992980599E+02  0.51100000000E-03 0.  1.
         12    1    3    3    0    0  0.22221784172E+02 -0.30787525220E+02 -0.22543856485E+02  0.44157727140E+02  0.00000000000E+00 0. -1.
</event>
<event>
 7    1  0.2000468E-015  0.9000774E+02  0.7816164E-02  0.1186339E+00
        -11   -1    0    0    0    0  0.00000000000E+00  0.00000000000E+00  0.45593999997E+02  0.45594000000E+02  0.51100000000E-03 0. -1.
         11   -1    0    0    0    0 -0.00000000000E+00 -0.00000000000E+00 -0.45593999997E+02  0.45594000000E+02  0.51100000000E-03 0.  1.
    9900012    2    1    2    0    0 -0.66425376072E+00  0.97542706179E+00 -0.18146297451E-01  0.90007737190E+02  0.89999998521E+02 0.  0.
         12    1    1    2    0    0  0.66425376072E+00 -0.97542706179E+00  0.18146297451E-01  0.11802628096E+01  0.00000000000E+00 0. -1.
         11    1    3    3    0    0  0.27648064530E+02  0.10733549301E+01  0.29468764041E+02  0.40422464267E+02  0.51100000000E-03 0. -1.
        -11    1    3    3    0    0 -0.40049309733E+01 -0.76746382728E+01  0.22045263431E+01  0.89330555455E+01  0.51100000000E-03 0.  1.
        -12    1    3    3    0    0 -0.24307387318E+02  0.75767104045E+01 -0.31691436682E+02  0.40652217378E+02  0.00000000000E+00 0.  1.
</event>
<event>
 7    1  0.2000468E-015  0.9000775E+02  0.7816164E-02  0.1186339E+00
        -11   -1    0    0    0    0  0.00000000000E+00  0.00000000000E+00  0.45593999997E+02  0.45594000000E+02  0.51100000000E-03 0. -1.
         11   -1    0    0    0    0 -0.00000000000E+00 -0.00000000000E+00 -0.45593999997E+02  0.45594000000E+02  0.51100000000E-03 0.  1.
    9900012    2    1    2    0    0 -0.42648131873E+00 -0.27639217560E+00 -0.10652232627E+01  0.90007754454E+02  0.90000016013E+02 0.  0.
         12    1    1    2    0    0  0.42648131873E+00  0.27639217560E+00  0.10652232627E+01  0.11802455462E+01  0.00000000000E+00 0. -1.
         11    1    3    3    0    0 -0.18898684292E+02 -0.30147890725E+02 -0.12749854287E+02  0.37797015328E+02  0.51100000000E-03 0. -1.
        -11    1    3    3    0    0 -0.96253454966E+01  0.14701029795E+00 -0.15976839949E+00  0.96277938366E+01  0.51100000000E-03 0.  1.
        -12    1    3    3    0    0  0.28097548470E+02  0.29724488251E+02  0.11844399424E+02  0.42582945289E+02  0.00000000000E+00 0.  1.
</event>
<event>
 7    1  0.2000468E-015  0.9000775E+02  0.7816164E-02  0.1186339E+00
        -11   -1    0    0    0    0  0.00000000000E+00  0.00000000000E+00  0.45593999997E+02  0.45594000000E+02  0.51100000000E-03 0.  1.
         11   -1    0    0    0    0 -0.00000000000E+00 -0.00000000000E+00 -0.45593999997E+02  0.45594000000E+02  0.51100000000E-03 0. -1.
    9900012    2    1    2    0    0 -0.95948655444E+00  0.92863958757E-02  0.68723894418E+00  0.90007746615E+02  0.90000008071E+02 0.  0.
         12    1    1    2    0    0  0.95948655444E+00 -0.92863958757E-02 -0.68723894418E+00  0.11802533845E+01  0.00000000000E+00 0. -1.
         11    1    3    3    0    0  0.29210523735E+01  0.15072935217E+01  0.13064003553E+02  0.13471179229E+02  0.51100000000E-03 0. -1.
        -11    1    3    3    0    0 -0.22093573998E+02  0.84952486827E+01  0.24590467948E+02  0.34131896758E+02  0.51100000000E-03 0.  1.
         12    1    3    3    0    0  0.18213035070E+02 -0.99932558085E+01 -0.36967232557E+02  0.42404670628E+02  0.00000000000E+00 0. -1.
</event>
<event>
 7    1  0.2000468E-015  0.9000775E+02  0.7816164E-02  0.1186339E+00
        -11   -1    0    0    0    0  0.00000000000E+00  0.00000000000E+00  0.45593999997E+02  0.45594000000E+02  0.51100000000E-03 0.  1.
         11   -1    0    0    0    0 -0.00000000000E+00 -0.00000000000E+00 -0.45593999997E+02  0.45594000000E+02  0.51100000000E-03 0. -1.
    9900012    2    1    2    0    0 -0.51583854469E+00 -0.10364231233E+01 -0.22961882838E+00  0.90007751255E+02  0.90000012771E+02 0.  0.
         12    1    1    2    0    0  0.51583854469E+00  0.10364231233E+01  0.22961882838E+00  0.11802487454E+01  0.00000000000E+00 0. -1.
         11    1    3    3    0    0  0.14908191189E+01 -0.13699543286E+01 -0.92345300530E+01  0.94538807941E+01  0.51100000000E-03 0. -1.
        -11    1    3    3    0    0  0.37092522052E+02  0.12093267041E+02  0.15173784424E+01  0.39043626080E+02  0.51100000000E-03 0.  1.
         12    1    3    3    0    0 -0.39099179715E+02 -0.11759735836E+02  0.74875327822E+01  0.41510244380E+02  0.00000000000E+00 0. -1.
</event>
<event>
 7    1  0.2000468E-015  0.9000775E+02  0.7816164E-02  0.1186339E+00
        -11   -1    0    0    0    0  0.00000000000E+00  0.00000000000E+00  0.45593999997E+02  0.45594000000E+02  0.51100000000E-03 0.  1.
         11   -1    0    0    0    0 -0.00000000000E+00 -0.00000000000E+00 -0.45593999997E+02  0.45594000000E+02  0.51100000000E-03 0. -1.
    9900012    2    1    2    0    0  0.86919688319E-01 -0.81998490283E+00  0.84442240425E+00  0.90007754487E+02  0.90000016047E+02 0.  0.
         12    1    1    2    0    0 -0.86919688319E-01  0.81998490283E+00 -0.84442240425E+00  0.11802455125E+01  0.00000000000E+00 0. -1.
         11    1    3    3    0    0  0.70304809843E+01  0.10660673635E+02  0.66034909466E+01  0.14376498814E+02  0.51100000000E-03 0. -1.
        -11    1    3    3    0    0  0.26707225181E+01  0.29651478614E+02  0.86463210783E+01  0.31001642073E+02  0.51100000000E-03 0.  1.
         12    1    3    3    0    0 -0.96142838140E+01 -0.41132137152E+02 -0.14405389621E+02  0.44629613600E+02  0.00000000000E+00 0. -1.
</event>
<event>
 7    1  0.2000468E-015  0.9000774E+02  0.7816164E-02  0.1186339E+00
        -11   -1    0    0    0    0  0.00000000000E+00  0.00000000000E+00  0.45593999997E+02  0.45594000000E+02  0.51100000000E-03 0. -1.
         11   -1    0    0    0    0 -0.00000000000E+00 -0.00000000000E+00 -0.45593999997E+02  0.45594000000E+02  0.51100000000E-03 0.  1.
    9900012    2    1    2    0    0  0.33062381839E+00  0.42521753715E+00 -0.10501891178E+01  0.90007737637E+02  0.89999998973E+02 0.  0.
         12    1    1    2    0    0 -0.33062381839E+00 -0.42521753715E+00  0.10501891178E+01  0.11802623634E+01  0.00000000000E+00 0. -1.
         11    1    3    3    0    0  0.15281127696E+02  0.21536582350E+02  0.14172101465E+02  0.29969746465E+02  0.51100000000E-03 0. -1.
        -11    1    3    3    0    0  0.11228705696E+02  0.83352061025E+01 -0.15176235443E+02  0.20636802438E+02  0.51100000000E-03 0.  1.
        -12    1    3    3    0    0 -0.26179209573E+02 -0.29446570916E+02 -0.46055140461E-01  0.39401188734E+02  0.00000000000E+00 0.  1.
</event>
<event>
 7    1  0.2000468E-015  0.9000779E+02  0.7816164E-02  0.1186339E+00
        -11   -1    0    0    0    0  0.00000000000E+00  0.00000000000E+00  0.45593999997E+02  0.45594000000E+02  0.51100000000E-03 0.  1.
         11   -1    0    0    0    0 -0.00000000000E+00 -0.00000000000E+00 -0.45593999997E+02  0.45594000000E+02  0.51100000000E-03 0. -1.
    9900012    2    1    2    0    0  0.10425736427E+00  0.87085367834E+00  0.78971140592E+00  0.90007788226E+02  0.90000050230E+02 0.  0.
         12    1    1    2    0    0 -0.10425736427E+00 -0.87085367834E+00 -0.78971140592E+00  0.11802117741E+01  0.00000000000E+00 0. -1.
         11    1    3    3    0    0 -0.72878371715E+01  0.38757819757E+02 -0.12092381002E+02  0.41249325346E+02  0.51100000000E-03 0. -1.
        -11    1    3    3    0    0 -0.56631289349E+01 -0.29759209468E+01 -0.43084246209E+01  0.77129538953E+01  0.51100000000E-03 0.  1.
        -12    1    3    3    0    0  0.13055223471E+02 -0.34911045132E+02  0.17190517029E+02  0.41045508984E+02  0.00000000000E+00 0.  1.
</event>
<event>
 7    1  0.2000468E-015  0.9000774E+02  0.7816164E-02  0.1186339E+00
        -11   -1    0    0    0    0  0.00000000000E+00  0.00000000000E+00  0.45593999997E+02  0.45594000000E+02  0.51100000000E-03 0.  1.
         11   -1    0    0    0    0 -0.00000000000E+00 -0.00000000000E+00 -0.45593999997E+02  0.45594000000E+02  0.51100000000E-03 0. -1.
    9900012    2    1    2    0    0 -0.82785128674E+00  0.51548999563E-01  0.83965017232E+00  0.90007742628E+02  0.90000004031E+02 0.  0.
         12    1    1    2    0    0  0.82785128674E+00 -0.51548999563E-01 -0.83965017232E+00  0.11802573720E+01  0.00000000000E+00 0. -1.
         11    1    3    3    0    0 -0.48176790575E+01 -0.48802410092E+01  0.60139358980E+01  0.91210859581E+01  0.51100000000E-03 0. -1.
        -11    1    3    3    0    0 -0.28243043702E+02 -0.10456833917E+02  0.20905056393E+02  0.36661100313E+02  0.51100000000E-03 0.  1.
         12    1    3    3    0    0  0.32232871473E+02  0.15388623926E+02 -0.26079342119E+02  0.44225556357E+02  0.00000000000E+00 0. -1.
</event>
<event>
 7    1  0.2000468E-015  0.9000746E+02  0.7816164E-02  0.1186340E+00
        -11   -1    0    0    0    0  0.00000000000E+00  0.00000000000E+00  0.45593999997E+02  0.45594000000E+02  0.51100000000E-03 0. -1.
         11   -1    0    0    0    0 -0.00000000000E+00 -0.00000000000E+00 -0.45593999997E+02  0.45594000000E+02  0.51100000000E-03 0.  1.
    9900012    2    1    2    0    0 -0.11678552666E+00  0.11724094492E+01  0.74028485300E-01  0.90007464955E+02  0.89999722692E+02 0.  0.
         12    1    1    2    0    0  0.11678552666E+00 -0.11724094492E+01 -0.74028485300E-01  0.11805350450E+01  0.00000000000E+00 0. -1.
         11    1    3    3    0    0  0.95740278702E+01  0.19290948149E+01 -0.34776720205E+02  0.36122066454E+02  0.51100000000E-03 0. -1.
        -11    1    3    3    0    0  0.15184123446E+02  0.41444705072E+01  0.13775850448E+02  0.20916698985E+02  0.51100000000E-03 0.  1.
         12    1    3    3    0    0 -0.24874936843E+02 -0.49011558729E+01  0.21074898243E+02  0.32968699516E+02  0.00000000000E+00 0. -1.
</event>
<event>
 7    1  0.2000468E-015  0.9000776E+02  0.7816164E-02  0.1186339E+00
        -11   -1    0    0    0    0  0.00000000000E+00  0.00000000000E+00  0.45593999997E+02  0.45594000000E+02  0.51100000000E-03 0.  1.
         11   -1    0    0    0    0 -0.00000000000E+00 -0.00000000000E+00 -0.45593999997E+02  0.45594000000E+02  0.51100000000E-03 0. -1.
    9900012    2    1    2    0    0 -0.84304241890E+00  0.42227804395E-01  0.82489587230E+00  0.90007764046E+02  0.90000025731E+02 0.  0.
         12    1    1    2    0    0  0.84304241890E+00 -0.42227804395E-01 -0.82489587230E+00  0.11802359542E+01  0.00000000000E+00 0. -1.
         11    1    3    3    0    0  0.18823816294E+01 -0.67800509594E+01 -0.65434593460E+01  0.96088142913E+01  0.51100000000E-03 0. -1.
        -11    1    3    3    0    0 -0.35415858999E+02 -0.16588001857E+02  0.91018727801E+01  0.40153318201E+02  0.51100000000E-03 0.  1.
         12    1    3    3    0    0  0.32690434950E+02  0.23410280620E+02 -0.17335175618E+01  0.40245631553E+02  0.00000000000E+00 0. -1.
</event>
<event>
 7    1  0.2000468E-015  0.9000722E+02  0.7816164E-02  0.1186340E+00
        -11   -1    0    0    0    0  0.00000000000E+00  0.00000000000E+00  0.45593999997E+02  0.45594000000E+02  0.51100000000E-03 0. -1.
         11   -1    0    0    0    0 -0.00000000000E+00 -0.00000000000E+00 -0.45593999997E+02  0.45594000000E+02  0.51100000000E-03 0.  1.
    9900012    2    1    2    0    0  0.39329633904E+00  0.76725124444E+00 -0.80676907339E+00  0.90007223637E+02  0.89999478187E+02 0.  0.
         12    1    1    2    0    0 -0.39329633904E+00 -0.76725124444E+00  0.80676907339E+00  0.11807763633E+01  0.00000000000E+00 0. -1.
         11    1    3    3    0    0 -0.76229233921E+01  0.11252118612E+01 -0.39043425108E+01  0.86382262923E+01  0.51100000000E-03 0. -1.
        -11    1    3    3    0    0 -0.86974222180E+01 -0.36881060011E+02 -0.98786348006E+01  0.39159228371E+02  0.51100000000E-03 0.  1.
         12    1    3    3    0    0  0.16713641949E+02  0.36523099395E+02  0.12976208238E+02  0.42209768974E+02  0.00000000000E+00 0. -1.
</event>
<event>
 7    1  0.2000468E-015  0.9000796E+02  0.7816164E-02  0.1186339E+00
        -11   -1    0    0    0    0  0.00000000000E+00  0.00000000000E+00  0.45593999997E+02  0.45594000000E+02  0.51100000000E-03 0.  1.
         11   -1    0    0    0    0 -0.00000000000E+00 -0.00000000000E+00 -0.45593999997E+02  0.45594000000E+02  0.51100000000E-03 0. -1.
    9900012    2    1    2    0    0  0.89992617268E+00 -0.64205133293E+00  0.41279474702E+00  0.90007959097E+02  0.90000223356E+02 0.  0.
         12    1    1    2    0    0 -0.89992617268E+00  0.64205133293E+00 -0.41279474702E+00  0.11800409033E+01  0.00000000000E+00 0. -1.
         11    1    3    3    0    0 -0.50634452869E+01 -0.74441518356E+01  0.44429262518E+01  0.10039595045E+02  0.51100000000E-03 0. -1.
        -11    1    3    3    0    0 -0.30673044669E+02  0.12653601283E+02  0.17041823039E+02  0.37301112952E+02  0.51100000000E-03 0.  1.
         12    1    3    3    0    0  0.36636416128E+02 -0.58515007807E+01 -0.21071954544E+02  0.42667251100E+02  0.00000000000E+00 0. -1.
</event>
<event>
 7    1  0.2000468E-015  0.9000775E+02  0.7816164E-02  0.1186339E+00
        -11   -1    0    0    0    0  0.00000000000E+00  0.00000000000E+00  0.45593999997E+02  0.45594000000E+02  0.51100000000E-03 0.  1.
         11   -1    0    0    0    0 -0.00000000000E+00 -0.00000000000E+00 -0.45593999997E+02  0.45594000000E+02  0.51100000000E-03 0. -1.
    9900012    2    1    2    0    0  0.80297095119E+00 -0.60206961327E+00  0.62107393068E+00  0.90007752994E+02  0.90000014534E+02 0.  0.
         12    1    1    2    0    0 -0.80297095119E+00  0.60206961327E+00 -0.62107393068E+00  0.11802470060E+01  0.00000000000E+00 0. -1.
         11    1    3    3    0    0  0.38089258809E+01 -0.45061039570E+01  0.27576987830E+01  0.65128942934E+01  0.51100000000E-03 0. -1.
        -11    1    3    3    0    0 -0.41835306962E+02  0.12359544998E+02 -0.32126081164E+01  0.43740966065E+02  0.51100000000E-03 0.  1.
         12    1    3    3    0    0  0.38829352032E+02 -0.84555106545E+01  0.10759832641E+01  0.39753892635E+02  0.00000000000E+00 0. -1.
</event>
<event>
 7    1  0.2000468E-015  0.9000791E+02  0.7816164E-02  0.1186339E+00
        -11   -1    0    0    0    0  0.00000000000E+00  0.00000000000E+00  0.45593999997E+02  0.45594000000E+02  0.51100000000E-03 0. -1.
         11   -1    0    0    0    0 -0.00000000000E+00 -0.00000000000E+00 -0.45593999997E+02  0.45594000000E+02  0.51100000000E-03 0.  1.
    9900012    2    1    2    0    0 -0.98893159739E+00 -0.89599021939E-01 -0.63765065569E+00  0.90007910153E+02  0.90000173767E+02 0.  0.
         12    1    1    2    0    0  0.98893159739E+00  0.89599021939E-01  0.63765065569E+00  0.11800898473E+01  0.00000000000E+00 0. -1.
         11    1    3    3    0    0  0.16993585055E+01  0.12938677904E+01  0.97414878223E+01  0.99728881695E+01  0.51100000000E-03 0. -1.
        -11    1    3    3    0    0 -0.30477109109E+02 -0.22731946186E+02 -0.20978551539E+02  0.43424591904E+02  0.51100000000E-03 0.  1.
         12    1    3    3    0    0  0.27788819006E+02  0.21348479374E+02  0.10599413061E+02  0.36610430079E+02  0.00000000000E+00 0. -1.
</event>
<event>
 7    1  0.2000468E-015  0.9000783E+02  0.7816164E-02  0.1186339E+00
        -11   -1    0    0    0    0  0.00000000000E+00  0.00000000000E+00  0.45593999997E+02  0.45594000000E+02  0.51100000000E-03 0.  1.
         11   -1    0    0    0    0 -0.00000000000E+00 -0.00000000000E+00 -0.45593999997E+02  0.45594000000E+02  0.51100000000E-03 0. -1.
    9900012    2    1    2    0    0  0.51282852113E+00 -0.10505560226E+01  0.16165270643E+00  0.90007833636E+02  0.90000096240E+02 0.  0.
         12    1    1    2    0    0 -0.51282852113E+00  0.10505560226E+01 -0.16165270643E+00  0.11801663638E+01  0.00000000000E+00 0. -1.
         11    1    3    3    0    0 -0.91980510482E+01  0.16331174005E+02  0.31626177840E+02  0.36763113477E+02  0.51100000000E-03 0. -1.
        -11    1    3    3    0    0  0.73985090177E+01 -0.24810986644E+01  0.78919213062E+01  0.11098477753E+02  0.51100000000E-03 0.  1.
        -12    1    3    3    0    0  0.23123705516E+01 -0.14900631363E+02 -0.39356446440E+02  0.42146242406E+02  0.00000000000E+00 0.  1.
</event>
<event>
 7    1  0.2000468E-015  0.9000907E+02  0.7816164E-02  0.1186336E+00
        -11   -1    0    0    0    0  0.00000000000E+00  0.00000000000E+00  0.45593999997E+02  0.45594000000E+02  0.51100000000E-03 0.  1.
         11   -1    0    0    0    0 -0.00000000000E+00 -0.00000000000E+00 -0.45593999997E+02  0.45594000000E+02  0.51100000000E-03 0. -1.
    9900012    2    1    2    0    0 -0.19965311287E+00 -0.62875446577E+00  0.97707921451E+00  0.90009069410E+02  0.90001348317E+02 0.  0.
         12    1    1    2    0    0  0.19965311287E+00  0.62875446577E+00 -0.97707921451E+00  0.11789305896E+01  0.00000000000E+00 0. -1.
         11    1    3    3    0    0 -0.44033447440E+01  0.37519476658E+01  0.72790227637E+01  0.92978884096E+01  0.51100000000E-03 0. -1.
        -11    1    3    3    0    0  0.37227686725E+02  0.14789457258E+02 -0.12638282901E+02  0.42004224786E+02  0.51100000000E-03 0.  1.
         12    1    3    3    0    0 -0.33023995094E+02 -0.19170159390E+02  0.63363393520E+01  0.38706956215E+02  0.00000000000E+00 0. -1.
</event>
<event>
 7    1  0.2000468E-015  0.9000775E+02  0.7816164E-02  0.1186339E+00
        -11   -1    0    0    0    0  0.00000000000E+00  0.00000000000E+00  0.45593999997E+02  0.45594000000E+02  0.51100000000E-03 0. -1.
         11   -1    0    0    0    0 -0.00000000000E+00 -0.00000000000E+00 -0.45593999997E+02  0.45594000000E+02  0.51100000000E-03 0.  1.
    9900012    2    1    2    0    0  0.26567711300E+00 -0.89014806242E+00  0.72804783858E+00  0.90007745131E+02  0.90000006566E+02 0.  0.
         12    1    1    2    0    0 -0.26567711300E+00  0.89014806242E+00 -0.72804783858E+00  0.11802548694E+01  0.00000000000E+00 0. -1.
         11    1    3    3    0    0  0.37716245016E+01  0.76049859221E+01  0.33770680230E+01  0.91359482786E+01  0.51100000000E-03 0. -1.
        -11    1    3    3    0    0 -0.34581923393E+02 -0.11621258214E+02 -0.23429228808E+02  0.43357719391E+02  0.51100000000E-03 0.  1.
         12    1    3    3    0    0  0.31075976004E+02  0.31261242297E+01  0.20780208623E+02  0.37514077461E+02  0.00000000000E+00 0. -1.
</event>
<event>
 7    1  0.2214912E-015  0.9000775E+02  0.7816164E-02  0.1186339E+00
        -11   -1    0    0    0    0  0.00000000000E+00  0.00000000000E+00  0.45593999997E+02  0.45594000000E+02  0.51100000000E-03 0. -1.
         11   -1    0    0    0    0 -0.00000000000E+00 -0.00000000000E+00 -0.45593999997E+02  0.45594000000E+02  0.51100000000E-03 0.  1.
    9900012    2    1    2    0    0  0.24486068063E-01  0.49447771611E+00 -0.10713937264E+01  0.90007749054E+02  0.90000010541E+02 0.  0.
         12    1    1    2    0    0 -0.24486068063E-01 -0.49447771611E+00  0.10713937264E+01  0.11802509463E+01  0.00000000000E+00 0. -1.
         11    1    3    3    0    0  0.33103781610E+02  0.18889999800E+02 -0.45406017591E+01  0.38383714176E+02  0.51100000000E-03 0. -1.
        -11    1    3    3    0    0 -0.55919501702E+00  0.86519147888E+01  0.34360384923E+01  0.93260221618E+01  0.51100000000E-03 0.  1.
        -12    1    3    3    0    0 -0.32520100525E+02 -0.27047436873E+02  0.33169540352E-01  0.42298012716E+02  0.00000000000E+00 0.  1.
</event>
<event>
 7    1  0.2000468E-015  0.9000776E+02  0.7816164E-02  0.1186339E+00
        -11   -1    0    0    0    0  0.00000000000E+00  0.00000000000E+00  0.45593999997E+02  0.45594000000E+02  0.51100000000E-03 0. -1.
         11   -1    0    0    0    0 -0.00000000000E+00 -0.00000000000E+00 -0.45593999997E+02  0.45594000000E+02  0.51100000000E-03 0.  1.
    9900012    2    1    2    0    0 -0.23115686405E-01 -0.10689180853E+01 -0.49984579583E+00  0.90007760182E+02  0.90000021817E+02 0.  0.
         12    1    1    2    0    0  0.23115686405E-01  0.10689180853E+01  0.49984579583E+00  0.11802398178E+01  0.00000000000E+00 0. -1.
         11    1    3    3    0    0 -0.19261277961E+02 -0.32891033528E+02  0.91482140195E+01  0.39198300157E+02  0.51100000000E-03 0. -1.
        -11    1    3    3    0    0  0.40191900520E+01  0.22525011282E+01  0.10819392801E+02  0.11759545520E+02  0.51100000000E-03 0.  1.
        -12    1    3    3    0    0  0.15218972223E+02  0.29569614314E+02 -0.20467452616E+02  0.39049914504E+02  0.00000000000E+00 0.  1.
</event>
<event>
 7    1  0.2709454E-015  0.9000797E+02  0.7816164E-02  0.1186339E+00
        -11   -1    0    0    0    0  0.00000000000E+00  0.00000000000E+00  0.45593999997E+02  0.45594000000E+02  0.51100000000E-03 0. -1.
         11   -1    0    0    0    0 -0.00000000000E+00 -0.00000000000E+00 -0.45593999997E+02  0.45594000000E+02  0.51100000000E-03 0.  1.
    9900012    2    1    2    0    0  0.71685426076E+00 -0.35145898272E+00 -0.86895147133E+00  0.90007966057E+02  0.90000230408E+02 0.  0.
         12    1    1    2    0    0 -0.71685426076E+00  0.35145898272E+00  0.86895147133E+00  0.11800339433E+01  0.00000000000E+00 0. -1.
         11    1    3    3    0    0  0.25564544937E+02 -0.28710147318E+01  0.27829583212E+02  0.37898210848E+02  0.51100000000E-03 0. -1.
        -11    1    3    3    0    0 -0.33064283407E+01 -0.34801951455E+01  0.78862385882E+01  0.92323878793E+01  0.51100000000E-03 0.  1.
        -12    1    3    3    0    0 -0.21541262336E+02  0.59997508946E+01 -0.36584773272E+02  0.42877367330E+02  0.00000000000E+00 0.  1.
</event>
<event>
 7    1  0.2000468E-015  0.9000800E+02  0.7816164E-02  0.1186339E+00
        -11   -1    0    0    0    0  0.00000000000E+00  0.00000000000E+00  0.45593999997E+02  0.45594000000E+02  0.51100000000E-03 0. -1.
         11   -1    0    0    0    0 -0.00000000000E+00 -0.00000000000E+00 -0.45593999997E+02  0.45594000000E+02  0.51100000000E-03 0.  1.
    9900012    2    1    2    0    0 -0.69484617685E+00 -0.79326460749E+00 -0.52944396002E+00  0.90008003876E+02  0.90000268726E+02 0.  0.
         12    1    1    2    0    0  0.69484617685E+00  0.79326460749E+00  0.52944396002E+00  0.11799961245E+01  0.00000000000E+00 0. -1.
         11    1    3    3    0    0 -0.29309089923E+01  0.40517956085E+01  0.76752370462E+01  0.91605970958E+01  0.51100000000E-03 0. -1.
        -11    1    3    3    0    0 -0.22741249311E+02 -0.51802741926E+00 -0.36405694953E+02  0.42927932607E+02  0.51100000000E-03 0.  1.
         12    1    3    3    0    0  0.24977312127E+02 -0.43270327968E+01  0.28201013947E+02  0.37919474173E+02  0.00000000000E+00 0. -1.
</event>
<event>
 7    1  0.2000468E-015  0.9000771E+02  0.7816164E-02  0.1186339E+00
        -11   -1    0    0    0    0  0.00000000000E+00  0.00000000000E+00  0.45593999997E+02  0.45594000000E+02  0.51100000000E-03 0.  1.
         11   -1    0    0    0    0 -0.00000000000E+00 -0.00000000000E+00 -0.45593999997E+02  0.45594000000E+02  0.51100000000E-03 0. -1.
    9900012    2    1    2    0    0 -0.74458653054E+00 -0.91525592862E+00  0.31310289516E-01  0.90007710692E+02  0.89999971673E+02 0.  0.
         12    1    1    2    0    0  0.74458653054E+00  0.91525592862E+00 -0.31310289516E-01  0.11802893080E+01  0.00000000000E+00 0. -1.
         11    1    3    3    0    0 -0.56820021111E+01 -0.30142029959E+02 -0.24321031649E+02  0.39145110790E+02  0.51100000000E-03 0. -1.
        -11    1    3    3    0    0  0.11036436994E+02 -0.13997736616E+01 -0.21866608775E+00  0.11126999728E+02  0.51100000000E-03 0.  1.
        -12    1    3    3    0    0 -0.60990214137E+01  0.30626547692E+02  0.24571008027E+02  0.39735600174E+02  0.00000000000E+00 0.  1.
</event>
<event>
 7    1  0.2000468E-015  0.9000767E+02  0.7816164E-02  0.1186339E+00
        -11   -1    0    0    0    0  0.00000000000E+00  0.00000000000E+00  0.45593999997E+02  0.45594000000E+02  0.51100000000E-03 0.  1.
         11   -1    0    0    0    0 -0.00000000000E+00 -0.00000000000E+00 -0.45593999997E+02  0.45594000000E+02  0.51100000000E-03 0. -1.
    9900012    2    1    2    0    0 -0.11740572554E+01 -0.96266778037E-01 -0.74237027477E-01  0.90007665781E+02  0.89999926170E+02 0.  0.
         12    1    1    2    0    0  0.11740572554E+01  0.96266778037E-01  0.74237027477E-01  0.11803342187E+01  0.00000000000E+00 0. -1.
         11    1    3    3    0    0  0.40729489593E+01 -0.44268888200E+01  0.33806669052E+01  0.69003743982E+01  0.51100000000E-03 0. -1.
        -11    1    3    3    0    0  0.28946879513E+02  0.13041619811E+02  0.22831798124E+02  0.39106223120E+02  0.51100000000E-03 0.  1.
         12    1    3    3    0    0 -0.34193885728E+02 -0.87109977687E+01 -0.26286702057E+02  0.44001068264E+02  0.00000000000E+00 0. -1.
</event>
<event>
 7    1  0.2000468E-015  0.9000769E+02  0.7816164E-02  0.1186339E+00
        -11   -1    0    0    0    0  0.00000000000E+00  0.00000000000E+00  0.45593999997E+02  0.45594000000E+02  0.51100000000E-03 0.  1.
         11   -1    0    0    0    0 -0.00000000000E+00 -0.00000000000E+00 -0.45593999997E+02  0.45594000000E+02  0.51100000000E-03 0. -1.
    9900012    2    1    2    0    0  0.57402702813E+00  0.51991486236E+00  0.89067970427E+00  0.90007691215E+02  0.89999951939E+02 0.  0.
         12    1    1    2    0    0 -0.57402702813E+00 -0.51991486236E+00 -0.89067970427E+00  0.11803087853E+01  0.00000000000E+00 0. -1.
         11    1    3    3    0    0  0.79312617328E+01 -0.18653474316E+01 -0.99104283482E+01  0.12829693060E+02  0.51100000000E-03 0. -1.
        -11    1    3    3    0    0  0.31083124610E+02  0.72461308414E+01  0.19587487267E+02  0.37447786388E+02  0.51100000000E-03 0.  1.
         12    1    3    3    0    0 -0.38440359315E+02 -0.48608685475E+01 -0.87863792147E+01  0.39730211766E+02  0.00000000000E+00 0. -1.
</event>
<event>
 7    1  0.2000468E-015  0.9000777E+02  0.7816164E-02  0.1186339E+00
        -11   -1    0    0    0    0  0.00000000000E+00  0.00000000000E+00  0.45593999997E+02  0.45594000000E+02  0.51100000000E-03 0. -1.
         11   -1    0    0    0    0 -0.00000000000E+00 -0.00000000000E+00 -0.45593999997E+02  0.45594000000E+02  0.51100000000E-03 0.  1.
    9900012    2    1    2    0    0  0.16520808626E+00 -0.30419437696E+00 -0.11283259425E+01  0.90007768089E+02  0.90000029828E+02 0.  0.
         12    1    1    2    0    0 -0.16520808626E+00  0.30419437696E+00  0.11283259425E+01  0.11802319107E+01  0.00000000000E+00 0. -1.
         11    1    3    3    0    0  0.85081530137E+01 -0.55405316052E+00  0.38052932844E+01  0.93368035135E+01  0.51100000000E-03 0. -1.
        -11    1    3    3    0    0 -0.38050658835E+01 -0.37914325217E+02  0.10070373612E+02  0.39413030941E+02  0.51100000000E-03 0.  1.
         12    1    3    3    0    0 -0.45378790439E+01  0.38164184001E+02 -0.15003992839E+02  0.41257933634E+02  0.00000000000E+00 0. -1.
</event>
<event>
 7    1  0.2000468E-015  0.9000767E+02  0.7816164E-02  0.1186339E+00
        -11   -1    0    0    0    0  0.00000000000E+00  0.00000000000E+00  0.45593999997E+02  0.45594000000E+02  0.51100000000E-03 0.  1.
         11   -1    0    0    0    0 -0.00000000000E+00 -0.00000000000E+00 -0.45593999997E+02  0.45594000000E+02  0.51100000000E-03 0. -1.
    9900012    2    1    2    0    0  0.28273908114E+00  0.34797306404E+00  0.10918587117E+01  0.90007668654E+02  0.89999929080E+02 0.  0.
         12    1    1    2    0    0 -0.28273908114E+00 -0.34797306404E+00 -0.10918587117E+01  0.11803313465E+01  0.00000000000E+00 0. -1.
         11    1    3    3    0    0  0.31787098206E+02  0.91554779519E+01 -0.25695617352E+02  0.41886837315E+02  0.51100000000E-03 0. -1.
        -11    1    3    3    0    0 -0.34695550951E+01 -0.83014224304E+01 -0.47877372749E+00  0.90100306032E+01  0.51100000000E-03 0.  1.
        -12    1    3    3    0    0 -0.28034804030E+02 -0.50608245739E+00  0.27266249792E+02  0.39110800735E+02  0.00000000000E+00 0.  1.
</event>
<event>
 7    1  0.2000468E-015  0.9000774E+02  0.7816164E-02  0.1186339E+00
        -11   -1    0    0    0    0  0.00000000000E+00  0.00000000000E+00  0.45593999997E+02  0.45594000000E+02  0.51100000000E-03 0.  1.
         11   -1    0    0    0    0 -0.00000000000E+00 -0.00000000000E+00 -0.45593999997E+02  0.45594000000E+02  0.51100000000E-03 0. -1.
    9900012    2    1    2    0    0  0.60448811102E+00 -0.84660891037E+00  0.55755639610E+00  0.90007736615E+02  0.89999997938E+02 0.  0.
         12    1    1    2    0    0 -0.60448811102E+00  0.84660891037E+00 -0.55755639610E+00  0.11802633851E+01  0.00000000000E+00 0. -1.
         11    1    3    3    0    0  0.34911657684E+02 -0.12757311908E+02 -0.83115124253E+01  0.38087453163E+02  0.51100000000E-03 0. -1.
        -11    1    3    3    0    0  0.68452595914E+01  0.67676069033E+01  0.26499815229E+01  0.99840114385E+01  0.51100000000E-03 0.  1.
        -12    1    3    3    0    0 -0.41152429164E+02  0.51430960944E+01  0.62190872985E+01  0.41936272014E+02  0.00000000000E+00 0.  1.
</event>
<event>
 7    1  0.2000468E-015  0.9000776E+02  0.7816164E-02  0.1186339E+00
        -11   -1    0    0    0    0  0.00000000000E+00  0.00000000000E+00  0.45593999997E+02  0.45594000000E+02  0.51100000000E-03 0. -1.
         11   -1    0    0    0    0 -0.00000000000E+00 -0.00000000000E+00 -0.45593999997E+02  0.45594000000E+02  0.51100000000E-03 0.  1.
    9900012    2    1    2    0    0  0.49021623980E+00  0.65219117130E+00 -0.85281472226E+00  0.90007763483E+02  0.90000025161E+02 0.  0.
         12    1    1    2    0    0 -0.49021623980E+00 -0.65219117130E+00  0.85281472226E+00  0.11802365171E+01  0.00000000000E+00 0. -1.
         11    1    3    3    0    0  0.25050541645E+02 -0.15906346337E+02  0.29795819067E+02  0.42051543666E+02  0.51100000000E-03 0. -1.
        -11    1    3    3    0    0 -0.59658666687E+01  0.94099882958E+01  0.30518741910E+00  0.11145967184E+02  0.51100000000E-03 0.  1.
        -12    1    3    3    0    0 -0.18594458737E+02  0.71485492129E+01 -0.30953821208E+02  0.36810252634E+02  0.00000000000E+00 0.  1.
</event>
<event>
 7    1  0.2000468E-015  0.9000775E+02  0.7816164E-02  0.1186339E+00
        -11   -1    0    0    0    0  0.00000000000E+00  0.00000000000E+00  0.45593999997E+02  0.45594000000E+02  0.51100000000E-03 0.  1.
         11   -1    0    0    0    0 -0.00000000000E+00 -0.00000000000E+00 -0.45593999997E+02  0.45594000000E+02  0.51100000000E-03 0. -1.
    9900012    2    1    2    0    0 -0.51394813316E+00 -0.83790794263E+00  0.65326237612E+00  0.90007752511E+02  0.90000014044E+02 0.  0.
         12    1    1    2    0    0  0.51394813316E+00  0.83790794263E+00 -0.65326237612E+00  0.11802474893E+01  0.00000000000E+00 0. -1.
         11    1    3    3    0    0 -0.25519926714E+01  0.83998964734E+01  0.71174832980E+01  0.11301747481E+02  0.51100000000E-03 0. -1.
        -11    1    3    3    0    0 -0.33182562501E+01 -0.18778857460E+02  0.32802750301E+02  0.37943072354E+02  0.51100000000E-03 0.  1.
         12    1    3    3    0    0  0.53563007884E+01  0.95410530441E+01 -0.39266971223E+02  0.40762932676E+02  0.00000000000E+00 0. -1.
</event>
<event>
 7    1  0.2000468E-015  0.9000666E+02  0.7816164E-02  0.1186341E+00
        -11   -1    0    0    0    0  0.00000000000E+00  0.00000000000E+00  0.45593999997E+02  0.45594000000E+02  0.51100000000E-03 0.  1.
         11   -1    0    0    0    0 -0.00000000000E+00 -0.00000000000E+00 -0.45593999997E+02  0.45594000000E+02  0.51100000000E-03 0. -1.
    9900012    2    1    2    0    0  0.99643207310E+00 -0.31244634337E+00  0.55232764532E+00  0.90006659481E+02  0.89998906580E+02 0.  0.
         12    1    1    2    0    0 -0.99643207310E+00  0.31244634337E+00 -0.55232764532E+00  0.11813405189E+01  0.00000000000E+00 0. -1.
         11    1    3    3    0    0  0.97673782638E+01  0.23179305734E+02 -0.25103526423E+02  0.35536867217E+02  0.51100000000E-03 0. -1.
        -11    1    3    3    0    0 -0.47901170486E+01 -0.26144683893E+01 -0.10897049783E+02  0.12187139145E+02  0.51100000000E-03 0.  1.
        -12    1    3    3    0    0 -0.39808291421E+01 -0.20877283689E+02  0.36552903851E+02  0.42282653119E+02  0.00000000000E+00 0.  1.
</event>
<event>
 7    1  0.2000468E-015  0.9000778E+02  0.7816164E-02  0.1186339E+00
        -11   -1    0    0    0    0  0.00000000000E+00  0.00000000000E+00  0.45593999997E+02  0.45594000000E+02  0.51100000000E-03 0.  1.
         11   -1    0    0    0    0 -0.00000000000E+00 -0.00000000000E+00 -0.45593999997E+02  0.45594000000E+02  0.51100000000E-03 0. -1.
    9900012    2    1    2    0    0  0.17690240528E+00  0.11121217083E+01  0.35327837998E+00  0.90007781898E+02  0.90000043819E+02 0.  0.
         12    1    1    2    0    0 -0.17690240528E+00 -0.11121217083E+01 -0.35327837998E+00  0.11802181022E+01  0.00000000000E+00 0. -1.
         11    1    3    3    0    0 -0.23158046653E+02 -0.34853074455E+01 -0.30741619589E+02  0.38645694042E+02  0.51100000000E-03 0. -1.
        -11    1    3    3    0    0  0.67145650707E+01 -0.11121210753E+00 -0.68975901227E+01  0.96267596824E+01  0.51100000000E-03 0.  1.
        -12    1    3    3    0    0  0.16620383987E+02  0.47086412613E+01  0.37992488091E+02  0.41735328174E+02  0.00000000000E+00 0.  1.
</event>
<event>
 7    1  0.2000468E-015  0.9000770E+02  0.7816164E-02  0.1186339E+00
        -11   -1    0    0    0    0  0.00000000000E+00  0.00000000000E+00  0.45593999997E+02  0.45594000000E+02  0.51100000000E-03 0.  1.
         11   -1    0    0    0    0 -0.00000000000E+00 -0.00000000000E+00 -0.45593999997E+02  0.45594000000E+02  0.51100000000E-03 0. -1.
    9900012    2    1    2    0    0  0.90732204161E+00 -0.74258362192E+00  0.13582938785E+00  0.90007697774E+02  0.89999958584E+02 0.  0.
         12    1    1    2    0    0 -0.90732204161E+00  0.74258362192E+00 -0.13582938785E+00  0.11803022263E+01  0.00000000000E+00 0. -1.
         11    1    3    3    0    0 -0.21478308539E+02 -0.24117120142E+01  0.18251851934E+02  0.28288941157E+02  0.51100000000E-03 0. -1.
        -11    1    3    3    0    0  0.14080284379E+02 -0.19409139356E+02  0.96806531460E+01  0.25858927749E+02  0.51100000000E-03 0.  1.
         12    1    3    3    0    0  0.83053462009E+01  0.21078267749E+02 -0.27796675693E+02  0.35859828867E+02  0.00000000000E+00 0. -1.
</event>
<event>
 7    1  0.2000468E-015  0.9000775E+02  0.7816164E-02  0.1186339E+00
        -11   -1    0    0    0    0  0.00000000000E+00  0.00000000000E+00  0.45593999997E+02  0.45594000000E+02  0.51100000000E-03 0.  1.
         11   -1    0    0    0    0 -0.00000000000E+00 -0.00000000000E+00 -0.45593999997E+02  0.45594000000E+02  0.51100000000E-03 0. -1.
    9900012    2    1    2    0    0  0.93249106378E+00  0.45229922922E+00  0.56469823084E+00  0.90007746524E+02  0.90000007978E+02 0.  0.
         12    1    1    2    0    0 -0.93249106378E+00 -0.45229922922E+00 -0.56469823084E+00  0.11802534765E+01  0.00000000000E+00 0. -1.
         11    1    3    3    0    0  0.12969691866E+02 -0.31444605828E+02 -0.19174118662E+01  0.34068352048E+02  0.51100000000E-03 0. -1.
        -11    1    3    3    0    0  0.11738293399E+02 -0.33065537467E+01 -0.42802124907E+01  0.12924436112E+02  0.51100000000E-03 0.  1.
        -12    1    3    3    0    0 -0.23775494201E+02  0.35203458803E+02  0.67623225877E+01  0.43014958363E+02  0.00000000000E+00 0.  1.
</event>
<event>
 7    1  0.2000468E-015  0.9000666E+02  0.7816164E-02  0.1186341E+00
        -11   -1    0    0    0    0  0.00000000000E+00  0.00000000000E+00  0.45593999997E+02  0.45594000000E+02  0.51100000000E-03 0.  1.
         11   -1    0    0    0    0 -0.00000000000E+00 -0.00000000000E+00 -0.45593999997E+02  0.45594000000E+02  0.51100000000E-03 0. -1.
    9900012    2    1    2    0    0 -0.65367900824E+00 -0.91143064321E+00 -0.37090694556E+00  0.90006655840E+02  0.89998902890E+02 0.  0.
         12    1    1    2    0    0  0.65367900824E+00  0.91143064321E+00  0.37090694556E+00  0.11813441605E+01  0.00000000000E+00 0. -1.
         11    1    3    3    0    0 -0.32132298945E+02  0.14214458942E+02  0.16623309932E+02  0.38869910109E+02  0.51100000000E-03 0. -1.
        -11    1    3    3    0    0  0.49972694290E+01  0.27423118004E+01  0.85211168673E+01  0.10251946580E+02  0.51100000000E-03 0.  1.
        -12    1    3    3    0    0  0.26481350508E+02 -0.17868201385E+02 -0.25515333745E+02  0.40884799151E+02  0.00000000000E+00 0.  1.
</event>
<event>
 7    1  0.2013705E-015  0.9000780E+02  0.7816164E-02  0.1186339E+00
        -11   -1    0    0    0    0  0.00000000000E+00  0.00000000000E+00  0.45593999997E+02  0.45594000000E+02  0.51100000000E-03 0. -1.
         11   -1    0    0    0    0 -0.00000000000E+00 -0.00000000000E+00 -0.45593999997E+02  0.45594000000E+02  0.51100000000E-03 0.  1.
    9900012    2    1    2    0    0 -0.10077920308E+00 -0.72128328260E+00 -0.92869636312E+00  0.90007795375E+02  0.90000057474E+02 0.  0.
         12    1    1    2    0    0  0.10077920308E+00  0.72128328260E+00  0.92869636312E+00  0.11802046248E+01  0.00000000000E+00 0. -1.
         11    1    3    3    0    0  0.11818568547E+02 -0.35163349893E+02  0.48562094127E+01  0.37412865545E+02  0.51100000000E-03 0. -1.
        -11    1    3    3    0    0 -0.55964497209E+01 -0.72076146130E+01  0.29141331569E+01  0.95792552009E+01  0.51100000000E-03 0.  1.
        -12    1    3    3    0    0 -0.63228980291E+01  0.41649681223E+02 -0.86990389327E+01  0.43015674629E+02  0.00000000000E+00 0.  1.
</event>
<event>
 7    1  0.2000468E-015  0.9000776E+02  0.7816164E-02  0.1186339E+00
        -11   -1    0    0    0    0  0.00000000000E+00  0.00000000000E+00  0.45593999997E+02  0.45594000000E+02  0.51100000000E-03 0.  1.
         11   -1    0    0    0    0 -0.00000000000E+00 -0.00000000000E+00 -0.45593999997E+02  0.45594000000E+02  0.51100000000E-03 0. -1.
    9900012    2    1    2    0    0  0.29246023624E+00 -0.97882815116E+00  0.59104472328E+00  0.90007757904E+02  0.90000019509E+02 0.  0.
         12    1    1    2    0    0 -0.29246023624E+00  0.97882815116E+00 -0.59104472328E+00  0.11802420956E+01  0.00000000000E+00 0. -1.
         11    1    3    3    0    0 -0.26133183845E+02 -0.69043614025E+01 -0.24630377071E+02  0.36568688508E+02  0.51100000000E-03 0. -1.
        -11    1    3    3    0    0 -0.58515250871E+01 -0.15635492470E+00 -0.58141812577E+01  0.82504240294E+01  0.51100000000E-03 0.  1.
        -12    1    3    3    0    0  0.32277169168E+02  0.60818881761E+01  0.31035603052E+02  0.45188645367E+02  0.00000000000E+00 0.  1.
</event>
<event>
 7    1  0.2000468E-015  0.9000777E+02  0.7816164E-02  0.1186339E+00
        -11   -1    0    0    0    0  0.00000000000E+00  0.00000000000E+00  0.45593999997E+02  0.45594000000E+02  0.51100000000E-03 0. -1.
         11   -1    0    0    0    0 -0.00000000000E+00 -0.00000000000E+00 -0.45593999997E+02  0.45594000000E+02  0.51100000000E-03 0.  1.
    9900012    2    1    2    0    0 -0.20748704122E+00 -0.97348588815E+00 -0.63420650885E+00  0.90007769708E+02  0.90000031468E+02 0.  0.
         12    1    1    2    0    0  0.20748704122E+00  0.97348588815E+00  0.63420650885E+00  0.11802302922E+01  0.00000000000E+00 0. -1.
         11    1    3    3    0    0  0.75139221554E+01 -0.11326692572E+01 -0.28676994867E+00  0.76042227129E+01  0.51100000000E-03 0. -1.
        -11    1    3    3    0    0  0.21869829570E+02 -0.27495667708E+02 -0.16481011348E+02  0.38806248510E+02  0.51100000000E-03 0.  1.
         12    1    3    3    0    0 -0.29591238766E+02  0.27654851077E+02  0.16133574788E+02  0.43597298485E+02  0.00000000000E+00 0. -1.
</event>
<event>
 7    1  0.2000468E-015  0.9000768E+02  0.7816164E-02  0.1186339E+00
        -11   -1    0    0    0    0  0.00000000000E+00  0.00000000000E+00  0.45593999997E+02  0.45594000000E+02  0.51100000000E-03 0.  1.
         11   -1    0    0    0    0 -0.00000000000E+00 -0.00000000000E+00 -0.45593999997E+02  0.45594000000E+02  0.51100000000E-03 0. -1.
    9900012    2    1    2    0    0  0.93823543567E+00  0.25740237940E+00  0.66829372863E+00  0.90007678762E+02  0.89999939321E+02 0.  0.
         12    1    1    2    0    0 -0.93823543567E+00 -0.25740237940E+00 -0.66829372863E+00  0.11803212382E+01  0.00000000000E+00 0. -1.
         11    1    3    3    0    0  0.60220930135E+01  0.49413159595E+01 -0.52367914450E+01  0.93864898964E+01  0.51100000000E-03 0. -1.
        -11    1    3    3    0    0  0.29705323799E+02 -0.10165203297E+02  0.25384572648E+02  0.40374672121E+02  0.51100000000E-03 0.  1.
         12    1    3    3    0    0 -0.34789181377E+02  0.54812897169E+01 -0.19479487474E+02  0.40246516745E+02  0.00000000000E+00 0. -1.
</event>
<event>
 7    1  0.2000468E-015  0.9000783E+02  0.7816164E-02  0.1186339E+00
        -11   -1    0    0    0    0  0.00000000000E+00  0.00000000000E+00  0.45593999997E+02  0.45594000000E+02  0.51100000000E-03 0.  1.
         11   -1    0    0    0    0 -0.00000000000E+00 -0.00000000000E+00 -0.45593999997E+02  0.45594000000E+02  0.51100000000E-03 0. -1.
    9900012    2    1    2    0    0  0.10960009734E+00 -0.11614339996E+01 -0.17847254397E+00  0.90007833247E+02  0.90000095845E+02 0.  0.
         12    1    1    2    0    0 -0.10960009734E+00  0.11614339996E+01  0.17847254397E+00  0.11801667534E+01  0.00000000000E+00 0. -1.
         11    1    3    3    0    0 -0.66468008821E+01  0.20621347582E+00  0.42957575643E+01  0.79168187599E+01  0.51100000000E-03 0. -1.
        -11    1    3    3    0    0  0.10529119645E+02  0.17661584344E+02  0.33581121231E+02  0.39376206336E+02  0.51100000000E-03 0.  1.
         12    1    3    3    0    0 -0.37727186658E+01 -0.19029231819E+02 -0.38055351339E+02  0.42714808150E+02  0.00000000000E+00 0. -1.
</event>
<event>
 7    1  0.2000468E-015  0.9000839E+02  0.7816164E-02  0.1186338E+00
        -11   -1    0    0    0    0  0.00000000000E+00  0.00000000000E+00  0.45593999997E+02  0.45594000000E+02  0.51100000000E-03 0.  1.
         11   -1    0    0    0    0 -0.00000000000E+00 -0.00000000000E+00 -0.45593999997E+02  0.45594000000E+02  0.51100000000E-03 0. -1.
    9900012    2    1    2    0    0  0.62861810084E-01  0.14808324458E-01  0.11778365023E+01  0.90008394252E+02  0.90000664254E+02 0.  0.
         12    1    1    2    0    0 -0.62861810084E-01 -0.14808324458E-01 -0.11778365023E+01  0.11796057476E+01  0.00000000000E+00 0. -1.
         11    1    3    3    0    0  0.15595724087E+02 -0.35766461346E+02 -0.17233261232E+02  0.42655030887E+02  0.51100000000E-03 0. -1.
        -11    1    3    3    0    0 -0.17451384946E+01  0.31702358080E+01  0.10456283606E+02  0.11064798713E+02  0.51100000000E-03 0.  1.
        -12    1    3    3    0    0 -0.13787723783E+02  0.32611033863E+02  0.79548141287E+01  0.36288564652E+02  0.00000000000E+00 0.  1.
</event>
<event>
 7    1  0.2000468E-015  0.9000779E+02  0.7816164E-02  0.1186339E+00
        -11   -1    0    0    0    0  0.00000000000E+00  0.00000000000E+00  0.45593999997E+02  0.45594000000E+02  0.51100000000E-03 0. -1.
         11   -1    0    0    0    0 -0.00000000000E+00 -0.00000000000E+00 -0.45593999997E+02  0.45594000000E+02  0.51100000000E-03 0.  1.
    9900012    2    1    2    0    0  0.62448903714E+00 -0.94994106843E+00 -0.31705356837E+00  0.90007789190E+02  0.90000051207E+02 0.  0.
         12    1    1    2    0    0 -0.62448903714E+00  0.94994106843E+00  0.31705356837E+00  0.11802108101E+01  0.00000000000E+00 0. -1.
         11    1    3    3    0    0  0.40177793080E+01  0.36135985757E+01 -0.83019087453E+01  0.99056718253E+01  0.51100000000E-03 0. -1.
        -11    1    3    3    0    0  0.32508570041E+02  0.39566492414E+01  0.23257982164E+02  0.40167100143E+02  0.51100000000E-03 0.  1.
         12    1    3    3    0    0 -0.35901860312E+02 -0.85201888855E+01 -0.15273126987E+02  0.39935017221E+02  0.00000000000E+00 0. -1.
</event>
<event>
 7    1  0.2000468E-015  0.9000767E+02  0.7816164E-02  0.1186339E+00
        -11   -1    0    0    0    0  0.00000000000E+00  0.00000000000E+00  0.45593999997E+02  0.45594000000E+02  0.51100000000E-03 0.  1.
         11   -1    0    0    0    0 -0.00000000000E+00 -0.00000000000E+00 -0.45593999997E+02  0.45594000000E+02  0.51100000000E-03 0. -1.
    9900012    2    1    2    0    0 -0.26885602436E+00  0.11152471199E+01  0.27768629433E+00  0.90007674037E+02  0.89999934535E+02 0.  0.
         12    1    1    2    0    0  0.26885602436E+00 -0.11152471199E+01 -0.27768629433E+00  0.11803259627E+01  0.00000000000E+00 0. -1.
         11    1    3    3    0    0  0.60993311793E+01 -0.41826953917E+01 -0.80288571966E+01  0.10916012537E+02  0.51100000000E-03 0. -1.
        -11    1    3    3    0    0 -0.34094136471E+02 -0.20988989473E+02  0.82857785641E+01  0.40885228964E+02  0.51100000000E-03 0.  1.
         12    1    3    3    0    0  0.27725949267E+02  0.26286931984E+02  0.20764926756E-01  0.38206432536E+02  0.00000000000E+00 0. -1.
</event>
<event>
 7    1  0.2000468E-015  0.9000671E+02  0.7816164E-02  0.1186341E+00
        -11   -1    0    0    0    0  0.00000000000E+00  0.00000000000E+00  0.45593999997E+02  0.45594000000E+02  0.51100000000E-03 0.  1.
         11   -1    0    0    0    0 -0.00000000000E+00 -0.00000000000E+00 -0.45593999997E+02  0.45594000000E+02  0.51100000000E-03 0. -1.
    9900012    2    1    2    0    0  0.14958973747E-01 -0.83239958208E+00  0.83805872997E+00  0.90006706103E+02  0.89998953818E+02 0.  0.
         12    1    1    2    0    0 -0.14958973747E-01  0.83239958208E+00 -0.83805872997E+00  0.11812938966E+01  0.00000000000E+00 0. -1.
         11    1    3    3    0    0 -0.93548811717E+01 -0.12600528831E+01 -0.20614760917E+01  0.96618434546E+01  0.51100000000E-03 0. -1.
        -11    1    3    3    0    0 -0.12026146628E+02 -0.22005490550E+02  0.30047700030E+02  0.39137374649E+02  0.51100000000E-03 0.  1.
         12    1    3    3    0    0  0.21395986774E+02  0.22433143851E+02 -0.27148165209E+02  0.41207488000E+02  0.00000000000E+00 0. -1.
</event>
<event>
 7    1  0.2000468E-015  0.9000778E+02  0.7816164E-02  0.1186339E+00
        -11   -1    0    0    0    0  0.00000000000E+00  0.00000000000E+00  0.45593999997E+02  0.45594000000E+02  0.51100000000E-03 0.  1.
         11   -1    0    0    0    0 -0.00000000000E+00 -0.00000000000E+00 -0.45593999997E+02  0.45594000000E+02  0.51100000000E-03 0. -1.
    9900012    2    1    2    0    0  0.80612910573E+00 -0.68249866113E+00  0.52656503238E+00  0.90007779982E+02  0.90000041878E+02 0.  0.
         12    1    1    2    0    0 -0.80612910573E+00  0.68249866113E+00 -0.52656503238E+00  0.11802200180E+01  0.00000000000E+00 0. -1.
         11    1    3    3    0    0  0.58986832034E+01 -0.54540920275E+00 -0.60138666533E+01  0.84414765958E+01  0.51100000000E-03 0. -1.
        -11    1    3    3    0    0 -0.33143121441E+02 -0.10619959606E+02 -0.21195777366E+02  0.40749368330E+02  0.51100000000E-03 0.  1.
         12    1    3    3    0    0  0.28050567343E+02  0.10482870147E+02  0.27736209052E+02  0.40816935056E+02  0.00000000000E+00 0. -1.
</event>
<event>
 7    1  0.2000468E-015  0.9000773E+02  0.7816164E-02  0.1186339E+00
        -11   -1    0    0    0    0  0.00000000000E+00  0.00000000000E+00  0.45593999997E+02  0.45594000000E+02  0.51100000000E-03 0.  1.
         11   -1    0    0    0    0 -0.00000000000E+00 -0.00000000000E+00 -0.45593999997E+02  0.45594000000E+02  0.51100000000E-03 0. -1.
    9900012    2    1    2    0    0  0.64397787590E+00 -0.85543201428E+00  0.49655385925E+00  0.90007730043E+02  0.89999991280E+02 0.  0.
         12    1    1    2    0    0 -0.64397787590E+00  0.85543201428E+00 -0.49655385925E+00  0.11802699568E+01  0.00000000000E+00 0. -1.
         11    1    3    3    0    0  0.25028377800E+02 -0.47259410928E+01 -0.14089784083E+02  0.29108009727E+02  0.51100000000E-03 0. -1.
        -11    1    3    3    0    0  0.75007621812E+01 -0.99234357784E+01 -0.11899277863E+02  0.17214204160E+02  0.51100000000E-03 0.  1.
        -12    1    3    3    0    0 -0.31885162105E+02  0.13793944857E+02  0.26485615806E+02  0.43685516156E+02  0.00000000000E+00 0.  1.
</event>
<event>
 7    1  0.2000468E-015  0.9000795E+02  0.7816164E-02  0.1186339E+00
        -11   -1    0    0    0    0  0.00000000000E+00  0.00000000000E+00  0.45593999997E+02  0.45594000000E+02  0.51100000000E-03 0.  1.
         11   -1    0    0    0    0 -0.00000000000E+00 -0.00000000000E+00 -0.45593999997E+02  0.45594000000E+02  0.51100000000E-03 0. -1.
    9900012    2    1    2    0    0 -0.65110613261E+00  0.38798104068E+00  0.90445593309E+00  0.90007953807E+02  0.90000217996E+02 0.  0.
         12    1    1    2    0    0  0.65110613261E+00 -0.38798104068E+00 -0.90445593309E+00  0.11800461935E+01  0.00000000000E+00 0. -1.
         11    1    3    3    0    0 -0.29888782824E+01 -0.10061523681E+02  0.43291293372E+01  0.11353810517E+02  0.51100000000E-03 0. -1.
        -11    1    3    3    0    0 -0.92593891204E+01  0.30346381504E+02  0.26188611636E+02  0.41139792621E+02  0.51100000000E-03 0.  1.
         12    1    3    3    0    0  0.11597161270E+02 -0.19896876782E+02 -0.29613285040E+02  0.37514350668E+02  0.00000000000E+00 0. -1.
</event>
<event>
 7    1  0.2000468E-015  0.9000700E+02  0.7816164E-02  0.1186341E+00
        -11   -1    0    0    0    0  0.00000000000E+00  0.00000000000E+00  0.45593999997E+02  0.45594000000E+02  0.51100000000E-03 0.  1.
         11   -1    0    0    0    0 -0.00000000000E+00 -0.00000000000E+00 -0.45593999997E+02  0.45594000000E+02  0.51100000000E-03 0. -1.
    9900012    2    1    2    0    0 -0.48279629840E+00 -0.80969575852E+00  0.71137325115E+00  0.90007004069E+02  0.89999255719E+02 0.  0.
         12    1    1    2    0    0  0.48279629840E+00  0.80969575852E+00 -0.71137325115E+00  0.11809959312E+01  0.00000000000E+00 0. -1.
         11    1    3    3    0    0 -0.13809254965E+01 -0.83950856906E+01  0.57264716093E+01  0.10255578791E+02  0.51100000000E-03 0. -1.
        -11    1    3    3    0    0  0.50178709152E+00 -0.21233291322E+02  0.28502812202E+02  0.35545952714E+02  0.51100000000E-03 0.  1.
         12    1    3    3    0    0  0.39634210661E+00  0.28818681254E+02 -0.33517910560E+02  0.44205472564E+02  0.00000000000E+00 0. -1.
</event>
<event>
 7    1  0.2000468E-015  0.9000774E+02  0.7816164E-02  0.1186339E+00
        -11   -1    0    0    0    0  0.00000000000E+00  0.00000000000E+00  0.45593999997E+02  0.45594000000E+02  0.51100000000E-03 0.  1.
         11   -1    0    0    0    0 -0.00000000000E+00 -0.00000000000E+00 -0.45593999997E+02  0.45594000000E+02  0.51100000000E-03 0. -1.
    9900012    2    1    2    0    0 -0.11364466777E+00  0.10675976948E+01  0.49023380329E+00  0.90007741922E+02  0.90000003316E+02 0.  0.
         12    1    1    2    0    0  0.11364466777E+00 -0.10675976948E+01 -0.49023380329E+00  0.11802580779E+01  0.00000000000E+00 0. -1.
         11    1    3    3    0    0  0.10044523489E+02 -0.14841857073E+02 -0.26820050065E+02  0.32256600244E+02  0.51100000000E-03 0. -1.
        -11    1    3    3    0    0  0.96461695648E+01 -0.86015018847E+01 -0.37984031662E+01  0.13470793919E+02  0.51100000000E-03 0.  1.
        -12    1    3    3    0    0 -0.19804337722E+02  0.24510956653E+02  0.31108687035E+02  0.44280347759E+02  0.00000000000E+00 0.  1.
</event>
<event>
 7    1  0.2000468E-015  0.9000774E+02  0.7816164E-02  0.1186339E+00
        -11   -1    0    0    0    0  0.00000000000E+00  0.00000000000E+00  0.45593999997E+02  0.45594000000E+02  0.51100000000E-03 0. -1.
         11   -1    0    0    0    0 -0.00000000000E+00 -0.00000000000E+00 -0.45593999997E+02  0.45594000000E+02  0.51100000000E-03 0.  1.
    9900012    2    1    2    0    0  0.52119783531E+00 -0.12260777228E+00 -0.10518199655E+01  0.90007743634E+02  0.90000005050E+02 0.  0.
         12    1    1    2    0    0 -0.52119783531E+00  0.12260777228E+00  0.10518199655E+01  0.11802563659E+01  0.00000000000E+00 0. -1.
         11    1    3    3    0    0  0.40241367427E+01 -0.20804693439E+01  0.21566970759E+01  0.50173072214E+01  0.51100000000E-03 0. -1.
        -11    1    3    3    0    0  0.28768016861E+02 -0.66213261415E+00 -0.31017625741E+02  0.42309931701E+02  0.51100000000E-03 0.  1.
         12    1    3    3    0    0 -0.32270955768E+02  0.26199941858E+01  0.27809108700E+02  0.42680504711E+02  0.00000000000E+00 0. -1.
</event>
<event>
 7    1  0.2000468E-015  0.9000773E+02  0.7816164E-02  0.1186339E+00
        -11   -1    0    0    0    0  0.00000000000E+00  0.00000000000E+00  0.45593999997E+02  0.45594000000E+02  0.51100000000E-03 0.  1.
         11   -1    0    0    0    0 -0.00000000000E+00 -0.00000000000E+00 -0.45593999997E+02  0.45594000000E+02  0.51100000000E-03 0. -1.
    9900012    2    1    2    0    0 -0.47456327755E+00 -0.10331894257E+01 -0.31676726694E+00  0.90007732151E+02  0.89999993416E+02 0.  0.
         12    1    1    2    0    0  0.47456327755E+00  0.10331894257E+01  0.31676726694E+00  0.11802678489E+01  0.00000000000E+00 0. -1.
         11    1    3    3    0    0 -0.10493096744E+02 -0.44967123290E+01  0.64776740127E+00  0.11434382533E+02  0.51100000000E-03 0. -1.
        -11    1    3    3    0    0 -0.25736480618E+02  0.20194223608E+02  0.15003922661E+02  0.35990148614E+02  0.51100000000E-03 0.  1.
         12    1    3    3    0    0  0.35755014085E+02 -0.16730700705E+02 -0.15968457330E+02  0.42583201004E+02  0.00000000000E+00 0. -1.
</event>
<event>
 7    1  0.2000468E-015  0.9000776E+02  0.7816164E-02  0.1186339E+00
        -11   -1    0    0    0    0  0.00000000000E+00  0.00000000000E+00  0.45593999997E+02  0.45594000000E+02  0.51100000000E-03 0. -1.
         11   -1    0    0    0    0 -0.00000000000E+00 -0.00000000000E+00 -0.45593999997E+02  0.45594000000E+02  0.51100000000E-03 0.  1.
    9900012    2    1    2    0    0 -0.87893944098E+00 -0.68548896818E+00  0.38798121508E+00  0.90007763121E+02  0.90000024795E+02 0.  0.
         12    1    1    2    0    0  0.87893944098E+00  0.68548896818E+00 -0.38798121508E+00  0.11802368786E+01  0.00000000000E+00 0. -1.
         11    1    3    3    0    0  0.31019974435E+00  0.35481137863E+02  0.18675583011E+02  0.40097191535E+02  0.51100000000E-03 0. -1.
        -11    1    3    3    0    0  0.75681934829E+01 -0.32817340624E+01  0.40638565009E+01  0.91957740823E+01  0.51100000000E-03 0.  1.
        -12    1    3    3    0    0 -0.87573326682E+01 -0.32884892768E+02 -0.22351458297E+02  0.40714797505E+02  0.00000000000E+00 0.  1.
</event>
<event>
 7    1  0.2000468E-015  0.9000742E+02  0.7816164E-02  0.1186340E+00
        -11   -1    0    0    0    0  0.00000000000E+00  0.00000000000E+00  0.45593999997E+02  0.45594000000E+02  0.51100000000E-03 0. -1.
         11   -1    0    0    0    0 -0.00000000000E+00 -0.00000000000E+00 -0.45593999997E+02  0.45594000000E+02  0.51100000000E-03 0.  1.
    9900012    2    1    2    0    0  0.18547759082E+00  0.78409321355E+00 -0.86287740939E+00  0.90007423222E+02  0.89999680408E+02 0.  0.
         12    1    1    2    0    0 -0.18547759082E+00 -0.78409321355E+00  0.86287740939E+00  0.11805767776E+01  0.00000000000E+00 0. -1.
         11    1    3    3    0    0  0.40252297204E+01  0.30031527817E+02  0.16816746330E+02  0.34653976608E+02  0.51100000000E-03 0. -1.
        -11    1    3    3    0    0 -0.41861756068E+00  0.97864125849E+01  0.39903620802E+01  0.10576960893E+02  0.51100000000E-03 0.  1.
        -12    1    3    3    0    0 -0.34211345689E+01 -0.39033847189E+02 -0.21669985820E+02  0.44776485721E+02  0.00000000000E+00 0.  1.
</event>
<event>
 7    1  0.2000468E-015  0.9000773E+02  0.7816164E-02  0.1186339E+00
        -11   -1    0    0    0    0  0.00000000000E+00  0.00000000000E+00  0.45593999997E+02  0.45594000000E+02  0.51100000000E-03 0.  1.
         11   -1    0    0    0    0 -0.00000000000E+00 -0.00000000000E+00 -0.45593999997E+02  0.45594000000E+02  0.51100000000E-03 0. -1.
    9900012    2    1    2    0    0 -0.39043218880E+00 -0.89431793660E-01  0.11102221665E+01  0.90007733675E+02  0.89999994959E+02 0.  0.
         12    1    1    2    0    0  0.39043218880E+00  0.89431793660E-01 -0.11102221665E+01  0.11802663254E+01  0.00000000000E+00 0. -1.
         11    1    3    3    0    0 -0.59905001497E+01 -0.25816461879E+01 -0.83115474780E+01  0.10565642944E+02  0.51100000000E-03 0. -1.
        -11    1    3    3    0    0 -0.24153708661E+02 -0.26507661298E+02 -0.32383341576E+01  0.36007562510E+02  0.51100000000E-03 0.  1.
         12    1    3    3    0    0  0.29753776622E+02  0.28999875692E+02  0.12660103802E+02  0.43434528220E+02  0.00000000000E+00 0. -1.
</event>
<event>
 7    1  0.2000468E-015  0.9000774E+02  0.7816164E-02  0.1186339E+00
        -11   -1    0    0    0    0  0.00000000000E+00  0.00000000000E+00  0.45593999997E+02  0.45594000000E+02  0.51100000000E-03 0. -1.
         11   -1    0    0    0    0 -0.00000000000E+00 -0.00000000000E+00 -0.45593999997E+02  0.45594000000E+02  0.51100000000E-03 0.  1.
    9900012    2    1    2    0    0 -0.46827602930E+00  0.10502669608E+01 -0.26585408591E+00  0.90007736672E+02  0.89999997996E+02 0.  0.
         12    1    1    2    0    0  0.46827602930E+00 -0.10502669608E+01  0.26585408591E+00  0.11802633280E+01  0.00000000000E+00 0. -1.
         11    1    3    3    0    0  0.10494522674E+02  0.83389001329E+01  0.58061668765E+01  0.14607663593E+02  0.51100000000E-03 0. -1.
        -11    1    3    3    0    0 -0.22685958055E+02  0.11915246298E+02 -0.32049217703E+02  0.41033865805E+02  0.51100000000E-03 0.  1.
         12    1    3    3    0    0  0.11723159352E+02 -0.19203879470E+02  0.25977196741E+02  0.34366207274E+02  0.00000000000E+00 0. -1.
</event>
<event>
 7    1  0.2000468E-015  0.9000770E+02  0.7816164E-02  0.1186339E+00
        -11   -1    0    0    0    0  0.00000000000E+00  0.00000000000E+00  0.45593999997E+02  0.45594000000E+02  0.51100000000E-03 0. -1.
         11   -1    0    0    0    0 -0.00000000000E+00 -0.00000000000E+00 -0.45593999997E+02  0.45594000000E+02  0.51100000000E-03 0.  1.
    9900012    2    1    2    0    0 -0.75250273625E+00  0.70576199493E-01 -0.90656219806E+00  0.90007704958E+02  0.89999965863E+02 0.  0.
         12    1    1    2    0    0  0.75250273625E+00 -0.70576199493E-01  0.90656219806E+00  0.11802950423E+01  0.00000000000E+00 0. -1.
         11    1    3    3    0    0 -0.11731759087E+02 -0.32203837901E+02  0.15079801529E+02  0.37444916360E+02  0.51100000000E-03 0. -1.
        -11    1    3    3    0    0 -0.65129122270E+01 -0.40883199579E+01 -0.86079309080E+01  0.11542480692E+02  0.51100000000E-03 0.  1.
        -12    1    3    3    0    0  0.17492168578E+02  0.36362734058E+02 -0.73784328193E+01  0.41020307905E+02  0.00000000000E+00 0.  1.
</event>
<event>
 7    1  0.2000468E-015  0.9000773E+02  0.7816164E-02  0.1186339E+00
        -11   -1    0    0    0    0  0.00000000000E+00  0.00000000000E+00  0.45593999997E+02  0.45594000000E+02  0.51100000000E-03 0.  1.
         11   -1    0    0    0    0 -0.00000000000E+00 -0.00000000000E+00 -0.45593999997E+02  0.45594000000E+02  0.51100000000E-03 0. -1.
    9900012    2    1    2    0    0 -0.71971459922E+00 -0.73234479146E+00  0.58198844396E+00  0.90007733697E+02  0.89999994981E+02 0.  0.
         12    1    1    2    0    0  0.71971459922E+00  0.73234479146E+00 -0.58198844396E+00  0.11802663034E+01  0.00000000000E+00 0. -1.
         11    1    3    3    0    0 -0.85043066816E+01  0.28558138008E+01  0.32903434564E+01  0.95553788476E+01  0.51100000000E-03 0. -1.
        -11    1    3    3    0    0  0.56086381907E+01 -0.22615997335E+02  0.32725838987E+02  0.40173631843E+02  0.51100000000E-03 0.  1.
         12    1    3    3    0    0  0.21759538917E+01  0.19027838743E+02 -0.35434193999E+02  0.40278723006E+02  0.00000000000E+00 0. -1.
</event>
<event>
 7    1  0.2000468E-015  0.9000764E+02  0.7816164E-02  0.1186339E+00
        -11   -1    0    0    0    0  0.00000000000E+00  0.00000000000E+00  0.45593999997E+02  0.45594000000E+02  0.51100000000E-03 0.  1.
         11   -1    0    0    0    0 -0.00000000000E+00 -0.00000000000E+00 -0.45593999997E+02  0.45594000000E+02  0.51100000000E-03 0. -1.
    9900012    2    1    2    0    0 -0.83074387724E-01  0.46530640073E+00  0.10815909201E+01  0.90007639750E+02  0.89999899795E+02 0.  0.
         12    1    1    2    0    0  0.83074387724E-01 -0.46530640073E+00 -0.10815909201E+01  0.11803602496E+01  0.00000000000E+00 0. -1.
         11    1    3    3    0    0  0.25867339805E+01  0.72405919911E+00 -0.87416275003E+01  0.91450262998E+01  0.51100000000E-03 0. -1.
        -11    1    3    3    0    0  0.56323702354E+01  0.37225793538E+02 -0.80702293201E+01  0.38504699720E+02  0.51100000000E-03 0.  1.
         12    1    3    3    0    0 -0.83021786036E+01 -0.37484546336E+02  0.17893447740E+02  0.42357913731E+02  0.00000000000E+00 0. -1.
</event>
<event>
 7    1  0.2000468E-015  0.9000779E+02  0.7816164E-02  0.1186339E+00
        -11   -1    0    0    0    0  0.00000000000E+00  0.00000000000E+00  0.45593999997E+02  0.45594000000E+02  0.51100000000E-03 0.  1.
         11   -1    0    0    0    0 -0.00000000000E+00 -0.00000000000E+00 -0.45593999997E+02  0.45594000000E+02  0.51100000000E-03 0. -1.
    9900012    2    1    2    0    0  0.66432261291E+00  0.75423780746E+00  0.61863045290E+00  0.90007786951E+02  0.90000048939E+02 0.  0.
         12    1    1    2    0    0 -0.66432261291E+00 -0.75423780746E+00 -0.61863045290E+00  0.11802130492E+01  0.00000000000E+00 0. -1.
         11    1    3    3    0    0  0.33859255608E+02  0.44799383538E+01 -0.17340055576E+02  0.38304001953E+02  0.51100000000E-03 0. -1.
        -11    1    3    3    0    0  0.58805601101E+01 -0.71130207977E+01  0.26726142961E+01  0.96082734929E+01  0.51100000000E-03 0.  1.
        -12    1    3    3    0    0 -0.39075493105E+02  0.33873202513E+01  0.15286071732E+02  0.42095511505E+02  0.00000000000E+00 0.  1.
</event>
<event>
 7    1  0.2000468E-015  0.9000775E+02  0.7816164E-02  0.1186339E+00
        -11   -1    0    0    0    0  0.00000000000E+00  0.00000000000E+00  0.45593999997E+02  0.45594000000E+02  0.51100000000E-03 0.  1.
         11   -1    0    0    0    0 -0.00000000000E+00 -0.00000000000E+00 -0.45593999997E+02  0.45594000000E+02  0.51100000000E-03 0. -1.
    9900012    2    1    2    0    0 -0.52101572983E+00  0.70423013853E+00 -0.79093795831E+00  0.90007754122E+02  0.90000015676E+02 0.  0.
         12    1    1    2    0    0  0.52101572983E+00 -0.70423013853E+00  0.79093795831E+00  0.11802458780E+01  0.00000000000E+00 0. -1.
         11    1    3    3    0    0 -0.70839424780E+01 -0.68583660506E+01 -0.38646965075E+02  0.39884926171E+02  0.51100000000E-03 0. -1.
        -11    1    3    3    0    0 -0.71809045162E+01  0.67998100550E+01  0.50829058834E-01  0.98896607783E+01  0.51100000000E-03 0.  1.
        -12    1    3    3    0    0  0.13743831264E+02  0.76278613414E+00  0.37805198058E+02  0.40233167172E+02  0.00000000000E+00 0.  1.
</event>
<event>
 7    1  0.2000468E-015  0.9000776E+02  0.7816164E-02  0.1186339E+00
        -11   -1    0    0    0    0  0.00000000000E+00  0.00000000000E+00  0.45593999997E+02  0.45594000000E+02  0.51100000000E-03 0.  1.
         11   -1    0    0    0    0 -0.00000000000E+00 -0.00000000000E+00 -0.45593999997E+02  0.45594000000E+02  0.51100000000E-03 0. -1.
    9900012    2    1    2    0    0 -0.97039320592E+00  0.66550776351E+00 -0.91710388013E-01  0.90007756655E+02  0.90000018243E+02 0.  0.
         12    1    1    2    0    0  0.97039320592E+00 -0.66550776351E+00  0.91710388013E-01  0.11802433447E+01  0.00000000000E+00 0. -1.
         11    1    3    3    0    0  0.10857319406E+01 -0.32005184703E+02 -0.18240029682E+02  0.36853891854E+02  0.51100000000E-03 0. -1.
        -11    1    3    3    0    0 -0.86911940839E+01 -0.45233380237E+01 -0.24816081396E+01  0.10107216269E+02  0.51100000000E-03 0.  1.
        -12    1    3    3    0    0  0.66350689374E+01  0.37194030491E+02  0.20629927434E+02  0.43046648532E+02  0.00000000000E+00 0.  1.
</event>
<event>
 7    1  0.2000468E-015  0.9000773E+02  0.7816164E-02  0.1186339E+00
        -11   -1    0    0    0    0  0.00000000000E+00  0.00000000000E+00  0.45593999997E+02  0.45594000000E+02  0.51100000000E-03 0.  1.
         11   -1    0    0    0    0 -0.00000000000E+00 -0.00000000000E+00 -0.45593999997E+02  0.45594000000E+02  0.51100000000E-03 0. -1.
    9900012    2    1    2    0    0  0.58766277028E+00 -0.14581459230E-02  0.10235652974E+01  0.90007730719E+02  0.89999991964E+02 0.  0.
         12    1    1    2    0    0 -0.58766277028E+00  0.14581459230E-02 -0.10235652974E+01  0.11802692810E+01  0.00000000000E+00 0. -1.
         11    1    3    3    0    0  0.26618660402E+01 -0.88771116056E+01 -0.43939648976E+01  0.10256489119E+02  0.51100000000E-03 0. -1.
        -11    1    3    3    0    0 -0.10082702418E+02  0.17265514688E+02  0.39215588427E+02  0.44018419569E+02  0.51100000000E-03 0.  1.
         12    1    3    3    0    0  0.80084991477E+01 -0.83898612279E+01 -0.33798058232E+02  0.35732822030E+02  0.00000000000E+00 0. -1.
</event>
<event>
 7    1  0.2000468E-015  0.9000776E+02  0.7816164E-02  0.1186339E+00
        -11   -1    0    0    0    0  0.00000000000E+00  0.00000000000E+00  0.45593999997E+02  0.45594000000E+02  0.51100000000E-03 0.  1.
         11   -1    0    0    0    0 -0.00000000000E+00 -0.00000000000E+00 -0.45593999997E+02  0.45594000000E+02  0.51100000000E-03 0. -1.
    9900012    2    1    2    0    0  0.43701239364E+00 -0.39545640438E+00  0.10225434793E+01  0.90007762411E+02  0.90000024075E+02 0.  0.
         12    1    1    2    0    0 -0.43701239364E+00  0.39545640438E+00 -0.10225434793E+01  0.11802375892E+01  0.00000000000E+00 0. -1.
         11    1    3    3    0    0 -0.18776790245E+02  0.33633322035E+02 -0.12548095512E+02  0.40512009383E+02  0.51100000000E-03 0. -1.
        -11    1    3    3    0    0 -0.30239645542E+01 -0.64608712355E+01 -0.57386115668E+01  0.91552652459E+01  0.51100000000E-03 0.  1.
        -12    1    3    3    0    0  0.22237767193E+02 -0.27567907204E+02  0.19309250558E+02  0.40340487782E+02  0.00000000000E+00 0.  1.
</event>
<event>
 7    1  0.2000468E-015  0.9000760E+02  0.7816164E-02  0.1186339E+00
        -11   -1    0    0    0    0  0.00000000000E+00  0.00000000000E+00  0.45593999997E+02  0.45594000000E+02  0.51100000000E-03 0.  1.
         11   -1    0    0    0    0 -0.00000000000E+00 -0.00000000000E+00 -0.45593999997E+02  0.45594000000E+02  0.51100000000E-03 0. -1.
    9900012    2    1    2    0    0 -0.59866011449E+00  0.83883370218E+00  0.57559415090E+00  0.90007599839E+02  0.89999859357E+02 0.  0.
         12    1    1    2    0    0  0.59866011449E+00 -0.83883370218E+00 -0.57559415090E+00  0.11804001606E+01  0.00000000000E+00 0. -1.
         11    1    3    3    0    0 -0.15469155901E+02 -0.35202462439E+02  0.37108604887E+01  0.38630022416E+02  0.51100000000E-03 0. -1.
        -11    1    3    3    0    0 -0.91708795363E+01  0.20626131708E+01 -0.25898998906E+01  0.97502300622E+01  0.51100000000E-03 0.  1.
        -12    1    3    3    0    0  0.24041375322E+02  0.33978682970E+02 -0.54536644719E+00  0.41627347361E+02  0.00000000000E+00 0.  1.
</event>
<event>
 7    1  0.2000468E-015  0.9000785E+02  0.7816164E-02  0.1186339E+00
        -11   -1    0    0    0    0  0.00000000000E+00  0.00000000000E+00  0.45593999997E+02  0.45594000000E+02  0.51100000000E-03 0.  1.
         11   -1    0    0    0    0 -0.00000000000E+00 -0.00000000000E+00 -0.45593999997E+02  0.45594000000E+02  0.51100000000E-03 0. -1.
    9900012    2    1    2    0    0 -0.73675602656E+00  0.92050147607E+00  0.51215090633E-01  0.90007849418E+02  0.90000112230E+02 0.  0.
         12    1    1    2    0    0  0.73675602656E+00 -0.92050147607E+00 -0.51215090633E-01  0.11801505818E+01  0.00000000000E+00 0. -1.
         11    1    3    3    0    0 -0.93472627790E+01 -0.15668952962E+01 -0.82002839154E+01  0.12532802515E+02  0.51100000000E-03 0. -1.
        -11    1    3    3    0    0  0.17525961901E+02  0.36188352718E+02 -0.42680971383E+01  0.40434797717E+02  0.51100000000E-03 0.  1.
         12    1    3    3    0    0 -0.89154551489E+01 -0.33700955945E+02  0.12519596144E+02  0.37040249186E+02  0.00000000000E+00 0. -1.
</event>
<event>
 7    1  0.2000468E-015  0.9000781E+02  0.7816164E-02  0.1186339E+00
        -11   -1    0    0    0    0  0.00000000000E+00  0.00000000000E+00  0.45593999997E+02  0.45594000000E+02  0.51100000000E-03 0.  1.
         11   -1    0    0    0    0 -0.00000000000E+00 -0.00000000000E+00 -0.45593999997E+02  0.45594000000E+02  0.51100000000E-03 0. -1.
    9900012    2    1    2    0    0 -0.75996020740E+00 -0.31710538585E-02  0.90294280735E+00  0.90007807098E+02  0.90000069352E+02 0.  0.
         12    1    1    2    0    0  0.75996020740E+00  0.31710538585E-02 -0.90294280735E+00  0.11801929019E+01  0.00000000000E+00 0. -1.
         11    1    3    3    0    0 -0.68778201508E+01 -0.29916330179E+01  0.97794562919E+01  0.12324449025E+02  0.51100000000E-03 0. -1.
        -11    1    3    3    0    0  0.93338706686E+01 -0.11104795699E+02  0.31563446863E+02  0.34737426607E+02  0.51100000000E-03 0.  1.
         12    1    3    3    0    0 -0.32160107252E+01  0.14093257664E+02 -0.40439960347E+02  0.42945931466E+02  0.00000000000E+00 0. -1.
</event>
<event>
 7    1  0.2000468E-015  0.9000762E+02  0.7816164E-02  0.1186339E+00
        -11   -1    0    0    0    0  0.00000000000E+00  0.00000000000E+00  0.45593999997E+02  0.45594000000E+02  0.51100000000E-03 0. -1.
         11   -1    0    0    0    0 -0.00000000000E+00 -0.00000000000E+00 -0.45593999997E+02  0.45594000000E+02  0.51100000000E-03 0.  1.
    9900012    2    1    2    0    0  0.55853442012E+00  0.95617037074E+00 -0.40875594305E+00  0.90007617055E+02  0.89999876800E+02 0.  0.
         12    1    1    2    0    0 -0.55853442012E+00 -0.95617037074E+00  0.40875594305E+00  0.11803829452E+01  0.00000000000E+00 0. -1.
         11    1    3    3    0    0  0.14228694373E+02  0.30554054110E+01  0.81582937919E+01  0.16683794642E+02  0.51100000000E-03 0. -1.
        -11    1    3    3    0    0 -0.51661011500E+01 -0.34571683504E+02 -0.16767634718E+02  0.38769104654E+02  0.51100000000E-03 0.  1.
         12    1    3    3    0    0 -0.85040588030E+01  0.32472448463E+02  0.82005849834E+01  0.34554717759E+02  0.00000000000E+00 0. -1.
</event>
<event>
 7    1  0.2000468E-015  0.9000782E+02  0.7816164E-02  0.1186339E+00
        -11   -1    0    0    0    0  0.00000000000E+00  0.00000000000E+00  0.45593999997E+02  0.45594000000E+02  0.51100000000E-03 0.  1.
         11   -1    0    0    0    0 -0.00000000000E+00 -0.00000000000E+00 -0.45593999997E+02  0.45594000000E+02  0.51100000000E-03 0. -1.
    9900012    2    1    2    0    0 -0.30333123335E+00  0.11401044396E+01 -0.31271887329E-01  0.90007819547E+02  0.90000081965E+02 0.  0.
         12    1    1    2    0    0  0.30333123335E+00 -0.11401044396E+01  0.31271887329E-01  0.11801804528E+01  0.00000000000E+00 0. -1.
         11    1    3    3    0    0 -0.50376260087E+00 -0.64417976740E+01  0.69868199145E+01  0.95166268609E+01  0.51100000000E-03 0. -1.
        -11    1    3    3    0    0  0.34162537461E+02  0.15909967560E+02  0.13401379169E+02  0.39997537392E+02  0.51100000000E-03 0.  1.
         12    1    3    3    0    0 -0.33962106093E+02 -0.83280654465E+01 -0.20419470970E+02  0.40493655294E+02  0.00000000000E+00 0. -1.
</event>
<event>
 7    1  0.2000468E-015  0.9000785E+02  0.7816164E-02  0.1186339E+00
        -11   -1    0    0    0    0  0.00000000000E+00  0.00000000000E+00  0.45593999997E+02  0.45594000000E+02  0.51100000000E-03 0.  1.
         11   -1    0    0    0    0 -0.00000000000E+00 -0.00000000000E+00 -0.45593999997E+02  0.45594000000E+02  0.51100000000E-03 0. -1.
    9900012    2    1    2    0    0 -0.91646878403E+00 -0.63913890370E+00  0.37991922668E+00  0.90007850777E+02  0.90000113607E+02 0.  0.
         12    1    1    2    0    0  0.91646878403E+00  0.63913890370E+00 -0.37991922668E+00  0.11801492232E+01  0.00000000000E+00 0. -1.
         11    1    3    3    0    0  0.19400827626E+01  0.82490369002E+01 -0.32571555527E+01  0.90785237491E+01  0.51100000000E-03 0. -1.
        -11    1    3    3    0    0 -0.16578021468E+02  0.16520892139E+02  0.32533304628E+02  0.40077257680E+02  0.51100000000E-03 0.  1.
         12    1    3    3    0    0  0.13721469921E+02 -0.25409067943E+02 -0.28896229849E+02  0.40852069348E+02  0.00000000000E+00 0. -1.
</event>
<event>
 7    1  0.2000468E-015  0.9000774E+02  0.7816164E-02  0.1186339E+00
        -11   -1    0    0    0    0  0.00000000000E+00  0.00000000000E+00  0.45593999997E+02  0.45594000000E+02  0.51100000000E-03 0.  1.
         11   -1    0    0    0    0 -0.00000000000E+00 -0.00000000000E+00 -0.45593999997E+02  0.45594000000E+02  0.51100000000E-03 0. -1.
    9900012    2    1    2    0    0  0.13874469542E+00 -0.95082697136E+00  0.68534091156E+00  0.90007739781E+02  0.90000001146E+02 0.  0.
         12    1    1    2    0    0 -0.13874469542E+00  0.95082697136E+00 -0.68534091156E+00  0.11802602192E+01  0.00000000000E+00 0. -1.
         11    1    3    3    0    0  0.34569066306E+02 -0.14495027157E+02 -0.18670227630E+02  0.41877243911E+02  0.51100000000E-03 0. -1.
        -11    1    3    3    0    0 -0.13271987752E+01 -0.31320040338E+01  0.90350865233E+01  0.96542060575E+01  0.51100000000E-03 0.  1.
        -12    1    3    3    0    0 -0.33103122835E+02  0.16676204220E+02  0.10320482018E+02  0.38476289812E+02  0.00000000000E+00 0.  1.
</event>
<event>
 7    1  0.2000468E-015  0.9000767E+02  0.7816164E-02  0.1186339E+00
        -11   -1    0    0    0    0  0.00000000000E+00  0.00000000000E+00  0.45593999997E+02  0.45594000000E+02  0.51100000000E-03 0.  1.
         11   -1    0    0    0    0 -0.00000000000E+00 -0.00000000000E+00 -0.45593999997E+02  0.45594000000E+02  0.51100000000E-03 0. -1.
    9900012    2    1    2    0    0  0.85812264337E+00  0.12871069726E+00  0.80015152836E+00  0.90007668105E+02  0.89999928524E+02 0.  0.
         12    1    1    2    0    0 -0.85812264337E+00 -0.12871069726E+00 -0.80015152836E+00  0.11803318953E+01  0.00000000000E+00 0. -1.
         11    1    3    3    0    0 -0.23306982515E+02 -0.26526754389E+02 -0.12575716779E+02  0.37483766954E+02  0.51100000000E-03 0. -1.
        -11    1    3    3    0    0  0.30077396536E+01 -0.86835181284E+01 -0.90366029720E-01  0.91901115984E+01  0.51100000000E-03 0.  1.
        -12    1    3    3    0    0  0.21157365505E+02  0.35338983214E+02  0.13466234337E+02  0.43333789552E+02  0.00000000000E+00 0.  1.
</event>
<event>
 7    1  0.2000468E-015  0.9000770E+02  0.7816164E-02  0.1186339E+00
        -11   -1    0    0    0    0  0.00000000000E+00  0.00000000000E+00  0.45593999997E+02  0.45594000000E+02  0.51100000000E-03 0.  1.
         11   -1    0    0    0    0 -0.00000000000E+00 -0.00000000000E+00 -0.45593999997E+02  0.45594000000E+02  0.51100000000E-03 0. -1.
    9900012    2    1    2    0    0  0.25884436083E+00 -0.34820572225E+00  0.10976600771E+01  0.90007701193E+02  0.89999962049E+02 0.  0.
         12    1    1    2    0    0 -0.25884436083E+00  0.34820572225E+00 -0.10976600771E+01  0.11802988067E+01  0.00000000000E+00 0. -1.
         11    1    3    3    0    0 -0.12566919632E+02 -0.11364724150E+02  0.60017654318E+01  0.17975138737E+02  0.51100000000E-03 0. -1.
        -11    1    3    3    0    0  0.28106440426E+01  0.17257008037E+02  0.30256243952E+02  0.34944875800E+02  0.51100000000E-03 0.  1.
         12    1    3    3    0    0  0.10015119950E+02 -0.62404896096E+01 -0.35160349307E+02  0.37087686657E+02  0.00000000000E+00 0. -1.
</event>
<event>
 7    1  0.2000468E-015  0.9000773E+02  0.7816164E-02  0.1186339E+00
        -11   -1    0    0    0    0  0.00000000000E+00  0.00000000000E+00  0.45593999997E+02  0.45594000000E+02  0.51100000000E-03 0.  1.
         11   -1    0    0    0    0 -0.00000000000E+00 -0.00000000000E+00 -0.45593999997E+02  0.45594000000E+02  0.51100000000E-03 0. -1.
    9900012    2    1    2    0    0  0.86544636333E+00 -0.64487912421E+00  0.47767438124E+00  0.90007729138E+02  0.89999990363E+02 0.  0.
         12    1    1    2    0    0 -0.86544636333E+00  0.64487912421E+00 -0.47767438124E+00  0.11802708618E+01  0.00000000000E+00 0. -1.
         11    1    3    3    0    0 -0.76552781594E+01  0.56780036581E+01 -0.23871810390E+00  0.95341489308E+01  0.51100000000E-03 0. -1.
        -11    1    3    3    0    0 -0.19971975977E+02  0.10474770941E+02  0.29150614381E+02  0.36855921774E+02  0.51100000000E-03 0.  1.
         12    1    3    3    0    0  0.28492700500E+02 -0.16797653723E+02 -0.28434221896E+02  0.43617658434E+02  0.00000000000E+00 0. -1.
</event>
<event>
 7    1  0.2000468E-015  0.9000773E+02  0.7816164E-02  0.1186339E+00
        -11   -1    0    0    0    0  0.00000000000E+00  0.00000000000E+00  0.45593999997E+02  0.45594000000E+02  0.51100000000E-03 0. -1.
         11   -1    0    0    0    0 -0.00000000000E+00 -0.00000000000E+00 -0.45593999997E+02  0.45594000000E+02  0.51100000000E-03 0.  1.
    9900012    2    1    2    0    0 -0.51050456757E+00  0.35298558253E+00 -0.10039076893E+01  0.90007726988E+02  0.89999988184E+02 0.  0.
         12    1    1    2    0    0  0.51050456757E+00 -0.35298558253E+00  0.10039076893E+01  0.11802730123E+01  0.00000000000E+00 0. -1.
         11    1    3    3    0    0 -0.84848025009E+01 -0.61251829583E+01 -0.26335092171E+01  0.10790973580E+02  0.51100000000E-03 0. -1.
        -11    1    3    3    0    0  0.15345181085E+02 -0.87518283131E+01 -0.34812559097E+02  0.39038229372E+02  0.51100000000E-03 0.  1.
         12    1    3    3    0    0 -0.73708831515E+01  0.15229996854E+02  0.36442160625E+02  0.40178524035E+02  0.00000000000E+00 0. -1.
</event>
<event>
 7    1  0.2000468E-015  0.9000765E+02  0.7816164E-02  0.1186339E+00
        -11   -1    0    0    0    0  0.00000000000E+00  0.00000000000E+00  0.45593999997E+02  0.45594000000E+02  0.51100000000E-03 0.  1.
         11   -1    0    0    0    0 -0.00000000000E+00 -0.00000000000E+00 -0.45593999997E+02  0.45594000000E+02  0.51100000000E-03 0. -1.
    9900012    2    1    2    0    0  0.82238040196E+00  0.80028927038E+00 -0.27649268494E+00  0.90007652320E+02  0.89999912530E+02 0.  0.
         12    1    1    2    0    0 -0.82238040196E+00 -0.80028927038E+00  0.27649268494E+00  0.11803476804E+01  0.00000000000E+00 0. -1.
         11    1    3    3    0    0  0.51540331227E+01  0.80357596085E+01  0.24871255070E+01  0.98652563811E+01  0.51100000000E-03 0. -1.
        -11    1    3    3    0    0 -0.20803507459E+02 -0.12585498714E+02  0.32657028505E+02  0.40714398087E+02  0.51100000000E-03 0.  1.
         12    1    3    3    0    0  0.16471854738E+02  0.53500283764E+01 -0.35420646697E+02  0.39427997852E+02  0.00000000000E+00 0. -1.
</event>
<event>
 7    1  0.2000468E-015  0.9000776E+02  0.7816164E-02  0.1186339E+00
        -11   -1    0    0    0    0  0.00000000000E+00  0.00000000000E+00  0.45593999997E+02  0.45594000000E+02  0.51100000000E-03 0.  1.
         11   -1    0    0    0    0 -0.00000000000E+00 -0.00000000000E+00 -0.45593999997E+02  0.45594000000E+02  0.51100000000E-03 0. -1.
    9900012    2    1    2    0    0  0.59233506198E+00  0.56118731652E-01  0.10192866384E+01  0.90007764689E+02  0.90000026383E+02 0.  0.
         12    1    1    2    0    0 -0.59233506198E+00 -0.56118731652E-01 -0.10192866384E+01  0.11802353108E+01  0.00000000000E+00 0. -1.
         11    1    3    3    0    0 -0.76616636521E+01 -0.46975661759E+01  0.22957536482E+01  0.92757049850E+01  0.51100000000E-03 0. -1.
        -11    1    3    3    0    0 -0.52299878279E+01  0.19802481615E+02  0.34223687575E+02  0.39884230497E+02  0.51100000000E-03 0.  1.
         12    1    3    3    0    0  0.13483986542E+02 -0.15048796708E+02 -0.35500154585E+02  0.40847829208E+02  0.00000000000E+00 0. -1.
</event>
<event>
 7    1  0.2000468E-015  0.9000774E+02  0.7816164E-02  0.1186339E+00
        -11   -1    0    0    0    0  0.00000000000E+00  0.00000000000E+00  0.45593999997E+02  0.45594000000E+02  0.51100000000E-03 0.  1.
         11   -1    0    0    0    0 -0.00000000000E+00 -0.00000000000E+00 -0.45593999997E+02  0.45594000000E+02  0.51100000000E-03 0. -1.
    9900012    2    1    2    0    0  0.64300559376E+00  0.76869093323E+00  0.62343758821E+00  0.90007738855E+02  0.90000000208E+02 0.  0.
         12    1    1    2    0    0 -0.64300559376E+00 -0.76869093323E+00 -0.62343758821E+00  0.11802611452E+01  0.00000000000E+00 0. -1.
         11    1    3    3    0    0  0.15506554822E+02  0.10750360875E+02 -0.21037466944E+02  0.28259485435E+02  0.51100000000E-03 0. -1.
        -11    1    3    3    0    0  0.12642853040E+02 -0.70339867397E+01 -0.11558765221E+02  0.18518200672E+02  0.51100000000E-03 0.  1.
        -12    1    3    3    0    0 -0.27506402269E+02 -0.29476832017E+01  0.33219669753E+02  0.43230052747E+02  0.00000000000E+00 0.  1.
</event>
<event>
 7    1  0.2000468E-015  0.9000783E+02  0.7816164E-02  0.1186339E+00
        -11   -1    0    0    0    0  0.00000000000E+00  0.00000000000E+00  0.45593999997E+02  0.45594000000E+02  0.51100000000E-03 0. -1.
         11   -1    0    0    0    0 -0.00000000000E+00 -0.00000000000E+00 -0.45593999997E+02  0.45594000000E+02  0.51100000000E-03 0.  1.
    9900012    2    1    2    0    0  0.23464048896E+00  0.11150618338E+01  0.30722745465E+00  0.90007827233E+02  0.90000089752E+02 0.  0.
         12    1    1    2    0    0 -0.23464048896E+00 -0.11150618338E+01 -0.30722745465E+00  0.11801727675E+01  0.00000000000E+00 0. -1.
         11    1    3    3    0    0 -0.28756062498E+01  0.79285337374E+01 -0.42494662412E+01  0.94439780879E+01  0.51100000000E-03 0. -1.
        -11    1    3    3    0    0  0.21950936703E+00  0.61685905835E+01 -0.36700468146E+02  0.37215911336E+02  0.51100000000E-03 0.  1.
         12    1    3    3    0    0  0.28907373717E+01 -0.12982062487E+02  0.41257161842E+02  0.43347937809E+02  0.00000000000E+00 0. -1.
</event>
<event>
 7    1  0.2000468E-015  0.9000769E+02  0.7816164E-02  0.1186339E+00
        -11   -1    0    0    0    0  0.00000000000E+00  0.00000000000E+00  0.45593999997E+02  0.45594000000E+02  0.51100000000E-03 0. -1.
         11   -1    0    0    0    0 -0.00000000000E+00 -0.00000000000E+00 -0.45593999997E+02  0.45594000000E+02  0.51100000000E-03 0.  1.
    9900012    2    1    2    0    0 -0.36970083082E+00 -0.10588994759E+01 -0.36766759676E+00  0.90007692300E+02  0.89999953039E+02 0.  0.
         12    1    1    2    0    0  0.36970083082E+00  0.10588994759E+01  0.36766759676E+00  0.11803076997E+01  0.00000000000E+00 0. -1.
         11    1    3    3    0    0 -0.18575018115E+01  0.29135094144E+01  0.83430469944E+01  0.90302427154E+01  0.51100000000E-03 0. -1.
        -11    1    3    3    0    0  0.24963923014E+02  0.11748011974E+02 -0.33494236302E+02  0.43394436317E+02  0.51100000000E-03 0.  1.
         12    1    3    3    0    0 -0.23476122033E+02 -0.15720420864E+02  0.24783521711E+02  0.37583013267E+02  0.00000000000E+00 0. -1.
</event>
<event>
 7    1  0.2000468E-015  0.9000776E+02  0.7816164E-02  0.1186339E+00
        -11   -1    0    0    0    0  0.00000000000E+00  0.00000000000E+00  0.45593999997E+02  0.45594000000E+02  0.51100000000E-03 0. -1.
         11   -1    0    0    0    0 -0.00000000000E+00 -0.00000000000E+00 -0.45593999997E+02  0.45594000000E+02  0.51100000000E-03 0.  1.
    9900012    2    1    2    0    0 -0.52098058722E+00 -0.91074682862E+00 -0.54044620965E+00  0.90007761607E+02  0.90000023261E+02 0.  0.
         12    1    1    2    0    0  0.52098058722E+00  0.91074682862E+00  0.54044620965E+00  0.11802383927E+01  0.00000000000E+00 0. -1.
         11    1    3    3    0    0  0.43719030778E+01  0.63284333901E+01 -0.50179926631E+01  0.91838366886E+01  0.51100000000E-03 0. -1.
        -11    1    3    3    0    0 -0.37127279164E+02  0.15608741851E+02 -0.38061140677E+01  0.40454346921E+02  0.51100000000E-03 0.  1.
         12    1    3    3    0    0  0.32234395498E+02 -0.22847922070E+02  0.82836605212E+01  0.40369577997E+02  0.00000000000E+00 0. -1.
</event>
<event>
 7    1  0.2000468E-015  0.9000770E+02  0.7816164E-02  0.1186339E+00
        -11   -1    0    0    0    0  0.00000000000E+00  0.00000000000E+00  0.45593999997E+02  0.45594000000E+02  0.51100000000E-03 0.  1.
         11   -1    0    0    0    0 -0.00000000000E+00 -0.00000000000E+00 -0.45593999997E+02  0.45594000000E+02  0.51100000000E-03 0. -1.
    9900012    2    1    2    0    0 -0.69341209518E+00  0.34896987820E+00  0.88910288775E+00  0.90007701625E+02  0.89999962486E+02 0.  0.
         12    1    1    2    0    0  0.69341209518E+00 -0.34896987820E+00 -0.88910288775E+00  0.11802983753E+01  0.00000000000E+00 0. -1.
         11    1    3    3    0    0 -0.27967359068E+02 -0.18812375258E+02 -0.21156278371E+02  0.39795310664E+02  0.51100000000E-03 0. -1.
        -11    1    3    3    0    0  0.10426639545E+01 -0.17945675416E+01 -0.60736248941E+01  0.64184531158E+01  0.51100000000E-03 0.  1.
        -12    1    3    3    0    0  0.26231283018E+02  0.20955912678E+02  0.28119006153E+02  0.43793937845E+02  0.00000000000E+00 0.  1.
</event>
<event>
 7    1  0.2000468E-015  0.9000772E+02  0.7816164E-02  0.1186339E+00
        -11   -1    0    0    0    0  0.00000000000E+00  0.00000000000E+00  0.45593999997E+02  0.45594000000E+02  0.51100000000E-03 0. -1.
         11   -1    0    0    0    0 -0.00000000000E+00 -0.00000000000E+00 -0.45593999997E+02  0.45594000000E+02  0.51100000000E-03 0.  1.
    9900012    2    1    2    0    0  0.69082461766E+00  0.92725476879E+00  0.23666532414E+00  0.90007724382E+02  0.89999985544E+02 0.  0.
         12    1    1    2    0    0 -0.69082461766E+00 -0.92725476879E+00 -0.23666532414E+00  0.11802756179E+01  0.00000000000E+00 0. -1.
         11    1    3    3    0    0  0.93655574250E+01  0.34244667937E+01  0.78940578400E+00  0.10003189514E+02  0.51100000000E-03 0. -1.
        -11    1    3    3    0    0  0.96427451095E+01 -0.15655650123E+02 -0.34589839657E+02  0.39173191366E+02  0.51100000000E-03 0.  1.
         12    1    3    3    0    0 -0.18317477917E+02  0.13158438098E+02  0.34037099197E+02  0.40831343502E+02  0.00000000000E+00 0. -1.
</event>
<event>
 7    1  0.2000468E-015  0.9000775E+02  0.7816164E-02  0.1186339E+00
        -11   -1    0    0    0    0  0.00000000000E+00  0.00000000000E+00  0.45593999997E+02  0.45594000000E+02  0.51100000000E-03 0.  1.
         11   -1    0    0    0    0 -0.00000000000E+00 -0.00000000000E+00 -0.45593999997E+02  0.45594000000E+02  0.51100000000E-03 0. -1.
    9900012    2    1    2    0    0 -0.13154562800E+00 -0.11099147980E+01  0.37918350458E+00  0.90007747806E+02  0.90000009277E+02 0.  0.
         12    1    1    2    0    0  0.13154562800E+00  0.11099147980E+01 -0.37918350458E+00  0.11802521939E+01  0.00000000000E+00 0. -1.
         11    1    3    3    0    0 -0.25318989425E+02 -0.17258027033E+02 -0.30818925902E+02  0.43459140772E+02  0.51100000000E-03 0. -1.
        -11    1    3    3    0    0  0.83387682406E+01  0.23721928268E+01  0.19823894455E+00  0.86718886939E+01  0.51100000000E-03 0.  1.
        -12    1    3    3    0    0  0.16848675557E+02  0.13775919409E+02  0.30999870462E+02  0.37876718340E+02  0.00000000000E+00 0.  1.
</event>
<event>
 7    1  0.2000468E-015  0.9000790E+02  0.7816164E-02  0.1186339E+00
        -11   -1    0    0    0    0  0.00000000000E+00  0.00000000000E+00  0.45593999997E+02  0.45594000000E+02  0.51100000000E-03 0.  1.
         11   -1    0    0    0    0 -0.00000000000E+00 -0.00000000000E+00 -0.45593999997E+02  0.45594000000E+02  0.51100000000E-03 0. -1.
    9900012    2    1    2    0    0  0.97369790995E+00  0.65471235372E+00 -0.12613020480E+00  0.90007896312E+02  0.90000159743E+02 0.  0.
         12    1    1    2    0    0 -0.97369790995E+00 -0.65471235372E+00  0.12613020480E+00  0.11801036880E+01  0.00000000000E+00 0. -1.
         11    1    3    3    0    0  0.25313765580E+02  0.95142127542E+01 -0.16943122744E+02  0.31912009976E+02  0.51100000000E-03 0. -1.
        -11    1    3    3    0    0  0.11408202317E+02 -0.11235551757E+01 -0.79263664345E+01  0.13936884209E+02  0.51100000000E-03 0.  1.
        -12    1    3    3    0    0 -0.35748269987E+02 -0.77359452248E+01  0.24743358973E+02  0.44159002127E+02  0.00000000000E+00 0.  1.
</event>
<event>
 7    1  0.2000468E-015  0.9000770E+02  0.7816164E-02  0.1186339E+00
        -11   -1    0    0    0    0  0.00000000000E+00  0.00000000000E+00  0.45593999997E+02  0.45594000000E+02  0.51100000000E-03 0.  1.
         11   -1    0    0    0    0 -0.00000000000E+00 -0.00000000000E+00 -0.45593999997E+02  0.45594000000E+02  0.51100000000E-03 0. -1.
    9900012    2    1    2    0    0 -0.61368094648E+00 -0.81725252953E+00  0.59043483632E+00  0.90007695252E+02  0.89999956030E+02 0.  0.
         12    1    1    2    0    0  0.61368094648E+00  0.81725252953E+00 -0.59043483632E+00  0.11803047475E+01  0.00000000000E+00 0. -1.
         11    1    3    3    0    0 -0.58977099607E+01 -0.20717249931E+01 -0.66087331541E+01  0.90967236624E+01  0.51100000000E-03 0. -1.
        -11    1    3    3    0    0  0.42619189728E+02  0.54789556388E+01  0.24660488638E+01  0.43040628309E+02  0.51100000000E-03 0.  1.
         12    1    3    3    0    0 -0.37335160713E+02 -0.42244831753E+01  0.47331191266E+01  0.37870343282E+02  0.00000000000E+00 0. -1.
</event>
<event>
 7    1  0.2000468E-015  0.9000771E+02  0.7816164E-02  0.1186339E+00
        -11   -1    0    0    0    0  0.00000000000E+00  0.00000000000E+00  0.45593999997E+02  0.45594000000E+02  0.51100000000E-03 0. -1.
         11   -1    0    0    0    0 -0.00000000000E+00 -0.00000000000E+00 -0.45593999997E+02  0.45594000000E+02  0.51100000000E-03 0.  1.
    9900012    2    1    2    0    0 -0.59769626482E+00 -0.97049681367E+00 -0.30657542312E+00  0.90007706231E+02  0.89999967154E+02 0.  0.
         12    1    1    2    0    0  0.59769626482E+00  0.97049681367E+00  0.30657542312E+00  0.11802937687E+01  0.00000000000E+00 0. -1.
         11    1    3    3    0    0 -0.18817535878E+01  0.11427547408E+02  0.73525273861E+01  0.13718217652E+02  0.51100000000E-03 0. -1.
        -11    1    3    3    0    0  0.15759818293E+02  0.38136402051E+01 -0.36638172362E+02  0.40065838298E+02  0.51100000000E-03 0.  1.
         12    1    3    3    0    0 -0.14475760970E+02 -0.16211684426E+02  0.28979069553E+02  0.36223650282E+02  0.00000000000E+00 0. -1.
</event>
<event>
 7    1  0.2000468E-015  0.9000764E+02  0.7816164E-02  0.1186339E+00
        -11   -1    0    0    0    0  0.00000000000E+00  0.00000000000E+00  0.45593999997E+02  0.45594000000E+02  0.51100000000E-03 0.  1.
         11   -1    0    0    0    0 -0.00000000000E+00 -0.00000000000E+00 -0.45593999997E+02  0.45594000000E+02  0.51100000000E-03 0. -1.
    9900012    2    1    2    0    0 -0.38323266308E+00  0.42807832094E+00  0.10310772105E+01  0.90007644741E+02  0.89999904852E+02 0.  0.
         12    1    1    2    0    0  0.38323266308E+00 -0.42807832094E+00 -0.10310772105E+01  0.11803552588E+01  0.00000000000E+00 0. -1.
         11    1    3    3    0    0  0.14930119608E+02  0.32340062721E+02 -0.47746245386E+01  0.35938630582E+02  0.51100000000E-03 0. -1.
        -11    1    3    3    0    0  0.76362755945E+01  0.56961909528E+01 -0.61284074243E+00  0.95464585246E+01  0.51100000000E-03 0.  1.
        -12    1    3    3    0    0 -0.22949627865E+02 -0.37608175353E+02  0.64185424915E+01  0.44522555635E+02  0.00000000000E+00 0.  1.
</event>
<event>
 8    1  0.2000468E-015  0.9000749E+02  0.7816164E-02  0.1186340E+00
        -11   -1    0    0    0    0  0.00000000000E+00  0.00000000000E+00  0.45593999997E+02  0.45594000000E+02  0.51100000000E-03 0.  1.
         11   -1    0    0    0    0 -0.00000000000E+00 -0.00000000000E+00 -0.45593999997E+02  0.45594000000E+02  0.51100000000E-03 0. -1.
    9900012    2    1    2    0    0 -0.77386291762E+00 -0.32004964647E+00  0.83205626192E+00  0.90007486038E+02  0.89999744053E+02 0.  0.
         23    2    3    3    0    0  0.10494936779E+02  0.14725879024E+02 -0.17959469268E+02  0.63427658200E+02  0.58082097735E+02 0.  0.
         12    1    1    2    0    0  0.77386291762E+00  0.32004964647E+00 -0.83205626192E+00  0.11805139620E+01  0.00000000000E+00 0. -1.
         11    1    4    4    0    0  0.33446177896E+02  0.10981774758E+02 -0.20716339851E+01  0.35263832184E+02  0.51100000000E-03 0.  1.
        -11    1    4    4    0    0 -0.22951241117E+02  0.37441042662E+01 -0.15887835283E+02  0.28163826015E+02  0.51100000000E-03 0. -1.
        -12    1    3    3    0    0 -0.11268799696E+02 -0.15045928671E+02  0.18791525530E+02  0.26579827838E+02  0.00000000000E+00 0.  1.
</event>
<event>
 7    1  0.2000468E-015  0.9000774E+02  0.7816164E-02  0.1186339E+00
        -11   -1    0    0    0    0  0.00000000000E+00  0.00000000000E+00  0.45593999997E+02  0.45594000000E+02  0.51100000000E-03 0.  1.
         11   -1    0    0    0    0 -0.00000000000E+00 -0.00000000000E+00 -0.45593999997E+02  0.45594000000E+02  0.51100000000E-03 0. -1.
    9900012    2    1    2    0    0 -0.59448135164E+00  0.79272693446E+00 -0.64123500566E+00  0.90007743078E+02  0.90000004486E+02 0.  0.
         12    1    1    2    0    0  0.59448135164E+00 -0.79272693446E+00  0.64123500566E+00  0.11802569223E+01  0.00000000000E+00 0. -1.
         11    1    3    3    0    0 -0.24210042429E+01  0.72700111956E+01  0.62260183730E+01  0.98730759833E+01  0.51100000000E-03 0. -1.
        -11    1    3    3    0    0  0.30358770636E+02  0.18601398394E+01  0.22895676635E+02  0.38070028679E+02  0.51100000000E-03 0.  1.
         12    1    3    3    0    0 -0.28532247745E+02 -0.83374241006E+01 -0.29762930014E+02  0.42064638416E+02  0.00000000000E+00 0. -1.
</event>
<event>
 7    1  0.2000468E-015  0.9000776E+02  0.7816164E-02  0.1186339E+00
        -11   -1    0    0    0    0  0.00000000000E+00  0.00000000000E+00  0.45593999997E+02  0.45594000000E+02  0.51100000000E-03 0.  1.
         11   -1    0    0    0    0 -0.00000000000E+00 -0.00000000000E+00 -0.45593999997E+02  0.45594000000E+02  0.51100000000E-03 0. -1.
    9900012    2    1    2    0    0  0.31922794405E+00  0.11349910399E+01 -0.53511776907E-01  0.90007756529E+02  0.90000018115E+02 0.  0.
         12    1    1    2    0    0 -0.31922794405E+00 -0.11349910399E+01  0.53511776907E-01  0.11802434712E+01  0.00000000000E+00 0. -1.
         11    1    3    3    0    0  0.33318253776E+01 -0.27927335104E+01  0.95917694036E+01  0.10531023757E+02  0.51100000000E-03 0. -1.
        -11    1    3    3    0    0  0.14686887118E+02  0.19656469463E+02  0.26595922433E+02  0.36185971526E+02  0.51100000000E-03 0.  1.
         12    1    3    3    0    0 -0.17699484552E+02 -0.15728744913E+02 -0.36241203613E+02  0.43290761246E+02  0.00000000000E+00 0. -1.
</event>
<event>
 7    1  0.2000468E-015  0.9000762E+02  0.7816164E-02  0.1186339E+00
        -11   -1    0    0    0    0  0.00000000000E+00  0.00000000000E+00  0.45593999997E+02  0.45594000000E+02  0.51100000000E-03 0. -1.
         11   -1    0    0    0    0 -0.00000000000E+00 -0.00000000000E+00 -0.45593999997E+02  0.45594000000E+02  0.51100000000E-03 0.  1.
    9900012    2    1    2    0    0 -0.46791732575E+00 -0.52477768744E+00 -0.94812888614E+00  0.90007624369E+02  0.89999884211E+02 0.  0.
         12    1    1    2    0    0  0.46791732575E+00  0.52477768744E+00  0.94812888614E+00  0.11803756308E+01  0.00000000000E+00 0. -1.
         11    1    3    3    0    0 -0.40038106872E+01  0.34115376497E+01  0.72995610028E+01  0.89973707409E+01  0.51100000000E-03 0. -1.
        -11    1    3    3    0    0 -0.72008859111E+01  0.85345000730E+01 -0.42000525112E+02  0.43459573851E+02  0.51100000000E-03 0.  1.
         12    1    3    3    0    0  0.10736779273E+02 -0.12470815410E+02  0.33752835223E+02  0.37550679777E+02  0.00000000000E+00 0. -1.
</event>
<event>
 7    1  0.2000468E-015  0.9000783E+02  0.7816164E-02  0.1186339E+00
        -11   -1    0    0    0    0  0.00000000000E+00  0.00000000000E+00  0.45593999997E+02  0.45594000000E+02  0.51100000000E-03 0.  1.
         11   -1    0    0    0    0 -0.00000000000E+00 -0.00000000000E+00 -0.45593999997E+02  0.45594000000E+02  0.51100000000E-03 0. -1.
    9900012    2    1    2    0    0  0.69774602422E+00 -0.59686919626E-01  0.94994460914E+00  0.90007827638E+02  0.90000090163E+02 0.  0.
         12    1    1    2    0    0 -0.69774602422E+00  0.59686919626E-01 -0.94994460914E+00  0.11801723616E+01  0.00000000000E+00 0. -1.
         11    1    3    3    0    0  0.41657548436E+01  0.58879260026E+01  0.63693586784E+01  0.96223654194E+01  0.51100000000E-03 0. -1.
        -11    1    3    3    0    0  0.16929452391E+02  0.23620119995E+02  0.20949962724E+02  0.35824814937E+02  0.51100000000E-03 0.  1.
         12    1    3    3    0    0 -0.20397461211E+02 -0.29567732918E+02 -0.26369376793E+02  0.44560647282E+02  0.00000000000E+00 0. -1.
</event>
<event>
 7    1  0.2000468E-015  0.9000771E+02  0.7816164E-02  0.1186339E+00
        -11   -1    0    0    0    0  0.00000000000E+00  0.00000000000E+00  0.45593999997E+02  0.45594000000E+02  0.51100000000E-03 0. -1.
         11   -1    0    0    0    0 -0.00000000000E+00 -0.00000000000E+00 -0.45593999997E+02  0.45594000000E+02  0.51100000000E-03 0.  1.
    9900012    2    1    2    0    0 -0.76830771204E+00 -0.20851916254E+00 -0.87138409235E+00  0.90007708842E+02  0.89999969799E+02 0.  0.
         12    1    1    2    0    0  0.76830771204E+00  0.20851916254E+00  0.87138409235E+00  0.11802911581E+01  0.00000000000E+00 0. -1.
         11    1    3    3    0    0  0.44730738959E+01  0.86986380320E+01  0.77813547227E+01  0.12498966968E+02  0.51100000000E-03 0. -1.
        -11    1    3    3    0    0  0.10679808303E+02  0.18856152951E+02  0.23621790774E+02  0.32056228867E+02  0.51100000000E-03 0.  1.
         12    1    3    3    0    0 -0.15921189911E+02 -0.27763310146E+02 -0.32274529589E+02  0.45452513007E+02  0.00000000000E+00 0. -1.
</event>
<event>
 7    1  0.2000468E-015  0.9000783E+02  0.7816164E-02  0.1186339E+00
        -11   -1    0    0    0    0  0.00000000000E+00  0.00000000000E+00  0.45593999997E+02  0.45594000000E+02  0.51100000000E-03 0.  1.
         11   -1    0    0    0    0 -0.00000000000E+00 -0.00000000000E+00 -0.45593999997E+02  0.45594000000E+02  0.51100000000E-03 0. -1.
    9900012    2    1    2    0    0 -0.88878353603E+00 -0.53022865616E+00 -0.56720637906E+00  0.90007829810E+02  0.90000092363E+02 0.  0.
         12    1    1    2    0    0  0.88878353603E+00  0.53022865616E+00  0.56720637906E+00  0.11801701903E+01  0.00000000000E+00 0. -1.
         11    1    3    3    0    0  0.69558967832E+01  0.62859860860E+01 -0.34028711648E-02  0.93754004167E+01  0.51100000000E-03 0. -1.
        -11    1    3    3    0    0  0.35179361633E+02  0.21675216863E+01  0.72693450447E+01  0.35987900922E+02  0.51100000000E-03 0.  1.
         12    1    3    3    0    0 -0.43024041952E+02 -0.89837364285E+01 -0.78331485526E+01  0.44644528471E+02  0.00000000000E+00 0. -1.
</event>
<event>
 7    1  0.2000468E-015  0.9000772E+02  0.7816164E-02  0.1186339E+00
        -11   -1    0    0    0    0  0.00000000000E+00  0.00000000000E+00  0.45593999997E+02  0.45594000000E+02  0.51100000000E-03 0. -1.
         11   -1    0    0    0    0 -0.00000000000E+00 -0.00000000000E+00 -0.45593999997E+02  0.45594000000E+02  0.51100000000E-03 0.  1.
    9900012    2    1    2    0    0  0.87805344406E-01  0.95006894626E+00  0.69477727839E+00  0.90007721962E+02  0.89999983092E+02 0.  0.
         12    1    1    2    0    0 -0.87805344406E-01 -0.95006894626E+00 -0.69477727839E+00  0.11802780383E+01  0.00000000000E+00 0. -1.
         11    1    3    3    0    0  0.42344414011E+02 -0.87904072638E+01 -0.85626178921E+01  0.44086722301E+02  0.51100000000E-03 0. -1.
        -11    1    3    3    0    0 -0.89051770503E+01 -0.26916435606E+01  0.80411202309E+00  0.93377577481E+01  0.51100000000E-03 0.  1.
        -12    1    3    3    0    0 -0.33351431617E+02  0.12432119771E+02  0.84532831474E+01  0.36583241913E+02  0.00000000000E+00 0.  1.
</event>
<event>
 7    1  0.2000468E-015  0.9000773E+02  0.7816164E-02  0.1186339E+00
        -11   -1    0    0    0    0  0.00000000000E+00  0.00000000000E+00  0.45593999997E+02  0.45594000000E+02  0.51100000000E-03 0. -1.
         11   -1    0    0    0    0 -0.00000000000E+00 -0.00000000000E+00 -0.45593999997E+02  0.45594000000E+02  0.51100000000E-03 0.  1.
    9900012    2    1    2    0    0 -0.10085623056E+01 -0.59628632383E+00 -0.14243713922E+00  0.90007727301E+02  0.89999988502E+02 0.  0.
         12    1    1    2    0    0  0.10085623056E+01  0.59628632383E+00  0.14243713922E+00  0.11802726985E+01  0.00000000000E+00 0. -1.
         11    1    3    3    0    0  0.15025856538E+01 -0.91351396234E+01  0.20573633708E+01  0.94837378647E+01  0.51100000000E-03 0. -1.
        -11    1    3    3    0    0 -0.40050363585E+02  0.14157061381E+02  0.36101270437E+00  0.42480399488E+02  0.51100000000E-03 0.  1.
         12    1    3    3    0    0  0.37539215626E+02 -0.56182080812E+01 -0.25608132143E+01  0.38043589948E+02  0.00000000000E+00 0. -1.
</event>
<event>
 7    1  0.2000468E-015  0.9000796E+02  0.7816164E-02  0.1186339E+00
        -11   -1    0    0    0    0  0.00000000000E+00  0.00000000000E+00  0.45593999997E+02  0.45594000000E+02  0.51100000000E-03 0.  1.
         11   -1    0    0    0    0 -0.00000000000E+00 -0.00000000000E+00 -0.45593999997E+02  0.45594000000E+02  0.51100000000E-03 0. -1.
    9900012    2    1    2    0    0  0.40956494647E-03  0.53099800591E+00  0.10538189198E+01  0.90007960439E+02  0.90000224716E+02 0.  0.
         12    1    1    2    0    0 -0.40956494647E-03 -0.53099800591E+00 -0.10538189198E+01  0.11800395611E+01  0.00000000000E+00 0. -1.
         11    1    3    3    0    0 -0.14316753300E+01  0.39158420448E+00 -0.25599861346E+02  0.25642853461E+02  0.51100000000E-03 0. -1.
        -11    1    3    3    0    0 -0.14132532542E+02 -0.22602628049E+02  0.94031731407E+00  0.26673797399E+02  0.51100000000E-03 0.  1.
        -12    1    3    3    0    0  0.15564617437E+02  0.22742041850E+02  0.25713362951E+02  0.37691309579E+02  0.00000000000E+00 0.  1.
</event>
<event>
 7    1  0.2000468E-015  0.9000771E+02  0.7816164E-02  0.1186339E+00
        -11   -1    0    0    0    0  0.00000000000E+00  0.00000000000E+00  0.45593999997E+02  0.45594000000E+02  0.51100000000E-03 0.  1.
         11   -1    0    0    0    0 -0.00000000000E+00 -0.00000000000E+00 -0.45593999997E+02  0.45594000000E+02  0.51100000000E-03 0. -1.
    9900012    2    1    2    0    0 -0.50403559020E+00 -0.50092032171E+00  0.94239468469E+00  0.90007711566E+02  0.89999972559E+02 0.  0.
         12    1    1    2    0    0  0.50403559020E+00  0.50092032171E+00 -0.94239468469E+00  0.11802884337E+01  0.00000000000E+00 0. -1.
         11    1    3    3    0    0 -0.35319756320E+01  0.18849499827E+01  0.10866409706E+02  0.11580446816E+02  0.51100000000E-03 0. -1.
        -11    1    3    3    0    0 -0.23719882982E+02 -0.18573990821E+02  0.19178729308E+02  0.35713437833E+02  0.51100000000E-03 0.  1.
         12    1    3    3    0    0  0.26747823024E+02  0.16188120517E+02 -0.29102744330E+02  0.42713826917E+02  0.00000000000E+00 0. -1.
</event>
<event>
 7    1  0.2000468E-015  0.9000770E+02  0.7816164E-02  0.1186339E+00
        -11   -1    0    0    0    0  0.00000000000E+00  0.00000000000E+00  0.45593999997E+02  0.45594000000E+02  0.51100000000E-03 0.  1.
         11   -1    0    0    0    0 -0.00000000000E+00 -0.00000000000E+00 -0.45593999997E+02  0.45594000000E+02  0.51100000000E-03 0. -1.
    9900012    2    1    2    0    0 -0.84217529817E+00  0.61723406760E+00  0.55034050977E+00  0.90007698427E+02  0.89999959246E+02 0.  0.
         12    1    1    2    0    0  0.84217529817E+00 -0.61723406760E+00 -0.55034050977E+00  0.11803015732E+01  0.00000000000E+00 0. -1.
         11    1    3    3    0    0  0.36623355688E+02  0.23262334465E+02 -0.69349381201E+01  0.43937452743E+02  0.51100000000E-03 0. -1.
        -11    1    3    3    0    0 -0.67796452770E+01  0.43655789503E+00 -0.63489091280E+00  0.68232880351E+01  0.51100000000E-03 0.  1.
        -12    1    3    3    0    0 -0.30685885709E+02 -0.23081658292E+02  0.81201695427E+01  0.39246957648E+02  0.00000000000E+00 0.  1.
</event>
<event>
 7    1  0.2000468E-015  0.9000771E+02  0.7816164E-02  0.1186339E+00
        -11   -1    0    0    0    0  0.00000000000E+00  0.00000000000E+00  0.45593999997E+02  0.45594000000E+02  0.51100000000E-03 0. -1.
         11   -1    0    0    0    0 -0.00000000000E+00 -0.00000000000E+00 -0.45593999997E+02  0.45594000000E+02  0.51100000000E-03 0.  1.
    9900012    2    1    2    0    0  0.40236125880E+00  0.10288254718E+01 -0.41559236098E+00  0.90007706204E+02  0.89999967126E+02 0.  0.
         12    1    1    2    0    0 -0.40236125880E+00 -0.10288254718E+01  0.41559236098E+00  0.11802937958E+01  0.00000000000E+00 0. -1.
         11    1    3    3    0    0 -0.16633357427E+02  0.26169805831E+00  0.35891059006E+02  0.39558882466E+02  0.51100000000E-03 0. -1.
        -11    1    3    3    0    0 -0.87187314714E+01  0.28904019896E+01 -0.95761779998E+01  0.13269283608E+02  0.51100000000E-03 0.  1.
        -12    1    3    3    0    0  0.25754450157E+02 -0.21232745761E+01 -0.26730473367E+02  0.37179540130E+02  0.00000000000E+00 0.  1.
</event>
<event>
 7    1  0.2000468E-015  0.9000771E+02  0.7816164E-02  0.1186339E+00
        -11   -1    0    0    0    0  0.00000000000E+00  0.00000000000E+00  0.45593999997E+02  0.45594000000E+02  0.51100000000E-03 0.  1.
         11   -1    0    0    0    0 -0.00000000000E+00 -0.00000000000E+00 -0.45593999997E+02  0.45594000000E+02  0.51100000000E-03 0. -1.
    9900012    2    1    2    0    0  0.65593341206E+00  0.42423960753E+00  0.88478601185E+00  0.90007714368E+02  0.89999975398E+02 0.  0.
         12    1    1    2    0    0 -0.65593341206E+00 -0.42423960753E+00 -0.88478601185E+00  0.11802856317E+01  0.00000000000E+00 0. -1.
         11    1    3    3    0    0 -0.21422020772E+01 -0.67766273236E+01  0.16406271721E+00  0.71090522897E+01  0.51100000000E-03 0. -1.
        -11    1    3    3    0    0 -0.25135275542E+02 -0.25956798752E+02 -0.11387235749E+02  0.37884120899E+02  0.51100000000E-03 0.  1.
         12    1    3    3    0    0  0.27933411031E+02  0.33157665683E+02  0.12107959044E+02  0.45014541179E+02  0.00000000000E+00 0. -1.
</event>
<event>
 7    1  0.2000468E-015  0.9000758E+02  0.7816164E-02  0.1186339E+00
        -11   -1    0    0    0    0  0.00000000000E+00  0.00000000000E+00  0.45593999997E+02  0.45594000000E+02  0.51100000000E-03 0.  1.
         11   -1    0    0    0    0 -0.00000000000E+00 -0.00000000000E+00 -0.45593999997E+02  0.45594000000E+02  0.51100000000E-03 0. -1.
    9900012    2    1    2    0    0  0.67330926808E+00 -0.95887543407E+00 -0.14356439045E+00  0.90007577109E+02  0.89999836326E+02 0.  0.
         12    1    1    2    0    0 -0.67330926808E+00  0.95887543407E+00  0.14356439045E+00  0.11804228915E+01  0.00000000000E+00 0. -1.
         11    1    3    3    0    0 -0.16030356853E+01  0.32361238147E+02 -0.21432744683E+02  0.38848191756E+02  0.51100000000E-03 0. -1.
        -11    1    3    3    0    0  0.39818234292E+01  0.54754503541E+01  0.71125349062E+01  0.98195533226E+01  0.51100000000E-03 0.  1.
        -12    1    3    3    0    0 -0.17054784758E+01 -0.38795563935E+02  0.14176645386E+02  0.41339832030E+02  0.00000000000E+00 0.  1.
</event>
<event>
 7    1  0.2000468E-015  0.9000773E+02  0.7816164E-02  0.1186339E+00
        -11   -1    0    0    0    0  0.00000000000E+00  0.00000000000E+00  0.45593999997E+02  0.45594000000E+02  0.51100000000E-03 0.  1.
         11   -1    0    0    0    0 -0.00000000000E+00 -0.00000000000E+00 -0.45593999997E+02  0.45594000000E+02  0.51100000000E-03 0. -1.
    9900012    2    1    2    0    0 -0.11452087970E+01 -0.13805924148E-01  0.28520526644E+00  0.90007730609E+02  0.89999991853E+02 0.  0.
         12    1    1    2    0    0  0.11452087970E+01  0.13805924148E-01 -0.28520526644E+00  0.11802693914E+01  0.00000000000E+00 0. -1.
         11    1    3    3    0    0  0.10965551104E+02 -0.17569623526E+01  0.52233387840E+00  0.11117691337E+02  0.51100000000E-03 0. -1.
        -11    1    3    3    0    0  0.31696691056E+02  0.30701111985E+01  0.10918881857E+02  0.33664934099E+02  0.51100000000E-03 0.  1.
         12    1    3    3    0    0 -0.43807450956E+02 -0.13269547701E+01 -0.11156010469E+02  0.45225105172E+02  0.00000000000E+00 0. -1.
</event>
<event>
 7    1  0.2000468E-015  0.9000775E+02  0.7816164E-02  0.1186339E+00
        -11   -1    0    0    0    0  0.00000000000E+00  0.00000000000E+00  0.45593999997E+02  0.45594000000E+02  0.51100000000E-03 0. -1.
         11   -1    0    0    0    0 -0.00000000000E+00 -0.00000000000E+00 -0.45593999997E+02  0.45594000000E+02  0.51100000000E-03 0.  1.
    9900012    2    1    2    0    0  0.32650655056E+00 -0.39690242396E-01 -0.11334983637E+01  0.90007745628E+02  0.90000007070E+02 0.  0.
         12    1    1    2    0    0 -0.32650655056E+00  0.39690242396E-01  0.11334983637E+01  0.11802543723E+01  0.00000000000E+00 0. -1.
         11    1    3    3    0    0  0.52210209080E+01  0.38216189615E+01  0.64292337366E+01  0.91213418700E+01  0.51100000000E-03 0. -1.
        -11    1    3    3    0    0  0.15806111699E+02  0.11903167441E+01 -0.39461166239E+02  0.42525682384E+02  0.51100000000E-03 0.  1.
         12    1    3    3    0    0 -0.20700626056E+02 -0.50516259480E+01  0.31898434139E+02  0.38360721374E+02  0.00000000000E+00 0. -1.
</event>
<event>
 8    1  0.2000468E-015  0.9000766E+02  0.7816164E-02  0.1186339E+00
        -11   -1    0    0    0    0  0.00000000000E+00  0.00000000000E+00  0.45593999997E+02  0.45594000000E+02  0.51100000000E-03 0. -1.
         11   -1    0    0    0    0 -0.00000000000E+00 -0.00000000000E+00 -0.45593999997E+02  0.45594000000E+02  0.51100000000E-03 0.  1.
    9900012    2    1    2    0    0  0.99521468492E-01  0.10079142661E+01 -0.60613267995E+00  0.90007664236E+02  0.89999924604E+02 0.  0.
         23    2    3    3    0    0 -0.97059456117E+01  0.13669508642E+02 -0.16069251697E+02  0.67746235564E+02  0.63641737376E+02 0.  0.
         12    1    1    2    0    0 -0.99521468492E-01 -0.10079142661E+01  0.60613267995E+00  0.11803357641E+01  0.00000000000E+00 0. -1.
         11    1    4    4    0    0 -0.13987114249E+02  0.38075666502E+02 -0.13873309000E+02  0.42870321289E+02  0.51100000000E-03 0. -1.
        -11    1    4    4    0    0  0.42811686374E+01 -0.24406157860E+02 -0.21959426965E+01  0.24875914274E+02  0.51100000000E-03 0.  1.
        -12    1    3    3    0    0  0.98054670802E+01 -0.12661594376E+02  0.15463119017E+02  0.22261428672E+02  0.00000000000E+00 0.  1.
</event>
<event>
 7    1  0.2000468E-015  0.9000772E+02  0.7816164E-02  0.1186339E+00
        -11   -1    0    0    0    0  0.00000000000E+00  0.00000000000E+00  0.45593999997E+02  0.45594000000E+02  0.51100000000E-03 0. -1.
         11   -1    0    0    0    0 -0.00000000000E+00 -0.00000000000E+00 -0.45593999997E+02  0.45594000000E+02  0.51100000000E-03 0.  1.
    9900012    2    1    2    0    0  0.10846079204E+01  0.35363685533E+00 -0.30268176143E+00  0.90007724771E+02  0.89999985938E+02 0.  0.
         12    1    1    2    0    0 -0.10846079204E+01 -0.35363685533E+00  0.30268176143E+00  0.11802752286E+01  0.00000000000E+00 0. -1.
         11    1    3    3    0    0  0.35999666994E+02  0.98282487464E+01  0.76722461416E+01  0.38097688358E+02  0.51100000000E-03 0. -1.
        -11    1    3    3    0    0 -0.92636027692E+00 -0.15756514549E+02  0.20621391049E+01  0.15917861416E+02  0.51100000000E-03 0.  1.
        -12    1    3    3    0    0 -0.33988698797E+02  0.62819026579E+01 -0.10037067008E+02  0.35992174997E+02  0.00000000000E+00 0.  1.
</event>
<event>
 7    1  0.2000468E-015  0.9000775E+02  0.7816164E-02  0.1186339E+00
        -11   -1    0    0    0    0  0.00000000000E+00  0.00000000000E+00  0.45593999997E+02  0.45594000000E+02  0.51100000000E-03 0. -1.
         11   -1    0    0    0    0 -0.00000000000E+00 -0.00000000000E+00 -0.45593999997E+02  0.45594000000E+02  0.51100000000E-03 0.  1.
    9900012    2    1    2    0    0  0.65850582526E+00  0.61339194000E+00  0.76361831098E+00  0.90007748959E+02  0.90000010446E+02 0.  0.
         12    1    1    2    0    0 -0.65850582526E+00 -0.61339194000E+00 -0.76361831098E+00  0.11802510406E+01  0.00000000000E+00 0. -1.
         11    1    3    3    0    0 -0.23291523944E+02 -0.20620325165E+02  0.12613044849E+02  0.33567570632E+02  0.51100000000E-03 0. -1.
        -11    1    3    3    0    0 -0.95241634678E+01 -0.62450574968E+01  0.51750230704E+00  0.11400800051E+02  0.51100000000E-03 0.  1.
        -12    1    3    3    0    0  0.33474193237E+02  0.27478774601E+02 -0.12366928845E+02  0.45039378276E+02  0.00000000000E+00 0.  1.
</event>
<event>
 7    1  0.2320638E-015  0.9000781E+02  0.7816164E-02  0.1186339E+00
        -11   -1    0    0    0    0  0.00000000000E+00  0.00000000000E+00  0.45593999997E+02  0.45594000000E+02  0.51100000000E-03 0.  1.
         11   -1    0    0    0    0 -0.00000000000E+00 -0.00000000000E+00 -0.45593999997E+02  0.45594000000E+02  0.51100000000E-03 0. -1.
    9900012    2    1    2    0    0 -0.85833401220E+00  0.23577977800E+00  0.77492434131E+00  0.90007814796E+02  0.90000077152E+02 0.  0.
         12    1    1    2    0    0  0.85833401220E+00 -0.23577977800E+00 -0.77492434131E+00  0.11801852037E+01  0.00000000000E+00 0. -1.
         11    1    3    3    0    0  0.33170337236E+02 -0.99186355712E+01 -0.16081803970E+02  0.38174271744E+02  0.51100000000E-03 0. -1.
        -11    1    3    3    0    0  0.58100052605E+01  0.81315773016E+00  0.80775169681E+01  0.99831691989E+01  0.51100000000E-03 0.  1.
        -12    1    3    3    0    0 -0.39838676509E+02  0.93412576190E+01  0.87792113432E+01  0.41850373854E+02  0.00000000000E+00 0.  1.
</event>
<event>
 7    1  0.2000468E-015  0.9000766E+02  0.7816164E-02  0.1186339E+00
        -11   -1    0    0    0    0  0.00000000000E+00  0.00000000000E+00  0.45593999997E+02  0.45594000000E+02  0.51100000000E-03 0.  1.
         11   -1    0    0    0    0 -0.00000000000E+00 -0.00000000000E+00 -0.45593999997E+02  0.45594000000E+02  0.51100000000E-03 0. -1.
    9900012    2    1    2    0    0  0.36150076976E+00 -0.99940838757E+00 -0.51352292978E+00  0.90007658638E+02  0.89999918932E+02 0.  0.
         12    1    1    2    0    0 -0.36150076976E+00  0.99940838757E+00  0.51352292978E+00  0.11803413621E+01  0.00000000000E+00 0. -1.
         11    1    3    3    0    0 -0.27981128912E+01 -0.34676062700E+01  0.12748507951E+02  0.13504746730E+02  0.51100000000E-03 0. -1.
        -11    1    3    3    0    0 -0.82400373447E+01  0.33717688700E+02 -0.23243611295E+02  0.41773750286E+02  0.51100000000E-03 0.  1.
         12    1    3    3    0    0  0.11399651006E+02 -0.31249490817E+02  0.99815804137E+01  0.34729161622E+02  0.00000000000E+00 0. -1.
</event>
<event>
 7    1  0.2000468E-015  0.9000764E+02  0.7816164E-02  0.1186339E+00
        -11   -1    0    0    0    0  0.00000000000E+00  0.00000000000E+00  0.45593999997E+02  0.45594000000E+02  0.51100000000E-03 0. -1.
         11   -1    0    0    0    0 -0.00000000000E+00 -0.00000000000E+00 -0.45593999997E+02  0.45594000000E+02  0.51100000000E-03 0.  1.
    9900012    2    1    2    0    0 -0.10628832984E+01 -0.51263387203E+00 -0.27213831418E-01  0.90007637774E+02  0.89999897792E+02 0.  0.
         12    1    1    2    0    0  0.10628832984E+01  0.51263387203E+00  0.27213831418E-01  0.11803622263E+01  0.00000000000E+00 0. -1.
         11    1    3    3    0    0 -0.27063297788E+02 -0.31474434880E+01  0.20342998051E+02  0.34002441936E+02  0.51100000000E-03 0. -1.
        -11    1    3    3    0    0 -0.10757831551E+02 -0.36903448552E+01  0.32848097229E+01  0.11838055584E+02  0.51100000000E-03 0.  1.
        -12    1    3    3    0    0  0.36758246040E+02  0.63251544711E+01 -0.23655021605E+02  0.44167140254E+02  0.00000000000E+00 0.  1.
</event>
<event>
 7    1  0.2000468E-015  0.9000781E+02  0.7816164E-02  0.1186339E+00
        -11   -1    0    0    0    0  0.00000000000E+00  0.00000000000E+00  0.45593999997E+02  0.45594000000E+02  0.51100000000E-03 0.  1.
         11   -1    0    0    0    0 -0.00000000000E+00 -0.00000000000E+00 -0.45593999997E+02  0.45594000000E+02  0.51100000000E-03 0. -1.
    9900012    2    1    2    0    0 -0.76046729822E+00  0.85703045815E+00 -0.28289012766E+00  0.90007814192E+02  0.90000076539E+02 0.  0.
         12    1    1    2    0    0  0.76046729822E+00 -0.85703045815E+00  0.28289012766E+00  0.11801858083E+01  0.00000000000E+00 0. -1.
         11    1    3    3    0    0  0.12609477975E+02  0.32534432753E+02 -0.16602343182E+02  0.38640989231E+02  0.51100000000E-03 0. -1.
        -11    1    3    3    0    0  0.61575394655E+01  0.39622269066E+01  0.59268118519E+01  0.94202777729E+01  0.51100000000E-03 0.  1.
        -12    1    3    3    0    0 -0.19527484739E+02 -0.35639629201E+02  0.10392641202E+02  0.41946547188E+02  0.00000000000E+00 0.  1.
</event>
<event>
 7    1  0.2040906E-015  0.9000771E+02  0.7816164E-02  0.1186339E+00
        -11   -1    0    0    0    0  0.00000000000E+00  0.00000000000E+00  0.45593999997E+02  0.45594000000E+02  0.51100000000E-03 0. -1.
         11   -1    0    0    0    0 -0.00000000000E+00 -0.00000000000E+00 -0.45593999997E+02  0.45594000000E+02  0.51100000000E-03 0.  1.
    9900012    2    1    2    0    0  0.30939252332E+00 -0.14679884492E+00 -0.11295154744E+01  0.90007712390E+02  0.89999973394E+02 0.  0.
         12    1    1    2    0    0 -0.30939252332E+00  0.14679884492E+00  0.11295154744E+01  0.11802876095E+01  0.00000000000E+00 0. -1.
         11    1    3    3    0    0 -0.21757892512E+02 -0.18487293408E+02  0.22298959633E+02  0.36227468930E+02  0.51100000000E-03 0. -1.
        -11    1    3    3    0    0 -0.95684318197E+01  0.26303319783E+01  0.21700182123E+01  0.10157879361E+02  0.51100000000E-03 0.  1.
        -12    1    3    3    0    0  0.31635716855E+02  0.15710162585E+02 -0.25598493320E+02  0.43622364099E+02  0.00000000000E+00 0.  1.
</event>
<event>
 7    1  0.2000468E-015  0.9000776E+02  0.7816164E-02  0.1186339E+00
        -11   -1    0    0    0    0  0.00000000000E+00  0.00000000000E+00  0.45593999997E+02  0.45594000000E+02  0.51100000000E-03 0. -1.
         11   -1    0    0    0    0 -0.00000000000E+00 -0.00000000000E+00 -0.45593999997E+02  0.45594000000E+02  0.51100000000E-03 0.  1.
    9900012    2    1    2    0    0  0.98483123605E+00  0.55626504447E+00 -0.33710902895E+00  0.90007760253E+02  0.90000021888E+02 0.  0.
         12    1    1    2    0    0 -0.98483123605E+00 -0.55626504447E+00  0.33710902895E+00  0.11802397471E+01  0.00000000000E+00 0. -1.
         11    1    3    3    0    0 -0.85816644222E+01 -0.66398008527E+01  0.35433866886E+02  0.37057938992E+02  0.51100000000E-03 0. -1.
        -11    1    3    3    0    0  0.15754377093E+01  0.48944920446E+01  0.73856949521E+01  0.89992525543E+01  0.51100000000E-03 0.  1.
        -12    1    3    3    0    0  0.79910579490E+01  0.23015738526E+01 -0.43156670867E+02  0.43950568707E+02  0.00000000000E+00 0.  1.
</event>
<event>
 7    1  0.2000468E-015  0.9000774E+02  0.7816164E-02  0.1186339E+00
        -11   -1    0    0    0    0  0.00000000000E+00  0.00000000000E+00  0.45593999997E+02  0.45594000000E+02  0.51100000000E-03 0.  1.
         11   -1    0    0    0    0 -0.00000000000E+00 -0.00000000000E+00 -0.45593999997E+02  0.45594000000E+02  0.51100000000E-03 0. -1.
    9900012    2    1    2    0    0  0.92631125909E+00 -0.68147682913E+00 -0.26561529264E+00  0.90007739562E+02  0.90000000924E+02 0.  0.
         12    1    1    2    0    0 -0.92631125909E+00  0.68147682913E+00  0.26561529264E+00  0.11802604378E+01  0.00000000000E+00 0. -1.
         11    1    3    3    0    0 -0.32145785547E+01 -0.52893201186E+01  0.83574502529E+01  0.10399874883E+02  0.51100000000E-03 0. -1.
        -11    1    3    3    0    0 -0.28577216077E+02  0.16545400343E+02  0.16256813542E+02  0.36806134516E+02  0.51100000000E-03 0.  1.
         12    1    3    3    0    0  0.32718105891E+02 -0.11937557054E+02 -0.24879879087E+02  0.42801730162E+02  0.00000000000E+00 0. -1.
</event>
<event>
 7    1  0.2037953E-015  0.9000765E+02  0.7816164E-02  0.1186339E+00
        -11   -1    0    0    0    0  0.00000000000E+00  0.00000000000E+00  0.45593999997E+02  0.45594000000E+02  0.51100000000E-03 0.  1.
         11   -1    0    0    0    0 -0.00000000000E+00 -0.00000000000E+00 -0.45593999997E+02  0.45594000000E+02  0.51100000000E-03 0. -1.
    9900012    2    1    2    0    0 -0.73942012782E+00 -0.90378072337E+00 -0.17225005157E+00  0.90007647594E+02  0.89999907743E+02 0.  0.
         12    1    1    2    0    0  0.73942012782E+00  0.90378072337E+00  0.17225005157E+00  0.11803524057E+01  0.00000000000E+00 0. -1.
         11    1    3    3    0    0  0.19280376909E+02 -0.28032691473E+02 -0.16856461078E+02  0.37969790693E+02  0.51100000000E-03 0. -1.
        -11    1    3    3    0    0  0.49712340594E+01  0.33315802066E+01 -0.77227929835E+01  0.97700627671E+01  0.51100000000E-03 0.  1.
        -12    1    3    3    0    0 -0.24991031096E+02  0.23797330543E+02  0.24407004009E+02  0.42267794134E+02  0.00000000000E+00 0.  1.
</event>
<event>
 7    1  0.2000468E-015  0.9000689E+02  0.7816164E-02  0.1186341E+00
        -11   -1    0    0    0    0  0.00000000000E+00  0.00000000000E+00  0.45593999997E+02  0.45594000000E+02  0.51100000000E-03 0. -1.
         11   -1    0    0    0    0 -0.00000000000E+00 -0.00000000000E+00 -0.45593999997E+02  0.45594000000E+02  0.51100000000E-03 0.  1.
    9900012    2    1    2    0    0 -0.10988390754E+01  0.15641581758E-01 -0.43281444797E+00  0.90006890217E+02  0.89999140364E+02 0.  0.
         12    1    1    2    0    0  0.10988390754E+01 -0.15641581758E-01  0.43281444797E+00  0.11811097828E+01  0.00000000000E+00 0. -1.
         11    1    3    3    0    0 -0.64362028882E+01 -0.44880948403E+01  0.40048745853E+02  0.40810167209E+02  0.51100000000E-03 0. -1.
        -11    1    3    3    0    0 -0.88913225673E+01  0.40741830234E+01 -0.50385972982E+01  0.11001911075E+02  0.51100000000E-03 0.  1.
        -12    1    3    3    0    0  0.14228686380E+02  0.42955339863E+00 -0.35442963003E+02  0.38194811934E+02  0.00000000000E+00 0.  1.
</event>
<event>
 7    1  0.2000468E-015  0.9000773E+02  0.7816164E-02  0.1186339E+00
        -11   -1    0    0    0    0  0.00000000000E+00  0.00000000000E+00  0.45593999997E+02  0.45594000000E+02  0.51100000000E-03 0. -1.
         11   -1    0    0    0    0 -0.00000000000E+00 -0.00000000000E+00 -0.45593999997E+02  0.45594000000E+02  0.51100000000E-03 0.  1.
    9900012    2    1    2    0    0 -0.15434481391E+00  0.10660778122E+01  0.48238292840E+00  0.90007729898E+02  0.89999991133E+02 0.  0.
         12    1    1    2    0    0  0.15434481391E+00 -0.10660778122E+01 -0.48238292840E+00  0.11802701016E+01  0.00000000000E+00 0. -1.
         11    1    3    3    0    0 -0.65034255993E+01  0.37842232239E+02  0.12614305889E+02  0.40415959703E+02  0.51100000000E-03 0. -1.
        -11    1    3    3    0    0  0.38313699738E+01  0.76838259465E+00  0.65142536636E+01  0.75964010389E+01  0.51100000000E-03 0.  1.
        -12    1    3    3    0    0  0.25177108115E+01 -0.37544537022E+02 -0.18646176624E+02  0.41995369157E+02  0.00000000000E+00 0.  1.
</event>
<event>
 7    1  0.2000468E-015  0.9000771E+02  0.7816164E-02  0.1186339E+00
        -11   -1    0    0    0    0  0.00000000000E+00  0.00000000000E+00  0.45593999997E+02  0.45594000000E+02  0.51100000000E-03 0. -1.
         11   -1    0    0    0    0 -0.00000000000E+00 -0.00000000000E+00 -0.45593999997E+02  0.45594000000E+02  0.51100000000E-03 0.  1.
    9900012    2    1    2    0    0 -0.63850346145E+00  0.34680382091E-01 -0.99206566532E+00  0.90007710339E+02  0.89999971316E+02 0.  0.
         12    1    1    2    0    0  0.63850346145E+00 -0.34680382091E-01  0.99206566532E+00  0.11802896608E+01  0.00000000000E+00 0. -1.
         11    1    3    3    0    0  0.17699100617E+01  0.86844814115E+01 -0.81119757700E+01  0.12014863718E+02  0.51100000000E-03 0. -1.
        -11    1    3    3    0    0 -0.39023925683E+02 -0.78998972111E+01 -0.31986422827E+01  0.39943791312E+02  0.51100000000E-03 0.  1.
         12    1    3    3    0    0  0.36615512160E+02 -0.74990381822E+00  0.10318552387E+02  0.38049055309E+02  0.00000000000E+00 0. -1.
</event>
<event>
 7    1  0.2319394E-015  0.9000776E+02  0.7816164E-02  0.1186339E+00
        -11   -1    0    0    0    0  0.00000000000E+00  0.00000000000E+00  0.45593999997E+02  0.45594000000E+02  0.51100000000E-03 0.  1.
         11   -1    0    0    0    0 -0.00000000000E+00 -0.00000000000E+00 -0.45593999997E+02  0.45594000000E+02  0.51100000000E-03 0. -1.
    9900012    2    1    2    0    0  0.51282683903E+00 -0.15443764003E+00  0.10517289085E+01  0.90007755937E+02  0.90000017515E+02 0.  0.
         12    1    1    2    0    0 -0.51282683903E+00  0.15443764003E+00 -0.10517289085E+01  0.11802440631E+01  0.00000000000E+00 0. -1.
         11    1    3    3    0    0 -0.13178125820E+02 -0.21738978558E+02 -0.28353635736E+02  0.38081161334E+02  0.51100000000E-03 0. -1.
        -11    1    3    3    0    0  0.29341874791E+01 -0.87957398597E+01  0.17005954731E+01  0.94269041082E+01  0.51100000000E-03 0.  1.
        -12    1    3    3    0    0  0.10756765180E+02  0.30380280777E+02  0.27704769172E+02  0.42499690494E+02  0.00000000000E+00 0.  1.
</event>
<event>
 7    1  0.2058599E-015  0.9000774E+02  0.7816164E-02  0.1186339E+00
        -11   -1    0    0    0    0  0.00000000000E+00  0.00000000000E+00  0.45593999997E+02  0.45594000000E+02  0.51100000000E-03 0. -1.
         11   -1    0    0    0    0 -0.00000000000E+00 -0.00000000000E+00 -0.45593999997E+02  0.45594000000E+02  0.51100000000E-03 0.  1.
    9900012    2    1    2    0    0  0.10579283769E+01  0.97402304703E-01 -0.51410874147E+00  0.90007742631E+02  0.90000004033E+02 0.  0.
         12    1    1    2    0    0 -0.10579283769E+01 -0.97402304703E-01  0.51410874147E+00  0.11802573693E+01  0.00000000000E+00 0. -1.
         11    1    3    3    0    0  0.66267354336E+01  0.31508070551E+02  0.23326984773E+02  0.39759531577E+02  0.51100000000E-03 0. -1.
        -11    1    3    3    0    0  0.10871147917E+01 -0.61076547523E+01  0.72967543477E+01  0.95774677977E+01  0.51100000000E-03 0.  1.
        -12    1    3    3    0    0 -0.66559218484E+01 -0.25303013494E+02 -0.31137847862E+02  0.40670743256E+02  0.00000000000E+00 0.  1.
</event>
<event>
 7    1  0.2000468E-015  0.9000765E+02  0.7816164E-02  0.1186339E+00
        -11   -1    0    0    0    0  0.00000000000E+00  0.00000000000E+00  0.45593999997E+02  0.45594000000E+02  0.51100000000E-03 0. -1.
         11   -1    0    0    0    0 -0.00000000000E+00 -0.00000000000E+00 -0.45593999997E+02  0.45594000000E+02  0.51100000000E-03 0.  1.
    9900012    2    1    2    0    0  0.30455235002E+00 -0.60438610338E+00 -0.96704926939E+00  0.90007653023E+02  0.89999913243E+02 0.  0.
         12    1    1    2    0    0 -0.30455235002E+00  0.60438610338E+00  0.96704926939E+00  0.11803469766E+01  0.00000000000E+00 0. -1.
         11    1    3    3    0    0 -0.40271209779E+01  0.75794651448E+00 -0.80245455310E+01  0.90103006348E+01  0.51100000000E-03 0. -1.
        -11    1    3    3    0    0 -0.21950778606E+02  0.51707276825E+00 -0.28977359150E+02  0.36356449073E+02  0.51100000000E-03 0.  1.
         12    1    3    3    0    0  0.26282451933E+02 -0.18794053861E+01  0.36034855412E+02  0.44640903315E+02  0.00000000000E+00 0. -1.
</event>
<event>
 7    1  0.2000468E-015  0.9000773E+02  0.7816164E-02  0.1186339E+00
        -11   -1    0    0    0    0  0.00000000000E+00  0.00000000000E+00  0.45593999997E+02  0.45594000000E+02  0.51100000000E-03 0. -1.
         11   -1    0    0    0    0 -0.00000000000E+00 -0.00000000000E+00 -0.45593999997E+02  0.45594000000E+02  0.51100000000E-03 0.  1.
    9900012    2    1    2    0    0 -0.10294693610E+01  0.56458329733E+00  0.12035116116E+00  0.90007726359E+02  0.89999987547E+02 0.  0.
         12    1    1    2    0    0  0.10294693610E+01 -0.56458329733E+00 -0.12035116116E+00  0.11802736407E+01  0.00000000000E+00 0. -1.
         11    1    3    3    0    0 -0.31194390428E+02 -0.15099951158E+02  0.26638652731E+02  0.43711741429E+02  0.51100000000E-03 0. -1.
        -11    1    3    3    0    0  0.36712989669E+01  0.82899916603E+01 -0.16435261959E+01  0.92143136722E+01  0.51100000000E-03 0.  1.
        -12    1    3    3    0    0  0.26493622100E+02  0.73745427954E+01 -0.24874775374E+02  0.37081671258E+02  0.00000000000E+00 0.  1.
</event>
<event>
 7    1  0.2000468E-015  0.9000788E+02  0.7816164E-02  0.1186339E+00
        -11   -1    0    0    0    0  0.00000000000E+00  0.00000000000E+00  0.45593999997E+02  0.45594000000E+02  0.51100000000E-03 0.  1.
         11   -1    0    0    0    0 -0.00000000000E+00 -0.00000000000E+00 -0.45593999997E+02  0.45594000000E+02  0.51100000000E-03 0. -1.
    9900012    2    1    2    0    0 -0.56854578745E+00 -0.87502901088E+00  0.55114779070E+00  0.90007879680E+02  0.90000142892E+02 0.  0.
         12    1    1    2    0    0  0.56854578745E+00  0.87502901088E+00 -0.55114779070E+00  0.11801203199E+01  0.00000000000E+00 0. -1.
         11    1    3    3    0    0 -0.54487491412E+01  0.38168058930E+01  0.57188049749E+01  0.87727763582E+01  0.51100000000E-03 0. -1.
        -11    1    3    3    0    0 -0.24480220831E+02  0.11197782707E+02  0.24629741616E+02  0.36486925355E+02  0.51100000000E-03 0.  1.
         12    1    3    3    0    0  0.29360424185E+02 -0.15889617611E+02 -0.29797398800E+02  0.44748177967E+02  0.00000000000E+00 0. -1.
</event>
<event>
 7    1  0.2000468E-015  0.9000768E+02  0.7816164E-02  0.1186339E+00
        -11   -1    0    0    0    0  0.00000000000E+00  0.00000000000E+00  0.45593999997E+02  0.45594000000E+02  0.51100000000E-03 0. -1.
         11   -1    0    0    0    0 -0.00000000000E+00 -0.00000000000E+00 -0.45593999997E+02  0.45594000000E+02  0.51100000000E-03 0.  1.
    9900012    2    1    2    0    0 -0.11033340292E+01 -0.51469249427E-01  0.41612305839E+00  0.90007680779E+02  0.89999941365E+02 0.  0.
         12    1    1    2    0    0  0.11033340292E+01  0.51469249427E-01 -0.41612305839E+00  0.11803192209E+01  0.00000000000E+00 0. -1.
         11    1    3    3    0    0  0.12448793118E+02 -0.32662876545E+00  0.63587943908E+00  0.12469301479E+02  0.51100000000E-03 0. -1.
        -11    1    3    3    0    0 -0.13019454790E+01  0.31863509498E+02 -0.20633553642E+02  0.37983178326E+02  0.51100000000E-03 0.  1.
         12    1    3    3    0    0 -0.12250181668E+02 -0.31588349982E+02  0.20413797261E+02  0.39555200974E+02  0.00000000000E+00 0. -1.
</event>
<event>
 7    1  0.2000468E-015  0.9000779E+02  0.7816164E-02  0.1186339E+00
        -11   -1    0    0    0    0  0.00000000000E+00  0.00000000000E+00  0.45593999997E+02  0.45594000000E+02  0.51100000000E-03 0. -1.
         11   -1    0    0    0    0 -0.00000000000E+00 -0.00000000000E+00 -0.45593999997E+02  0.45594000000E+02  0.51100000000E-03 0.  1.
    9900012    2    1    2    0    0  0.77025411854E+00 -0.87244007024E+00 -0.19609333425E+00  0.90007789985E+02  0.90000052013E+02 0.  0.
         12    1    1    2    0    0 -0.77025411854E+00  0.87244007024E+00  0.19609333425E+00  0.11802100148E+01  0.00000000000E+00 0. -1.
         11    1    3    3    0    0 -0.19907101012E+00  0.15684371037E+02  0.44180396545E+01  0.16295956515E+02  0.51100000000E-03 0. -1.
        -11    1    3    3    0    0  0.48716732847E+01  0.26109813604E+02 -0.13743153048E+02  0.29905347733E+02  0.51100000000E-03 0.  1.
         12    1    3    3    0    0 -0.39023481560E+01 -0.42666624712E+02  0.91290200590E+01  0.43806485737E+02  0.00000000000E+00 0. -1.
</event>
<event>
 7    1  0.2000468E-015  0.9000770E+02  0.7816164E-02  0.1186339E+00
        -11   -1    0    0    0    0  0.00000000000E+00  0.00000000000E+00  0.45593999997E+02  0.45594000000E+02  0.51100000000E-03 0. -1.
         11   -1    0    0    0    0 -0.00000000000E+00 -0.00000000000E+00 -0.45593999997E+02  0.45594000000E+02  0.51100000000E-03 0.  1.
    9900012    2    1    2    0    0 -0.72613243986E+00  0.60433360016E+00  0.70754451274E+00  0.90007700607E+02  0.89999961455E+02 0.  0.
         12    1    1    2    0    0  0.72613243986E+00 -0.60433360016E+00 -0.70754451274E+00  0.11802993934E+01  0.00000000000E+00 0. -1.
         11    1    3    3    0    0 -0.89462415567E+01 -0.14155372905E+01  0.13565661226E+02  0.16311534219E+02  0.51100000000E-03 0. -1.
        -11    1    3    3    0    0 -0.29901272746E+02 -0.11410015055E+02 -0.33832535311E+01  0.32182618913E+02  0.51100000000E-03 0.  1.
         12    1    3    3    0    0  0.38121381863E+02  0.13429885945E+02 -0.94748631825E+01  0.41513547475E+02  0.00000000000E+00 0. -1.
</event>
<event>
 7    1  0.2000468E-015  0.9000769E+02  0.7816164E-02  0.1186339E+00
        -11   -1    0    0    0    0  0.00000000000E+00  0.00000000000E+00  0.45593999997E+02  0.45594000000E+02  0.51100000000E-03 0.  1.
         11   -1    0    0    0    0 -0.00000000000E+00 -0.00000000000E+00 -0.45593999997E+02  0.45594000000E+02  0.51100000000E-03 0. -1.
    9900012    2    1    2    0    0  0.66164038056E+00  0.96787444982E+00  0.13633479237E+00  0.90007688126E+02  0.89999948809E+02 0.  0.
         12    1    1    2    0    0 -0.66164038056E+00 -0.96787444982E+00 -0.13633479237E+00  0.11803118738E+01  0.00000000000E+00 0. -1.
         11    1    3    3    0    0 -0.92361718605E+01  0.91728912254E+00 -0.85182841554E+00  0.93206170333E+01  0.51100000000E-03 0. -1.
        -11    1    3    3    0    0 -0.30288088021E+01  0.26507909579E+02  0.29446809923E+02  0.39736099053E+02  0.51100000000E-03 0.  1.
         12    1    3    3    0    0  0.12926621043E+02 -0.26457324252E+02 -0.28458646715E+02  0.40950972040E+02  0.00000000000E+00 0. -1.
</event>
<event>
 7    1  0.2000468E-015  0.9000776E+02  0.7816164E-02  0.1186339E+00
        -11   -1    0    0    0    0  0.00000000000E+00  0.00000000000E+00  0.45593999997E+02  0.45594000000E+02  0.51100000000E-03 0. -1.
         11   -1    0    0    0    0 -0.00000000000E+00 -0.00000000000E+00 -0.45593999997E+02  0.45594000000E+02  0.51100000000E-03 0.  1.
    9900012    2    1    2    0    0 -0.33321628424E+00 -0.68091945163E+00  0.90458851738E+00  0.90007760712E+02  0.90000022353E+02 0.  0.
         12    1    1    2    0    0  0.33321628424E+00  0.68091945163E+00 -0.90458851738E+00  0.11802392882E+01  0.00000000000E+00 0. -1.
         11    1    3    3    0    0 -0.28457480398E+01 -0.42771568337E+01  0.87244522694E+01  0.10124644199E+02  0.51100000000E-03 0. -1.
        -11    1    3    3    0    0 -0.22999384241E+02  0.30683930263E+02 -0.16383703642E+02  0.41700131860E+02  0.51100000000E-03 0.  1.
         12    1    3    3    0    0  0.25511915996E+02 -0.27087692881E+02  0.85638398897E+01  0.38182984654E+02  0.00000000000E+00 0. -1.
</event>
<event>
 7    1  0.2000468E-015  0.9000766E+02  0.7816164E-02  0.1186339E+00
        -11   -1    0    0    0    0  0.00000000000E+00  0.00000000000E+00  0.45593999997E+02  0.45594000000E+02  0.51100000000E-03 0.  1.
         11   -1    0    0    0    0 -0.00000000000E+00 -0.00000000000E+00 -0.45593999997E+02  0.45594000000E+02  0.51100000000E-03 0. -1.
    9900012    2    1    2    0    0 -0.80643876388E+00  0.61816433004E+00  0.60060754638E+00  0.90007661047E+02  0.89999921373E+02 0.  0.
         12    1    1    2    0    0  0.80643876388E+00 -0.61816433004E+00 -0.60060754638E+00  0.11803389528E+01  0.00000000000E+00 0. -1.
         11    1    3    3    0    0  0.33687553459E+01  0.33385473097E+02 -0.92281277702E+01  0.34800814198E+02  0.51100000000E-03 0. -1.
        -11    1    3    3    0    0  0.59105491796E+01  0.81552870418E+01 -0.40174769290E+01  0.10843588865E+02  0.51100000000E-03 0.  1.
        -12    1    3    3    0    0 -0.10085743289E+02 -0.40922595808E+02  0.13846212246E+02  0.44363257984E+02  0.00000000000E+00 0.  1.
</event>
<event>
 7    1  0.2000468E-015  0.9000776E+02  0.7816164E-02  0.1186339E+00
        -11   -1    0    0    0    0  0.00000000000E+00  0.00000000000E+00  0.45593999997E+02  0.45594000000E+02  0.51100000000E-03 0. -1.
         11   -1    0    0    0    0 -0.00000000000E+00 -0.00000000000E+00 -0.45593999997E+02  0.45594000000E+02  0.51100000000E-03 0.  1.
    9900012    2    1    2    0    0  0.53530621538E+00  0.19192199485E+00 -0.10342044849E+01  0.90007760315E+02  0.90000021952E+02 0.  0.
         12    1    1    2    0    0 -0.53530621538E+00 -0.19192199485E+00  0.10342044849E+01  0.11802396845E+01  0.00000000000E+00 0. -1.
         11    1    3    3    0    0  0.23830259535E+02 -0.38794289761E+01  0.22494332693E+02  0.32998882440E+02  0.51100000000E-03 0. -1.
        -11    1    3    3    0    0  0.73590706054E+01 -0.53183758448E+01  0.79575481814E+01  0.12073260335E+02  0.51100000000E-03 0.  1.
        -12    1    3    3    0    0 -0.30654023925E+02  0.93897268158E+01 -0.31486085359E+02  0.44935617541E+02  0.00000000000E+00 0.  1.
</event>
<event>
 7    1  0.2000468E-015  0.9000765E+02  0.7816164E-02  0.1186339E+00
        -11   -1    0    0    0    0  0.00000000000E+00  0.00000000000E+00  0.45593999997E+02  0.45594000000E+02  0.51100000000E-03 0. -1.
         11   -1    0    0    0    0 -0.00000000000E+00 -0.00000000000E+00 -0.45593999997E+02  0.45594000000E+02  0.51100000000E-03 0.  1.
    9900012    2    1    2    0    0 -0.82654191949E+00 -0.78227240972E+00 -0.31323357419E+00  0.90007645418E+02  0.89999905537E+02 0.  0.
         12    1    1    2    0    0  0.82654191949E+00  0.78227240972E+00  0.31323357419E+00  0.11803545822E+01  0.00000000000E+00 0. -1.
         11    1    3    3    0    0 -0.12097402497E+02  0.33279510272E+02  0.63023549356E+01  0.35966548752E+02  0.51100000000E-03 0. -1.
        -11    1    3    3    0    0 -0.64058355662E+01  0.59350722833E+01  0.30623770541E+01  0.92540783329E+01  0.51100000000E-03 0.  1.
        -12    1    3    3    0    0  0.17676696144E+02 -0.39996854965E+02 -0.96779655638E+01  0.44787018333E+02  0.00000000000E+00 0.  1.
</event>
<event>
 7    1  0.2000468E-015  0.9000776E+02  0.7816164E-02  0.1186339E+00
        -11   -1    0    0    0    0  0.00000000000E+00  0.00000000000E+00  0.45593999997E+02  0.45594000000E+02  0.51100000000E-03 0.  1.
         11   -1    0    0    0    0 -0.00000000000E+00 -0.00000000000E+00 -0.45593999997E+02  0.45594000000E+02  0.51100000000E-03 0. -1.
    9900012    2    1    2    0    0 -0.10900459053E+01 -0.26088987849E+00  0.36973009454E+00  0.90007761064E+02  0.90000022710E+02 0.  0.
         12    1    1    2    0    0  0.10900459053E+01  0.26088987849E+00 -0.36973009454E+00  0.11802389365E+01  0.00000000000E+00 0. -1.
         11    1    3    3    0    0  0.16766667972E+02 -0.10738848102E+02 -0.36697595101E+02  0.41751137708E+02  0.51100000000E-03 0. -1.
        -11    1    3    3    0    0 -0.25286646332E+01  0.85902095535E+01  0.98570393288E+00  0.90087433921E+01  0.51100000000E-03 0.  1.
        -12    1    3    3    0    0 -0.15328049244E+02  0.18877486699E+01  0.36081621263E+02  0.39247879963E+02  0.00000000000E+00 0.  1.
</event>
<event>
 7    1  0.2000468E-015  0.9000754E+02  0.7816164E-02  0.1186339E+00
        -11   -1    0    0    0    0  0.00000000000E+00  0.00000000000E+00  0.45593999997E+02  0.45594000000E+02  0.51100000000E-03 0.  1.
         11   -1    0    0    0    0 -0.00000000000E+00 -0.00000000000E+00 -0.45593999997E+02  0.45594000000E+02  0.51100000000E-03 0. -1.
    9900012    2    1    2    0    0  0.70263567994E+00  0.94677994268E+00 -0.58180196822E-01  0.90007544963E+02  0.89999803757E+02 0.  0.
         12    1    1    2    0    0 -0.70263567994E+00 -0.94677994268E+00  0.58180196822E-01  0.11804550368E+01  0.00000000000E+00 0. -1.
         11    1    3    3    0    0  0.74395171984E+00 -0.23773356988E+02 -0.25768279289E+02  0.35067508957E+02  0.51100000000E-03 0. -1.
        -11    1    3    3    0    0  0.42945291876E+01 -0.70185270295E+01 -0.57525867256E+01  0.10039669163E+02  0.51100000000E-03 0.  1.
        -12    1    3    3    0    0 -0.43358452275E+01  0.31738663960E+02  0.31462685818E+02  0.44900366844E+02  0.00000000000E+00 0.  1.
</event>
<event>
 7    1  0.2000468E-015  0.9000778E+02  0.7816164E-02  0.1186339E+00
        -11   -1    0    0    0    0  0.00000000000E+00  0.00000000000E+00  0.45593999997E+02  0.45594000000E+02  0.51100000000E-03 0.  1.
         11   -1    0    0    0    0 -0.00000000000E+00 -0.00000000000E+00 -0.45593999997E+02  0.45594000000E+02  0.51100000000E-03 0. -1.
    9900012    2    1    2    0    0  0.31900793549E+00 -0.62410026441E+00  0.94955494461E+00  0.90007778921E+02  0.90000040803E+02 0.  0.
         12    1    1    2    0    0 -0.31900793549E+00  0.62410026441E+00 -0.94955494461E+00  0.11802210792E+01  0.00000000000E+00 0. -1.
         11    1    3    3    0    0  0.20838161502E+02  0.28147160802E+02 -0.15701289100E+02  0.38379970240E+02  0.51100000000E-03 0. -1.
        -11    1    3    3    0    0 -0.14921203572E+02 -0.56788927963E+01 -0.75951315616E+01  0.17679880178E+02  0.51100000000E-03 0.  1.
        -12    1    3    3    0    0 -0.55979499945E+01 -0.23092368270E+02  0.24245975606E+02  0.33947928502E+02  0.00000000000E+00 0.  1.
</event>
<event>
 7    1  0.2023932E-015  0.9000774E+02  0.7816164E-02  0.1186339E+00
        -11   -1    0    0    0    0  0.00000000000E+00  0.00000000000E+00  0.45593999997E+02  0.45594000000E+02  0.51100000000E-03 0.  1.
         11   -1    0    0    0    0 -0.00000000000E+00 -0.00000000000E+00 -0.45593999997E+02  0.45594000000E+02  0.51100000000E-03 0. -1.
    9900012    2    1    2    0    0 -0.80073598625E+00 -0.35567812023E+00  0.79077602793E+00  0.90007740803E+02  0.90000002182E+02 0.  0.
         12    1    1    2    0    0  0.80073598625E+00  0.35567812023E+00 -0.79077602793E+00  0.11802591966E+01  0.00000000000E+00 0. -1.
         11    1    3    3    0    0 -0.27590524584E+01 -0.25435235400E+02 -0.27446192984E+02  0.37521421614E+02  0.51100000000E-03 0. -1.
        -11    1    3    3    0    0  0.27875704490E+01 -0.89483397705E+01  0.21879155707E+01  0.96244640610E+01  0.51100000000E-03 0.  1.
        -12    1    3    3    0    0 -0.82925397680E+00  0.34027897051E+02  0.26049053441E+02  0.42861855128E+02  0.00000000000E+00 0.  1.
</event>
<event>
 7    1  0.2000468E-015  0.9000764E+02  0.7816164E-02  0.1186339E+00
        -11   -1    0    0    0    0  0.00000000000E+00  0.00000000000E+00  0.45593999997E+02  0.45594000000E+02  0.51100000000E-03 0.  1.
         11   -1    0    0    0    0 -0.00000000000E+00 -0.00000000000E+00 -0.45593999997E+02  0.45594000000E+02  0.51100000000E-03 0. -1.
    9900012    2    1    2    0    0 -0.46338730869E-01  0.51938376129E+00  0.10589371520E+01  0.90007637911E+02  0.89999897931E+02 0.  0.
         12    1    1    2    0    0  0.46338730869E-01 -0.51938376129E+00 -0.10589371520E+01  0.11803620891E+01  0.00000000000E+00 0. -1.
         11    1    3    3    0    0 -0.12181617649E+02 -0.24736655130E+02 -0.30107265681E+02  0.40825743871E+02  0.51100000000E-03 0. -1.
        -11    1    3    3    0    0  0.10073469021E+02 -0.14734760458E+01  0.37848407245E+01  0.10861442323E+02  0.51100000000E-03 0.  1.
        -12    1    3    3    0    0  0.20618098976E+01  0.26729514937E+02  0.27381362109E+02  0.38320451717E+02  0.00000000000E+00 0.  1.
</event>
<event>
 7    1  0.2000468E-015  0.9000777E+02  0.7816164E-02  0.1186339E+00
        -11   -1    0    0    0    0  0.00000000000E+00  0.00000000000E+00  0.45593999997E+02  0.45594000000E+02  0.51100000000E-03 0. -1.
         11   -1    0    0    0    0 -0.00000000000E+00 -0.00000000000E+00 -0.45593999997E+02  0.45594000000E+02  0.51100000000E-03 0.  1.
    9900012    2    1    2    0    0  0.27336761631E+00  0.33603319302E+00 -0.10978567756E+01  0.90007772200E+02  0.90000033993E+02 0.  0.
         12    1    1    2    0    0 -0.27336761631E+00 -0.33603319302E+00  0.10978567756E+01  0.11802278001E+01  0.00000000000E+00 0. -1.
         11    1    3    3    0    0  0.23275675394E+02  0.28747628984E+02  0.43642278413E+01  0.37245532915E+02  0.51100000000E-03 0. -1.
        -11    1    3    3    0    0  0.42822611123E+01  0.64066662101E+01 -0.35532738823E+01  0.84858050711E+01  0.51100000000E-03 0.  1.
        -12    1    3    3    0    0 -0.27284568890E+02 -0.34818262001E+02 -0.19088107347E+01  0.44276434214E+02  0.00000000000E+00 0.  1.
</event>
<event>
 7    1  0.2000468E-015  0.9000775E+02  0.7816164E-02  0.1186339E+00
        -11   -1    0    0    0    0  0.00000000000E+00  0.00000000000E+00  0.45593999997E+02  0.45594000000E+02  0.51100000000E-03 0. -1.
         11   -1    0    0    0    0 -0.00000000000E+00 -0.00000000000E+00 -0.45593999997E+02  0.45594000000E+02  0.51100000000E-03 0.  1.
    9900012    2    1    2    0    0  0.59325297987E+00  0.89771282147E+00 -0.48492510871E+00  0.90007750124E+02  0.90000011626E+02 0.  0.
         12    1    1    2    0    0 -0.59325297987E+00 -0.89771282147E+00  0.48492510871E+00  0.11802498757E+01  0.00000000000E+00 0. -1.
         11    1    3    3    0    0  0.76613990733E+01  0.45681534194E+01 -0.11735205379E+01  0.89967889904E+01  0.51100000000E-03 0. -1.
        -11    1    3    3    0    0  0.31707073560E+02  0.15416450932E+02 -0.96904475363E+01  0.36563783267E+02  0.51100000000E-03 0.  1.
         12    1    3    3    0    0 -0.38775219654E+02 -0.19086891530E+02  0.10379042966E+02  0.44447177867E+02  0.00000000000E+00 0. -1.
</event>
<event>
 7    1  0.2000468E-015  0.9000776E+02  0.7816164E-02  0.1186339E+00
        -11   -1    0    0    0    0  0.00000000000E+00  0.00000000000E+00  0.45593999997E+02  0.45594000000E+02  0.51100000000E-03 0. -1.
         11   -1    0    0    0    0 -0.00000000000E+00 -0.00000000000E+00 -0.45593999997E+02  0.45594000000E+02  0.51100000000E-03 0.  1.
    9900012    2    1    2    0    0 -0.89612547405E+00  0.56019235842E+00 -0.52546264600E+00  0.90007759628E+02  0.90000021255E+02 0.  0.
         12    1    1    2    0    0  0.89612547405E+00 -0.56019235842E+00  0.52546264600E+00  0.11802403721E+01  0.00000000000E+00 0. -1.
         11    1    3    3    0    0 -0.58045954543E+00  0.96332619055E+00 -0.10394136789E+02  0.10454808008E+02  0.51100000000E-03 0. -1.
        -11    1    3    3    0    0 -0.31762243574E+02 -0.23654426323E+02  0.79783712146E+01  0.40398346613E+02  0.51100000000E-03 0.  1.
         12    1    3    3    0    0  0.31446577645E+02  0.23251292491E+02  0.18903029286E+01  0.39154605007E+02  0.00000000000E+00 0. -1.
</event>
<event>
 7    1  0.2000468E-015  0.9000777E+02  0.7816164E-02  0.1186339E+00
        -11   -1    0    0    0    0  0.00000000000E+00  0.00000000000E+00  0.45593999997E+02  0.45594000000E+02  0.51100000000E-03 0. -1.
         11   -1    0    0    0    0 -0.00000000000E+00 -0.00000000000E+00 -0.45593999997E+02  0.45594000000E+02  0.51100000000E-03 0.  1.
    9900012    2    1    2    0    0  0.32150326884E+00  0.42532811601E+00 -0.10529380051E+01  0.90007768327E+02  0.90000030069E+02 0.  0.
         12    1    1    2    0    0 -0.32150326884E+00 -0.42532811601E+00  0.10529380051E+01  0.11802316725E+01  0.00000000000E+00 0. -1.
         11    1    3    3    0    0  0.72748372845E+01 -0.30846998243E+02 -0.20574827782E+02  0.37786030443E+02  0.51100000000E-03 0. -1.
        -11    1    3    3    0    0 -0.15174254819E+01 -0.45571087487E+01 -0.61553509648E+01  0.78075710692E+01  0.51100000000E-03 0.  1.
        -12    1    3    3    0    0 -0.54359085338E+01  0.35829435108E+02  0.25677240742E+02  0.44414166815E+02  0.00000000000E+00 0.  1.
</event>
<event>
 7    1  0.2000468E-015  0.9000774E+02  0.7816164E-02  0.1186339E+00
        -11   -1    0    0    0    0  0.00000000000E+00  0.00000000000E+00  0.45593999997E+02  0.45594000000E+02  0.51100000000E-03 0. -1.
         11   -1    0    0    0    0 -0.00000000000E+00 -0.00000000000E+00 -0.45593999997E+02  0.45594000000E+02  0.51100000000E-03 0.  1.
    9900012    2    1    2    0    0 -0.82165186979E+00  0.83305096538E+00  0.15470334273E+00  0.90007737813E+02  0.89999999152E+02 0.  0.
         12    1    1    2    0    0  0.82165186979E+00 -0.83305096538E+00 -0.15470334273E+00  0.11802621871E+01  0.00000000000E+00 0. -1.
         11    1    3    3    0    0 -0.35146562162E+02  0.72527339090E+01 -0.41394968677E+00  0.35889473883E+02  0.51100000000E-03 0. -1.
        -11    1    3    3    0    0 -0.90087293829E+01  0.34582649670E+01 -0.46663796510E+00  0.96609809506E+01  0.51100000000E-03 0.  1.
        -12    1    3    3    0    0  0.43333639676E+02 -0.98779479106E+01  0.10352909946E+01  0.44457282979E+02  0.00000000000E+00 0.  1.
</event>
<event>
 7    1  0.2000468E-015  0.9000778E+02  0.7816164E-02  0.1186339E+00
        -11   -1    0    0    0    0  0.00000000000E+00  0.00000000000E+00  0.45593999997E+02  0.45594000000E+02  0.51100000000E-03 0.  1.
         11   -1    0    0    0    0 -0.00000000000E+00 -0.00000000000E+00 -0.45593999997E+02  0.45594000000E+02  0.51100000000E-03 0. -1.
    9900012    2    1    2    0    0  0.11431343516E+01 -0.22822320963E+00 -0.18458405044E+00  0.90007782541E+02  0.90000044470E+02 0.  0.
         12    1    1    2    0    0 -0.11431343516E+01  0.22822320963E+00  0.18458405044E+00  0.11802174591E+01  0.00000000000E+00 0. -1.
         11    1    3    3    0    0 -0.71773610933E+01 -0.48402277947E+01  0.67492499713E+01  0.10977007461E+02  0.51100000000E-03 0. -1.
        -11    1    3    3    0    0 -0.20951684809E+02 -0.19107378825E+02  0.18242468712E+02  0.33717246134E+02  0.51100000000E-03 0.  1.
         12    1    3    3    0    0  0.29272180254E+02  0.23719383410E+02 -0.25176302734E+02  0.45313528946E+02  0.00000000000E+00 0. -1.
</event>
<event>
 8    1  0.2000468E-015  0.9000777E+02  0.7816164E-02  0.1186339E+00
        -11   -1    0    0    0    0  0.00000000000E+00  0.00000000000E+00  0.45593999997E+02  0.45594000000E+02  0.51100000000E-03 0.  1.
         11   -1    0    0    0    0 -0.00000000000E+00 -0.00000000000E+00 -0.45593999997E+02  0.45594000000E+02  0.51100000000E-03 0. -1.
    9900012    2    1    2    0    0 -0.50448652884E+00  0.33554914865E+00  0.10128425533E+01  0.90007767003E+02  0.90000028728E+02 0.  0.
         23    2    3    3    0    0  0.46969689578E+01  0.12110741981E+02 -0.63272635371E+01  0.75189283179E+02  0.73787956012E+02 0.  0.
         12    1    1    2    0    0  0.50448652884E+00 -0.33554914865E+00 -0.10128425533E+01  0.11802329968E+01  0.00000000000E+00 0. -1.
         11    1    4    4    0    0 -0.24701151938E+01  0.41619478769E+02 -0.13799055147E+02  0.43916926182E+02  0.51100000000E-03 0.  1.
        -11    1    4    4    0    0  0.71670841516E+01 -0.29508736787E+02  0.74717916097E+01  0.31272356997E+02  0.51100000000E-03 0. -1.
        -12    1    3    3    0    0 -0.52014554867E+01 -0.11775192833E+02  0.73401060905E+01  0.14818483824E+02  0.00000000000E+00 0.  1.
</event>
<event>
 7    1  0.2598282E-015  0.9000770E+02  0.7816164E-02  0.1186339E+00
        -11   -1    0    0    0    0  0.00000000000E+00  0.00000000000E+00  0.45593999997E+02  0.45594000000E+02  0.51100000000E-03 0. -1.
         11   -1    0    0    0    0 -0.00000000000E+00 -0.00000000000E+00 -0.45593999997E+02  0.45594000000E+02  0.51100000000E-03 0.  1.
    9900012    2    1    2    0    0  0.49099530252E+00  0.17467770704E+00 -0.10590213796E+01  0.90007697085E+02  0.89999957887E+02 0.  0.
         12    1    1    2    0    0 -0.49099530252E+00 -0.17467770704E+00  0.10590213796E+01  0.11803029149E+01  0.00000000000E+00 0. -1.
         11    1    3    3    0    0 -0.23571561161E+02 -0.15864041975E+02  0.31865060625E+02  0.42692720835E+02  0.51100000000E-03 0. -1.
        -11    1    3    3    0    0 -0.15121378879E+01  0.65166534265E+01 -0.63102770241E+01  0.91963541284E+01  0.51100000000E-03 0.  1.
        -12    1    3    3    0    0  0.25574694352E+02  0.95220662559E+01 -0.26613804980E+02  0.38118622122E+02  0.00000000000E+00 0.  1.
</event>
<event>
 7    1  0.2000468E-015  0.9000780E+02  0.7816164E-02  0.1186339E+00
        -11   -1    0    0    0    0  0.00000000000E+00  0.00000000000E+00  0.45593999997E+02  0.45594000000E+02  0.51100000000E-03 0. -1.
         11   -1    0    0    0    0 -0.00000000000E+00 -0.00000000000E+00 -0.45593999997E+02  0.45594000000E+02  0.51100000000E-03 0.  1.
    9900012    2    1    2    0    0  0.13622926917E+00 -0.32878068227E+00 -0.11252586717E+01  0.90007804156E+02  0.90000066371E+02 0.  0.
         12    1    1    2    0    0 -0.13622926917E+00  0.32878068227E+00  0.11252586717E+01  0.11801958435E+01  0.00000000000E+00 0. -1.
         11    1    3    3    0    0  0.18041416550E+02 -0.12030405181E+02  0.29565504204E+02  0.36665275112E+02  0.51100000000E-03 0. -1.
        -11    1    3    3    0    0  0.48740654836E+01 -0.13194034687E+01  0.62480501065E+01  0.80333971797E+01  0.51100000000E-03 0.  1.
        -12    1    3    3    0    0 -0.22779252764E+02  0.13021027968E+02 -0.36938812982E+02  0.45309131865E+02  0.00000000000E+00 0.  1.
</event>
<event>
 7    1  0.2000468E-015  0.9000767E+02  0.7816164E-02  0.1186339E+00
        -11   -1    0    0    0    0  0.00000000000E+00  0.00000000000E+00  0.45593999997E+02  0.45594000000E+02  0.51100000000E-03 0. -1.
         11   -1    0    0    0    0 -0.00000000000E+00 -0.00000000000E+00 -0.45593999997E+02  0.45594000000E+02  0.51100000000E-03 0.  1.
    9900012    2    1    2    0    0 -0.10618451610E+01  0.34729621578E+00 -0.38084139332E+00  0.90007673785E+02  0.89999934279E+02 0.  0.
         12    1    1    2    0    0  0.10618451610E+01 -0.34729621578E+00  0.38084139332E+00  0.11803262152E+01  0.00000000000E+00 0. -1.
         11    1    3    3    0    0  0.27742197844E+00 -0.86359660026E+01  0.10130693803E+02  0.13314947576E+02  0.51100000000E-03 0. -1.
        -11    1    3    3    0    0 -0.17270530090E+02 -0.39522855307E+00 -0.39043865353E+02  0.42694857268E+02  0.51100000000E-03 0.  1.
         12    1    3    3    0    0  0.15931262950E+02  0.93784907714E+01  0.28532330157E+02  0.33997868941E+02  0.00000000000E+00 0. -1.
</event>
<event>
 7    1  0.2000468E-015  0.9000772E+02  0.7816164E-02  0.1186339E+00
        -11   -1    0    0    0    0  0.00000000000E+00  0.00000000000E+00  0.45593999997E+02  0.45594000000E+02  0.51100000000E-03 0. -1.
         11   -1    0    0    0    0 -0.00000000000E+00 -0.00000000000E+00 -0.45593999997E+02  0.45594000000E+02  0.51100000000E-03 0.  1.
    9900012    2    1    2    0    0  0.30107860796E+00  0.18960304342E+00 -0.11253708823E+01  0.90007721531E+02  0.89999982655E+02 0.  0.
         12    1    1    2    0    0 -0.30107860796E+00 -0.18960304342E+00  0.11253708823E+01  0.11802784692E+01  0.00000000000E+00 0. -1.
         11    1    3    3    0    0 -0.66426049937E+01  0.46535143182E+01 -0.57673774593E+01  0.99519867178E+01  0.51100000000E-03 0. -1.
        -11    1    3    3    0    0 -0.33892937299E+02  0.32597458803E+01 -0.10796872654E+02  0.35720156793E+02  0.51100000000E-03 0.  1.
         12    1    3    3    0    0  0.40836620901E+02 -0.77236571551E+01  0.15438879231E+02  0.44335578020E+02  0.00000000000E+00 0. -1.
</event>
<event>
 7    1  0.2000468E-015  0.9000780E+02  0.7816164E-02  0.1186339E+00
        -11   -1    0    0    0    0  0.00000000000E+00  0.00000000000E+00  0.45593999997E+02  0.45594000000E+02  0.51100000000E-03 0. -1.
         11   -1    0    0    0    0 -0.00000000000E+00 -0.00000000000E+00 -0.45593999997E+02  0.45594000000E+02  0.51100000000E-03 0.  1.
    9900012    2    1    2    0    0 -0.18687746641E+00  0.10024903959E+01 -0.59411165952E+00  0.90007797117E+02  0.90000059239E+02 0.  0.
         12    1    1    2    0    0  0.18687746641E+00 -0.10024903959E+01  0.59411165952E+00  0.11802028831E+01  0.00000000000E+00 0. -1.
         11    1    3    3    0    0 -0.41209923108E+01 -0.30696088857E+01  0.33669622789E+01  0.61434120476E+01  0.51100000000E-03 0. -1.
        -11    1    3    3    0    0  0.41580843384E+02 -0.99109591213E+01  0.39678145387E+01  0.42929444438E+02  0.51100000000E-03 0.  1.
         12    1    3    3    0    0 -0.37646728540E+02  0.13983058403E+02 -0.79288884771E+01  0.40934940632E+02  0.00000000000E+00 0. -1.
</event>
<event>
 7    1  0.2000468E-015  0.9000770E+02  0.7816164E-02  0.1186339E+00
        -11   -1    0    0    0    0  0.00000000000E+00  0.00000000000E+00  0.45593999997E+02  0.45594000000E+02  0.51100000000E-03 0.  1.
         11   -1    0    0    0    0 -0.00000000000E+00 -0.00000000000E+00 -0.45593999997E+02  0.45594000000E+02  0.51100000000E-03 0. -1.
    9900012    2    1    2    0    0 -0.11214250876E+01  0.28747415451E+00 -0.22992776758E+00  0.90007702413E+02  0.89999963284E+02 0.  0.
         12    1    1    2    0    0  0.11214250876E+01 -0.28747415451E+00  0.22992776758E+00  0.11802975874E+01  0.00000000000E+00 0. -1.
         11    1    3    3    0    0 -0.70229805293E+01 -0.53425262992E+01  0.38524826699E+01  0.96284196915E+01  0.51100000000E-03 0. -1.
        -11    1    3    3    0    0 -0.26642892587E+02 -0.24253810543E+02 -0.34176560700E+01  0.36190764354E+02  0.51100000000E-03 0.  1.
         12    1    3    3    0    0  0.32544448028E+02  0.29883810997E+02 -0.66475436750E+00  0.44188518367E+02  0.00000000000E+00 0. -1.
</event>
<event>
 7    1  0.2000468E-015  0.9000779E+02  0.7816164E-02  0.1186339E+00
        -11   -1    0    0    0    0  0.00000000000E+00  0.00000000000E+00  0.45593999997E+02  0.45594000000E+02  0.51100000000E-03 0.  1.
         11   -1    0    0    0    0 -0.00000000000E+00 -0.00000000000E+00 -0.45593999997E+02  0.45594000000E+02  0.51100000000E-03 0. -1.
    9900012    2    1    2    0    0 -0.35243567054E+00  0.84920504448E+00 -0.73996074891E+00  0.90007787299E+02  0.90000049291E+02 0.  0.
         12    1    1    2    0    0  0.35243567054E+00 -0.84920504448E+00  0.73996074891E+00  0.11802127009E+01  0.00000000000E+00 0. -1.
         11    1    3    3    0    0  0.88358325945E+01  0.25975359133E+01  0.12668271560E+01  0.92964499549E+01  0.51100000000E-03 0. -1.
        -11    1    3    3    0    0 -0.24244460293E+00  0.29714533954E+02  0.24576201039E+02  0.38561664451E+02  0.51100000000E-03 0.  1.
         12    1    3    3    0    0 -0.89458236621E+01 -0.31462864822E+02 -0.26582988944E+02  0.42149672893E+02  0.00000000000E+00 0. -1.
</event>
<event>
 7    1  0.2000468E-015  0.9000773E+02  0.7816164E-02  0.1186339E+00
        -11   -1    0    0    0    0  0.00000000000E+00  0.00000000000E+00  0.45593999997E+02  0.45594000000E+02  0.51100000000E-03 0.  1.
         11   -1    0    0    0    0 -0.00000000000E+00 -0.00000000000E+00 -0.45593999997E+02  0.45594000000E+02  0.51100000000E-03 0. -1.
    9900012    2    1    2    0    0 -0.30379432514E+00  0.95205434951E+00 -0.62795850461E+00  0.90007732929E+02  0.89999994203E+02 0.  0.
         12    1    1    2    0    0  0.30379432514E+00 -0.95205434951E+00  0.62795850461E+00  0.11802670714E+01  0.00000000000E+00 0. -1.
         11    1    3    3    0    0  0.38351294389E-01 -0.11508792823E+01  0.10201838375E+02  0.10266620692E+02  0.51100000000E-03 0. -1.
        -11    1    3    3    0    0 -0.37193989625E+01  0.12543493597E+01  0.34276540933E+02  0.34500559120E+02  0.51100000000E-03 0.  1.
         12    1    3    3    0    0  0.33772533429E+01  0.84858427212E+00 -0.45106337813E+02  0.45240553117E+02  0.00000000000E+00 0. -1.
</event>
<event>
 7    1  0.2000468E-015  0.9000775E+02  0.7816164E-02  0.1186339E+00
        -11   -1    0    0    0    0  0.00000000000E+00  0.00000000000E+00  0.45593999997E+02  0.45594000000E+02  0.51100000000E-03 0.  1.
         11   -1    0    0    0    0 -0.00000000000E+00 -0.00000000000E+00 -0.45593999997E+02  0.45594000000E+02  0.51100000000E-03 0. -1.
    9900012    2    1    2    0    0 -0.67938662479E+00  0.85327266300E+00  0.45095441583E+00  0.90007745659E+02  0.90000007102E+02 0.  0.
         12    1    1    2    0    0  0.67938662479E+00 -0.85327266300E+00 -0.45095441583E+00  0.11802543406E+01  0.00000000000E+00 0. -1.
         11    1    3    3    0    0 -0.64206313503E+01 -0.12993767316E+02  0.10046671885E+02  0.17635138566E+02  0.51100000000E-03 0. -1.
        -11    1    3    3    0    0  0.29614090562E+02 -0.14124148998E+02  0.42392399505E+01  0.33082580014E+02  0.51100000000E-03 0.  1.
         12    1    3    3    0    0 -0.23872845836E+02  0.27971188978E+02 -0.13834957420E+02  0.39290027080E+02  0.00000000000E+00 0. -1.
</event>
<event>
 7    1  0.2000468E-015  0.9000773E+02  0.7816164E-02  0.1186339E+00
        -11   -1    0    0    0    0  0.00000000000E+00  0.00000000000E+00  0.45593999997E+02  0.45594000000E+02  0.51100000000E-03 0.  1.
         11   -1    0    0    0    0 -0.00000000000E+00 -0.00000000000E+00 -0.45593999997E+02  0.45594000000E+02  0.51100000000E-03 0. -1.
    9900012    2    1    2    0    0 -0.17769944700E+00  0.55169481336E+00  0.10281483498E+01  0.90007731687E+02  0.89999992946E+02 0.  0.
         12    1    1    2    0    0  0.17769944700E+00 -0.55169481336E+00 -0.10281483498E+01  0.11802683126E+01  0.00000000000E+00 0. -1.
         11    1    3    3    0    0 -0.30664060903E+01  0.16760189621E+02 -0.30644948436E+02  0.35063081259E+02  0.51100000000E-03 0. -1.
        -11    1    3    3    0    0  0.25281360510E+01  0.46911715919E+01 -0.82841833211E+01  0.98501906761E+01  0.51100000000E-03 0.  1.
        -12    1    3    3    0    0  0.36057059223E+00 -0.20899666400E+02  0.39957280107E+02  0.45094459752E+02  0.00000000000E+00 0.  1.
</event>
<event>
 7    1  0.2000468E-015  0.9000755E+02  0.7816164E-02  0.1186339E+00
        -11   -1    0    0    0    0  0.00000000000E+00  0.00000000000E+00  0.45593999997E+02  0.45594000000E+02  0.51100000000E-03 0.  1.
         11   -1    0    0    0    0 -0.00000000000E+00 -0.00000000000E+00 -0.45593999997E+02  0.45594000000E+02  0.51100000000E-03 0. -1.
    9900012    2    1    2    0    0 -0.55266139345E+00 -0.24180031231E+00  0.10146753245E+01  0.90007547535E+02  0.89999806363E+02 0.  0.
         12    1    1    2    0    0  0.55266139345E+00  0.24180031231E+00 -0.10146753245E+01  0.11804524646E+01  0.00000000000E+00 0. -1.
         11    1    3    3    0    0  0.68951527933E+00  0.27887174125E+02 -0.21730750106E+02  0.35360930593E+02  0.51100000000E-03 0. -1.
        -11    1    3    3    0    0 -0.33783936330E+01  0.59693535109E+01  0.19091918115E+02  0.20286647393E+02  0.51100000000E-03 0.  1.
        -12    1    3    3    0    0  0.21362169602E+01 -0.34098327948E+02  0.36535073149E+01  0.34359969549E+02  0.00000000000E+00 0.  1.
</event>
<event>
 7    1  0.2000468E-015  0.9000782E+02  0.7816164E-02  0.1186339E+00
        -11   -1    0    0    0    0  0.00000000000E+00  0.00000000000E+00  0.45593999997E+02  0.45594000000E+02  0.51100000000E-03 0. -1.
         11   -1    0    0    0    0 -0.00000000000E+00 -0.00000000000E+00 -0.45593999997E+02  0.45594000000E+02  0.51100000000E-03 0.  1.
    9900012    2    1    2    0    0  0.11411706405E+01 -0.11551211939E+00 -0.27787433875E+00  0.90007818815E+02  0.90000081224E+02 0.  0.
         12    1    1    2    0    0 -0.11411706405E+01  0.11551211939E+00  0.27787433875E+00  0.11801811847E+01  0.00000000000E+00 0. -1.
         11    1    3    3    0    0  0.25557301394E+01  0.68647481823E+01  0.43196619059E+01  0.85038816662E+01  0.51100000000E-03 0. -1.
        -11    1    3    3    0    0 -0.33782919691E+02  0.19453160109E+02 -0.71579896488E+01  0.39635185343E+02  0.51100000000E-03 0.  1.
         12    1    3    3    0    0  0.32368360193E+02 -0.26433420411E+02  0.25604534042E+01  0.41868751806E+02  0.00000000000E+00 0. -1.
</event>
<event>
 7    1  0.2000468E-015  0.9000794E+02  0.7816164E-02  0.1186339E+00
        -11   -1    0    0    0    0  0.00000000000E+00  0.00000000000E+00  0.45593999997E+02  0.45594000000E+02  0.51100000000E-03 0. -1.
         11   -1    0    0    0    0 -0.00000000000E+00 -0.00000000000E+00 -0.45593999997E+02  0.45594000000E+02  0.51100000000E-03 0.  1.
    9900012    2    1    2    0    0 -0.14528775310E+00  0.10711873195E+01 -0.47327448306E+00  0.90007940874E+02  0.90000204893E+02 0.  0.
         12    1    1    2    0    0  0.14528775310E+00 -0.10711873195E+01  0.47327448306E+00  0.11800591261E+01  0.00000000000E+00 0. -1.
         11    1    3    3    0    0 -0.14139197799E+02 -0.15572777220E+02  0.37306051138E+02  0.42827208134E+02  0.51100000000E-03 0. -1.
        -11    1    3    3    0    0  0.73268132830E+01 -0.16896241361E+01 -0.49811801390E+01  0.90193779410E+01  0.51100000000E-03 0.  1.
        -12    1    3    3    0    0  0.66670967630E+01  0.18333588676E+02 -0.32798145482E+02  0.38161354799E+02  0.00000000000E+00 0.  1.
</event>
<event>
 7    1  0.2000468E-015  0.9000771E+02  0.7816164E-02  0.1186339E+00
        -11   -1    0    0    0    0  0.00000000000E+00  0.00000000000E+00  0.45593999997E+02  0.45594000000E+02  0.51100000000E-03 0. -1.
         11   -1    0    0    0    0 -0.00000000000E+00 -0.00000000000E+00 -0.45593999997E+02  0.45594000000E+02  0.51100000000E-03 0.  1.
    9900012    2    1    2    0    0 -0.10016241648E+01  0.38737504673E+00  0.48966819736E+00  0.90007709638E+02  0.89999970606E+02 0.  0.
         12    1    1    2    0    0  0.10016241648E+01 -0.38737504673E+00 -0.48966819736E+00  0.11802903617E+01  0.00000000000E+00 0. -1.
         11    1    3    3    0    0  0.40112232955E+00  0.96778411092E+01  0.82169935904E+00  0.97209411970E+01  0.51100000000E-03 0. -1.
        -11    1    3    3    0    0 -0.22107512419E+01 -0.37558808792E+00 -0.39776340959E+02  0.39839500346E+02  0.51100000000E-03 0.  1.
         12    1    3    3    0    0  0.80800474758E+00 -0.89148779745E+01  0.39444309797E+02  0.40447268095E+02  0.00000000000E+00 0. -1.
</event>
<event>
 7    1  0.2000468E-015  0.9000772E+02  0.7816164E-02  0.1186339E+00
        -11   -1    0    0    0    0  0.00000000000E+00  0.00000000000E+00  0.45593999997E+02  0.45594000000E+02  0.51100000000E-03 0.  1.
         11   -1    0    0    0    0 -0.00000000000E+00 -0.00000000000E+00 -0.45593999997E+02  0.45594000000E+02  0.51100000000E-03 0. -1.
    9900012    2    1    2    0    0 -0.72416900024E+00  0.74291094107E+00 -0.56277766566E+00  0.90007722021E+02  0.89999983151E+02 0.  0.
         12    1    1    2    0    0  0.72416900024E+00 -0.74291094107E+00  0.56277766566E+00  0.11802779792E+01  0.00000000000E+00 0. -1.
         11    1    3    3    0    0 -0.10134730015E+02  0.17698366898E+02  0.75789830401E+00  0.20408805782E+02  0.51100000000E-03 0. -1.
        -11    1    3    3    0    0  0.16800381820E+02  0.21911735300E+02 -0.94981498688E+01  0.29199175063E+02  0.51100000000E-03 0.  1.
         12    1    3    3    0    0 -0.73898208053E+01 -0.38867191257E+02  0.81774738991E+01  0.40399741176E+02  0.00000000000E+00 0. -1.
</event>
<event>
 7    1  0.2000468E-015  0.9000776E+02  0.7816164E-02  0.1186339E+00
        -11   -1    0    0    0    0  0.00000000000E+00  0.00000000000E+00  0.45593999997E+02  0.45594000000E+02  0.51100000000E-03 0.  1.
         11   -1    0    0    0    0 -0.00000000000E+00 -0.00000000000E+00 -0.45593999997E+02  0.45594000000E+02  0.51100000000E-03 0. -1.
    9900012    2    1    2    0    0 -0.54191311155E+00 -0.25821348399E+00  0.10161811564E+01  0.90007759276E+02  0.90000020899E+02 0.  0.
         12    1    1    2    0    0  0.54191311155E+00  0.25821348399E+00 -0.10161811564E+01  0.11802407239E+01  0.00000000000E+00 0. -1.
         11    1    3    3    0    0 -0.19571658509E+02 -0.30891969012E+02 -0.97299303267E+01  0.37842239768E+02  0.51100000000E-03 0. -1.
        -11    1    3    3    0    0  0.35942084874E+01 -0.45145087390E+01 -0.76619482840E+01  0.95919015619E+01  0.51100000000E-03 0.  1.
        -12    1    3    3    0    0  0.15435536910E+02  0.35148264267E+02  0.18408059767E+02  0.42573617946E+02  0.00000000000E+00 0.  1.
</event>
<event>
 7    1  0.2000468E-015  0.9000779E+02  0.7816164E-02  0.1186339E+00
        -11   -1    0    0    0    0  0.00000000000E+00  0.00000000000E+00  0.45593999997E+02  0.45594000000E+02  0.51100000000E-03 0.  1.
         11   -1    0    0    0    0 -0.00000000000E+00 -0.00000000000E+00 -0.45593999997E+02  0.45594000000E+02  0.51100000000E-03 0. -1.
    9900012    2    1    2    0    0 -0.31958428179E+00  0.97968943354E+00 -0.57530641639E+00  0.90007786895E+02  0.90000048882E+02 0.  0.
         12    1    1    2    0    0  0.31958428179E+00 -0.97968943354E+00  0.57530641639E+00  0.11802131045E+01  0.00000000000E+00 0. -1.
         11    1    3    3    0    0  0.19472569146E+02  0.33165456196E+02  0.38363019570E+01  0.38650299440E+02  0.51100000000E-03 0. -1.
        -11    1    3    3    0    0  0.78517312567E+01 -0.17018998231E+00  0.30137391095E+01  0.84119719471E+01  0.51100000000E-03 0.  1.
        -12    1    3    3    0    0 -0.27643884685E+02 -0.32015576780E+02 -0.74253474829E+01  0.42945515508E+02  0.00000000000E+00 0.  1.
</event>
<event>
 7    1  0.2000468E-015  0.9000762E+02  0.7816164E-02  0.1186339E+00
        -11   -1    0    0    0    0  0.00000000000E+00  0.00000000000E+00  0.45593999997E+02  0.45594000000E+02  0.51100000000E-03 0.  1.
         11   -1    0    0    0    0 -0.00000000000E+00 -0.00000000000E+00 -0.45593999997E+02  0.45594000000E+02  0.51100000000E-03 0. -1.
    9900012    2    1    2    0    0 -0.10657073188E+01  0.26048195329E+00  0.43557201704E+00  0.90007616198E+02  0.89999875932E+02 0.  0.
         12    1    1    2    0    0  0.10657073188E+01 -0.26048195329E+00 -0.43557201704E+00  0.11803838017E+01  0.00000000000E+00 0. -1.
         11    1    3    3    0    0 -0.24600520569E+01  0.24799355741E+01  0.93872510794E+01  0.10016108010E+02  0.51100000000E-03 0. -1.
        -11    1    3    3    0    0 -0.26328443564E+02 -0.29395387797E+02  0.24276122062E+01  0.39536932930E+02  0.51100000000E-03 0.  1.
         12    1    3    3    0    0  0.27722788302E+02  0.27175934176E+02 -0.11379291269E+02  0.40454575259E+02  0.00000000000E+00 0. -1.
</event>
<event>
 7    1  0.2000468E-015  0.9000780E+02  0.7816164E-02  0.1186339E+00
        -11   -1    0    0    0    0  0.00000000000E+00  0.00000000000E+00  0.45593999997E+02  0.45594000000E+02  0.51100000000E-03 0.  1.
         11   -1    0    0    0    0 -0.00000000000E+00 -0.00000000000E+00 -0.45593999997E+02  0.45594000000E+02  0.51100000000E-03 0. -1.
    9900012    2    1    2    0    0 -0.90465434903E+00 -0.31787515131E+00 -0.68806686002E+00  0.90007796582E+02  0.90000058697E+02 0.  0.
         12    1    1    2    0    0  0.90465434903E+00  0.31787515131E+00  0.68806686002E+00  0.11802034176E+01  0.00000000000E+00 0. -1.
         11    1    3    3    0    0 -0.43346595838E-01  0.30964113377E+02  0.20229502129E+02  0.36986632082E+02  0.51100000000E-03 0. -1.
        -11    1    3    3    0    0  0.15627043436E+02 -0.10651600670E+02  0.65087019934E+00  0.18923126477E+02  0.51100000000E-03 0.  1.
        -12    1    3    3    0    0 -0.16488351189E+02 -0.20630387858E+02 -0.21568439188E+02  0.34098038024E+02  0.00000000000E+00 0.  1.
</event>
<event>
 7    1  0.2000468E-015  0.9000792E+02  0.7816164E-02  0.1186339E+00
        -11   -1    0    0    0    0  0.00000000000E+00  0.00000000000E+00  0.45593999997E+02  0.45594000000E+02  0.51100000000E-03 0.  1.
         11   -1    0    0    0    0 -0.00000000000E+00 -0.00000000000E+00 -0.45593999997E+02  0.45594000000E+02  0.51100000000E-03 0. -1.
    9900012    2    1    2    0    0 -0.25740332378E+00 -0.76471715708E+00  0.86112469295E+00  0.90007921808E+02  0.90000185576E+02 0.  0.
         12    1    1    2    0    0  0.25740332378E+00  0.76471715708E+00 -0.86112469295E+00  0.11800781916E+01  0.00000000000E+00 0. -1.
         11    1    3    3    0    0 -0.25528096421E+01  0.95752867090E+01 -0.21970166909E+01  0.10150361335E+02  0.51100000000E-03 0. -1.
        -11    1    3    3    0    0 -0.16788824438E+02  0.30291472585E+02  0.46233596610E+01  0.34940140129E+02  0.51100000000E-03 0.  1.
         12    1    3    3    0    0  0.19084230756E+02 -0.40631476451E+02 -0.15652182772E+01  0.44917420345E+02  0.00000000000E+00 0. -1.
</event>
<event>
 7    1  0.2000468E-015  0.9000765E+02  0.7816164E-02  0.1186339E+00
        -11   -1    0    0    0    0  0.00000000000E+00  0.00000000000E+00  0.45593999997E+02  0.45594000000E+02  0.51100000000E-03 0.  1.
         11   -1    0    0    0    0 -0.00000000000E+00 -0.00000000000E+00 -0.45593999997E+02  0.45594000000E+02  0.51100000000E-03 0. -1.
    9900012    2    1    2    0    0  0.97798478922E+00  0.64525385700E+00  0.14287608445E+00  0.90007652440E+02  0.89999912652E+02 0.  0.
         12    1    1    2    0    0 -0.97798478922E+00 -0.64525385700E+00 -0.14287608445E+00  0.11803475604E+01  0.00000000000E+00 0. -1.
         11    1    3    3    0    0  0.80069431281E+01  0.19078073619E+01 -0.59138024636E+01  0.10135281300E+02  0.51100000000E-03 0. -1.
        -11    1    3    3    0    0 -0.26187094851E+02  0.26628610819E+02 -0.14744560400E+02  0.40152819484E+02  0.51100000000E-03 0.  1.
         12    1    3    3    0    0  0.19158136512E+02 -0.27891164324E+02  0.20801238948E+02  0.39719551656E+02  0.00000000000E+00 0. -1.
</event>
<event>
 7    1  0.2000468E-015  0.9000739E+02  0.7816164E-02  0.1186340E+00
        -11   -1    0    0    0    0  0.00000000000E+00  0.00000000000E+00  0.45593999997E+02  0.45594000000E+02  0.51100000000E-03 0. -1.
         11   -1    0    0    0    0 -0.00000000000E+00 -0.00000000000E+00 -0.45593999997E+02  0.45594000000E+02  0.51100000000E-03 0.  1.
    9900012    2    1    2    0    0  0.12460577030E+00 -0.17581680949E+00 -0.11607804759E+01  0.90007385981E+02  0.89999642675E+02 0.  0.
         12    1    1    2    0    0 -0.12460577030E+00  0.17581680949E+00  0.11607804759E+01  0.11806140189E+01  0.00000000000E+00 0. -1.
         11    1    3    3    0    0 -0.27583142278E+02  0.20886124719E+02 -0.15115671137E+02  0.37756369766E+02  0.51100000000E-03 0. -1.
        -11    1    3    3    0    0 -0.23965679819E+01  0.78541675649E+01  0.48172785835E+01  0.95203812655E+01  0.51100000000E-03 0.  1.
        -12    1    3    3    0    0  0.30104316030E+02 -0.28916109094E+02  0.91376120774E+01  0.42730634950E+02  0.00000000000E+00 0.  1.
</event>
<event>
 7    1  0.2000468E-015  0.9000764E+02  0.7816164E-02  0.1186339E+00
        -11   -1    0    0    0    0  0.00000000000E+00  0.00000000000E+00  0.45593999997E+02  0.45594000000E+02  0.51100000000E-03 0. -1.
         11   -1    0    0    0    0 -0.00000000000E+00 -0.00000000000E+00 -0.45593999997E+02  0.45594000000E+02  0.51100000000E-03 0.  1.
    9900012    2    1    2    0    0  0.86658321722E+00 -0.79845994671E+00 -0.68873927853E-01  0.90007640573E+02  0.89999900629E+02 0.  0.
         12    1    1    2    0    0 -0.86658321722E+00  0.79845994671E+00  0.68873927853E-01  0.11803594270E+01  0.00000000000E+00 0. -1.
         11    1    3    3    0    0 -0.30638102565E+02  0.10770914924E+02  0.15422744954E+02  0.35952287817E+02  0.51100000000E-03 0. -1.
        -11    1    3    3    0    0 -0.80939862489E+01 -0.27396725811E+01  0.35311376140E+01  0.92459370730E+01  0.51100000000E-03 0.  1.
        -12    1    3    3    0    0  0.39598672031E+02 -0.88297022901E+01 -0.19022756495E+02  0.44809415683E+02  0.00000000000E+00 0.  1.
</event>
<event>
 7    1  0.2000468E-015  0.9000755E+02  0.7816164E-02  0.1186339E+00
        -11   -1    0    0    0    0  0.00000000000E+00  0.00000000000E+00  0.45593999997E+02  0.45594000000E+02  0.51100000000E-03 0.  1.
         11   -1    0    0    0    0 -0.00000000000E+00 -0.00000000000E+00 -0.45593999997E+02  0.45594000000E+02  0.51100000000E-03 0. -1.
    9900012    2    1    2    0    0  0.38542318209E+00 -0.10029056465E+01 -0.48897262870E+00  0.90007548816E+02  0.89999807661E+02 0.  0.
         12    1    1    2    0    0 -0.38542318209E+00  0.10029056465E+01  0.48897262870E+00  0.11804511836E+01  0.00000000000E+00 0. -1.
         11    1    3    3    0    0  0.30752738744E+01  0.99889010879E+01 -0.36616720586E+01  0.11074443411E+02  0.51100000000E-03 0. -1.
        -11    1    3    3    0    0  0.22320008063E+02  0.88406908864E+01  0.29161390114E+02  0.37772043219E+02  0.51100000000E-03 0.  1.
         12    1    3    3    0    0 -0.25009858756E+02 -0.19832497621E+02 -0.25988690684E+02  0.41161062186E+02  0.00000000000E+00 0. -1.
</event>
<event>
 7    1  0.2000468E-015  0.9000782E+02  0.7816164E-02  0.1186339E+00
        -11   -1    0    0    0    0  0.00000000000E+00  0.00000000000E+00  0.45593999997E+02  0.45594000000E+02  0.51100000000E-03 0. -1.
         11   -1    0    0    0    0 -0.00000000000E+00 -0.00000000000E+00 -0.45593999997E+02  0.45594000000E+02  0.51100000000E-03 0.  1.
    9900012    2    1    2    0    0 -0.30496642249E+00 -0.11242839956E+01  0.18922031210E+00  0.90007820629E+02  0.90000083061E+02 0.  0.
         12    1    1    2    0    0  0.30496642249E+00  0.11242839956E+01 -0.18922031210E+00  0.11801793711E+01  0.00000000000E+00 0. -1.
         11    1    3    3    0    0 -0.33805007927E+01  0.98809773348E+01  0.75119653195E+00  0.10470233770E+02  0.51100000000E-03 0. -1.
        -11    1    3    3    0    0  0.20907423445E+02  0.18430492055E+02 -0.24909455684E+02  0.37380267191E+02  0.51100000000E-03 0.  1.
         12    1    3    3    0    0 -0.17831889075E+02 -0.29435753386E+02  0.24347479464E+02  0.42157319668E+02  0.00000000000E+00 0. -1.
</event>
<event>
 7    1  0.2000468E-015  0.9000750E+02  0.7816164E-02  0.1186340E+00
        -11   -1    0    0    0    0  0.00000000000E+00  0.00000000000E+00  0.45593999997E+02  0.45594000000E+02  0.51100000000E-03 0.  1.
         11   -1    0    0    0    0 -0.00000000000E+00 -0.00000000000E+00 -0.45593999997E+02  0.45594000000E+02  0.51100000000E-03 0. -1.
    9900012    2    1    2    0    0  0.22616025841E+00  0.11472364600E+01 -0.16213590001E+00  0.90007496714E+02  0.89999754871E+02 0.  0.
         12    1    1    2    0    0 -0.22616025841E+00 -0.11472364600E+01  0.16213590001E+00  0.11805032858E+01  0.00000000000E+00 0. -1.
         11    1    3    3    0    0  0.15327010632E+02 -0.11227319315E+02 -0.32712865881E+02  0.37829902832E+02  0.51100000000E-03 0. -1.
        -11    1    3    3    0    0 -0.66617828624E+01 -0.10163752430E+02  0.58687308998E+00  0.12166578592E+02  0.51100000000E-03 0.  1.
        -12    1    3    3    0    0 -0.84390675115E+01  0.22538308204E+02  0.31963856891E+02  0.40011015290E+02  0.00000000000E+00 0.  1.
</event>
<event>
 7    1  0.2000468E-015  0.9000804E+02  0.7816164E-02  0.1186338E+00
        -11   -1    0    0    0    0  0.00000000000E+00  0.00000000000E+00  0.45593999997E+02  0.45594000000E+02  0.51100000000E-03 0. -1.
         11   -1    0    0    0    0 -0.00000000000E+00 -0.00000000000E+00 -0.45593999997E+02  0.45594000000E+02  0.51100000000E-03 0.  1.
    9900012    2    1    2    0    0 -0.44040667247E+00  0.94090678092E+00 -0.55949192460E+00  0.90008044568E+02  0.90000309956E+02 0.  0.
         12    1    1    2    0    0  0.44040667247E+00 -0.94090678092E+00  0.55949192460E+00  0.11799554319E+01  0.00000000000E+00 0. -1.
         11    1    3    3    0    0  0.11562057288E+02  0.38028187832E+02  0.10283455509E+02  0.41055738892E+02  0.51100000000E-03 0. -1.
        -11    1    3    3    0    0 -0.64004951723E+01 -0.45998887630E+00 -0.10009368329E+02  0.11889717525E+02  0.51100000000E-03 0.  1.
        -12    1    3    3    0    0 -0.56019687883E+01 -0.36627292175E+02 -0.83357910468E+00  0.37062588151E+02  0.00000000000E+00 0.  1.
</event>
<event>
 7    1  0.2000468E-015  0.9000739E+02  0.7816164E-02  0.1186340E+00
        -11   -1    0    0    0    0  0.00000000000E+00  0.00000000000E+00  0.45593999997E+02  0.45594000000E+02  0.51100000000E-03 0.  1.
         11   -1    0    0    0    0 -0.00000000000E+00 -0.00000000000E+00 -0.45593999997E+02  0.45594000000E+02  0.51100000000E-03 0. -1.
    9900012    2    1    2    0    0  0.95912842862E+00  0.67907266309E+00  0.11297929700E+00  0.90007393653E+02  0.89999650449E+02 0.  0.
         12    1    1    2    0    0 -0.95912842862E+00 -0.67907266309E+00 -0.11297929700E+00  0.11806063467E+01  0.00000000000E+00 0. -1.
         11    1    3    3    0    0  0.37209326242E+01  0.13354620189E+01 -0.10316509945E+02  0.11048039469E+02  0.51100000000E-03 0. -1.
        -11    1    3    3    0    0 -0.15178476199E+02 -0.31457367498E+02 -0.14106668390E+02  0.37668955427E+02  0.51100000000E-03 0.  1.
         12    1    3    3    0    0  0.12416672003E+02  0.30800978143E+02  0.24536157632E+02  0.41290398757E+02  0.00000000000E+00 0. -1.
</event>
<event>
 7    1  0.2000468E-015  0.9000759E+02  0.7816164E-02  0.1186339E+00
        -11   -1    0    0    0    0  0.00000000000E+00  0.00000000000E+00  0.45593999997E+02  0.45594000000E+02  0.51100000000E-03 0.  1.
         11   -1    0    0    0    0 -0.00000000000E+00 -0.00000000000E+00 -0.45593999997E+02  0.45594000000E+02  0.51100000000E-03 0. -1.
    9900012    2    1    2    0    0 -0.33085154312E+00  0.74294206105E+00  0.85553201963E+00  0.90007593000E+02  0.89999852427E+02 0.  0.
         12    1    1    2    0    0  0.33085154312E+00 -0.74294206105E+00 -0.85553201963E+00  0.11804070003E+01  0.00000000000E+00 0. -1.
         11    1    3    3    0    0 -0.55503080813E+01 -0.15029681247E+01 -0.70779011039E+01  0.91192936831E+01  0.51100000000E-03 0. -1.
        -11    1    3    3    0    0 -0.24258677190E+02 -0.24941283782E+02  0.18517607115E+02  0.39413865951E+02  0.51100000000E-03 0.  1.
         12    1    3    3    0    0  0.29478133728E+02  0.27187193968E+02 -0.10584173992E+02  0.41474433366E+02  0.00000000000E+00 0. -1.
</event>
<event>
 7    1  0.2104722E-015  0.9000774E+02  0.7816164E-02  0.1186339E+00
        -11   -1    0    0    0    0  0.00000000000E+00  0.00000000000E+00  0.45593999997E+02  0.45594000000E+02  0.51100000000E-03 0. -1.
         11   -1    0    0    0    0 -0.00000000000E+00 -0.00000000000E+00 -0.45593999997E+02  0.45594000000E+02  0.51100000000E-03 0.  1.
    9900012    2    1    2    0    0 -0.10858132603E+01 -0.30141291053E+00 -0.35094780274E+00  0.90007743867E+02  0.90000005286E+02 0.  0.
         12    1    1    2    0    0  0.10858132603E+01  0.30141291053E+00  0.35094780274E+00  0.11802561328E+01  0.00000000000E+00 0. -1.
         11    1    3    3    0    0  0.46148398590E+01  0.13066522829E+02  0.32679918316E+02  0.35496588952E+02  0.51100000000E-03 0. -1.
        -11    1    3    3    0    0  0.48238344856E+00  0.66919005003E+01  0.67591585990E+01  0.95236784555E+01  0.51100000000E-03 0.  1.
        -12    1    3    3    0    0 -0.61830365679E+01 -0.20059836240E+02 -0.39790024718E+02  0.44987476460E+02  0.00000000000E+00 0.  1.
</event>
<event>
 7    1  0.2000468E-015  0.9000767E+02  0.7816164E-02  0.1186339E+00
        -11   -1    0    0    0    0  0.00000000000E+00  0.00000000000E+00  0.45593999997E+02  0.45594000000E+02  0.51100000000E-03 0.  1.
         11   -1    0    0    0    0 -0.00000000000E+00 -0.00000000000E+00 -0.45593999997E+02  0.45594000000E+02  0.51100000000E-03 0. -1.
    9900012    2    1    2    0    0  0.26998239577E+00 -0.10927317352E+01  0.35528352453E+00  0.90007669740E+02  0.89999930181E+02 0.  0.
         12    1    1    2    0    0 -0.26998239577E+00  0.10927317352E+01 -0.35528352453E+00  0.11803302597E+01  0.00000000000E+00 0. -1.
         11    1    3    3    0    0  0.19501156348E+00  0.11867792575E+02  0.20754285665E+01  0.12049478582E+02  0.51100000000E-03 0. -1.
        -11    1    3    3    0    0  0.64047554166E+01  0.27463801996E+02  0.17036232740E+02  0.32947147650E+02  0.51100000000E-03 0.  1.
         12    1    3    3    0    0 -0.63297845844E+01 -0.40424326306E+02 -0.18756377782E+02  0.45011043508E+02  0.00000000000E+00 0. -1.
</event>
<event>
 7    1  0.2000468E-015  0.9000775E+02  0.7816164E-02  0.1186339E+00
        -11   -1    0    0    0    0  0.00000000000E+00  0.00000000000E+00  0.45593999997E+02  0.45594000000E+02  0.51100000000E-03 0. -1.
         11   -1    0    0    0    0 -0.00000000000E+00 -0.00000000000E+00 -0.45593999997E+02  0.45594000000E+02  0.51100000000E-03 0.  1.
    9900012    2    1    2    0    0  0.69996538916E+00  0.80209811846E+00 -0.50957952960E+00  0.90007752469E+02  0.90000014002E+02 0.  0.
         12    1    1    2    0    0 -0.69996538916E+00 -0.80209811846E+00  0.50957952960E+00  0.11802475311E+01  0.00000000000E+00 0. -1.
         11    1    3    3    0    0  0.95693639693E+00 -0.76816514442E+01 -0.17835401843E+01  0.79438348440E+01  0.51100000000E-03 0. -1.
        -11    1    3    3    0    0 -0.15163854993E+02 -0.33747421034E+02 -0.27428396823E+01  0.37099246548E+02  0.51100000000E-03 0.  1.
         12    1    3    3    0    0  0.14906883985E+02  0.42231170596E+02  0.40168003371E+01  0.44964671077E+02  0.00000000000E+00 0. -1.
</event>
<event>
 7    1  0.2000468E-015  0.9000771E+02  0.7816164E-02  0.1186339E+00
        -11   -1    0    0    0    0  0.00000000000E+00  0.00000000000E+00  0.45593999997E+02  0.45594000000E+02  0.51100000000E-03 0.  1.
         11   -1    0    0    0    0 -0.00000000000E+00 -0.00000000000E+00 -0.45593999997E+02  0.45594000000E+02  0.51100000000E-03 0. -1.
    9900012    2    1    2    0    0 -0.98859574259E+00 -0.62857422668E+00  0.14371987520E+00  0.90007710839E+02  0.89999971822E+02 0.  0.
         12    1    1    2    0    0  0.98859574259E+00  0.62857422668E+00 -0.14371987520E+00  0.11802891609E+01  0.00000000000E+00 0. -1.
         11    1    3    3    0    0  0.10062096320E+02  0.61733381576E+01 -0.91864666822E+01  0.14958176918E+02  0.51100000000E-03 0. -1.
        -11    1    3    3    0    0 -0.20756600386E+02  0.39285399022E+01 -0.27964298859E+02  0.35046710206E+02  0.51100000000E-03 0.  1.
         12    1    3    3    0    0  0.97059083241E+01 -0.10730452287E+02  0.37294485416E+02  0.40002823715E+02  0.00000000000E+00 0. -1.
</event>
<event>
 7    1  0.2000468E-015  0.9000771E+02  0.7816164E-02  0.1186339E+00
        -11   -1    0    0    0    0  0.00000000000E+00  0.00000000000E+00  0.45593999997E+02  0.45594000000E+02  0.51100000000E-03 0.  1.
         11   -1    0    0    0    0 -0.00000000000E+00 -0.00000000000E+00 -0.45593999997E+02  0.45594000000E+02  0.51100000000E-03 0. -1.
    9900012    2    1    2    0    0 -0.11423897770E+01 -0.17689019995E+00  0.23820407086E+00  0.90007709474E+02  0.89999970440E+02 0.  0.
         12    1    1    2    0    0  0.11423897770E+01  0.17689019995E+00 -0.23820407086E+00  0.11802905256E+01  0.00000000000E+00 0. -1.
         11    1    3    3    0    0  0.35859480562E+02  0.12172105709E+02  0.69549255086E+00  0.37875403809E+02  0.51100000000E-03 0. -1.
        -11    1    3    3    0    0  0.46879383218E+01 -0.27627123873E+00 -0.68048372701E+01  0.82679442451E+01  0.51100000000E-03 0.  1.
        -12    1    3    3    0    0 -0.41689808661E+02 -0.12072724671E+02  0.63475487901E+01  0.43864361420E+02  0.00000000000E+00 0.  1.
</event>
<event>
 7    1  0.2000468E-015  0.9000760E+02  0.7816164E-02  0.1186339E+00
        -11   -1    0    0    0    0  0.00000000000E+00  0.00000000000E+00  0.45593999997E+02  0.45594000000E+02  0.51100000000E-03 0.  1.
         11   -1    0    0    0    0 -0.00000000000E+00 -0.00000000000E+00 -0.45593999997E+02  0.45594000000E+02  0.51100000000E-03 0. -1.
    9900012    2    1    2    0    0 -0.32962514064E+00  0.74686039589E+00  0.85258470527E+00  0.90007595890E+02  0.89999855355E+02 0.  0.
         12    1    1    2    0    0  0.32962514064E+00 -0.74686039589E+00 -0.85258470527E+00  0.11804041104E+01  0.00000000000E+00 0. -1.
         11    1    3    3    0    0  0.52445509956E+01  0.14502805979E+01 -0.91604608151E+01  0.10654701852E+02  0.51100000000E-03 0. -1.
        -11    1    3    3    0    0  0.28012033616E+02 -0.24618649954E+02  0.75450170181E+01  0.38048380188E+02  0.51100000000E-03 0.  1.
         12    1    3    3    0    0 -0.33586209752E+02  0.23915229752E+02  0.24680285022E+01  0.41304513849E+02  0.00000000000E+00 0. -1.
</event>
<event>
 7    1  0.2000468E-015  0.9000778E+02  0.7816164E-02  0.1186339E+00
        -11   -1    0    0    0    0  0.00000000000E+00  0.00000000000E+00  0.45593999997E+02  0.45594000000E+02  0.51100000000E-03 0. -1.
         11   -1    0    0    0    0 -0.00000000000E+00 -0.00000000000E+00 -0.45593999997E+02  0.45594000000E+02  0.51100000000E-03 0.  1.
    9900012    2    1    2    0    0  0.30228318243E-01  0.78337959764E+00  0.88222312898E+00  0.90007781802E+02  0.90000043722E+02 0.  0.
         12    1    1    2    0    0 -0.30228318243E-01 -0.78337959764E+00 -0.88222312898E+00  0.11802181978E+01  0.00000000000E+00 0. -1.
         11    1    3    3    0    0  0.68735467088E+01 -0.46480294504E+01 -0.48924062502E+01  0.96325210256E+01  0.51100000000E-03 0. -1.
        -11    1    3    3    0    0 -0.24099149800E+02 -0.31136706515E+02  0.66486788728E+01  0.39930795693E+02  0.51100000000E-03 0.  1.
         12    1    3    3    0    0  0.17255831409E+02  0.36568115563E+02 -0.87404949361E+00  0.40444465084E+02  0.00000000000E+00 0. -1.
</event>
<event>
 7    1  0.2000468E-015  0.9000769E+02  0.7816164E-02  0.1186339E+00
        -11   -1    0    0    0    0  0.00000000000E+00  0.00000000000E+00  0.45593999997E+02  0.45594000000E+02  0.51100000000E-03 0. -1.
         11   -1    0    0    0    0 -0.00000000000E+00 -0.00000000000E+00 -0.45593999997E+02  0.45594000000E+02  0.51100000000E-03 0.  1.
    9900012    2    1    2    0    0  0.35921052109E-01  0.63398573586E+00 -0.99493427593E+00  0.90007693917E+02  0.89999954677E+02 0.  0.
         12    1    1    2    0    0 -0.35921052109E-01 -0.63398573586E+00  0.99493427593E+00  0.11803060826E+01  0.00000000000E+00 0. -1.
         11    1    3    3    0    0 -0.24889035552E+02  0.21303289014E+02  0.11475375633E+02  0.34712799653E+02  0.51100000000E-03 0. -1.
        -11    1    3    3    0    0 -0.93863132484E+01  0.49936218619E+01 -0.52005200938E+01  0.11835731714E+02  0.51100000000E-03 0.  1.
        -12    1    3    3    0    0  0.34311269853E+02 -0.25662925140E+02 -0.72697898147E+01  0.43459162551E+02  0.00000000000E+00 0.  1.
</event>
<event>
 7    1  0.2000468E-015  0.9000781E+02  0.7816164E-02  0.1186339E+00
        -11   -1    0    0    0    0  0.00000000000E+00  0.00000000000E+00  0.45593999997E+02  0.45594000000E+02  0.51100000000E-03 0.  1.
         11   -1    0    0    0    0 -0.00000000000E+00 -0.00000000000E+00 -0.45593999997E+02  0.45594000000E+02  0.51100000000E-03 0. -1.
    9900012    2    1    2    0    0 -0.10077608148E+00 -0.15673855993E+00  0.11653900879E+01  0.90007806435E+02  0.90000068680E+02 0.  0.
         12    1    1    2    0    0  0.10077608148E+00  0.15673855993E+00 -0.11653900879E+01  0.11801935653E+01  0.00000000000E+00 0. -1.
         11    1    3    3    0    0  0.12050183255E+02 -0.28178254765E+02 -0.20029835230E+02  0.36611681984E+02  0.51100000000E-03 0. -1.
        -11    1    3    3    0    0  0.51121075443E+01  0.38188181202E+01 -0.89933379966E+01  0.11027109502E+02  0.51100000000E-03 0.  1.
        -12    1    3    3    0    0 -0.17263066880E+02  0.24202698085E+02  0.30188563315E+02  0.42369014949E+02  0.00000000000E+00 0.  1.
</event>
<event>
 7    1  0.2803574E-015  0.9000775E+02  0.7816164E-02  0.1186339E+00
        -11   -1    0    0    0    0  0.00000000000E+00  0.00000000000E+00  0.45593999997E+02  0.45594000000E+02  0.51100000000E-03 0.  1.
         11   -1    0    0    0    0 -0.00000000000E+00 -0.00000000000E+00 -0.45593999997E+02  0.45594000000E+02  0.51100000000E-03 0. -1.
    9900012    2    1    2    0    0  0.97379003245E+00  0.66624865842E+00 -0.28903582524E-01  0.90007750145E+02  0.90000011647E+02 0.  0.
         12    1    1    2    0    0 -0.97379003245E+00 -0.66624865842E+00  0.28903582524E-01  0.11802498546E+01  0.00000000000E+00 0. -1.
         11    1    3    3    0    0 -0.28629356547E+02  0.96138383322E+01 -0.19208185942E+02  0.35791344641E+02  0.51100000000E-03 0. -1.
        -11    1    3    3    0    0 -0.58046496997E+01 -0.13381895279E+01 -0.72490266566E+01  0.93825954341E+01  0.51100000000E-03 0.  1.
        -12    1    3    3    0    0  0.35407796279E+02 -0.76094001459E+01  0.26428309016E+02  0.44833810070E+02  0.00000000000E+00 0.  1.
</event>
<event>
 7    1  0.2000468E-015  0.9000772E+02  0.7816164E-02  0.1186339E+00
        -11   -1    0    0    0    0  0.00000000000E+00  0.00000000000E+00  0.45593999997E+02  0.45594000000E+02  0.51100000000E-03 0.  1.
         11   -1    0    0    0    0 -0.00000000000E+00 -0.00000000000E+00 -0.45593999997E+02  0.45594000000E+02  0.51100000000E-03 0. -1.
    9900012    2    1    2    0    0 -0.67484337434E+00 -0.84989994983E+00 -0.46401659565E+00  0.90007722530E+02  0.89999983668E+02 0.  0.
         12    1    1    2    0    0  0.67484337434E+00  0.84989994983E+00  0.46401659565E+00  0.11802774698E+01  0.00000000000E+00 0. -1.
         11    1    3    3    0    0  0.38527443966E+02 -0.85140763046E+01 -0.68863063032E+00  0.39462990843E+02  0.51100000000E-03 0. -1.
        -11    1    3    3    0    0  0.11792249589E+01 -0.44767082551E+01  0.64302984582E+01  0.79233974296E+01  0.51100000000E-03 0.  1.
        -12    1    3    3    0    0 -0.40381512299E+02  0.12140884610E+02 -0.62056844236E+01  0.42621334257E+02  0.00000000000E+00 0.  1.
</event>
<event>
 7    1  0.2006070E-015  0.9000777E+02  0.7816164E-02  0.1186339E+00
        -11   -1    0    0    0    0  0.00000000000E+00  0.00000000000E+00  0.45593999997E+02  0.45594000000E+02  0.51100000000E-03 0. -1.
         11   -1    0    0    0    0 -0.00000000000E+00 -0.00000000000E+00 -0.45593999997E+02  0.45594000000E+02  0.51100000000E-03 0.  1.
    9900012    2    1    2    0    0 -0.43682005950E+00 -0.48468031486E+00 -0.98346671861E+00  0.90007773938E+02  0.90000035753E+02 0.  0.
         12    1    1    2    0    0  0.43682005950E+00  0.48468031486E+00  0.98346671861E+00  0.11802260625E+01  0.00000000000E+00 0. -1.
         11    1    3    3    0    0 -0.20118590763E+01 -0.16584221710E+01  0.34220189289E+02  0.34319372026E+02  0.51100000000E-03 0. -1.
        -11    1    3    3    0    0 -0.12185625653E+01  0.26057101255E+01  0.99848685831E+01  0.10390968235E+02  0.51100000000E-03 0.  1.
        -12    1    3    3    0    0  0.27936015820E+01 -0.14319682693E+01 -0.45188524591E+02  0.45297433676E+02  0.00000000000E+00 0.  1.
</event>
<event>
 7    1  0.2000468E-015  0.9000770E+02  0.7816164E-02  0.1186339E+00
        -11   -1    0    0    0    0  0.00000000000E+00  0.00000000000E+00  0.45593999997E+02  0.45594000000E+02  0.51100000000E-03 0. -1.
         11   -1    0    0    0    0 -0.00000000000E+00 -0.00000000000E+00 -0.45593999997E+02  0.45594000000E+02  0.51100000000E-03 0.  1.
    9900012    2    1    2    0    0 -0.72908328888E+00  0.89267212252E+00  0.25433988045E+00  0.90007697185E+02  0.89999957988E+02 0.  0.
         12    1    1    2    0    0  0.72908328888E+00 -0.89267212252E+00 -0.25433988045E+00  0.11803028151E+01  0.00000000000E+00 0. -1.
         11    1    3    3    0    0  0.86552059135E+01 -0.54751390319E+01  0.36672739074E+02  0.38075970484E+02  0.51100000000E-03 0. -1.
        -11    1    3    3    0    0  0.98861608478E+01 -0.36481719431E+01 -0.12688481655E+01  0.10613920612E+02  0.51100000000E-03 0.  1.
        -12    1    3    3    0    0 -0.19270450050E+02  0.10015983098E+02 -0.35149551028E+02  0.41317806089E+02  0.00000000000E+00 0.  1.
</event>
<event>
 7    1  0.2000468E-015  0.9000775E+02  0.7816164E-02  0.1186339E+00
        -11   -1    0    0    0    0  0.00000000000E+00  0.00000000000E+00  0.45593999997E+02  0.45594000000E+02  0.51100000000E-03 0. -1.
         11   -1    0    0    0    0 -0.00000000000E+00 -0.00000000000E+00 -0.45593999997E+02  0.45594000000E+02  0.51100000000E-03 0.  1.
    9900012    2    1    2    0    0 -0.96630637719E+00 -0.39420607494E+00 -0.55122101547E+00  0.90007749581E+02  0.90000011075E+02 0.  0.
         12    1    1    2    0    0  0.96630637719E+00  0.39420607494E+00  0.55122101547E+00  0.11802504192E+01  0.00000000000E+00 0. -1.
         11    1    3    3    0    0  0.25471608533E+02  0.12202680059E+02 -0.17240521166E+02  0.33089935210E+02  0.51100000000E-03 0. -1.
        -11    1    3    3    0    0  0.53528965330E+01  0.58374425220E+01 -0.90689527071E+01  0.12040562277E+02  0.51100000000E-03 0.  1.
        -12    1    3    3    0    0 -0.31790811443E+02 -0.18434328656E+02  0.25758252857E+02  0.44877252093E+02  0.00000000000E+00 0.  1.
</event>
<event>
 7    1  0.2000468E-015  0.9000770E+02  0.7816164E-02  0.1186339E+00
        -11   -1    0    0    0    0  0.00000000000E+00  0.00000000000E+00  0.45593999997E+02  0.45594000000E+02  0.51100000000E-03 0.  1.
         11   -1    0    0    0    0 -0.00000000000E+00 -0.00000000000E+00 -0.45593999997E+02  0.45594000000E+02  0.51100000000E-03 0. -1.
    9900012    2    1    2    0    0 -0.11592127370E+01 -0.22845727218E-01 -0.22090960180E+00  0.90007704635E+02  0.89999965536E+02 0.  0.
         12    1    1    2    0    0  0.11592127370E+01  0.22845727218E-01  0.22090960180E+00  0.11802953651E+01  0.00000000000E+00 0. -1.
         11    1    3    3    0    0  0.63289871169E+01 -0.29911645476E+02 -0.27228165670E+02  0.40940635303E+02  0.51100000000E-03 0. -1.
        -11    1    3    3    0    0 -0.99826555098E+01  0.23674767098E+01 -0.23550984366E+00  0.10262252294E+02  0.51100000000E-03 0.  1.
        -12    1    3    3    0    0  0.24944556559E+01  0.27521323039E+02  0.27242765912E+02  0.38804817038E+02  0.00000000000E+00 0.  1.
</event>
<event>
 7    1  0.2000468E-015  0.9000785E+02  0.7816164E-02  0.1186339E+00
        -11   -1    0    0    0    0  0.00000000000E+00  0.00000000000E+00  0.45593999997E+02  0.45594000000E+02  0.51100000000E-03 0.  1.
         11   -1    0    0    0    0 -0.00000000000E+00 -0.00000000000E+00 -0.45593999997E+02  0.45594000000E+02  0.51100000000E-03 0. -1.
    9900012    2    1    2    0    0 -0.56022053629E+00  0.10037988531E+01  0.26701194081E+00  0.90007849771E+02  0.90000112588E+02 0.  0.
         12    1    1    2    0    0  0.56022053629E+00 -0.10037988531E+01 -0.26701194081E+00  0.11801502291E+01  0.00000000000E+00 0. -1.
         11    1    3    3    0    0 -0.65750579305E+01 -0.26577716018E+01 -0.62244665113E+01  0.94360542753E+01  0.51100000000E-03 0. -1.
        -11    1    3    3    0    0 -0.14972127400E+02 -0.82171290798E+00  0.38906806716E+02  0.41696275854E+02  0.51100000000E-03 0.  1.
         12    1    3    3    0    0  0.20986964794E+02  0.44832833629E+01 -0.32415328264E+02  0.38875519642E+02  0.00000000000E+00 0. -1.
</event>
<event>
 7    1  0.2000468E-015  0.9000767E+02  0.7816164E-02  0.1186339E+00
        -11   -1    0    0    0    0  0.00000000000E+00  0.00000000000E+00  0.45593999997E+02  0.45594000000E+02  0.51100000000E-03 0.  1.
         11   -1    0    0    0    0 -0.00000000000E+00 -0.00000000000E+00 -0.45593999997E+02  0.45594000000E+02  0.51100000000E-03 0. -1.
    9900012    2    1    2    0    0  0.30123297975E+00  0.21751707585E+00  0.11203234467E+01  0.90007669702E+02  0.89999930142E+02 0.  0.
         12    1    1    2    0    0 -0.30123297975E+00 -0.21751707585E+00 -0.11203234467E+01  0.11803302977E+01  0.00000000000E+00 0. -1.
         11    1    3    3    0    0  0.40736826178E+02 -0.23812229397E+01  0.82036983846E+01  0.41622829039E+02  0.51100000000E-03 0. -1.
        -11    1    3    3    0    0 -0.38212669531E+01  0.70164920154E+01  0.51772485567E+01  0.95203542060E+01  0.51100000000E-03 0.  1.
        -12    1    3    3    0    0 -0.36614326245E+02 -0.44177519998E+01 -0.12260623495E+02  0.38864486457E+02  0.00000000000E+00 0.  1.
</event>
<event>
 7    1  0.2000468E-015  0.9000778E+02  0.7816164E-02  0.1186339E+00
        -11   -1    0    0    0    0  0.00000000000E+00  0.00000000000E+00  0.45593999997E+02  0.45594000000E+02  0.51100000000E-03 0.  1.
         11   -1    0    0    0    0 -0.00000000000E+00 -0.00000000000E+00 -0.45593999997E+02  0.45594000000E+02  0.51100000000E-03 0. -1.
    9900012    2    1    2    0    0 -0.56352986400E-01 -0.25008133841E+00  0.11520472456E+01  0.90007775788E+02  0.90000037628E+02 0.  0.
         12    1    1    2    0    0  0.56352986400E-01  0.25008133841E+00 -0.11520472456E+01  0.11802242121E+01  0.00000000000E+00 0. -1.
         11    1    3    3    0    0  0.52988783601E+01  0.28820334420E+01  0.71432125787E+01  0.93493162767E+01  0.51100000000E-03 0. -1.
        -11    1    3    3    0    0  0.15497963574E+02 -0.67077405545E+01  0.32562431909E+02  0.36680957327E+02  0.51100000000E-03 0.  1.
         12    1    3    3    0    0 -0.20853194920E+02  0.35756257741E+01 -0.38553597242E+02  0.43977502185E+02  0.00000000000E+00 0. -1.
</event>
<event>
 7    1  0.2000468E-015  0.9000800E+02  0.7816164E-02  0.1186339E+00
        -11   -1    0    0    0    0  0.00000000000E+00  0.00000000000E+00  0.45593999997E+02  0.45594000000E+02  0.51100000000E-03 0. -1.
         11   -1    0    0    0    0 -0.00000000000E+00 -0.00000000000E+00 -0.45593999997E+02  0.45594000000E+02  0.51100000000E-03 0.  1.
    9900012    2    1    2    0    0 -0.29547349937E+00 -0.11345343929E+01 -0.13392975085E+00  0.90007995739E+02  0.90000260483E+02 0.  0.
         12    1    1    2    0    0  0.29547349937E+00  0.11345343929E+01  0.13392975085E+00  0.11800042608E+01  0.00000000000E+00 0. -1.
         11    1    3    3    0    0 -0.72580546631E+01 -0.60692709447E+01  0.21593852275E+01  0.97045531641E+01  0.51100000000E-03 0. -1.
        -11    1    3    3    0    0  0.80880710109E+01 -0.36221717121E+02  0.77727700645E+01  0.37918935094E+02  0.51100000000E-03 0.  1.
         12    1    3    3    0    0 -0.11254898471E+01  0.41156453673E+02 -0.10066085043E+02  0.42384507481E+02  0.00000000000E+00 0. -1.
</event>
<event>
 7    1  0.2000468E-015  0.9000780E+02  0.7816164E-02  0.1186339E+00
        -11   -1    0    0    0    0  0.00000000000E+00  0.00000000000E+00  0.45593999997E+02  0.45594000000E+02  0.51100000000E-03 0. -1.
         11   -1    0    0    0    0 -0.00000000000E+00 -0.00000000000E+00 -0.45593999997E+02  0.45594000000E+02  0.51100000000E-03 0.  1.
    9900012    2    1    2    0    0  0.16288767767E+00  0.10540031856E+01  0.50538555792E+00  0.90007801003E+02  0.90000063176E+02 0.  0.
         12    1    1    2    0    0 -0.16288767767E+00 -0.10540031856E+01 -0.50538555792E+00  0.11801989972E+01  0.00000000000E+00 0. -1.
         11    1    3    3    0    0  0.74243962252E+00  0.93283175856E+01 -0.12144064389E+01  0.94362868138E+01  0.51100000000E-03 0. -1.
        -11    1    3    3    0    0 -0.16187567091E+02  0.85170631252E+01 -0.33720919389E+02  0.38362456873E+02  0.51100000000E-03 0.  1.
         12    1    3    3    0    0  0.15608015146E+02 -0.16791377525E+02  0.35440711386E+02  0.42209057316E+02  0.00000000000E+00 0. -1.
</event>
<event>
 7    1  0.2000468E-015  0.9000775E+02  0.7816164E-02  0.1186339E+00
        -11   -1    0    0    0    0  0.00000000000E+00  0.00000000000E+00  0.45593999997E+02  0.45594000000E+02  0.51100000000E-03 0. -1.
         11   -1    0    0    0    0 -0.00000000000E+00 -0.00000000000E+00 -0.45593999997E+02  0.45594000000E+02  0.51100000000E-03 0.  1.
    9900012    2    1    2    0    0  0.56397094242E+00  0.10262960235E+01  0.14711297594E+00  0.90007750459E+02  0.90000011965E+02 0.  0.
         12    1    1    2    0    0 -0.56397094242E+00 -0.10262960235E+01 -0.14711297594E+00  0.11802495412E+01  0.00000000000E+00 0. -1.
         11    1    3    3    0    0  0.14058947604E+02 -0.34899546040E+02 -0.91344669892E+00  0.37635976228E+02  0.51100000000E-03 0. -1.
        -11    1    3    3    0    0  0.97956402271E+01  0.28683662530E+01  0.56626624519E+01  0.11672524951E+02  0.51100000000E-03 0.  1.
        -12    1    3    3    0    0 -0.23290616888E+02  0.33057475810E+02 -0.46021027771E+01  0.40699249280E+02  0.00000000000E+00 0.  1.
</event>
<event>
 7    1  0.2000468E-015  0.9000769E+02  0.7816164E-02  0.1186339E+00
        -11   -1    0    0    0    0  0.00000000000E+00  0.00000000000E+00  0.45593999997E+02  0.45594000000E+02  0.51100000000E-03 0.  1.
         11   -1    0    0    0    0 -0.00000000000E+00 -0.00000000000E+00 -0.45593999997E+02  0.45594000000E+02  0.51100000000E-03 0. -1.
    9900012    2    1    2    0    0  0.65648023778E+00  0.66796369680E+00  0.71832200299E+00  0.90007691437E+02  0.89999952164E+02 0.  0.
         12    1    1    2    0    0 -0.65648023778E+00 -0.66796369680E+00 -0.71832200299E+00  0.11803085625E+01  0.00000000000E+00 0. -1.
         11    1    3    3    0    0 -0.20596966309E+02  0.18624879144E+02 -0.19025311893E+02  0.33661307716E+02  0.51100000000E-03 0. -1.
        -11    1    3    3    0    0  0.69150926269E+00  0.57952345350E+01 -0.10960794402E+02  0.12417807478E+02  0.51100000000E-03 0.  1.
        -12    1    3    3    0    0  0.20561937284E+02 -0.23752149983E+02  0.30704428298E+02  0.43928576243E+02  0.00000000000E+00 0.  1.
</event>
<event>
 7    1  0.2000468E-015  0.9000766E+02  0.7816164E-02  0.1186339E+00
        -11   -1    0    0    0    0  0.00000000000E+00  0.00000000000E+00  0.45593999997E+02  0.45594000000E+02  0.51100000000E-03 0.  1.
         11   -1    0    0    0    0 -0.00000000000E+00 -0.00000000000E+00 -0.45593999997E+02  0.45594000000E+02  0.51100000000E-03 0. -1.
    9900012    2    1    2    0    0 -0.76065959797E+00  0.17096474930E+00  0.88621156396E+00  0.90007659835E+02  0.89999920145E+02 0.  0.
         12    1    1    2    0    0  0.76065959797E+00 -0.17096474930E+00 -0.88621156396E+00  0.11803401652E+01  0.00000000000E+00 0. -1.
         11    1    3    3    0    0  0.22775261745E+02 -0.18063895424E+01 -0.29507580300E+02  0.37318532744E+02  0.51100000000E-03 0. -1.
        -11    1    3    3    0    0 -0.14343519803E+01 -0.27599384353E+01 -0.77500653429E+01  0.83509364056E+01  0.51100000000E-03 0.  1.
        -12    1    3    3    0    0 -0.22101569363E+02  0.47372927270E+01  0.38143857206E+02  0.44338190686E+02  0.00000000000E+00 0.  1.
</event>
<event>
 7    1  0.2000468E-015  0.9000807E+02  0.7816164E-02  0.1186338E+00
        -11   -1    0    0    0    0  0.00000000000E+00  0.00000000000E+00  0.45593999997E+02  0.45594000000E+02  0.51100000000E-03 0.  1.
         11   -1    0    0    0    0 -0.00000000000E+00 -0.00000000000E+00 -0.45593999997E+02  0.45594000000E+02  0.51100000000E-03 0. -1.
    9900012    2    1    2    0    0  0.94230439383E+00  0.71012136047E+00  0.45217499898E-02  0.90008071882E+02  0.90000337630E+02 0.  0.
         12    1    1    2    0    0 -0.94230439383E+00 -0.71012136047E+00 -0.45217499898E-02  0.11799281179E+01  0.00000000000E+00 0. -1.
         11    1    3    3    0    0  0.65290384070E+01 -0.30565314619E+02 -0.25585807402E+02  0.40391835078E+02  0.51100000000E-03 0. -1.
        -11    1    3    3    0    0 -0.29233306454E+01  0.29839595463E+01 -0.58812848008E+01  0.72138330869E+01  0.51100000000E-03 0.  1.
        -12    1    3    3    0    0 -0.26634033678E+01  0.28291476433E+02  0.31471613953E+02  0.42402403718E+02  0.00000000000E+00 0.  1.
</event>
<event>
 7    1  0.2000468E-015  0.9000772E+02  0.7816164E-02  0.1186339E+00
        -11   -1    0    0    0    0  0.00000000000E+00  0.00000000000E+00  0.45593999997E+02  0.45594000000E+02  0.51100000000E-03 0. -1.
         11   -1    0    0    0    0 -0.00000000000E+00 -0.00000000000E+00 -0.45593999997E+02  0.45594000000E+02  0.51100000000E-03 0.  1.
    9900012    2    1    2    0    0 -0.84293984906E+00  0.44047021135E+00 -0.69893337127E+00  0.90007716367E+02  0.89999977423E+02 0.  0.
         12    1    1    2    0    0  0.84293984906E+00 -0.44047021135E+00  0.69893337127E+00  0.11802836327E+01  0.00000000000E+00 0. -1.
         11    1    3    3    0    0  0.17970616868E+02 -0.10761428408E+02 -0.59868325647E+01  0.21785168726E+02  0.51100000000E-03 0. -1.
        -11    1    3    3    0    0 -0.21398396407E+02 -0.23157310632E+02 -0.57319327533E+01  0.32046957076E+02  0.51100000000E-03 0.  1.
         12    1    3    3    0    0  0.25848396903E+01  0.34359209252E+02  0.11019831947E+02  0.36175590565E+02  0.00000000000E+00 0. -1.
</event>
<event>
 7    1  0.2000468E-015  0.9000774E+02  0.7816164E-02  0.1186339E+00
        -11   -1    0    0    0    0  0.00000000000E+00  0.00000000000E+00  0.45593999997E+02  0.45594000000E+02  0.51100000000E-03 0.  1.
         11   -1    0    0    0    0 -0.00000000000E+00 -0.00000000000E+00 -0.45593999997E+02  0.45594000000E+02  0.51100000000E-03 0. -1.
    9900012    2    1    2    0    0  0.37552644562E+00 -0.37265631553E+00  0.10550401384E+01  0.90007744716E+02  0.90000006147E+02 0.  0.
         12    1    1    2    0    0 -0.37552644562E+00  0.37265631553E+00 -0.10550401384E+01  0.11802552836E+01  0.00000000000E+00 0. -1.
         11    1    3    3    0    0  0.42690894254E+02  0.96749841941E+01 -0.53049930256E+01  0.44093771926E+02  0.51100000000E-03 0. -1.
        -11    1    3    3    0    0 -0.89993580872E+01  0.29176479837E+01  0.33558549922E+01  0.10038071465E+02  0.51100000000E-03 0.  1.
        -12    1    3    3    0    0 -0.33316009721E+02 -0.12965288493E+02  0.30041781719E+01  0.35875901326E+02  0.00000000000E+00 0.  1.
</event>
<event>
 7    1  0.2000468E-015  0.9000777E+02  0.7816164E-02  0.1186339E+00
        -11   -1    0    0    0    0  0.00000000000E+00  0.00000000000E+00  0.45593999997E+02  0.45594000000E+02  0.51100000000E-03 0.  1.
         11   -1    0    0    0    0 -0.00000000000E+00 -0.00000000000E+00 -0.45593999997E+02  0.45594000000E+02  0.51100000000E-03 0. -1.
    9900012    2    1    2    0    0 -0.71483500577E-01  0.72805781595E+00  0.92615929275E+00  0.90007767349E+02  0.90000029078E+02 0.  0.
         12    1    1    2    0    0  0.71483500577E-01 -0.72805781595E+00 -0.92615929275E+00  0.11802326507E+01  0.00000000000E+00 0. -1.
         11    1    3    3    0    0 -0.29533176084E+02  0.15570201003E+02 -0.71716150296E+01  0.34147792188E+02  0.51100000000E-03 0. -1.
        -11    1    3    3    0    0 -0.97421412014E+01 -0.98611366733E+01 -0.41787814676E+01  0.14478036693E+02  0.51100000000E-03 0.  1.
        -12    1    3    3    0    0  0.39203833785E+02 -0.49810065139E+01  0.12276555790E+02  0.41381938468E+02  0.00000000000E+00 0.  1.
</event>
<event>
 7    1  0.2000468E-015  0.9000772E+02  0.7816164E-02  0.1186339E+00
        -11   -1    0    0    0    0  0.00000000000E+00  0.00000000000E+00  0.45593999997E+02  0.45594000000E+02  0.51100000000E-03 0. -1.
         11   -1    0    0    0    0 -0.00000000000E+00 -0.00000000000E+00 -0.45593999997E+02  0.45594000000E+02  0.51100000000E-03 0.  1.
    9900012    2    1    2    0    0 -0.18896020408E+00  0.61282053870E+00 -0.99085829811E+00  0.90007722432E+02  0.89999983568E+02 0.  0.
         12    1    1    2    0    0  0.18896020408E+00 -0.61282053870E+00  0.99085829811E+00  0.11802775683E+01  0.00000000000E+00 0. -1.
         11    1    3    3    0    0  0.59023222615E+01 -0.92191580223E+01  0.10655131053E+02  0.15276193922E+02  0.51100000000E-03 0. -1.
        -11    1    3    3    0    0 -0.20035839315E+02  0.19390089675E+02  0.23023823785E+02  0.36159464828E+02  0.51100000000E-03 0.  1.
         12    1    3    3    0    0  0.13944556850E+02 -0.95581111140E+01 -0.34669813136E+02  0.38572063682E+02  0.00000000000E+00 0. -1.
</event>
<event>
 7    1  0.2012212E-015  0.9000779E+02  0.7816164E-02  0.1186339E+00
        -11   -1    0    0    0    0  0.00000000000E+00  0.00000000000E+00  0.45593999997E+02  0.45594000000E+02  0.51100000000E-03 0.  1.
         11   -1    0    0    0    0 -0.00000000000E+00 -0.00000000000E+00 -0.45593999997E+02  0.45594000000E+02  0.51100000000E-03 0. -1.
    9900012    2    1    2    0    0 -0.94336664260E+00  0.69681266548E+00  0.13193345236E+00  0.90007790294E+02  0.90000052326E+02 0.  0.
         12    1    1    2    0    0  0.94336664260E+00 -0.69681266548E+00 -0.13193345236E+00  0.11802097055E+01  0.00000000000E+00 0. -1.
         11    1    3    3    0    0  0.15679190884E+02  0.75884761098E+01 -0.33908784814E+02  0.38121223541E+02  0.51100000000E-03 0. -1.
        -11    1    3    3    0    0  0.63907531965E+01 -0.75894518220E+01 -0.98567293902E+00  0.99706096494E+01  0.51100000000E-03 0.  1.
        -12    1    3    3    0    0 -0.23013310723E+02  0.69778837774E+00  0.35026391206E+02  0.41915957104E+02  0.00000000000E+00 0.  1.
</event>
<event>
 7    1  0.2000468E-015  0.9000771E+02  0.7816164E-02  0.1186339E+00
        -11   -1    0    0    0    0  0.00000000000E+00  0.00000000000E+00  0.45593999997E+02  0.45594000000E+02  0.51100000000E-03 0.  1.
         11   -1    0    0    0    0 -0.00000000000E+00 -0.00000000000E+00 -0.45593999997E+02  0.45594000000E+02  0.51100000000E-03 0. -1.
    9900012    2    1    2    0    0  0.31877461929E+00  0.11332398487E+01  0.85086759033E-01  0.90007707846E+02  0.89999968789E+02 0.  0.
         12    1    1    2    0    0 -0.31877461929E+00 -0.11332398487E+01 -0.85086759033E-01  0.11802921541E+01  0.00000000000E+00 0. -1.
         11    1    3    3    0    0 -0.42391377280E+01  0.15571308779E+01  0.63676929569E+01  0.78065651283E+01  0.51100000000E-03 0. -1.
        -11    1    3    3    0    0 -0.19783412432E+02  0.20834350196E+02  0.24358623763E+02  0.37666909980E+02  0.51100000000E-03 0.  1.
         12    1    3    3    0    0  0.24341324780E+02 -0.21258241225E+02 -0.30641229961E+02  0.44534232738E+02  0.00000000000E+00 0. -1.
</event>
<event>
 7    1  0.2000468E-015  0.9000776E+02  0.7816164E-02  0.1186339E+00
        -11   -1    0    0    0    0  0.00000000000E+00  0.00000000000E+00  0.45593999997E+02  0.45594000000E+02  0.51100000000E-03 0.  1.
         11   -1    0    0    0    0 -0.00000000000E+00 -0.00000000000E+00 -0.45593999997E+02  0.45594000000E+02  0.51100000000E-03 0. -1.
    9900012    2    1    2    0    0  0.91193263664E+00  0.11805761380E+00  0.73986437566E+00  0.90007763571E+02  0.90000025250E+02 0.  0.
         12    1    1    2    0    0 -0.91193263664E+00 -0.11805761380E+00 -0.73986437566E+00  0.11802364290E+01  0.00000000000E+00 0. -1.
         11    1    3    3    0    0 -0.21352110861E+02  0.51457790158E+01  0.20570510844E+02  0.30092151744E+02  0.51100000000E-03 0. -1.
        -11    1    3    3    0    0 -0.90034996442E+01  0.23712712207E+01  0.11663255438E+02  0.14923721410E+02  0.51100000000E-03 0.  1.
        -12    1    3    3    0    0  0.31267543142E+02 -0.73989926227E+01 -0.31493901907E+02  0.44991890417E+02  0.00000000000E+00 0.  1.
</event>
<event>
 7    1  0.2000468E-015  0.9000776E+02  0.7816164E-02  0.1186339E+00
        -11   -1    0    0    0    0  0.00000000000E+00  0.00000000000E+00  0.45593999997E+02  0.45594000000E+02  0.51100000000E-03 0. -1.
         11   -1    0    0    0    0 -0.00000000000E+00 -0.00000000000E+00 -0.45593999997E+02  0.45594000000E+02  0.51100000000E-03 0.  1.
    9900012    2    1    2    0    0  0.35288460773E+00  0.96907591990E+00 -0.57387935694E+00  0.90007757143E+02  0.90000018737E+02 0.  0.
         12    1    1    2    0    0 -0.35288460773E+00 -0.96907591990E+00  0.57387935694E+00  0.11802428569E+01  0.00000000000E+00 0. -1.
         11    1    3    3    0    0 -0.52845879081E+01 -0.74105206161E+01 -0.35654744954E-01  0.91018655606E+01  0.51100000000E-03 0. -1.
        -11    1    3    3    0    0 -0.91066262289E+01  0.32683811761E+02  0.25431962587E+02  0.42402204115E+02  0.51100000000E-03 0.  1.
         12    1    3    3    0    0  0.14744098745E+02 -0.24304215225E+02 -0.25970187199E+02  0.38503687468E+02  0.00000000000E+00 0. -1.
</event>
<event>
 7    1  0.2000468E-015  0.9000775E+02  0.7816164E-02  0.1186339E+00
        -11   -1    0    0    0    0  0.00000000000E+00  0.00000000000E+00  0.45593999997E+02  0.45594000000E+02  0.51100000000E-03 0.  1.
         11   -1    0    0    0    0 -0.00000000000E+00 -0.00000000000E+00 -0.45593999997E+02  0.45594000000E+02  0.51100000000E-03 0. -1.
    9900012    2    1    2    0    0 -0.25887976956E+00  0.11473566905E+01  0.97695212411E-01  0.90007749830E+02  0.90000011327E+02 0.  0.
         12    1    1    2    0    0  0.25887976956E+00 -0.11473566905E+01 -0.97695212411E-01  0.11802501705E+01  0.00000000000E+00 0. -1.
         11    1    3    3    0    0 -0.53694538542E+01  0.39256605339E+02 -0.73643766083E+01  0.40300696527E+02  0.51100000000E-03 0. -1.
        -11    1    3    3    0    0 -0.30174814860E+01  0.19813569738E+01  0.80221908886E+01  0.87969606621E+01  0.51100000000E-03 0.  1.
        -12    1    3    3    0    0  0.81280555706E+01 -0.40090605622E+02 -0.56011906793E+00  0.40910092641E+02  0.00000000000E+00 0.  1.
</event>
<event>
 7    1  0.2000468E-015  0.9000776E+02  0.7816164E-02  0.1186339E+00
        -11   -1    0    0    0    0  0.00000000000E+00  0.00000000000E+00  0.45593999997E+02  0.45594000000E+02  0.51100000000E-03 0.  1.
         11   -1    0    0    0    0 -0.00000000000E+00 -0.00000000000E+00 -0.45593999997E+02  0.45594000000E+02  0.51100000000E-03 0. -1.
    9900012    2    1    2    0    0 -0.69710023304E+00  0.84848456272E+00 -0.43253179245E+00  0.90007763354E+02  0.90000025031E+02 0.  0.
         12    1    1    2    0    0  0.69710023304E+00 -0.84848456272E+00  0.43253179245E+00  0.11802366456E+01  0.00000000000E+00 0. -1.
         11    1    3    3    0    0  0.67090354845E+01  0.55226963300E+01  0.46130762958E+01  0.98382826275E+01  0.51100000000E-03 0. -1.
        -11    1    3    3    0    0  0.14123799604E+02  0.19056076055E+02  0.26250786995E+02  0.35379649065E+02  0.51100000000E-03 0.  1.
         12    1    3    3    0    0 -0.21529935321E+02 -0.23730287822E+02 -0.31296395084E+02  0.44789831662E+02  0.00000000000E+00 0. -1.
</event>
<event>
 7    1  0.2000468E-015  0.9000813E+02  0.7816164E-02  0.1186338E+00
        -11   -1    0    0    0    0  0.00000000000E+00  0.00000000000E+00  0.45593999997E+02  0.45594000000E+02  0.51100000000E-03 0.  1.
         11   -1    0    0    0    0 -0.00000000000E+00 -0.00000000000E+00 -0.45593999997E+02  0.45594000000E+02  0.51100000000E-03 0. -1.
    9900012    2    1    2    0    0 -0.10306908202E+01 -0.54655574345E-01 -0.57164774810E+00  0.90008130538E+02  0.90000397061E+02 0.  0.
         12    1    1    2    0    0  0.10306908202E+01  0.54655574345E-01  0.57164774810E+00  0.11798694617E+01  0.00000000000E+00 0. -1.
         11    1    3    3    0    0  0.39253731347E+01 -0.13834874204E+02 -0.18297164702E+02  0.23272269655E+02  0.51100000000E-03 0. -1.
        -11    1    3    3    0    0 -0.20793007786E+02 -0.16478732290E+02 -0.31358435676E+01  0.26715750145E+02  0.51100000000E-03 0.  1.
        -12    1    3    3    0    0  0.15836943831E+02  0.30258950920E+02  0.20861360522E+02  0.40020110738E+02  0.00000000000E+00 0.  1.
</event>
<event>
 7    1  0.2000468E-015  0.9000767E+02  0.7816164E-02  0.1186339E+00
        -11   -1    0    0    0    0  0.00000000000E+00  0.00000000000E+00  0.45593999997E+02  0.45594000000E+02  0.51100000000E-03 0. -1.
         11   -1    0    0    0    0 -0.00000000000E+00 -0.00000000000E+00 -0.45593999997E+02  0.45594000000E+02  0.51100000000E-03 0.  1.
    9900012    2    1    2    0    0  0.11650318616E+01 -0.14822197282E+00  0.11796654468E+00  0.90007667379E+02  0.89999927788E+02 0.  0.
         12    1    1    2    0    0 -0.11650318616E+01  0.14822197282E+00 -0.11796654468E+00  0.11803326215E+01  0.00000000000E+00 0. -1.
         11    1    3    3    0    0 -0.25104841712E+01 -0.94901056896E+01  0.27018790127E+01  0.10181590604E+02  0.51100000000E-03 0. -1.
        -11    1    3    3    0    0  0.27751854767E+02 -0.19994437958E+02 -0.18249986140E+02  0.38768608263E+02  0.51100000000E-03 0.  1.
         12    1    3    3    0    0 -0.24076338734E+02  0.29336321675E+02  0.15666073672E+02  0.41057468511E+02  0.00000000000E+00 0. -1.
</event>
<event>
 7    1  0.2000468E-015  0.9000759E+02  0.7816164E-02  0.1186339E+00
        -11   -1    0    0    0    0  0.00000000000E+00  0.00000000000E+00  0.45593999997E+02  0.45594000000E+02  0.51100000000E-03 0. -1.
         11   -1    0    0    0    0 -0.00000000000E+00 -0.00000000000E+00 -0.45593999997E+02  0.45594000000E+02  0.51100000000E-03 0.  1.
    9900012    2    1    2    0    0  0.30866372615E+00 -0.11369872993E+01  0.73171498543E-01  0.90007590121E+02  0.89999849510E+02 0.  0.
         12    1    1    2    0    0 -0.30866372615E+00  0.11369872993E+01 -0.73171498543E-01  0.11804098792E+01  0.00000000000E+00 0. -1.
         11    1    3    3    0    0 -0.51217905487E+01 -0.93806225213E+00 -0.73553956481E+01  0.90119112632E+01  0.51100000000E-03 0. -1.
        -11    1    3    3    0    0 -0.32623271075E+02  0.16398779872E+02  0.13720366931E+02  0.39005720938E+02  0.51100000000E-03 0.  1.
         12    1    3    3    0    0  0.38053725349E+02 -0.16597704919E+02 -0.62917997846E+01  0.41989957920E+02  0.00000000000E+00 0. -1.
</event>
<event>
 7    1  0.2000468E-015  0.9000776E+02  0.7816164E-02  0.1186339E+00
        -11   -1    0    0    0    0  0.00000000000E+00  0.00000000000E+00  0.45593999997E+02  0.45594000000E+02  0.51100000000E-03 0.  1.
         11   -1    0    0    0    0 -0.00000000000E+00 -0.00000000000E+00 -0.45593999997E+02  0.45594000000E+02  0.51100000000E-03 0. -1.
    9900012    2    1    2    0    0 -0.10826737601E+01 -0.46971468960E+00 -0.12064381300E-01  0.90007762774E+02  0.90000024443E+02 0.  0.
         12    1    1    2    0    0  0.10826737601E+01  0.46971468960E+00  0.12064381300E-01  0.11802372260E+01  0.00000000000E+00 0. -1.
         11    1    3    3    0    0 -0.39991010222E+01  0.76504619595E+01 -0.47823066215E+01  0.98687807790E+01  0.51100000000E-03 0. -1.
        -11    1    3    3    0    0 -0.19077375639E+02  0.28603229631E+02  0.12610230563E+02  0.36621154019E+02  0.51100000000E-03 0.  1.
         12    1    3    3    0    0  0.21993802901E+02 -0.36723406280E+02 -0.78399883227E+01  0.43517827976E+02  0.00000000000E+00 0. -1.
</event>
<event>
 7    1  0.2000468E-015  0.9000779E+02  0.7816164E-02  0.1186339E+00
        -11   -1    0    0    0    0  0.00000000000E+00  0.00000000000E+00  0.45593999997E+02  0.45594000000E+02  0.51100000000E-03 0.  1.
         11   -1    0    0    0    0 -0.00000000000E+00 -0.00000000000E+00 -0.45593999997E+02  0.45594000000E+02  0.51100000000E-03 0. -1.
    9900012    2    1    2    0    0 -0.96078490072E+00 -0.11881740790E-02  0.68541035866E+00  0.90007789681E+02  0.90000051705E+02 0.  0.
         12    1    1    2    0    0  0.96078490072E+00  0.11881740790E-02 -0.68541035866E+00  0.11802103190E+01  0.00000000000E+00 0. -1.
         11    1    3    3    0    0 -0.11375138995E+02 -0.26651456796E+02 -0.26562397332E+02  0.39309730205E+02  0.51100000000E-03 0. -1.
        -11    1    3    3    0    0  0.94913080659E+01  0.43817060997E+00 -0.36416736376E+01  0.10175397262E+02  0.51100000000E-03 0.  1.
        -12    1    3    3    0    0  0.92304602830E+00  0.26212098012E+02  0.30889481329E+02  0.40522662214E+02  0.00000000000E+00 0.  1.
</event>
<event>
 7    1  0.2000468E-015  0.9000783E+02  0.7816164E-02  0.1186339E+00
        -11   -1    0    0    0    0  0.00000000000E+00  0.00000000000E+00  0.45593999997E+02  0.45594000000E+02  0.51100000000E-03 0.  1.
         11   -1    0    0    0    0 -0.00000000000E+00 -0.00000000000E+00 -0.45593999997E+02  0.45594000000E+02  0.51100000000E-03 0. -1.
    9900012    2    1    2    0    0  0.67488376326E+00 -0.96729215930E+00 -0.40986715708E-01  0.90007829620E+02  0.90000092171E+02 0.  0.
         12    1    1    2    0    0 -0.67488376326E+00  0.96729215930E+00  0.40986715708E-01  0.11801703802E+01  0.00000000000E+00 0. -1.
         11    1    3    3    0    0  0.66638288461E+01 -0.39396572101E+02  0.13604399233E+02  0.42208721693E+02  0.51100000000E-03 0. -1.
        -11    1    3    3    0    0  0.22393920367E+01  0.33626869782E+01  0.56433744489E+01  0.69404766291E+01  0.51100000000E-03 0.  1.
        -12    1    3    3    0    0 -0.82283371196E+01  0.35066592964E+02 -0.19288760397E+02  0.40858631298E+02  0.00000000000E+00 0.  1.
</event>
<event>
 7    1  0.2000468E-015  0.9000784E+02  0.7816164E-02  0.1186339E+00
        -11   -1    0    0    0    0  0.00000000000E+00  0.00000000000E+00  0.45593999997E+02  0.45594000000E+02  0.51100000000E-03 0. -1.
         11   -1    0    0    0    0 -0.00000000000E+00 -0.00000000000E+00 -0.45593999997E+02  0.45594000000E+02  0.51100000000E-03 0.  1.
    9900012    2    1    2    0    0  0.60070255163E+00  0.10110668113E+01  0.98346733911E-01  0.90007842497E+02  0.90000105218E+02 0.  0.
         12    1    1    2    0    0 -0.60070255163E+00 -0.10110668113E+01 -0.98346733911E-01  0.11801575033E+01  0.00000000000E+00 0. -1.
         11    1    3    3    0    0  0.15999224367E+02 -0.11484712173E+02  0.25863867610E+01  0.19863614746E+02  0.51100000000E-03 0. -1.
        -11    1    3    3    0    0  0.10336665438E+02  0.30471561407E+02 -0.16038802283E+02  0.35952828621E+02  0.51100000000E-03 0.  1.
         12    1    3    3    0    0 -0.25735187254E+02 -0.17975782423E+02  0.13550762256E+02  0.34191399129E+02  0.00000000000E+00 0. -1.
</event>
<event>
 7    1  0.2000468E-015  0.9000776E+02  0.7816164E-02  0.1186339E+00
        -11   -1    0    0    0    0  0.00000000000E+00  0.00000000000E+00  0.45593999997E+02  0.45594000000E+02  0.51100000000E-03 0. -1.
         11   -1    0    0    0    0 -0.00000000000E+00 -0.00000000000E+00 -0.45593999997E+02  0.45594000000E+02  0.51100000000E-03 0.  1.
    9900012    2    1    2    0    0 -0.18060252030E+00 -0.81699653809E+00 -0.83239111100E+00  0.90007756137E+02  0.90000017718E+02 0.  0.
         12    1    1    2    0    0  0.18060252030E+00  0.81699653809E+00  0.83239111100E+00  0.11802438626E+01  0.00000000000E+00 0. -1.
         11    1    3    3    0    0 -0.31743790687E+02  0.30266131644E+02 -0.36514691404E+01  0.44011818856E+02  0.51100000000E-03 0. -1.
        -11    1    3    3    0    0  0.78286133205E+01 -0.35171023947E+01  0.42803867989E+01  0.95905634447E+01  0.51100000000E-03 0.  1.
        -12    1    3    3    0    0  0.23734574846E+02 -0.27566025787E+02 -0.14613087696E+01  0.36405373836E+02  0.00000000000E+00 0.  1.
</event>
<event>
 7    1  0.2000468E-015  0.9000774E+02  0.7816164E-02  0.1186339E+00
        -11   -1    0    0    0    0  0.00000000000E+00  0.00000000000E+00  0.45593999997E+02  0.45594000000E+02  0.51100000000E-03 0.  1.
         11   -1    0    0    0    0 -0.00000000000E+00 -0.00000000000E+00 -0.45593999997E+02  0.45594000000E+02  0.51100000000E-03 0. -1.
    9900012    2    1    2    0    0 -0.51791496909E+00 -0.91249354337E+00  0.54048474488E+00  0.90007744036E+02  0.90000005457E+02 0.  0.
         12    1    1    2    0    0  0.51791496909E+00  0.91249354337E+00 -0.54048474488E+00  0.11802559643E+01  0.00000000000E+00 0. -1.
         11    1    3    3    0    0  0.86952875017E+01  0.45433058357E+01  0.73196179382E+01  0.12240361910E+02  0.51100000000E-03 0. -1.
        -11    1    3    3    0    0  0.10943883393E+02 -0.35431948484E+01  0.32008634642E+02  0.34012872642E+02  0.51100000000E-03 0.  1.
         12    1    3    3    0    0 -0.20157085864E+02 -0.19126045306E+01 -0.38787767835E+02  0.43754509484E+02  0.00000000000E+00 0. -1.
</event>
<event>
 7    1  0.2000468E-015  0.9000775E+02  0.7816164E-02  0.1186339E+00
        -11   -1    0    0    0    0  0.00000000000E+00  0.00000000000E+00  0.45593999997E+02  0.45594000000E+02  0.51100000000E-03 0.  1.
         11   -1    0    0    0    0 -0.00000000000E+00 -0.00000000000E+00 -0.45593999997E+02  0.45594000000E+02  0.51100000000E-03 0. -1.
    9900012    2    1    2    0    0  0.29725197279E+00 -0.10939215980E+01 -0.32857041706E+00  0.90007753536E+02  0.90000015082E+02 0.  0.
         12    1    1    2    0    0 -0.29725197279E+00  0.10939215980E+01  0.32857041706E+00  0.11802464645E+01  0.00000000000E+00 0. -1.
         11    1    3    3    0    0  0.45994364663E+00  0.75269393295E+01  0.58598067865E+01  0.95500628095E+01  0.51100000000E-03 0. -1.
        -11    1    3    3    0    0 -0.36578318551E+02  0.62576391310E+01  0.91734471141E+01  0.38226738911E+02  0.51100000000E-03 0.  1.
         12    1    3    3    0    0  0.36415626877E+02 -0.14878500059E+02 -0.15361824318E+02  0.42230951815E+02  0.00000000000E+00 0. -1.
</event>
<event>
 7    1  0.2000468E-015  0.9000773E+02  0.7816164E-02  0.1186339E+00
        -11   -1    0    0    0    0  0.00000000000E+00  0.00000000000E+00  0.45593999997E+02  0.45594000000E+02  0.51100000000E-03 0.  1.
         11   -1    0    0    0    0 -0.00000000000E+00 -0.00000000000E+00 -0.45593999997E+02  0.45594000000E+02  0.51100000000E-03 0. -1.
    9900012    2    1    2    0    0 -0.23691596035E+00 -0.11034125507E+01  0.34552285144E+00  0.90007731187E+02  0.89999992439E+02 0.  0.
         12    1    1    2    0    0  0.23691596035E+00  0.11034125507E+01 -0.34552285144E+00  0.11802688126E+01  0.00000000000E+00 0. -1.
         11    1    3    3    0    0  0.43043915268E+02 -0.17762190695E+00 -0.11403676883E+02  0.44529249239E+02  0.51100000000E-03 0. -1.
        -11    1    3    3    0    0 -0.93828592286E+01 -0.24072545472E+01  0.38052189639E+00  0.96942105884E+01  0.51100000000E-03 0.  1.
        -12    1    3    3    0    0 -0.33897971999E+02  0.14814639034E+01  0.11368677838E+02  0.35784271360E+02  0.00000000000E+00 0.  1.
</event>
<event>
 7    1  0.2000468E-015  0.9000771E+02  0.7816164E-02  0.1186339E+00
        -11   -1    0    0    0    0  0.00000000000E+00  0.00000000000E+00  0.45593999997E+02  0.45594000000E+02  0.51100000000E-03 0. -1.
         11   -1    0    0    0    0 -0.00000000000E+00 -0.00000000000E+00 -0.45593999997E+02  0.45594000000E+02  0.51100000000E-03 0.  1.
    9900012    2    1    2    0    0  0.75632616693E+00  0.56999718313E+00 -0.70438048042E+00  0.90007712780E+02  0.89999973789E+02 0.  0.
         12    1    1    2    0    0 -0.75632616693E+00 -0.56999718313E+00  0.70438048042E+00  0.11802872196E+01  0.00000000000E+00 0. -1.
         11    1    3    3    0    0  0.20374950936E+02  0.24171413001E+02 -0.17092408671E+02  0.35938089355E+02  0.51100000000E-03 0. -1.
        -11    1    3    3    0    0 -0.61037717664E+01  0.11979216548E+02  0.49549230864E+01  0.14328605024E+02  0.51100000000E-03 0.  1.
        -12    1    3    3    0    0 -0.13514853002E+02 -0.35580632366E+02  0.11433105104E+02  0.39741018401E+02  0.00000000000E+00 0.  1.
</event>
<event>
 7    1  0.2000468E-015  0.9000783E+02  0.7816164E-02  0.1186339E+00
        -11   -1    0    0    0    0  0.00000000000E+00  0.00000000000E+00  0.45593999997E+02  0.45594000000E+02  0.51100000000E-03 0. -1.
         11   -1    0    0    0    0 -0.00000000000E+00 -0.00000000000E+00 -0.45593999997E+02  0.45594000000E+02  0.51100000000E-03 0.  1.
    9900012    2    1    2    0    0  0.10817462513E+01  0.38879867494E+00 -0.26733831147E+00  0.90007826651E+02  0.90000089162E+02 0.  0.
         12    1    1    2    0    0 -0.10817462513E+01 -0.38879867494E+00  0.26733831147E+00  0.11801733494E+01  0.00000000000E+00 0. -1.
         11    1    3    3    0    0 -0.42040970886E+01  0.61073299000E+01  0.20798122953E+01  0.77006188247E+01  0.51100000000E-03 0. -1.
        -11    1    3    3    0    0  0.26280024462E+02 -0.15767726231E+02 -0.32199821080E+02  0.44453226587E+02  0.51100000000E-03 0.  1.
         12    1    3    3    0    0 -0.20994181122E+02  0.10049195006E+02  0.29852670473E+02  0.37853981239E+02  0.00000000000E+00 0. -1.
</event>
<event>
 7    1  0.2000468E-015  0.9000709E+02  0.7816164E-02  0.1186340E+00
        -11   -1    0    0    0    0  0.00000000000E+00  0.00000000000E+00  0.45593999997E+02  0.45594000000E+02  0.51100000000E-03 0. -1.
         11   -1    0    0    0    0 -0.00000000000E+00 -0.00000000000E+00 -0.45593999997E+02  0.45594000000E+02  0.51100000000E-03 0.  1.
    9900012    2    1    2    0    0 -0.73630669442E+00  0.14170631971E+00 -0.91231089130E+00  0.90007093826E+02  0.89999346662E+02 0.  0.
         12    1    1    2    0    0  0.73630669442E+00 -0.14170631971E+00  0.91231089130E+00  0.11809061740E+01  0.00000000000E+00 0. -1.
         11    1    3    3    0    0 -0.96063741825E+01 -0.50801557191E+01  0.78193990346E+00  0.10895037280E+02  0.51100000000E-03 0. -1.
        -11    1    3    3    0    0 -0.12033268535E+02 -0.17330304998E+02 -0.30427763044E+02  0.37026852244E+02  0.51100000000E-03 0.  1.
         12    1    3    3    0    0  0.20903336023E+02  0.22552167036E+02  0.28733512249E+02  0.42085204302E+02  0.00000000000E+00 0. -1.
</event>
<event>
 7    1  0.2132624E-015  0.9000769E+02  0.7816164E-02  0.1186339E+00
        -11   -1    0    0    0    0  0.00000000000E+00  0.00000000000E+00  0.45593999997E+02  0.45594000000E+02  0.51100000000E-03 0. -1.
         11   -1    0    0    0    0 -0.00000000000E+00 -0.00000000000E+00 -0.45593999997E+02  0.45594000000E+02  0.51100000000E-03 0.  1.
    9900012    2    1    2    0    0 -0.52134383454E+00 -0.74005833469E+00 -0.75738795520E+00  0.90007694003E+02  0.89999954764E+02 0.  0.
         12    1    1    2    0    0  0.52134383454E+00  0.74005833469E+00  0.75738795520E+00  0.11803059973E+01  0.00000000000E+00 0. -1.
         11    1    3    3    0    0 -0.11427398592E+02  0.25516956503E+02  0.28776001738E+02  0.40121799361E+02  0.51100000000E-03 0. -1.
        -11    1    3    3    0    0 -0.66556173277E+01 -0.62091464213E+01  0.12279274114E+01  0.91846909192E+01  0.51100000000E-03 0.  1.
        -12    1    3    3    0    0  0.17561672085E+02 -0.20047868416E+02 -0.30761317104E+02  0.40701203722E+02  0.00000000000E+00 0.  1.
</event>
<event>
 7    1  0.2000468E-015  0.9000766E+02  0.7816164E-02  0.1186339E+00
        -11   -1    0    0    0    0  0.00000000000E+00  0.00000000000E+00  0.45593999997E+02  0.45594000000E+02  0.51100000000E-03 0.  1.
         11   -1    0    0    0    0 -0.00000000000E+00 -0.00000000000E+00 -0.45593999997E+02  0.45594000000E+02  0.51100000000E-03 0. -1.
    9900012    2    1    2    0    0 -0.43771464017E+00 -0.27914377853E+00  0.10600439703E+01  0.90007657434E+02  0.89999917712E+02 0.  0.
         12    1    1    2    0    0  0.43771464017E+00  0.27914377853E+00 -0.10600439703E+01  0.11803425665E+01  0.00000000000E+00 0. -1.
         11    1    3    3    0    0  0.25637093375E+01 -0.69197892727E+01  0.10067140018E+02  0.12482123119E+02  0.51100000000E-03 0. -1.
        -11    1    3    3    0    0  0.75462119549E+01 -0.13472872010E+02  0.29226428792E+02  0.33055222511E+02  0.51100000000E-03 0.  1.
         12    1    3    3    0    0 -0.10547635933E+02  0.20113517504E+02 -0.38233524840E+02  0.44470311803E+02  0.00000000000E+00 0. -1.
</event>
<event>
 7    1  0.2000468E-015  0.9000776E+02  0.7816164E-02  0.1186339E+00
        -11   -1    0    0    0    0  0.00000000000E+00  0.00000000000E+00  0.45593999997E+02  0.45594000000E+02  0.51100000000E-03 0.  1.
         11   -1    0    0    0    0 -0.00000000000E+00 -0.00000000000E+00 -0.45593999997E+02  0.45594000000E+02  0.51100000000E-03 0. -1.
    9900012    2    1    2    0    0  0.33555131739E+00  0.10717979706E+01  0.36278238971E+00  0.90007764160E+02  0.90000025847E+02 0.  0.
         12    1    1    2    0    0 -0.33555131739E+00 -0.10717979706E+01 -0.36278238971E+00  0.11802358402E+01  0.00000000000E+00 0. -1.
         11    1    3    3    0    0  0.65258395631E+01 -0.12748561095E+01 -0.52604942094E+01  0.84784809779E+01  0.51100000000E-03 0. -1.
        -11    1    3    3    0    0  0.20343688510E+02 -0.51769671051E+01 -0.29914409009E+02  0.36545020416E+02  0.51100000000E-03 0.  1.
         12    1    3    3    0    0 -0.26533976756E+02  0.75236211851E+01  0.35537685608E+02  0.44984262766E+02  0.00000000000E+00 0. -1.
</event>
<event>
 7    1  0.2000468E-015  0.9000784E+02  0.7816164E-02  0.1186339E+00
        -11   -1    0    0    0    0  0.00000000000E+00  0.00000000000E+00  0.45593999997E+02  0.45594000000E+02  0.51100000000E-03 0. -1.
         11   -1    0    0    0    0 -0.00000000000E+00 -0.00000000000E+00 -0.45593999997E+02  0.45594000000E+02  0.51100000000E-03 0.  1.
    9900012    2    1    2    0    0  0.60011343477E+00  0.94145074857E+00  0.38251008639E+00  0.90007839158E+02  0.90000101835E+02 0.  0.
         12    1    1    2    0    0 -0.60011343477E+00 -0.94145074857E+00 -0.38251008639E+00  0.11801608419E+01  0.00000000000E+00 0. -1.
         11    1    3    3    0    0 -0.27257303246E+01 -0.18480115672E+01 -0.91943790446E+01  0.97663380462E+01  0.51100000000E-03 0. -1.
        -11    1    3    3    0    0  0.30540572033E+02  0.11874472740E+02 -0.20518080751E+02  0.38661625431E+02  0.51100000000E-03 0.  1.
         12    1    3    3    0    0 -0.27214728274E+02 -0.90850104244E+01  0.30094969882E+02  0.41579875681E+02  0.00000000000E+00 0. -1.
</event>
<event>
 7    1  0.2000468E-015  0.9000772E+02  0.7816164E-02  0.1186339E+00
        -11   -1    0    0    0    0  0.00000000000E+00  0.00000000000E+00  0.45593999997E+02  0.45594000000E+02  0.51100000000E-03 0. -1.
         11   -1    0    0    0    0 -0.00000000000E+00 -0.00000000000E+00 -0.45593999997E+02  0.45594000000E+02  0.51100000000E-03 0.  1.
    9900012    2    1    2    0    0 -0.15387121240E+00 -0.45202658030E+00 -0.10793750644E+01  0.90007722529E+02  0.89999983666E+02 0.  0.
         12    1    1    2    0    0  0.15387121240E+00  0.45202658030E+00  0.10793750644E+01  0.11802774711E+01  0.00000000000E+00 0. -1.
         11    1    3    3    0    0  0.13941289780E+02 -0.42044695740E+02 -0.16328771933E+00  0.44296079553E+02  0.51100000000E-03 0. -1.
        -11    1    3    3    0    0 -0.19714359274E+01  0.77475341042E+01  0.47765391416E+01  0.93126886957E+01  0.51100000000E-03 0.  1.
        -12    1    3    3    0    0 -0.12123725065E+02  0.33845135056E+02 -0.56926264866E+01  0.36398954280E+02  0.00000000000E+00 0.  1.
</event>
<event>
 7    1  0.2000468E-015  0.9000775E+02  0.7816164E-02  0.1186339E+00
        -11   -1    0    0    0    0  0.00000000000E+00  0.00000000000E+00  0.45593999997E+02  0.45594000000E+02  0.51100000000E-03 0. -1.
         11   -1    0    0    0    0 -0.00000000000E+00 -0.00000000000E+00 -0.45593999997E+02  0.45594000000E+02  0.51100000000E-03 0.  1.
    9900012    2    1    2    0    0 -0.36634205806E+00  0.10506407243E+01 -0.39360740428E+00  0.90007754592E+02  0.90000016152E+02 0.  0.
         12    1    1    2    0    0  0.36634205806E+00 -0.10506407243E+01  0.39360740428E+00  0.11802454083E+01  0.00000000000E+00 0. -1.
         11    1    3    3    0    0  0.52605527389E+01  0.12279297700E+01 -0.73130226055E+01  0.90918384570E+01  0.51100000000E-03 0. -1.
        -11    1    3    3    0    0 -0.68939002865E-01 -0.33532881631E+02 -0.18788549735E+02  0.38437852496E+02  0.51100000000E-03 0.  1.
         12    1    3    3    0    0 -0.55579557941E+01  0.33355592586E+02  0.25707964936E+02  0.42478063639E+02  0.00000000000E+00 0. -1.
</event>
<event>
 7    1  0.2000468E-015  0.9000780E+02  0.7816164E-02  0.1186339E+00
        -11   -1    0    0    0    0  0.00000000000E+00  0.00000000000E+00  0.45593999997E+02  0.45594000000E+02  0.51100000000E-03 0.  1.
         11   -1    0    0    0    0 -0.00000000000E+00 -0.00000000000E+00 -0.45593999997E+02  0.45594000000E+02  0.51100000000E-03 0. -1.
    9900012    2    1    2    0    0  0.55331030692E+00 -0.92028035515E+00 -0.48969198262E+00  0.90007802362E+02  0.90000064553E+02 0.  0.
         12    1    1    2    0    0 -0.55331030692E+00  0.92028035515E+00  0.48969198262E+00  0.11801976384E+01  0.00000000000E+00 0. -1.
         11    1    3    3    0    0 -0.19656574624E+02 -0.30318578269E+02 -0.49086217744E+01  0.36464937710E+02  0.51100000000E-03 0. -1.
        -11    1    3    3    0    0 -0.20169220544E+01 -0.88069645902E+01 -0.61989481642E+00  0.90562061434E+01  0.51100000000E-03 0.  1.
        -12    1    3    3    0    0  0.22226806985E+02  0.38205262504E+02  0.50388246082E+01  0.44486658508E+02  0.00000000000E+00 0.  1.
</event>
<event>
 7    1  0.2000468E-015  0.9000787E+02  0.7816164E-02  0.1186339E+00
        -11   -1    0    0    0    0  0.00000000000E+00  0.00000000000E+00  0.45593999997E+02  0.45594000000E+02  0.51100000000E-03 0. -1.
         11   -1    0    0    0    0 -0.00000000000E+00 -0.00000000000E+00 -0.45593999997E+02  0.45594000000E+02  0.51100000000E-03 0.  1.
    9900012    2    1    2    0    0  0.63126434639E+00 -0.58346578163E+00 -0.80856688339E+00  0.90007869754E+02  0.90000132834E+02 0.  0.
         12    1    1    2    0    0 -0.63126434639E+00  0.58346578163E+00  0.80856688339E+00  0.11801302463E+01  0.00000000000E+00 0. -1.
         11    1    3    3    0    0 -0.24027757894E+02 -0.25826124538E+02  0.99188213945E+01  0.36642937603E+02  0.51100000000E-03 0. -1.
        -11    1    3    3    0    0  0.48276489101E+01 -0.79329084295E+01  0.62039707624E+01  0.11168101165E+02  0.51100000000E-03 0.  1.
        -12    1    3    3    0    0  0.19831373331E+02  0.33175567186E+02 -0.16931359040E+02  0.42196830986E+02  0.00000000000E+00 0.  1.
</event>
<event>
 7    1  0.2000468E-015  0.9000776E+02  0.7816164E-02  0.1186339E+00
        -11   -1    0    0    0    0  0.00000000000E+00  0.00000000000E+00  0.45593999997E+02  0.45594000000E+02  0.51100000000E-03 0.  1.
         11   -1    0    0    0    0 -0.00000000000E+00 -0.00000000000E+00 -0.45593999997E+02  0.45594000000E+02  0.51100000000E-03 0. -1.
    9900012    2    1    2    0    0 -0.72417610273E+00 -0.25701542941E+00  0.89581303245E+00  0.90007758945E+02  0.90000020563E+02 0.  0.
         12    1    1    2    0    0  0.72417610273E+00  0.25701542941E+00 -0.89581303245E+00  0.11802410550E+01  0.00000000000E+00 0. -1.
         11    1    3    3    0    0 -0.25198337589E+02  0.22006226083E+02 -0.18731282292E+02  0.38341767568E+02  0.51100000000E-03 0. -1.
        -11    1    3    3    0    0  0.43204857857E+01  0.72012637265E+01 -0.35358436138E+01  0.91119145631E+01  0.51100000000E-03 0.  1.
        -12    1    3    3    0    0  0.20153675701E+02 -0.29464505239E+02  0.23162938938E+02  0.42554076814E+02  0.00000000000E+00 0.  1.
</event>
<event>
 7    1  0.2000468E-015  0.9000774E+02  0.7816164E-02  0.1186339E+00
        -11   -1    0    0    0    0  0.00000000000E+00  0.00000000000E+00  0.45593999997E+02  0.45594000000E+02  0.51100000000E-03 0.  1.
         11   -1    0    0    0    0 -0.00000000000E+00 -0.00000000000E+00 -0.45593999997E+02  0.45594000000E+02  0.51100000000E-03 0. -1.
    9900012    2    1    2    0    0  0.10206723863E+01 -0.58866132926E+00  0.68738651088E-01  0.90007737621E+02  0.89999998958E+02 0.  0.
         12    1    1    2    0    0 -0.10206723863E+01  0.58866132926E+00 -0.68738651088E-01  0.11802623788E+01  0.00000000000E+00 0. -1.
         11    1    3    3    0    0 -0.19402903689E+02  0.27075376477E+02 -0.11223478227E+02  0.35149895401E+02  0.51100000000E-03 0. -1.
        -11    1    3    3    0    0 -0.60569209642E+01  0.64658232178E+01 -0.30049873573E+01  0.93553787058E+01  0.51100000000E-03 0.  1.
        -12    1    3    3    0    0  0.26480497039E+02 -0.34129861024E+02  0.14297204235E+02  0.45502463515E+02  0.00000000000E+00 0.  1.
</event>
<event>
 7    1  0.2000468E-015  0.9000768E+02  0.7816164E-02  0.1186339E+00
        -11   -1    0    0    0    0  0.00000000000E+00  0.00000000000E+00  0.45593999997E+02  0.45594000000E+02  0.51100000000E-03 0.  1.
         11   -1    0    0    0    0 -0.00000000000E+00 -0.00000000000E+00 -0.45593999997E+02  0.45594000000E+02  0.51100000000E-03 0. -1.
    9900012    2    1    2    0    0  0.68357603548E+00 -0.77806151568E+00  0.56613107323E+00  0.90007677878E+02  0.89999938426E+02 0.  0.
         12    1    1    2    0    0 -0.68357603548E+00  0.77806151568E+00 -0.56613107323E+00  0.11803221215E+01  0.00000000000E+00 0. -1.
         11    1    3    3    0    0  0.31843553965E+02  0.14870957605E+02  0.10626992599E+02  0.36716348963E+02  0.51100000000E-03 0. -1.
        -11    1    3    3    0    0  0.17123663473E+01  0.69709735694E+01  0.68782873349E+01  0.99417054842E+01  0.51100000000E-03 0.  1.
        -12    1    3    3    0    0 -0.32872344277E+02 -0.22619992690E+02 -0.16939148861E+02  0.43349623432E+02  0.00000000000E+00 0.  1.
</event>
<event>
 7    1  0.2000468E-015  0.9000765E+02  0.7816164E-02  0.1186339E+00
        -11   -1    0    0    0    0  0.00000000000E+00  0.00000000000E+00  0.45593999997E+02  0.45594000000E+02  0.51100000000E-03 0.  1.
         11   -1    0    0    0    0 -0.00000000000E+00 -0.00000000000E+00 -0.45593999997E+02  0.45594000000E+02  0.51100000000E-03 0. -1.
    9900012    2    1    2    0    0  0.39164084167E+00  0.89289752601E+00  0.66527039368E+00  0.90007646986E+02  0.89999907126E+02 0.  0.
         12    1    1    2    0    0 -0.39164084167E+00 -0.89289752601E+00 -0.66527039368E+00  0.11803530139E+01  0.00000000000E+00 0. -1.
         11    1    3    3    0    0 -0.14130729595E+01 -0.62840237272E+00  0.69849910912E+00  0.16969284008E+01  0.51100000000E-03 0. -1.
        -11    1    3    3    0    0 -0.35072367284E+02  0.52969632014E+01  0.25162503071E+02  0.43488852906E+02  0.51100000000E-03 0.  1.
         12    1    3    3    0    0  0.36877081085E+02 -0.37756633026E+01 -0.25195731786E+02  0.44821865679E+02  0.00000000000E+00 0. -1.
</event>
<event>
 7    1  0.2000468E-015  0.9000770E+02  0.7816164E-02  0.1186339E+00
        -11   -1    0    0    0    0  0.00000000000E+00  0.00000000000E+00  0.45593999997E+02  0.45594000000E+02  0.51100000000E-03 0. -1.
         11   -1    0    0    0    0 -0.00000000000E+00 -0.00000000000E+00 -0.45593999997E+02  0.45594000000E+02  0.51100000000E-03 0.  1.
    9900012    2    1    2    0    0  0.14783158608E+00  0.53340964548E+00  0.10424582992E+01  0.90007703710E+02  0.89999964598E+02 0.  0.
         12    1    1    2    0    0 -0.14783158608E+00 -0.53340964548E+00 -0.10424582992E+01  0.11802962905E+01  0.00000000000E+00 0. -1.
         11    1    3    3    0    0 -0.20289230125E+02 -0.16258424412E+02  0.23975335959E+02  0.35366735191E+02  0.51100000000E-03 0. -1.
        -11    1    3    3    0    0 -0.59590854763E+01 -0.60204214539E+01  0.50986226990E+01  0.98869675778E+01  0.51100000000E-03 0.  1.
        -12    1    3    3    0    0  0.26396147188E+02  0.22812255511E+02 -0.28031500359E+02  0.44754000941E+02  0.00000000000E+00 0.  1.
</event>
<event>
 7    1  0.2000468E-015  0.9000804E+02  0.7816164E-02  0.1186338E+00
        -11   -1    0    0    0    0  0.00000000000E+00  0.00000000000E+00  0.45593999997E+02  0.45594000000E+02  0.51100000000E-03 0.  1.
         11   -1    0    0    0    0 -0.00000000000E+00 -0.00000000000E+00 -0.45593999997E+02  0.45594000000E+02  0.51100000000E-03 0. -1.
    9900012    2    1    2    0    0  0.64880618319E+00 -0.62108056300E+00  0.76526172051E+00  0.90008035581E+02  0.90000300850E+02 0.  0.
         12    1    1    2    0    0 -0.64880618319E+00  0.62108056300E+00 -0.76526172051E+00  0.11799644189E+01  0.00000000000E+00 0. -1.
         11    1    3    3    0    0  0.55395341095E+00 -0.32960485715E+01  0.93878490701E+01  0.99650645252E+01  0.51100000000E-03 0. -1.
        -11    1    3    3    0    0 -0.35574305648E+02 -0.65343839537E+00  0.13367000225E+02  0.38008353021E+02  0.51100000000E-03 0.  1.
         12    1    3    3    0    0  0.35669158420E+02  0.33284064039E+01 -0.21989587575E+02  0.42034618035E+02  0.00000000000E+00 0. -1.
</event>
<event>
 7    1  0.2000468E-015  0.9000815E+02  0.7816164E-02  0.1186338E+00
        -11   -1    0    0    0    0  0.00000000000E+00  0.00000000000E+00  0.45593999997E+02  0.45594000000E+02  0.51100000000E-03 0. -1.
         11   -1    0    0    0    0 -0.00000000000E+00 -0.00000000000E+00 -0.45593999997E+02  0.45594000000E+02  0.51100000000E-03 0.  1.
    9900012    2    1    2    0    0  0.24363209326E+00  0.92727809202E+00 -0.68763275713E+00  0.90008152524E+02  0.90000419337E+02 0.  0.
         12    1    1    2    0    0 -0.24363209326E+00 -0.92727809202E+00  0.68763275713E+00  0.11798474755E+01  0.00000000000E+00 0. -1.
         11    1    3    3    0    0 -0.74320726995E+00 -0.41228767282E+02 -0.55589375645E+01  0.41608477451E+02  0.51100000000E-03 0. -1.
        -11    1    3    3    0    0  0.57274528387E+01  0.54431779102E+01 -0.58835863745E+01  0.98513192350E+01  0.51100000000E-03 0.  1.
        -12    1    3    3    0    0 -0.47406134755E+01  0.36712867464E+02  0.10754891182E+02  0.38548355839E+02  0.00000000000E+00 0.  1.
</event>
<event>
 7    1  0.2000468E-015  0.9000773E+02  0.7816164E-02  0.1186339E+00
        -11   -1    0    0    0    0  0.00000000000E+00  0.00000000000E+00  0.45593999997E+02  0.45594000000E+02  0.51100000000E-03 0.  1.
         11   -1    0    0    0    0 -0.00000000000E+00 -0.00000000000E+00 -0.45593999997E+02  0.45594000000E+02  0.51100000000E-03 0. -1.
    9900012    2    1    2    0    0  0.56967505632E+00  0.39926608646E+00  0.95346943406E+00  0.90007725863E+02  0.89999987044E+02 0.  0.
         12    1    1    2    0    0 -0.56967505632E+00 -0.39926608646E+00 -0.95346943406E+00  0.11802741373E+01  0.00000000000E+00 0. -1.
         11    1    3    3    0    0  0.53883797097E+01  0.22810986477E+01  0.79359462036E+01  0.98598828261E+01  0.51100000000E-03 0. -1.
        -11    1    3    3    0    0  0.81430875847E+01 -0.19295399922E+02  0.30402140942E+02  0.36917644937E+02  0.51100000000E-03 0.  1.
         12    1    3    3    0    0 -0.12961792238E+02  0.17413567361E+02 -0.37384617712E+02  0.43230198099E+02  0.00000000000E+00 0. -1.
</event>
<event>
 7    1  0.2000468E-015  0.9000773E+02  0.7816164E-02  0.1186339E+00
        -11   -1    0    0    0    0  0.00000000000E+00  0.00000000000E+00  0.45593999997E+02  0.45594000000E+02  0.51100000000E-03 0. -1.
         11   -1    0    0    0    0 -0.00000000000E+00 -0.00000000000E+00 -0.45593999997E+02  0.45594000000E+02  0.51100000000E-03 0.  1.
    9900012    2    1    2    0    0 -0.90249455663E+00 -0.75564569308E+00 -0.86855942486E-01  0.90007728509E+02  0.89999989725E+02 0.  0.
         12    1    1    2    0    0  0.90249455663E+00  0.75564569308E+00  0.86855942486E-01  0.11802714912E+01  0.00000000000E+00 0. -1.
         11    1    3    3    0    0 -0.38238002986E+01 -0.26115291922E+02  0.16512722001E+02  0.31133581693E+02  0.51100000000E-03 0. -1.
        -11    1    3    3    0    0  0.16037566513E+01 -0.67099416325E+01  0.13316466781E+02  0.14997454448E+02  0.51100000000E-03 0.  1.
        -12    1    3    3    0    0  0.13175490907E+01  0.32069587861E+02 -0.29916044725E+02  0.43876692368E+02  0.00000000000E+00 0.  1.
</event>
<event>
 7    1  0.2000468E-015  0.9000776E+02  0.7816164E-02  0.1186339E+00
        -11   -1    0    0    0    0  0.00000000000E+00  0.00000000000E+00  0.45593999997E+02  0.45594000000E+02  0.51100000000E-03 0. -1.
         11   -1    0    0    0    0 -0.00000000000E+00 -0.00000000000E+00 -0.45593999997E+02  0.45594000000E+02  0.51100000000E-03 0.  1.
    9900012    2    1    2    0    0 -0.11509895958E+00  0.99653770508E+00 -0.62180419705E+00  0.90007756115E+02  0.90000017696E+02 0.  0.
         12    1    1    2    0    0  0.11509895958E+00 -0.99653770508E+00  0.62180419705E+00  0.11802438848E+01  0.00000000000E+00 0. -1.
         11    1    3    3    0    0  0.12442861305E+01 -0.11173667669E+02  0.98822166464E+00  0.11286083442E+02  0.51100000000E-03 0. -1.
        -11    1    3    3    0    0  0.35507789220E+02  0.16935151567E+02  0.83942613975E+01  0.40225192089E+02  0.51100000000E-03 0.  1.
         12    1    3    3    0    0 -0.36867174310E+02 -0.47649461935E+01 -0.10004287259E+02  0.38496480584E+02  0.00000000000E+00 0. -1.
</event>
<event>
 7    1  0.2000468E-015  0.9000764E+02  0.7816164E-02  0.1186339E+00
        -11   -1    0    0    0    0  0.00000000000E+00  0.00000000000E+00  0.45593999997E+02  0.45594000000E+02  0.51100000000E-03 0.  1.
         11   -1    0    0    0    0 -0.00000000000E+00 -0.00000000000E+00 -0.45593999997E+02  0.45594000000E+02  0.51100000000E-03 0. -1.
    9900012    2    1    2    0    0 -0.11320690786E+01 -0.28180018674E+00 -0.17957617246E+00  0.90007644399E+02  0.89999904505E+02 0.  0.
         12    1    1    2    0    0  0.11320690786E+01  0.28180018674E+00  0.17957617246E+00  0.11803556014E+01  0.00000000000E+00 0. -1.
         11    1    3    3    0    0 -0.73494027567E+01 -0.36645999505E+01  0.15533587628E+00  0.82138385164E+01  0.51100000000E-03 0. -1.
        -11    1    3    3    0    0 -0.11252528110E+02 -0.14129039611E+01  0.37859060508E+02  0.39521186082E+02  0.51100000000E-03 0.  1.
         12    1    3    3    0    0  0.17469861788E+02  0.47957037250E+01 -0.38193972557E+02  0.42272619801E+02  0.00000000000E+00 0. -1.
</event>
<event>
 7    1  0.2000468E-015  0.9000765E+02  0.7816164E-02  0.1186339E+00
        -11   -1    0    0    0    0  0.00000000000E+00  0.00000000000E+00  0.45593999997E+02  0.45594000000E+02  0.51100000000E-03 0.  1.
         11   -1    0    0    0    0 -0.00000000000E+00 -0.00000000000E+00 -0.45593999997E+02  0.45594000000E+02  0.51100000000E-03 0. -1.
    9900012    2    1    2    0    0  0.10849519548E+01  0.19731415908E+00  0.42093166776E+00  0.90007645354E+02  0.89999905473E+02 0.  0.
         12    1    1    2    0    0 -0.10849519548E+01 -0.19731415908E+00 -0.42093166776E+00  0.11803546461E+01  0.00000000000E+00 0. -1.
         11    1    3    3    0    0 -0.96122302180E+01  0.16596607254E+02 -0.31481441200E+02  0.36863579349E+02  0.51100000000E-03 0. -1.
        -11    1    3    3    0    0  0.44854491100E+01  0.11463279985E+02  0.33237532136E+01  0.12750426559E+02  0.51100000000E-03 0.  1.
        -12    1    3    3    0    0  0.62117330628E+01 -0.27862573081E+02  0.28578619655E+02  0.40393639446E+02  0.00000000000E+00 0.  1.
</event>
<event>
 7    1  0.2000468E-015  0.9000780E+02  0.7816164E-02  0.1186339E+00
        -11   -1    0    0    0    0  0.00000000000E+00  0.00000000000E+00  0.45593999997E+02  0.45594000000E+02  0.51100000000E-03 0. -1.
         11   -1    0    0    0    0 -0.00000000000E+00 -0.00000000000E+00 -0.45593999997E+02  0.45594000000E+02  0.51100000000E-03 0.  1.
    9900012    2    1    2    0    0 -0.40845970121E+00 -0.11072542086E+01 -0.49117205285E-02  0.90007798604E+02  0.90000060746E+02 0.  0.
         12    1    1    2    0    0  0.40845970121E+00  0.11072542086E+01  0.49117205285E-02  0.11802013960E+01  0.00000000000E+00 0. -1.
         11    1    3    3    0    0  0.28149255913E+02  0.13437864056E+02  0.17031472345E+02  0.35539103103E+02  0.51100000000E-03 0. -1.
        -11    1    3    3    0    0  0.79821913975E+01  0.81069291333E+00  0.46652521575E+01  0.92810118231E+01  0.51100000000E-03 0.  1.
        -12    1    3    3    0    0 -0.36539907012E+02 -0.15355811178E+02 -0.21701636223E+02  0.45187683678E+02  0.00000000000E+00 0.  1.
</event>
<event>
 7    1  0.2000468E-015  0.9000773E+02  0.7816164E-02  0.1186339E+00
        -11   -1    0    0    0    0  0.00000000000E+00  0.00000000000E+00  0.45593999997E+02  0.45594000000E+02  0.51100000000E-03 0.  1.
         11   -1    0    0    0    0 -0.00000000000E+00 -0.00000000000E+00 -0.45593999997E+02  0.45594000000E+02  0.51100000000E-03 0. -1.
    9900012    2    1    2    0    0 -0.48437747426E+00 -0.45924004164E+00  0.97340558056E+00  0.90007728261E+02  0.89999989474E+02 0.  0.
         12    1    1    2    0    0  0.48437747426E+00  0.45924004164E+00 -0.97340558056E+00  0.11802717389E+01  0.00000000000E+00 0. -1.
         11    1    3    3    0    0  0.47991193926E+01 -0.14409667319E+02 -0.23554801566E+01  0.15369396417E+02  0.51100000000E-03 0. -1.
        -11    1    3    3    0    0 -0.20946263072E+01  0.50442607584E+01  0.38158242069E+02  0.38547158962E+02  0.51100000000E-03 0.  1.
         12    1    3    3    0    0 -0.31888705597E+01  0.89061665189E+01 -0.34829356332E+02  0.36091172882E+02  0.00000000000E+00 0. -1.
</event>
<event>
 7    1  0.2000468E-015  0.9000780E+02  0.7816164E-02  0.1186339E+00
        -11   -1    0    0    0    0  0.00000000000E+00  0.00000000000E+00  0.45593999997E+02  0.45594000000E+02  0.51100000000E-03 0.  1.
         11   -1    0    0    0    0 -0.00000000000E+00 -0.00000000000E+00 -0.45593999997E+02  0.45594000000E+02  0.51100000000E-03 0. -1.
    9900012    2    1    2    0    0 -0.87882293580E+00 -0.57578051766E+00  0.53759895134E+00  0.90007802733E+02  0.90000064929E+02 0.  0.
         12    1    1    2    0    0  0.87882293580E+00  0.57578051766E+00 -0.53759895134E+00  0.11801972672E+01  0.00000000000E+00 0. -1.
         11    1    3    3    0    0  0.62796878243E+01 -0.77645545171E+00 -0.58295531247E+01  0.86035488105E+01  0.51100000000E-03 0. -1.
        -11    1    3    3    0    0  0.28625897336E+02  0.23176672546E+02  0.11462731367E+02  0.38574529929E+02  0.51100000000E-03 0.  1.
         12    1    3    3    0    0 -0.35784408096E+02 -0.22975997611E+02 -0.50955792913E+01  0.42829723993E+02  0.00000000000E+00 0. -1.
</event>
<event>
 7    1  0.2000468E-015  0.9000778E+02  0.7816164E-02  0.1186339E+00
        -11   -1    0    0    0    0  0.00000000000E+00  0.00000000000E+00  0.45593999997E+02  0.45594000000E+02  0.51100000000E-03 0.  1.
         11   -1    0    0    0    0 -0.00000000000E+00 -0.00000000000E+00 -0.45593999997E+02  0.45594000000E+02  0.51100000000E-03 0. -1.
    9900012    2    1    2    0    0  0.29587632397E+00  0.11367611554E+01 -0.11469604127E+00  0.90007778027E+02  0.90000039897E+02 0.  0.
         12    1    1    2    0    0 -0.29587632397E+00 -0.11367611554E+01  0.11469604127E+00  0.11802219729E+01  0.00000000000E+00 0. -1.
         11    1    3    3    0    0 -0.15567994548E+02  0.11588644260E+02  0.55780792434E+01  0.20193417203E+02  0.51100000000E-03 0. -1.
        -11    1    3    3    0    0 -0.27364248318E+01  0.15480368640E+02  0.22353988770E+02  0.27328202434E+02  0.51100000000E-03 0.  1.
         12    1    3    3    0    0  0.18600295704E+02 -0.25932251745E+02 -0.28046764054E+02  0.42486158390E+02  0.00000000000E+00 0. -1.
</event>
<event>
 7    1  0.2000468E-015  0.9000772E+02  0.7816164E-02  0.1186339E+00
        -11   -1    0    0    0    0  0.00000000000E+00  0.00000000000E+00  0.45593999997E+02  0.45594000000E+02  0.51100000000E-03 0. -1.
         11   -1    0    0    0    0 -0.00000000000E+00 -0.00000000000E+00 -0.45593999997E+02  0.45594000000E+02  0.51100000000E-03 0.  1.
    9900012    2    1    2    0    0  0.10864558684E+01 -0.30295214142E+00 -0.34768504340E+00  0.90007724082E+02  0.89999985240E+02 0.  0.
         12    1    1    2    0    0 -0.10864558684E+01  0.30295214142E+00  0.34768504340E+00  0.11802759183E+01  0.00000000000E+00 0. -1.
         11    1    3    3    0    0  0.14478679822E+02 -0.20187064996E+02 -0.12120736088E+02  0.27641671551E+02  0.51100000000E-03 0. -1.
        -11    1    3    3    0    0 -0.22805946882E+01 -0.83610363599E+01 -0.17919651976E+02  0.19905325125E+02  0.51100000000E-03 0.  1.
        -12    1    3    3    0    0 -0.11111629266E+02  0.28245149215E+02  0.29692703021E+02  0.42460727405E+02  0.00000000000E+00 0.  1.
</event>
<event>
 7    1  0.2000468E-015  0.9000759E+02  0.7816164E-02  0.1186339E+00
        -11   -1    0    0    0    0  0.00000000000E+00  0.00000000000E+00  0.45593999997E+02  0.45594000000E+02  0.51100000000E-03 0. -1.
         11   -1    0    0    0    0 -0.00000000000E+00 -0.00000000000E+00 -0.45593999997E+02  0.45594000000E+02  0.51100000000E-03 0.  1.
    9900012    2    1    2    0    0 -0.58906753449E+00  0.77788315000E+00 -0.66428452643E+00  0.90007586222E+02  0.89999845560E+02 0.  0.
         12    1    1    2    0    0  0.58906753449E+00 -0.77788315000E+00  0.66428452643E+00  0.11804137780E+01  0.00000000000E+00 0. -1.
         11    1    3    3    0    0  0.32902928026E+02  0.58155309415E+01  0.10191539888E+02  0.34932657476E+02  0.51100000000E-03 0. -1.
        -11    1    3    3    0    0  0.68293007934E+01  0.52628878126E+01  0.56464189497E+01  0.10306278896E+02  0.51100000000E-03 0.  1.
        -12    1    3    3    0    0 -0.40321296354E+02 -0.10300535604E+02 -0.16502243364E+02  0.44768649850E+02  0.00000000000E+00 0.  1.
</event>
<event>
 7    1  0.2000468E-015  0.9000769E+02  0.7816164E-02  0.1186339E+00
        -11   -1    0    0    0    0  0.00000000000E+00  0.00000000000E+00  0.45593999997E+02  0.45594000000E+02  0.51100000000E-03 0. -1.
         11   -1    0    0    0    0 -0.00000000000E+00 -0.00000000000E+00 -0.45593999997E+02  0.45594000000E+02  0.51100000000E-03 0.  1.
    9900012    2    1    2    0    0 -0.10891171777E+01 -0.32248309989E+00  0.32087438457E+00  0.90007689894E+02  0.89999950600E+02 0.  0.
         12    1    1    2    0    0  0.10891171777E+01  0.32248309989E+00 -0.32087438457E+00  0.11803101064E+01  0.00000000000E+00 0. -1.
         11    1    3    3    0    0  0.12643067745E+00  0.45629508917E+01 -0.52272732877E+01  0.69398048850E+01  0.51100000000E-03 0. -1.
        -11    1    3    3    0    0 -0.35180447613E+02  0.18266169693E+02 -0.66443883011E+01  0.40192844458E+02  0.51100000000E-03 0.  1.
         12    1    3    3    0    0  0.33964899758E+02 -0.23151603685E+02  0.12192535973E+02  0.42875040550E+02  0.00000000000E+00 0. -1.
</event>
<event>
 7    1  0.2542564E-015  0.9000772E+02  0.7816164E-02  0.1186339E+00
        -11   -1    0    0    0    0  0.00000000000E+00  0.00000000000E+00  0.45593999997E+02  0.45594000000E+02  0.51100000000E-03 0.  1.
         11   -1    0    0    0    0 -0.00000000000E+00 -0.00000000000E+00 -0.45593999997E+02  0.45594000000E+02  0.51100000000E-03 0. -1.
    9900012    2    1    2    0    0 -0.10643397394E+01  0.50634026801E+00  0.62148236865E-01  0.90007719546E+02  0.89999980644E+02 0.  0.
         12    1    1    2    0    0  0.10643397394E+01 -0.50634026801E+00 -0.62148236865E-01  0.11802804544E+01  0.00000000000E+00 0. -1.
         11    1    3    3    0    0 -0.99112876155E+00 -0.10657275858E+02 -0.40126974248E+02  0.41529916055E+02  0.51100000000E-03 0. -1.
        -11    1    3    3    0    0 -0.27643240355E+01  0.91057345620E+01  0.14916043413E+01  0.96322776673E+01  0.51100000000E-03 0.  1.
        -12    1    3    3    0    0  0.26911130577E+01  0.20578815642E+01  0.38697518144E+02  0.38845525824E+02  0.00000000000E+00 0.  1.
</event>
<event>
 7    1  0.2000468E-015  0.9000762E+02  0.7816164E-02  0.1186339E+00
        -11   -1    0    0    0    0  0.00000000000E+00  0.00000000000E+00  0.45593999997E+02  0.45594000000E+02  0.51100000000E-03 0. -1.
         11   -1    0    0    0    0 -0.00000000000E+00 -0.00000000000E+00 -0.45593999997E+02  0.45594000000E+02  0.51100000000E-03 0.  1.
    9900012    2    1    2    0    0 -0.50171722684E+00 -0.10438193115E+01  0.22806824168E+00  0.90007621225E+02  0.89999881025E+02 0.  0.
         12    1    1    2    0    0  0.50171722684E+00  0.10438193115E+01 -0.22806824168E+00  0.11803787755E+01  0.00000000000E+00 0. -1.
         11    1    3    3    0    0 -0.38821645560E+02 -0.14453291928E+02  0.17894733810E+02  0.45124708420E+02  0.51100000000E-03 0. -1.
        -11    1    3    3    0    0  0.86054697337E+01  0.28659375538E+01 -0.74825943779E+00  0.91009669732E+01  0.51100000000E-03 0.  1.
        -12    1    3    3    0    0  0.29714458600E+02  0.10543535063E+02 -0.16918406131E+02  0.35781945832E+02  0.00000000000E+00 0.  1.
</event>
<event>
 7    1  0.2245672E-015  0.9000775E+02  0.7816164E-02  0.1186339E+00
        -11   -1    0    0    0    0  0.00000000000E+00  0.00000000000E+00  0.45593999997E+02  0.45594000000E+02  0.51100000000E-03 0. -1.
         11   -1    0    0    0    0 -0.00000000000E+00 -0.00000000000E+00 -0.45593999997E+02  0.45594000000E+02  0.51100000000E-03 0.  1.
    9900012    2    1    2    0    0  0.97237164726E+00  0.61939653803E+00 -0.25263530609E+00  0.90007752869E+02  0.90000014407E+02 0.  0.
         12    1    1    2    0    0 -0.97237164726E+00 -0.61939653803E+00  0.25263530609E+00  0.11802471307E+01  0.00000000000E+00 0. -1.
         11    1    3    3    0    0 -0.23500092102E+02  0.23845697177E+02  0.24468218517E+02  0.41467641847E+02  0.51100000000E-03 0. -1.
        -11    1    3    3    0    0  0.23783841693E+01  0.40389283228E+01 -0.88717244937E+01  0.10033800327E+02  0.51100000000E-03 0.  1.
        -12    1    3    3    0    0  0.22094079580E+02 -0.27265228962E+02 -0.15849129329E+02  0.38506310695E+02  0.00000000000E+00 0.  1.
</event>
<event>
 7    1  0.2000468E-015  0.9000773E+02  0.7816164E-02  0.1186339E+00
        -11   -1    0    0    0    0  0.00000000000E+00  0.00000000000E+00  0.45593999997E+02  0.45594000000E+02  0.51100000000E-03 0. -1.
         11   -1    0    0    0    0 -0.00000000000E+00 -0.00000000000E+00 -0.45593999997E+02  0.45594000000E+02  0.51100000000E-03 0.  1.
    9900012    2    1    2    0    0 -0.63634156293E+00  0.53355877882E+00 -0.83870500663E+00  0.90007728149E+02  0.89999989360E+02 0.  0.
         12    1    1    2    0    0  0.63634156293E+00 -0.53355877882E+00  0.83870500663E+00  0.11802718514E+01  0.00000000000E+00 0. -1.
         11    1    3    3    0    0 -0.18186886065E+01 -0.35536902707E+02  0.46401779841E+01  0.35884681053E+02  0.51100000000E-03 0. -1.
        -11    1    3    3    0    0  0.29449656943E+01 -0.86214946545E+01 -0.58400716030E+00  0.91292966675E+01  0.51100000000E-03 0.  1.
        -12    1    3    3    0    0 -0.17626186508E+01  0.44691956141E+02 -0.48948758304E+01  0.44993750428E+02  0.00000000000E+00 0.  1.
</event>
<event>
 7    1  0.2000468E-015  0.9000774E+02  0.7816164E-02  0.1186339E+00
        -11   -1    0    0    0    0  0.00000000000E+00  0.00000000000E+00  0.45593999997E+02  0.45594000000E+02  0.51100000000E-03 0. -1.
         11   -1    0    0    0    0 -0.00000000000E+00 -0.00000000000E+00 -0.45593999997E+02  0.45594000000E+02  0.51100000000E-03 0.  1.
    9900012    2    1    2    0    0 -0.21876025667E+00 -0.11548659844E+00 -0.11540428659E+01  0.90007742341E+02  0.90000003740E+02 0.  0.
         12    1    1    2    0    0  0.21876025667E+00  0.11548659844E+00  0.11540428659E+01  0.11802576585E+01  0.00000000000E+00 0. -1.
         11    1    3    3    0    0  0.61216894003E+01  0.39213757006E+01 -0.75313997812E+01  0.10467772037E+02  0.51100000000E-03 0. -1.
        -11    1    3    3    0    0 -0.32659717872E+00 -0.85712555633E+01 -0.35739794887E+02  0.36754673532E+02  0.51100000000E-03 0.  1.
         12    1    3    3    0    0 -0.60138524782E+01  0.45343932643E+01  0.42117151802E+02  0.42785296772E+02  0.00000000000E+00 0. -1.
</event>
<event>
 7    1  0.2000468E-015  0.9000776E+02  0.7816164E-02  0.1186339E+00
        -11   -1    0    0    0    0  0.00000000000E+00  0.00000000000E+00  0.45593999997E+02  0.45594000000E+02  0.51100000000E-03 0.  1.
         11   -1    0    0    0    0 -0.00000000000E+00 -0.00000000000E+00 -0.45593999997E+02  0.45594000000E+02  0.51100000000E-03 0. -1.
    9900012    2    1    2    0    0 -0.96543317407E+00 -0.64490593207E+00  0.21211776703E+00  0.90007763235E+02  0.90000024910E+02 0.  0.
         12    1    1    2    0    0  0.96543317407E+00  0.64490593207E+00 -0.21211776703E+00  0.11802367652E+01  0.00000000000E+00 0. -1.
         11    1    3    3    0    0  0.15390766587E+01  0.10953306310E+02 -0.39453221055E+02  0.40974386242E+02  0.51100000000E-03 0. -1.
        -11    1    3    3    0    0  0.20170896177E+00 -0.10148344556E+02  0.94802050613E+00  0.10194524357E+02  0.51100000000E-03 0.  1.
        -12    1    3    3    0    0 -0.27062187945E+01 -0.14498676867E+01  0.38717318316E+02  0.38838852635E+02  0.00000000000E+00 0.  1.
</event>
<event>
 7    1  0.2000468E-015  0.9000775E+02  0.7816164E-02  0.1186339E+00
        -11   -1    0    0    0    0  0.00000000000E+00  0.00000000000E+00  0.45593999997E+02  0.45594000000E+02  0.51100000000E-03 0.  1.
         11   -1    0    0    0    0 -0.00000000000E+00 -0.00000000000E+00 -0.45593999997E+02  0.45594000000E+02  0.51100000000E-03 0. -1.
    9900012    2    1    2    0    0 -0.58424298695E+00  0.90077433018E+00 -0.49016568369E+00  0.90007747205E+02  0.90000008669E+02 0.  0.
         12    1    1    2    0    0  0.58424298695E+00 -0.90077433018E+00  0.49016568369E+00  0.11802527946E+01  0.00000000000E+00 0. -1.
         11    1    3    3    0    0  0.26994036157E+02 -0.19250958367E+02 -0.18094106420E+02  0.37771339313E+02  0.51100000000E-03 0. -1.
        -11    1    3    3    0    0 -0.59488194881E+00 -0.87613092038E+01 -0.38318537799E+00  0.87898381551E+01  0.51100000000E-03 0.  1.
        -12    1    3    3    0    0 -0.26983397195E+02  0.28913041901E+02  0.17987126114E+02  0.43446569738E+02  0.00000000000E+00 0.  1.
</event>
<event>
 7    1  0.2000468E-015  0.9000781E+02  0.7816164E-02  0.1186339E+00
        -11   -1    0    0    0    0  0.00000000000E+00  0.00000000000E+00  0.45593999997E+02  0.45594000000E+02  0.51100000000E-03 0. -1.
         11   -1    0    0    0    0 -0.00000000000E+00 -0.00000000000E+00 -0.45593999997E+02  0.45594000000E+02  0.51100000000E-03 0.  1.
    9900012    2    1    2    0    0  0.31270446245E+00  0.25763854911E+00 -0.11084615402E+01  0.90007809893E+02  0.90000072183E+02 0.  0.
         12    1    1    2    0    0 -0.31270446245E+00 -0.25763854911E+00  0.11084615402E+01  0.11801901071E+01  0.00000000000E+00 0. -1.
         11    1    3    3    0    0  0.73264260622E+01 -0.33269069459E+02 -0.24641744747E+01  0.34155228847E+02  0.51100000000E-03 0. -1.
        -11    1    3    3    0    0 -0.21431665979E+01 -0.10075251780E+02  0.56867439244E+01  0.11766176873E+02  0.51100000000E-03 0.  1.
        -12    1    3    3    0    0 -0.48705550018E+01  0.43601959788E+02 -0.43310309899E+01  0.44086404172E+02  0.00000000000E+00 0.  1.
</event>
<event>
 7    1  0.2000468E-015  0.9000771E+02  0.7816164E-02  0.1186339E+00
        -11   -1    0    0    0    0  0.00000000000E+00  0.00000000000E+00  0.45593999997E+02  0.45594000000E+02  0.51100000000E-03 0. -1.
         11   -1    0    0    0    0 -0.00000000000E+00 -0.00000000000E+00 -0.45593999997E+02  0.45594000000E+02  0.51100000000E-03 0.  1.
    9900012    2    1    2    0    0 -0.57151048043E+00  0.10297577092E+01 -0.77877658024E-01  0.90007707622E+02  0.89999968562E+02 0.  0.
         12    1    1    2    0    0  0.57151048043E+00 -0.10297577092E+01  0.77877658024E-01  0.11802923784E+01  0.00000000000E+00 0. -1.
         11    1    3    3    0    0 -0.13051540977E+02  0.33200031360E+02  0.15982984913E+02  0.39090160030E+02  0.51100000000E-03 0. -1.
        -11    1    3    3    0    0 -0.77873363140E+01 -0.34665951483E+01  0.50675078022E+01  0.99166286800E+01  0.51100000000E-03 0.  1.
        -12    1    3    3    0    0  0.20267366811E+02 -0.28703678502E+02 -0.21128370373E+02  0.41000918912E+02  0.00000000000E+00 0.  1.
</event>
<event>
 7    1  0.2000468E-015  0.9000772E+02  0.7816164E-02  0.1186339E+00
        -11   -1    0    0    0    0  0.00000000000E+00  0.00000000000E+00  0.45593999997E+02  0.45594000000E+02  0.51100000000E-03 0. -1.
         11   -1    0    0    0    0 -0.00000000000E+00 -0.00000000000E+00 -0.45593999997E+02  0.45594000000E+02  0.51100000000E-03 0.  1.
    9900012    2    1    2    0    0  0.11267176835E+01  0.34911928099E+00  0.41017831453E-01  0.90007720595E+02  0.89999981707E+02 0.  0.
         12    1    1    2    0    0 -0.11267176835E+01 -0.34911928099E+00 -0.41017831453E-01  0.11802794047E+01  0.00000000000E+00 0. -1.
         11    1    3    3    0    0  0.71715654495E+01  0.19499166465E+02  0.30820010042E+02  0.37168829186E+02  0.51100000000E-03 0. -1.
        -11    1    3    3    0    0  0.87109573039E+01  0.69338921127E+01 -0.20432797044E+01  0.11319656761E+02  0.51100000000E-03 0.  1.
        -12    1    3    3    0    0 -0.14755805070E+02 -0.26083939296E+02 -0.28735712506E+02  0.41519234648E+02  0.00000000000E+00 0.  1.
</event>
<event>
 7    1  0.2000468E-015  0.9000777E+02  0.7816164E-02  0.1186339E+00
        -11   -1    0    0    0    0  0.00000000000E+00  0.00000000000E+00  0.45593999997E+02  0.45594000000E+02  0.51100000000E-03 0.  1.
         11   -1    0    0    0    0 -0.00000000000E+00 -0.00000000000E+00 -0.45593999997E+02  0.45594000000E+02  0.51100000000E-03 0. -1.
    9900012    2    1    2    0    0  0.58852681336E+00  0.23307188629E+00  0.99612654196E+00  0.90007765107E+02  0.90000026807E+02 0.  0.
         12    1    1    2    0    0 -0.58852681336E+00 -0.23307188629E+00 -0.99612654196E+00  0.11802348926E+01  0.00000000000E+00 0. -1.
         11    1    3    3    0    0 -0.35910142253E+01  0.31860611949E+02 -0.28717718505E+02  0.43043017242E+02  0.51100000000E-03 0. -1.
        -11    1    3    3    0    0  0.23424397024E+01 -0.91312650711E+01 -0.27497571105E+00  0.94309404335E+01  0.51100000000E-03 0.  1.
        -12    1    3    3    0    0  0.18371013363E+01 -0.22496274991E+02  0.29988820758E+02  0.37533807431E+02  0.00000000000E+00 0.  1.
</event>
<event>
 7    1  0.2000468E-015  0.9000778E+02  0.7816164E-02  0.1186339E+00
        -11   -1    0    0    0    0  0.00000000000E+00  0.00000000000E+00  0.45593999997E+02  0.45594000000E+02  0.51100000000E-03 0. -1.
         11   -1    0    0    0    0 -0.00000000000E+00 -0.00000000000E+00 -0.45593999997E+02  0.45594000000E+02  0.51100000000E-03 0.  1.
    9900012    2    1    2    0    0  0.99226504040E+00 -0.22692002315E+00 -0.59735820034E+00  0.90007779924E+02  0.90000041819E+02 0.  0.
         12    1    1    2    0    0 -0.99226504040E+00  0.22692002315E+00  0.59735820034E+00  0.11802200756E+01  0.00000000000E+00 0. -1.
         11    1    3    3    0    0  0.12820049588E+02 -0.70572572707E+01 -0.40240176500E+00  0.14639688489E+02  0.51100000000E-03 0. -1.
        -11    1    3    3    0    0 -0.42272070258E+00  0.14303622022E+02 -0.35094269270E+02  0.37899604637E+02  0.51100000000E-03 0.  1.
         12    1    3    3    0    0 -0.11405063845E+02 -0.74732847749E+01  0.34899312835E+02  0.37468486798E+02  0.00000000000E+00 0. -1.
</event>
<event>
 7    1  0.2495109E-015  0.9000791E+02  0.7816164E-02  0.1186339E+00
        -11   -1    0    0    0    0  0.00000000000E+00  0.00000000000E+00  0.45593999997E+02  0.45594000000E+02  0.51100000000E-03 0. -1.
         11   -1    0    0    0    0 -0.00000000000E+00 -0.00000000000E+00 -0.45593999997E+02  0.45594000000E+02  0.51100000000E-03 0.  1.
    9900012    2    1    2    0    0  0.21112992022E+00  0.54698487043E+00 -0.10241293136E+01  0.90007911384E+02  0.90000175014E+02 0.  0.
         12    1    1    2    0    0 -0.21112992022E+00 -0.54698487043E+00  0.10241293136E+01  0.11800886165E+01  0.00000000000E+00 0. -1.
         11    1    3    3    0    0 -0.22685826605E+02 -0.20361683478E+02  0.19580732364E+02  0.36230511492E+02  0.51100000000E-03 0. -1.
        -11    1    3    3    0    0  0.26861080791E+01 -0.85923655443E+01  0.45198600656E+01  0.10073383619E+02  0.51100000000E-03 0.  1.
        -12    1    3    3    0    0  0.20210848446E+02  0.29501033893E+02 -0.25124721743E+02  0.43704016272E+02  0.00000000000E+00 0.  1.
</event>
<event>
 7    1  0.2000468E-015  0.9000769E+02  0.7816164E-02  0.1186339E+00
        -11   -1    0    0    0    0  0.00000000000E+00  0.00000000000E+00  0.45593999997E+02  0.45594000000E+02  0.51100000000E-03 0.  1.
         11   -1    0    0    0    0 -0.00000000000E+00 -0.00000000000E+00 -0.45593999997E+02  0.45594000000E+02  0.51100000000E-03 0. -1.
    9900012    2    1    2    0    0  0.26321960998E-01  0.96430834251E+00  0.68010389596E+00  0.90007692949E+02  0.89999953696E+02 0.  0.
         12    1    1    2    0    0 -0.26321960998E-01 -0.96430834251E+00 -0.68010389596E+00  0.11803070509E+01  0.00000000000E+00 0. -1.
         11    1    3    3    0    0 -0.29582483727E+01  0.90124203130E+01  0.43456249479E+01  0.10433571286E+02  0.51100000000E-03 0. -1.
        -11    1    3    3    0    0 -0.13394679849E+02 -0.27292500967E+02  0.26423786129E+02  0.40280448495E+02  0.51100000000E-03 0.  1.
         12    1    3    3    0    0  0.16379250183E+02  0.19244388996E+02 -0.30089307181E+02  0.39293673168E+02  0.00000000000E+00 0. -1.
</event>
<event>
 7    1  0.2000468E-015  0.9000775E+02  0.7816164E-02  0.1186339E+00
        -11   -1    0    0    0    0  0.00000000000E+00  0.00000000000E+00  0.45593999997E+02  0.45594000000E+02  0.51100000000E-03 0.  1.
         11   -1    0    0    0    0 -0.00000000000E+00 -0.00000000000E+00 -0.45593999997E+02  0.45594000000E+02  0.51100000000E-03 0. -1.
    9900012    2    1    2    0    0 -0.37332733532E+00  0.11195638409E+01 -0.13850377751E-01  0.90007750736E+02  0.90000012245E+02 0.  0.
         12    1    1    2    0    0  0.37332733532E+00 -0.11195638409E+01  0.13850377751E-01  0.11802492644E+01  0.00000000000E+00 0. -1.
         11    1    3    3    0    0 -0.14106570308E+02 -0.37400205581E+02  0.11246138943E+02  0.41524045381E+02  0.51100000000E-03 0. -1.
        -11    1    3    3    0    0  0.17431541637E+01  0.77377406950E+01  0.71385427383E+01  0.10670989185E+02  0.51100000000E-03 0.  1.
        -12    1    3    3    0    0  0.11990088809E+02  0.30782028727E+02 -0.18398532059E+02  0.37812716170E+02  0.00000000000E+00 0.  1.
</event>
<event>
 7    1  0.2000468E-015  0.9000775E+02  0.7816164E-02  0.1186339E+00
        -11   -1    0    0    0    0  0.00000000000E+00  0.00000000000E+00  0.45593999997E+02  0.45594000000E+02  0.51100000000E-03 0.  1.
         11   -1    0    0    0    0 -0.00000000000E+00 -0.00000000000E+00 -0.45593999997E+02  0.45594000000E+02  0.51100000000E-03 0. -1.
    9900012    2    1    2    0    0  0.57408763223E+00 -0.24512130817E+00  0.10016655932E+01  0.90007747897E+02  0.90000009370E+02 0.  0.
         12    1    1    2    0    0 -0.57408763223E+00  0.24512130817E+00 -0.10016655932E+01  0.11802521027E+01  0.00000000000E+00 0. -1.
         11    1    3    3    0    0  0.67670570277E+01 -0.60982889223E+00 -0.10159118434E+02  0.12221810001E+02  0.51100000000E-03 0. -1.
        -11    1    3    3    0    0  0.18514346196E+02 -0.25013395919E+02  0.24839203411E+02  0.39817546595E+02  0.51100000000E-03 0.  1.
         12    1    3    3    0    0 -0.24707315591E+02  0.25378103503E+02 -0.13678419384E+02  0.37968391301E+02  0.00000000000E+00 0. -1.
</event>
<event>
 7    1  0.2000468E-015  0.9000778E+02  0.7816164E-02  0.1186339E+00
        -11   -1    0    0    0    0  0.00000000000E+00  0.00000000000E+00  0.45593999997E+02  0.45594000000E+02  0.51100000000E-03 0. -1.
         11   -1    0    0    0    0 -0.00000000000E+00 -0.00000000000E+00 -0.45593999997E+02  0.45594000000E+02  0.51100000000E-03 0.  1.
    9900012    2    1    2    0    0  0.10264346026E+01  0.49800773287E+00 -0.30220488146E+00  0.90007784983E+02  0.90000046945E+02 0.  0.
         12    1    1    2    0    0 -0.10264346026E+01 -0.49800773287E+00  0.30220488146E+00  0.11802150168E+01  0.00000000000E+00 0. -1.
         11    1    3    3    0    0 -0.10668905461E+02  0.12208868477E+02  0.31373844534E+02  0.35315720782E+02  0.51100000000E-03 0. -1.
        -11    1    3    3    0    0 -0.14030246346E+02  0.37694325247E+01 -0.11330454861E+02  0.18423779246E+02  0.51100000000E-03 0.  1.
        -12    1    3    3    0    0  0.25725586410E+02 -0.15480293268E+02 -0.20345594554E+02  0.36268284955E+02  0.00000000000E+00 0.  1.
</event>
<event>
 7    1  0.2000468E-015  0.9000765E+02  0.7816164E-02  0.1186339E+00
        -11   -1    0    0    0    0  0.00000000000E+00  0.00000000000E+00  0.45593999997E+02  0.45594000000E+02  0.51100000000E-03 0. -1.
         11   -1    0    0    0    0 -0.00000000000E+00 -0.00000000000E+00 -0.45593999997E+02  0.45594000000E+02  0.51100000000E-03 0.  1.
    9900012    2    1    2    0    0 -0.70318822123E+00 -0.79625945823E+00 -0.51451047593E+00  0.90007650971E+02  0.89999911164E+02 0.  0.
         12    1    1    2    0    0  0.70318822123E+00  0.79625945823E+00  0.51451047593E+00  0.11803490285E+01  0.00000000000E+00 0. -1.
         11    1    3    3    0    0  0.14850343234E+02  0.12033016440E+02 -0.71739024035E+01  0.20415461169E+02  0.51100000000E-03 0. -1.
        -11    1    3    3    0    0  0.13594865199E+02  0.19467131463E+02 -0.55943468216E+01  0.24394390417E+02  0.51100000000E-03 0.  1.
         12    1    3    3    0    0 -0.29148396654E+02 -0.32296407361E+02  0.12253738749E+02  0.45197799385E+02  0.00000000000E+00 0. -1.
</event>
<event>
 7    1  0.2000468E-015  0.9000767E+02  0.7816164E-02  0.1186339E+00
        -11   -1    0    0    0    0  0.00000000000E+00  0.00000000000E+00  0.45593999997E+02  0.45594000000E+02  0.51100000000E-03 0. -1.
         11   -1    0    0    0    0 -0.00000000000E+00 -0.00000000000E+00 -0.45593999997E+02  0.45594000000E+02  0.51100000000E-03 0.  1.
    9900012    2    1    2    0    0 -0.73174509164E+00  0.77917262385E+00 -0.50062638663E+00  0.90007666303E+02  0.89999926698E+02 0.  0.
         12    1    1    2    0    0  0.73174509164E+00 -0.77917262385E+00  0.50062638663E+00  0.11803336968E+01  0.00000000000E+00 0. -1.
         11    1    3    3    0    0  0.16559705037E+01  0.80543166412E+01 -0.71368931194E+01  0.10888043834E+02  0.51100000000E-03 0. -1.
        -11    1    3    3    0    0  0.25050879826E+02 -0.24399054261E+02 -0.17172059097E+02  0.38958183258E+02  0.51100000000E-03 0.  1.
         12    1    3    3    0    0 -0.27438595421E+02  0.17123910244E+02  0.23808325830E+02  0.40161439211E+02  0.00000000000E+00 0. -1.
</event>
<event>
 7    1  0.2000468E-015  0.9000759E+02  0.7816164E-02  0.1186339E+00
        -11   -1    0    0    0    0  0.00000000000E+00  0.00000000000E+00  0.45593999997E+02  0.45594000000E+02  0.51100000000E-03 0. -1.
         11   -1    0    0    0    0 -0.00000000000E+00 -0.00000000000E+00 -0.45593999997E+02  0.45594000000E+02  0.51100000000E-03 0.  1.
    9900012    2    1    2    0    0 -0.11372088431E+01  0.18277317043E+00  0.25831143651E+00  0.90007587029E+02  0.89999846377E+02 0.  0.
         12    1    1    2    0    0  0.11372088431E+01 -0.18277317043E+00 -0.25831143651E+00  0.11804129713E+01  0.00000000000E+00 0. -1.
         11    1    3    3    0    0  0.15738442295E+01 -0.95264176781E-01 -0.88139555607E+01  0.89538747930E+01  0.51100000000E-03 0. -1.
        -11    1    3    3    0    0 -0.22376743398E+02  0.14316958742E+02 -0.26843926011E+02  0.37766258971E+02  0.51100000000E-03 0.  1.
         12    1    3    3    0    0  0.19665690326E+02 -0.14038921395E+02  0.35916193008E+02  0.43287453264E+02  0.00000000000E+00 0. -1.
</event>
<event>
 7    1  0.2000468E-015  0.9000771E+02  0.7816164E-02  0.1186339E+00
        -11   -1    0    0    0    0  0.00000000000E+00  0.00000000000E+00  0.45593999997E+02  0.45594000000E+02  0.51100000000E-03 0.  1.
         11   -1    0    0    0    0 -0.00000000000E+00 -0.00000000000E+00 -0.45593999997E+02  0.45594000000E+02  0.51100000000E-03 0. -1.
    9900012    2    1    2    0    0 -0.98946973262E+00 -0.16278262229E+00  0.62252687978E+00  0.90007708405E+02  0.89999969356E+02 0.  0.
         12    1    1    2    0    0  0.98946973262E+00  0.16278262229E+00 -0.62252687978E+00  0.11802915953E+01  0.00000000000E+00 0. -1.
         11    1    3    3    0    0  0.30804753469E+01  0.70821015237E+01 -0.48348529226E+01  0.91116021313E+01  0.51100000000E-03 0. -1.
        -11    1    3    3    0    0  0.98222432529E+01  0.34522526952E+02 -0.32023321381E+01  0.36035208630E+02  0.51100000000E-03 0.  1.
         12    1    3    3    0    0 -0.13892188332E+02 -0.41767411098E+02  0.86597119406E+01  0.44860897643E+02  0.00000000000E+00 0. -1.
</event>
<event>
 7    1  0.2000468E-015  0.9000772E+02  0.7816164E-02  0.1186339E+00
        -11   -1    0    0    0    0  0.00000000000E+00  0.00000000000E+00  0.45593999997E+02  0.45594000000E+02  0.51100000000E-03 0. -1.
         11   -1    0    0    0    0 -0.00000000000E+00 -0.00000000000E+00 -0.45593999997E+02  0.45594000000E+02  0.51100000000E-03 0.  1.
    9900012    2    1    2    0    0 -0.31460906963E+00 -0.11207546297E+01  0.19490618168E+00  0.90007721123E+02  0.89999982242E+02 0.  0.
         12    1    1    2    0    0  0.31460906963E+00  0.11207546297E+01 -0.19490618168E+00  0.11802788765E+01  0.00000000000E+00 0. -1.
         11    1    3    3    0    0  0.28293543479E+02 -0.14588030739E+02  0.30745329634E+02  0.44256192087E+02  0.51100000000E-03 0. -1.
        -11    1    3    3    0    0 -0.48755087994E+00  0.41136477981E+01 -0.58726071067E+01  0.71866068876E+01  0.51100000000E-03 0.  1.
        -12    1    3    3    0    0 -0.28120601669E+02  0.93536283109E+01 -0.24677816346E+02  0.38564922149E+02  0.00000000000E+00 0.  1.
</event>
<event>
 7    1  0.2000468E-015  0.9000831E+02  0.7816164E-02  0.1186338E+00
        -11   -1    0    0    0    0  0.00000000000E+00  0.00000000000E+00  0.45593999997E+02  0.45594000000E+02  0.51100000000E-03 0.  1.
         11   -1    0    0    0    0 -0.00000000000E+00 -0.00000000000E+00 -0.45593999997E+02  0.45594000000E+02  0.51100000000E-03 0. -1.
    9900012    2    1    2    0    0  0.76827076935E+00 -0.36007706175E+00  0.81962431961E+00  0.90008305340E+02  0.90000574169E+02 0.  0.
         12    1    1    2    0    0 -0.76827076935E+00  0.36007706175E+00 -0.81962431961E+00  0.11796946600E+01  0.00000000000E+00 0. -1.
         11    1    3    3    0    0 -0.72069677569E+01 -0.34687597141E+02 -0.18606436319E+01  0.35477200772E+02  0.51100000000E-03 0. -1.
        -11    1    3    3    0    0 -0.38967691299E+01 -0.50753786894E+01 -0.96431296147E+01  0.11572995616E+02  0.51100000000E-03 0.  1.
        -12    1    3    3    0    0  0.11872007656E+02  0.39402898769E+02  0.12323397566E+02  0.42958108952E+02  0.00000000000E+00 0.  1.
</event>
<event>
 7    1  0.2000468E-015  0.9000765E+02  0.7816164E-02  0.1186339E+00
        -11   -1    0    0    0    0  0.00000000000E+00  0.00000000000E+00  0.45593999997E+02  0.45594000000E+02  0.51100000000E-03 0. -1.
         11   -1    0    0    0    0 -0.00000000000E+00 -0.00000000000E+00 -0.45593999997E+02  0.45594000000E+02  0.51100000000E-03 0.  1.
    9900012    2    1    2    0    0 -0.64509327369E+00  0.98697871978E+00  0.54333224511E-01  0.90007650719E+02  0.89999910909E+02 0.  0.
         12    1    1    2    0    0  0.64509327369E+00 -0.98697871978E+00 -0.54333224511E-01  0.11803492807E+01  0.00000000000E+00 0. -1.
         11    1    3    3    0    0  0.24021134841E+02 -0.64393153383E+01 -0.16667166515E+02  0.29937837947E+02  0.51100000000E-03 0. -1.
        -11    1    3    3    0    0  0.92056674394E+01  0.14027357356E+02 -0.70146795627E+01  0.18185620612E+02  0.51100000000E-03 0.  1.
        -12    1    3    3    0    0 -0.33871895554E+02 -0.66010632982E+01  0.23736179302E+02  0.41884192160E+02  0.00000000000E+00 0.  1.
</event>
<event>
 7    1  0.2000468E-015  0.9000776E+02  0.7816164E-02  0.1186339E+00
        -11   -1    0    0    0    0  0.00000000000E+00  0.00000000000E+00  0.45593999997E+02  0.45594000000E+02  0.51100000000E-03 0.  1.
         11   -1    0    0    0    0 -0.00000000000E+00 -0.00000000000E+00 -0.45593999997E+02  0.45594000000E+02  0.51100000000E-03 0. -1.
    9900012    2    1    2    0    0  0.55170502370E+00 -0.10403162823E+01 -0.79590212937E-01  0.90007758075E+02  0.90000019681E+02 0.  0.
         12    1    1    2    0    0 -0.55170502370E+00  0.10403162823E+01  0.79590212937E-01  0.11802419254E+01  0.00000000000E+00 0. -1.
         11    1    3    3    0    0 -0.49266446510E+01 -0.14357485773E+01  0.67886559648E+01  0.85099383995E+01  0.51100000000E-03 0. -1.
        -11    1    3    3    0    0 -0.47587299659E+01 -0.30624286625E+02  0.21917571601E+02  0.37958824893E+02  0.51100000000E-03 0.  1.
         12    1    3    3    0    0  0.10237079641E+02  0.31019718920E+02 -0.28785817778E+02  0.43538994782E+02  0.00000000000E+00 0. -1.
</event>
<event>
 7    1  0.2000468E-015  0.9000778E+02  0.7816164E-02  0.1186339E+00
        -11   -1    0    0    0    0  0.00000000000E+00  0.00000000000E+00  0.45593999997E+02  0.45594000000E+02  0.51100000000E-03 0. -1.
         11   -1    0    0    0    0 -0.00000000000E+00 -0.00000000000E+00 -0.45593999997E+02  0.45594000000E+02  0.51100000000E-03 0.  1.
    9900012    2    1    2    0    0  0.40368177077E+00 -0.10946566239E+01 -0.17800344751E+00  0.90007780815E+02  0.90000042722E+02 0.  0.
         12    1    1    2    0    0 -0.40368177077E+00  0.10946566239E+01  0.17800344751E+00  0.11802191845E+01  0.00000000000E+00 0. -1.
         11    1    3    3    0    0 -0.15336825273E+01 -0.20271797810E+00 -0.10167183381E+02  0.10284206087E+02  0.51100000000E-03 0. -1.
        -11    1    3    3    0    0 -0.19781701460E+00 -0.16898029001E+02 -0.31199699596E+02  0.35482443135E+02  0.51100000000E-03 0.  1.
         12    1    3    3    0    0  0.21351813126E+01  0.16006090356E+02  0.41188879530E+02  0.44241131593E+02  0.00000000000E+00 0. -1.
</event>
<event>
 7    1  0.2000468E-015  0.9000779E+02  0.7816164E-02  0.1186339E+00
        -11   -1    0    0    0    0  0.00000000000E+00  0.00000000000E+00  0.45593999997E+02  0.45594000000E+02  0.51100000000E-03 0.  1.
         11   -1    0    0    0    0 -0.00000000000E+00 -0.00000000000E+00 -0.45593999997E+02  0.45594000000E+02  0.51100000000E-03 0. -1.
    9900012    2    1    2    0    0  0.84481936297E+00  0.72156263875E+00 -0.39814865252E+00  0.90007790380E+02  0.90000052413E+02 0.  0.
         12    1    1    2    0    0 -0.84481936297E+00 -0.72156263875E+00  0.39814865252E+00  0.11802096200E+01  0.00000000000E+00 0. -1.
         11    1    3    3    0    0  0.59101269118E+01 -0.57631443621E+01  0.75738240479E+01  0.11202956932E+02  0.51100000000E-03 0. -1.
        -11    1    3    3    0    0  0.21505086273E+02 -0.21628222273E+02 -0.22054950805E+02  0.37638671464E+02  0.51100000000E-03 0.  1.
         12    1    3    3    0    0 -0.26570393822E+02  0.28112929274E+02  0.14082978105E+02  0.41166161984E+02  0.00000000000E+00 0. -1.
</event>
<event>
 7    1  0.2000468E-015  0.9000771E+02  0.7816164E-02  0.1186339E+00
        -11   -1    0    0    0    0  0.00000000000E+00  0.00000000000E+00  0.45593999997E+02  0.45594000000E+02  0.51100000000E-03 0. -1.
         11   -1    0    0    0    0 -0.00000000000E+00 -0.00000000000E+00 -0.45593999997E+02  0.45594000000E+02  0.51100000000E-03 0.  1.
    9900012    2    1    2    0    0 -0.65054311320E+00  0.17110424507E+00  0.96984825826E+00  0.90007708236E+02  0.89999969184E+02 0.  0.
         12    1    1    2    0    0  0.65054311320E+00 -0.17110424507E+00 -0.96984825826E+00  0.11802917643E+01  0.00000000000E+00 0. -1.
         11    1    3    3    0    0 -0.52305584178E+00 -0.92008522690E+00  0.10381411508E+02  0.10435221579E+02  0.51100000000E-03 0. -1.
        -11    1    3    3    0    0  0.28202374274E+02 -0.22277899302E+02  0.10962799988E+02  0.37574748114E+02  0.51100000000E-03 0.  1.
         12    1    3    3    0    0 -0.28329861546E+02  0.23369088774E+02 -0.20374363238E+02  0.41997738542E+02  0.00000000000E+00 0. -1.
</event>
<event>
 7    1  0.2000468E-015  0.9000758E+02  0.7816164E-02  0.1186339E+00
        -11   -1    0    0    0    0  0.00000000000E+00  0.00000000000E+00  0.45593999997E+02  0.45594000000E+02  0.51100000000E-03 0. -1.
         11   -1    0    0    0    0 -0.00000000000E+00 -0.00000000000E+00 -0.45593999997E+02  0.45594000000E+02  0.51100000000E-03 0.  1.
    9900012    2    1    2    0    0  0.10548669861E+01 -0.36051455110E+00 -0.38815616835E+00  0.90007584687E+02  0.89999844005E+02 0.  0.
         12    1    1    2    0    0 -0.10548669861E+01  0.36051455110E+00  0.38815616835E+00  0.11804153129E+01  0.00000000000E+00 0. -1.
         11    1    3    3    0    0 -0.14623298397E+00  0.80382188397E+01  0.14095855916E+01  0.81621858593E+01  0.51100000000E-03 0. -1.
        -11    1    3    3    0    0  0.24792729238E+02 -0.18102165183E+02 -0.30618247752E+02  0.43357178218E+02  0.51100000000E-03 0.  1.
         12    1    3    3    0    0 -0.23591629268E+02  0.97034317925E+01  0.28820505992E+02  0.38488220610E+02  0.00000000000E+00 0. -1.
</event>
<event>
 7    1  0.2000468E-015  0.9000771E+02  0.7816164E-02  0.1186339E+00
        -11   -1    0    0    0    0  0.00000000000E+00  0.00000000000E+00  0.45593999997E+02  0.45594000000E+02  0.51100000000E-03 0.  1.
         11   -1    0    0    0    0 -0.00000000000E+00 -0.00000000000E+00 -0.45593999997E+02  0.45594000000E+02  0.51100000000E-03 0. -1.
    9900012    2    1    2    0    0 -0.28107426493E+00 -0.12956788584E+00  0.11389894362E+01  0.90007708716E+02  0.89999969671E+02 0.  0.
         12    1    1    2    0    0  0.28107426493E+00  0.12956788584E+00 -0.11389894362E+01  0.11802912841E+01  0.00000000000E+00 0. -1.
         11    1    3    3    0    0  0.15796952186E+02 -0.33215995498E+02 -0.87278223150E+01  0.37802393283E+02  0.51100000000E-03 0. -1.
        -11    1    3    3    0    0 -0.33100295836E+01 -0.62061650346E+01 -0.46299696483E+01  0.84207719056E+01  0.51100000000E-03 0.  1.
        -12    1    3    3    0    0 -0.12767996868E+02  0.39292592647E+02  0.14496781400E+02  0.43784543527E+02  0.00000000000E+00 0.  1.
</event>
<event>
 7    1  0.2000468E-015  0.9000773E+02  0.7816164E-02  0.1186339E+00
        -11   -1    0    0    0    0  0.00000000000E+00  0.00000000000E+00  0.45593999997E+02  0.45594000000E+02  0.51100000000E-03 0. -1.
         11   -1    0    0    0    0 -0.00000000000E+00 -0.00000000000E+00 -0.45593999997E+02  0.45594000000E+02  0.51100000000E-03 0.  1.
    9900012    2    1    2    0    0  0.10259628798E+01  0.37596744164E+00 -0.44618835636E+00  0.90007730795E+02  0.89999992041E+02 0.  0.
         12    1    1    2    0    0 -0.10259628798E+01 -0.37596744164E+00  0.44618835636E+00  0.11802692054E+01  0.00000000000E+00 0. -1.
         11    1    3    3    0    0 -0.73544886024E+01  0.19813978934E+01 -0.52905628221E+01  0.92738608708E+01  0.51100000000E-03 0. -1.
        -11    1    3    3    0    0  0.16354249147E+02  0.29166472369E+02 -0.21239418028E+02  0.39613854320E+02  0.51100000000E-03 0.  1.
         12    1    3    3    0    0 -0.79737976646E+01 -0.30771902821E+02  0.26083792494E+02  0.41120015604E+02  0.00000000000E+00 0. -1.
</event>
<event>
 7    1  0.2000468E-015  0.9000793E+02  0.7816164E-02  0.1186339E+00
        -11   -1    0    0    0    0  0.00000000000E+00  0.00000000000E+00  0.45593999997E+02  0.45594000000E+02  0.51100000000E-03 0. -1.
         11   -1    0    0    0    0 -0.00000000000E+00 -0.00000000000E+00 -0.45593999997E+02  0.45594000000E+02  0.51100000000E-03 0.  1.
    9900012    2    1    2    0    0 -0.71177166687E+00  0.89626318911E+00  0.28751402245E+00  0.90007927577E+02  0.90000191421E+02 0.  0.
         12    1    1    2    0    0  0.71177166687E+00 -0.89626318911E+00 -0.28751402245E+00  0.11800724228E+01  0.00000000000E+00 0. -1.
         11    1    3    3    0    0 -0.18917046694E+01  0.38557977963E+01 -0.11025538310E+02  0.11832506856E+02  0.51100000000E-03 0. -1.
        -11    1    3    3    0    0 -0.18317991099E+02  0.32115578046E+02  0.85632055484E+01  0.37951121731E+02  0.51100000000E-03 0.  1.
         12    1    3    3    0    0  0.19497924102E+02 -0.35075112653E+02  0.27498467841E+01  0.40224298990E+02  0.00000000000E+00 0. -1.
</event>
<event>
 7    1  0.2000468E-015  0.9000754E+02  0.7816164E-02  0.1186339E+00
        -11   -1    0    0    0    0  0.00000000000E+00  0.00000000000E+00  0.45593999997E+02  0.45594000000E+02  0.51100000000E-03 0. -1.
         11   -1    0    0    0    0 -0.00000000000E+00 -0.00000000000E+00 -0.45593999997E+02  0.45594000000E+02  0.51100000000E-03 0.  1.
    9900012    2    1    2    0    0  0.97910773367E+00 -0.43934070674E+00  0.49173435785E+00  0.90007544626E+02  0.89999803415E+02 0.  0.
         12    1    1    2    0    0 -0.97910773367E+00  0.43934070674E+00 -0.49173435785E+00  0.11804553738E+01  0.00000000000E+00 0. -1.
         11    1    3    3    0    0 -0.13888964350E+02  0.74786149996E+01  0.37348245291E+02  0.40542871625E+02  0.51100000000E-03 0. -1.
        -11    1    3    3    0    0  0.96679995968E+01 -0.36756226268E+01  0.15655263631E+01  0.10460941208E+02  0.51100000000E-03 0.  1.
        -12    1    3    3    0    0  0.52000724870E+01 -0.42423330795E+01 -0.38422037296E+02  0.39003731793E+02  0.00000000000E+00 0.  1.
</event>
<event>
 7    1  0.2000468E-015  0.9000767E+02  0.7816164E-02  0.1186339E+00
        -11   -1    0    0    0    0  0.00000000000E+00  0.00000000000E+00  0.45593999997E+02  0.45594000000E+02  0.51100000000E-03 0.  1.
         11   -1    0    0    0    0 -0.00000000000E+00 -0.00000000000E+00 -0.45593999997E+02  0.45594000000E+02  0.51100000000E-03 0. -1.
    9900012    2    1    2    0    0 -0.47883133083E+00 -0.90458723303E+00 -0.58789329894E+00  0.90007671217E+02  0.89999931677E+02 0.  0.
         12    1    1    2    0    0  0.47883133083E+00  0.90458723303E+00  0.58789329894E+00  0.11803287832E+01  0.00000000000E+00 0. -1.
         11    1    3    3    0    0  0.83149247767E+01 -0.50869876527E+01 -0.37386125457E+01  0.10439954092E+02  0.51100000000E-03 0. -1.
        -11    1    3    3    0    0  0.21810013109E+02 -0.23028213286E+02 -0.14622900142E+02  0.34925699532E+02  0.51100000000E-03 0.  1.
         12    1    3    3    0    0 -0.30603769217E+02  0.27210613706E+02  0.17773619389E+02  0.44642017592E+02  0.00000000000E+00 0. -1.
</event>
<event>
 7    1  0.2000468E-015  0.9000766E+02  0.7816164E-02  0.1186339E+00
        -11   -1    0    0    0    0  0.00000000000E+00  0.00000000000E+00  0.45593999997E+02  0.45594000000E+02  0.51100000000E-03 0.  1.
         11   -1    0    0    0    0 -0.00000000000E+00 -0.00000000000E+00 -0.45593999997E+02  0.45594000000E+02  0.51100000000E-03 0. -1.
    9900012    2    1    2    0    0 -0.95120027737E-02 -0.11250117332E+01  0.35700094726E+00  0.90007664643E+02  0.89999925017E+02 0.  0.
         12    1    1    2    0    0  0.95120027737E-02  0.11250117332E+01 -0.35700094726E+00  0.11803353567E+01  0.00000000000E+00 0. -1.
         11    1    3    3    0    0 -0.96643819348E+00 -0.21593027724E+02 -0.23833773171E+02  0.32175170441E+02  0.51100000000E-03 0. -1.
        -11    1    3    3    0    0 -0.16949547022E+00 -0.45039369571E+01 -0.12583663341E+02  0.13366478974E+02  0.51100000000E-03 0.  1.
        -12    1    3    3    0    0  0.11264216609E+01  0.24971952948E+02  0.36774437459E+02  0.44466015228E+02  0.00000000000E+00 0.  1.
</event>
<event>
 7    1  0.2000468E-015  0.9000771E+02  0.7816164E-02  0.1186339E+00
        -11   -1    0    0    0    0  0.00000000000E+00  0.00000000000E+00  0.45593999997E+02  0.45594000000E+02  0.51100000000E-03 0.  1.
         11   -1    0    0    0    0 -0.00000000000E+00 -0.00000000000E+00 -0.45593999997E+02  0.45594000000E+02  0.51100000000E-03 0. -1.
    9900012    2    1    2    0    0 -0.61287677177E+00  0.56209714377E+00  0.83756881192E+00  0.90007706540E+02  0.89999967467E+02 0.  0.
         12    1    1    2    0    0  0.61287677177E+00 -0.56209714377E+00 -0.83756881192E+00  0.11802934597E+01  0.00000000000E+00 0. -1.
         11    1    3    3    0    0 -0.16686832778E+02 -0.12737190391E+02 -0.36131387122E+02  0.41787121735E+02  0.51100000000E-03 0. -1.
        -11    1    3    3    0    0 -0.21530426866E+01  0.87926178305E+01  0.32343361721E+01  0.96128378670E+01  0.51100000000E-03 0.  1.
        -12    1    3    3    0    0  0.18226998693E+02  0.45066697047E+01  0.33734619762E+02  0.38607746939E+02  0.00000000000E+00 0.  1.
</event>
<event>
 7    1  0.2000468E-015  0.9000752E+02  0.7816164E-02  0.1186339E+00
        -11   -1    0    0    0    0  0.00000000000E+00  0.00000000000E+00  0.45593999997E+02  0.45594000000E+02  0.51100000000E-03 0. -1.
         11   -1    0    0    0    0 -0.00000000000E+00 -0.00000000000E+00 -0.45593999997E+02  0.45594000000E+02  0.51100000000E-03 0.  1.
    9900012    2    1    2    0    0  0.10625006596E+01  0.40762786352E+00 -0.31379228968E+00  0.90007519705E+02  0.89999778164E+02 0.  0.
         12    1    1    2    0    0 -0.10625006596E+01 -0.40762786352E+00  0.31379228968E+00  0.11804802954E+01  0.00000000000E+00 0. -1.
         11    1    3    3    0    0 -0.19476373566E+02 -0.23540347397E+02 -0.94973169891E+01  0.31994938867E+02  0.51100000000E-03 0. -1.
        -11    1    3    3    0    0 -0.78352035869E+01 -0.10195280048E+02  0.13000581539E+01  0.12923788221E+02  0.51100000000E-03 0.  1.
        -12    1    3    3    0    0  0.28374077813E+02  0.34143255309E+02  0.78834665455E+01  0.45088792616E+02  0.00000000000E+00 0.  1.
</event>
<event>
 7    1  0.2000468E-015  0.9000788E+02  0.7816164E-02  0.1186339E+00
        -11   -1    0    0    0    0  0.00000000000E+00  0.00000000000E+00  0.45593999997E+02  0.45594000000E+02  0.51100000000E-03 0.  1.
         11   -1    0    0    0    0 -0.00000000000E+00 -0.00000000000E+00 -0.45593999997E+02  0.45594000000E+02  0.51100000000E-03 0. -1.
    9900012    2    1    2    0    0  0.65802720845E+00  0.97424607193E+00  0.10260865717E+00  0.90007879772E+02  0.90000142985E+02 0.  0.
         12    1    1    2    0    0 -0.65802720845E+00 -0.97424607193E+00 -0.10260865717E+00  0.11801202279E+01  0.00000000000E+00 0. -1.
         11    1    3    3    0    0 -0.15874126547E+02  0.23518767012E+02  0.16708542983E+02  0.32928645649E+02  0.51100000000E-03 0. -1.
        -11    1    3    3    0    0 -0.22557207266E+01  0.17447284590E+00  0.14235342916E+02  0.14414010718E+02  0.51100000000E-03 0.  1.
        -12    1    3    3    0    0  0.18787874482E+02 -0.22718993786E+02 -0.30841277243E+02  0.42665223405E+02  0.00000000000E+00 0.  1.
</event>
<event>
 7    1  0.2000468E-015  0.9000762E+02  0.7816164E-02  0.1186339E+00
        -11   -1    0    0    0    0  0.00000000000E+00  0.00000000000E+00  0.45593999997E+02  0.45594000000E+02  0.51100000000E-03 0. -1.
         11   -1    0    0    0    0 -0.00000000000E+00 -0.00000000000E+00 -0.45593999997E+02  0.45594000000E+02  0.51100000000E-03 0.  1.
    9900012    2    1    2    0    0  0.92641654618E+00  0.67357609251E+00  0.28522476123E+00  0.90007616362E+02  0.89999876097E+02 0.  0.
         12    1    1    2    0    0 -0.92641654618E+00 -0.67357609251E+00 -0.28522476123E+00  0.11803836384E+01  0.00000000000E+00 0. -1.
         11    1    3    3    0    0  0.51418860995E+01  0.73112560117E+01 -0.30833929757E+01  0.94551980218E+01  0.51100000000E-03 0. -1.
        -11    1    3    3    0    0  0.16871967973E+02  0.32162970773E+02  0.17669740938E+01  0.36362648280E+02  0.51100000000E-03 0.  1.
         12    1    3    3    0    0 -0.21087437527E+02 -0.38800650692E+02  0.16016436431E+01  0.44189770060E+02  0.00000000000E+00 0. -1.
</event>
<event>
 7    1  0.2000468E-015  0.9000763E+02  0.7816164E-02  0.1186339E+00
        -11   -1    0    0    0    0  0.00000000000E+00  0.00000000000E+00  0.45593999997E+02  0.45594000000E+02  0.51100000000E-03 0.  1.
         11   -1    0    0    0    0 -0.00000000000E+00 -0.00000000000E+00 -0.45593999997E+02  0.45594000000E+02  0.51100000000E-03 0. -1.
    9900012    2    1    2    0    0 -0.50413179441E+00 -0.10653166587E+01 -0.65003463073E-01  0.90007629762E+02  0.89999889674E+02 0.  0.
         12    1    1    2    0    0  0.50413179441E+00  0.10653166587E+01  0.65003463073E-01  0.11803702384E+01  0.00000000000E+00 0. -1.
         11    1    3    3    0    0 -0.16993735793E+02 -0.24045343641E+02 -0.20504667342E+02  0.35880454151E+02  0.51100000000E-03 0. -1.
        -11    1    3    3    0    0 -0.14148794083E+01 -0.68795974100E+01 -0.69103701936E+01  0.98531193405E+01  0.51100000000E-03 0.  1.
        -12    1    3    3    0    0  0.17904483406E+02  0.29859624392E+02  0.27350034072E+02  0.44274056271E+02  0.00000000000E+00 0.  1.
</event>
<event>
 7    1  0.2000468E-015  0.9000743E+02  0.7816164E-02  0.1186340E+00
        -11   -1    0    0    0    0  0.00000000000E+00  0.00000000000E+00  0.45593999997E+02  0.45594000000E+02  0.51100000000E-03 0.  1.
         11   -1    0    0    0    0 -0.00000000000E+00 -0.00000000000E+00 -0.45593999997E+02  0.45594000000E+02  0.51100000000E-03 0. -1.
    9900012    2    1    2    0    0 -0.38379747095E+00 -0.14784733657E-02  0.11164407972E+01  0.90007431180E+02  0.89999688471E+02 0.  0.
         12    1    1    2    0    0  0.38379747095E+00  0.14784733657E-02 -0.11164407972E+01  0.11805688197E+01  0.00000000000E+00 0. -1.
         11    1    3    3    0    0 -0.33255587226E+02  0.12289021703E+01 -0.29906468172E+01  0.33412396666E+02  0.51100000000E-03 0. -1.
        -11    1    3    3    0    0 -0.78214467125E+01  0.11191317248E+02 -0.12570174743E+01  0.13711334859E+02  0.51100000000E-03 0.  1.
        -12    1    3    3    0    0  0.40693236468E+02 -0.12421697892E+02  0.53641050886E+01  0.42883699655E+02  0.00000000000E+00 0.  1.
</event>
<event>
 7    1  0.2000468E-015  0.9000772E+02  0.7816164E-02  0.1186339E+00
        -11   -1    0    0    0    0  0.00000000000E+00  0.00000000000E+00  0.45593999997E+02  0.45594000000E+02  0.51100000000E-03 0.  1.
         11   -1    0    0    0    0 -0.00000000000E+00 -0.00000000000E+00 -0.45593999997E+02  0.45594000000E+02  0.51100000000E-03 0. -1.
    9900012    2    1    2    0    0 -0.10888384193E+01 -0.29700308908E+00  0.34535588013E+00  0.90007724345E+02  0.89999985506E+02 0.  0.
         12    1    1    2    0    0  0.10888384193E+01  0.29700308908E+00 -0.34535588013E+00  0.11802756552E+01  0.00000000000E+00 0. -1.
         11    1    3    3    0    0  0.65363960257E+01 -0.10896076040E+01 -0.72762623447E+01  0.98415299474E+01  0.51100000000E-03 0. -1.
        -11    1    3    3    0    0 -0.26529514435E+02 -0.22699849570E+02  0.27160142669E+02  0.44235411796E+02  0.51100000000E-03 0.  1.
         12    1    3    3    0    0  0.18904279990E+02  0.23492454085E+02 -0.19538524445E+02  0.35930782602E+02  0.00000000000E+00 0. -1.
</event>
<event>
 7    1  0.2000468E-015  0.9000774E+02  0.7816164E-02  0.1186339E+00
        -11   -1    0    0    0    0  0.00000000000E+00  0.00000000000E+00  0.45593999997E+02  0.45594000000E+02  0.51100000000E-03 0.  1.
         11   -1    0    0    0    0 -0.00000000000E+00 -0.00000000000E+00 -0.45593999997E+02  0.45594000000E+02  0.51100000000E-03 0. -1.
    9900012    2    1    2    0    0  0.58715948685E-01  0.45479114510E+00  0.10875341771E+01  0.90007740226E+02  0.90000001597E+02 0.  0.
         12    1    1    2    0    0 -0.58715948685E-01 -0.45479114510E+00 -0.10875341771E+01  0.11802597743E+01  0.00000000000E+00 0. -1.
         11    1    3    3    0    0 -0.83041710204E+01  0.35211034043E+02  0.94685612811E+01  0.37395585671E+02  0.51100000000E-03 0. -1.
        -11    1    3    3    0    0  0.43084970805E+00  0.65246607191E+01  0.52880206566E+01  0.84095179229E+01  0.51100000000E-03 0.  1.
        -12    1    3    3    0    0  0.79320372610E+01 -0.41280903617E+02 -0.13669047761E+02  0.44202636632E+02  0.00000000000E+00 0.  1.
</event>
<event>
 7    1  0.2000468E-015  0.9000777E+02  0.7816164E-02  0.1186339E+00
        -11   -1    0    0    0    0  0.00000000000E+00  0.00000000000E+00  0.45593999997E+02  0.45594000000E+02  0.51100000000E-03 0.  1.
         11   -1    0    0    0    0 -0.00000000000E+00 -0.00000000000E+00 -0.45593999997E+02  0.45594000000E+02  0.51100000000E-03 0. -1.
    9900012    2    1    2    0    0  0.63411181816E+00 -0.50703641026E+00  0.85659819379E+00  0.90007769436E+02  0.90000031192E+02 0.  0.
         12    1    1    2    0    0 -0.63411181816E+00  0.50703641026E+00 -0.85659819379E+00  0.11802305643E+01  0.00000000000E+00 0. -1.
         11    1    3    3    0    0 -0.36520680074E+02  0.47813544636E+01  0.40271568064E+01  0.37051847670E+02  0.51100000000E-03 0. -1.
        -11    1    3    3    0    0 -0.36707220343E+01  0.82866149125E+01  0.28787382657E+01  0.95094332756E+01  0.51100000000E-03 0.  1.
        -12    1    3    3    0    0  0.40825513926E+02 -0.13575005786E+02 -0.60492968782E+01  0.43446488490E+02  0.00000000000E+00 0.  1.
</event>
<event>
 7    1  0.2000468E-015  0.9000757E+02  0.7816164E-02  0.1186339E+00
        -11   -1    0    0    0    0  0.00000000000E+00  0.00000000000E+00  0.45593999997E+02  0.45594000000E+02  0.51100000000E-03 0.  1.
         11   -1    0    0    0    0 -0.00000000000E+00 -0.00000000000E+00 -0.45593999997E+02  0.45594000000E+02  0.51100000000E-03 0. -1.
    9900012    2    1    2    0    0  0.11217349425E+01 -0.25346588768E+00 -0.26623605621E+00  0.90007569623E+02  0.89999828742E+02 0.  0.
         12    1    1    2    0    0 -0.11217349425E+01  0.25346588768E+00  0.26623605621E+00  0.11804303770E+01  0.00000000000E+00 0. -1.
         11    1    3    3    0    0 -0.34142875586E+02 -0.16782984373E+02 -0.92219900200E+01  0.39146514761E+02  0.51100000000E-03 0. -1.
        -11    1    3    3    0    0 -0.14656342438E+01  0.12803183967E+02  0.46137669409E+01  0.13687821195E+02  0.51100000000E-03 0.  1.
        -12    1    3    3    0    0  0.36730244772E+02  0.37263345183E+01  0.43419870229E+01  0.37173233667E+02  0.00000000000E+00 0.  1.
</event>
<event>
 7    1  0.2000468E-015  0.9000810E+02  0.7816164E-02  0.1186338E+00
        -11   -1    0    0    0    0  0.00000000000E+00  0.00000000000E+00  0.45593999997E+02  0.45594000000E+02  0.51100000000E-03 0.  1.
         11   -1    0    0    0    0 -0.00000000000E+00 -0.00000000000E+00 -0.45593999997E+02  0.45594000000E+02  0.51100000000E-03 0. -1.
    9900012    2    1    2    0    0 -0.90593034932E+00 -0.54104885099E+00  0.52793767866E+00  0.90008100916E+02  0.90000367047E+02 0.  0.
         12    1    1    2    0    0  0.90593034932E+00  0.54104885099E+00 -0.52793767866E+00  0.11798990845E+01  0.00000000000E+00 0. -1.
         11    1    3    3    0    0 -0.52837904366E+01  0.76650244183E+01  0.45059287812E+01  0.10342844635E+02  0.51100000000E-03 0. -1.
        -11    1    3    3    0    0 -0.10983251664E+02  0.26053624283E+02  0.20430295117E+02  0.34882948760E+02  0.51100000000E-03 0.  1.
         12    1    3    3    0    0  0.15361111751E+02 -0.34259697552E+02 -0.24408286220E+02  0.44782307520E+02  0.00000000000E+00 0. -1.
</event>
<event>
 7    1  0.2000468E-015  0.9000776E+02  0.7816164E-02  0.1186339E+00
        -11   -1    0    0    0    0  0.00000000000E+00  0.00000000000E+00  0.45593999997E+02  0.45594000000E+02  0.51100000000E-03 0. -1.
         11   -1    0    0    0    0 -0.00000000000E+00 -0.00000000000E+00 -0.45593999997E+02  0.45594000000E+02  0.51100000000E-03 0.  1.
    9900012    2    1    2    0    0  0.91778319152E+00 -0.63736566042E+00 -0.37999545389E+00  0.90007763788E+02  0.90000025470E+02 0.  0.
         12    1    1    2    0    0 -0.91778319152E+00  0.63736566042E+00  0.37999545389E+00  0.11802362123E+01  0.00000000000E+00 0. -1.
         11    1    3    3    0    0 -0.51272566274E+01 -0.20757125041E+02  0.75441450389E+01  0.22672916114E+02  0.51100000000E-03 0. -1.
        -11    1    3    3    0    0  0.35952468390E+01 -0.22157098000E+02  0.51204403690E+01  0.23023503241E+02  0.51100000000E-03 0.  1.
         12    1    3    3    0    0  0.24497929799E+01  0.42276857381E+02 -0.13044580862E+02  0.44311344433E+02  0.00000000000E+00 0. -1.
</event>
<event>
 7    1  0.2000468E-015  0.9000766E+02  0.7816164E-02  0.1186339E+00
        -11   -1    0    0    0    0  0.00000000000E+00  0.00000000000E+00  0.45593999997E+02  0.45594000000E+02  0.51100000000E-03 0. -1.
         11   -1    0    0    0    0 -0.00000000000E+00 -0.00000000000E+00 -0.45593999997E+02  0.45594000000E+02  0.51100000000E-03 0.  1.
    9900012    2    1    2    0    0 -0.10858347265E+01 -0.87447628972E-01 -0.45444976235E+00  0.90007657369E+02  0.89999917646E+02 0.  0.
         12    1    1    2    0    0  0.10858347265E+01  0.87447628972E-01  0.45444976235E+00  0.11803426315E+01  0.00000000000E+00 0. -1.
         11    1    3    3    0    0 -0.25703788712E+02 -0.11397287669E+01  0.29406204171E+02  0.39073118378E+02  0.51100000000E-03 0. -1.
        -11    1    3    3    0    0 -0.13824571413E+01 -0.10056877781E+02 -0.48587482953E+00  0.10163073012E+02  0.51100000000E-03 0.  1.
        -12    1    3    3    0    0  0.26000411127E+02  0.11109158919E+02 -0.29374779103E+02  0.40771465978E+02  0.00000000000E+00 0.  1.
</event>
<event>
 7    1  0.2000468E-015  0.9000776E+02  0.7816164E-02  0.1186339E+00
        -11   -1    0    0    0    0  0.00000000000E+00  0.00000000000E+00  0.45593999997E+02  0.45594000000E+02  0.51100000000E-03 0. -1.
         11   -1    0    0    0    0 -0.00000000000E+00 -0.00000000000E+00 -0.45593999997E+02  0.45594000000E+02  0.51100000000E-03 0.  1.
    9900012    2    1    2    0    0 -0.11983661377E+00 -0.48114964834E+00 -0.10710275318E+01  0.90007760290E+02  0.90000021926E+02 0.  0.
         12    1    1    2    0    0  0.11983661377E+00  0.48114964834E+00  0.10710275318E+01  0.11802397096E+01  0.00000000000E+00 0. -1.
         11    1    3    3    0    0 -0.38782256340E+01 -0.10328600565E+02 -0.14381419946E+01  0.11126044956E+02  0.51100000000E-03 0. -1.
        -11    1    3    3    0    0 -0.13587262280E+02  0.21163045664E+02 -0.31850001012E+02  0.40582148326E+02  0.51100000000E-03 0.  1.
         12    1    3    3    0    0  0.17345651300E+02 -0.11315594747E+02  0.32217115475E+02  0.38299567008E+02  0.00000000000E+00 0. -1.
</event>
<event>
 7    1  0.2000468E-015  0.9000780E+02  0.7816164E-02  0.1186339E+00
        -11   -1    0    0    0    0  0.00000000000E+00  0.00000000000E+00  0.45593999997E+02  0.45594000000E+02  0.51100000000E-03 0. -1.
         11   -1    0    0    0    0 -0.00000000000E+00 -0.00000000000E+00 -0.45593999997E+02  0.45594000000E+02  0.51100000000E-03 0.  1.
    9900012    2    1    2    0    0  0.27632249502E+00  0.96752085983E+00 -0.61678134170E+00  0.90007800882E+02  0.90000063053E+02 0.  0.
         12    1    1    2    0    0 -0.27632249502E+00 -0.96752085983E+00  0.61678134170E+00  0.11801991183E+01  0.00000000000E+00 0. -1.
         11    1    3    3    0    0  0.33709339820E+02  0.24560613454E+02  0.22450893771E+01  0.41768214600E+02  0.51100000000E-03 0. -1.
        -11    1    3    3    0    0 -0.25595142122E+01  0.17078064010E+00  0.74987345120E+01  0.79253579460E+01  0.51100000000E-03 0.  1.
        -12    1    3    3    0    0 -0.30873503113E+02 -0.23763873234E+02 -0.10360605231E+02  0.40314228335E+02  0.00000000000E+00 0.  1.
</event>
<event>
 7    1  0.2000468E-015  0.9000768E+02  0.7816164E-02  0.1186339E+00
        -11   -1    0    0    0    0  0.00000000000E+00  0.00000000000E+00  0.45593999997E+02  0.45594000000E+02  0.51100000000E-03 0. -1.
         11   -1    0    0    0    0 -0.00000000000E+00 -0.00000000000E+00 -0.45593999997E+02  0.45594000000E+02  0.51100000000E-03 0.  1.
    9900012    2    1    2    0    0  0.14803069100E+00 -0.11082040800E+01 -0.37830641182E+00  0.90007684318E+02  0.89999944951E+02 0.  0.
         12    1    1    2    0    0 -0.14803069100E+00  0.11082040800E+01  0.37830641182E+00  0.11803156822E+01  0.00000000000E+00 0. -1.
         11    1    3    3    0    0 -0.94061621317E+01  0.18914071471E+02  0.35141339439E+02  0.41001606353E+02  0.51100000000E-03 0. -1.
        -11    1    3    3    0    0  0.25904638712E+01  0.61364936818E+01 -0.61788056834E+01  0.90854112571E+01  0.51100000000E-03 0.  1.
        -12    1    3    3    0    0  0.69637289514E+01 -0.26158769233E+02 -0.29340840168E+02  0.39920666708E+02  0.00000000000E+00 0.  1.
</event>
<event>
 7    1  0.2000468E-015  0.9000771E+02  0.7816164E-02  0.1186339E+00
        -11   -1    0    0    0    0  0.00000000000E+00  0.00000000000E+00  0.45593999997E+02  0.45594000000E+02  0.51100000000E-03 0. -1.
         11   -1    0    0    0    0 -0.00000000000E+00 -0.00000000000E+00 -0.45593999997E+02  0.45594000000E+02  0.51100000000E-03 0.  1.
    9900012    2    1    2    0    0  0.29866641612E+00 -0.86669551294E+00 -0.74345942750E+00  0.90007705689E+02  0.89999966604E+02 0.  0.
         12    1    1    2    0    0 -0.29866641612E+00  0.86669551294E+00  0.74345942750E+00  0.11802943110E+01  0.00000000000E+00 0. -1.
         11    1    3    3    0    0  0.15108706322E+01  0.93456390801E+01 -0.74369154619E+01  0.12038746269E+02  0.51100000000E-03 0. -1.
        -11    1    3    3    0    0 -0.42801531443E+01 -0.52495911550E+01 -0.35111487136E+02  0.35758837333E+02  0.51100000000E-03 0.  1.
         12    1    3    3    0    0  0.30679489282E+01 -0.49627434381E+01  0.41804943171E+02  0.42210122087E+02  0.00000000000E+00 0. -1.
</event>
<event>
 7    1  0.2000468E-015  0.9000781E+02  0.7816164E-02  0.1186339E+00
        -11   -1    0    0    0    0  0.00000000000E+00  0.00000000000E+00  0.45593999997E+02  0.45594000000E+02  0.51100000000E-03 0.  1.
         11   -1    0    0    0    0 -0.00000000000E+00 -0.00000000000E+00 -0.45593999997E+02  0.45594000000E+02  0.51100000000E-03 0. -1.
    9900012    2    1    2    0    0 -0.92491747808E+00  0.12007187504E+00  0.72315592333E+00  0.90007811843E+02  0.90000074159E+02 0.  0.
         12    1    1    2    0    0  0.92491747808E+00 -0.12007187504E+00 -0.72315592333E+00  0.11801881570E+01  0.00000000000E+00 0. -1.
         11    1    3    3    0    0  0.11729522951E+01 -0.55456876550E+01  0.78669842828E+01  0.96963864723E+01  0.51100000000E-03 0. -1.
        -11    1    3    3    0    0 -0.22687478179E+02 -0.30628434105E+02 -0.58620087670E+01  0.38564047880E+02  0.51100000000E-03 0.  1.
         12    1    3    3    0    0  0.20589608405E+02  0.36294193635E+02 -0.12818195925E+01  0.41747377491E+02  0.00000000000E+00 0. -1.
</event>
<event>
 7    1  0.2000468E-015  0.9000777E+02  0.7816164E-02  0.1186339E+00
        -11   -1    0    0    0    0  0.00000000000E+00  0.00000000000E+00  0.45593999997E+02  0.45594000000E+02  0.51100000000E-03 0. -1.
         11   -1    0    0    0    0 -0.00000000000E+00 -0.00000000000E+00 -0.45593999997E+02  0.45594000000E+02  0.51100000000E-03 0.  1.
    9900012    2    1    2    0    0  0.26733924379E+00 -0.31710331179E+00 -0.11049525369E+01  0.90007769137E+02  0.90000030889E+02 0.  0.
         12    1    1    2    0    0 -0.26733924379E+00  0.31710331179E+00  0.11049525369E+01  0.11802308632E+01  0.00000000000E+00 0. -1.
         11    1    3    3    0    0  0.34216581407E+02  0.76058699842E+01  0.72114624064E+01  0.35785875589E+02  0.51100000000E-03 0. -1.
        -11    1    3    3    0    0  0.85006215174E+01 -0.53986260743E+01  0.24323129583E+01  0.10359627226E+02  0.51100000000E-03 0.  1.
        -12    1    3    3    0    0 -0.42449863680E+02 -0.25243472216E+01 -0.10748727902E+02  0.43862266322E+02  0.00000000000E+00 0.  1.
</event>
<event>
 7    1  0.2000468E-015  0.9000774E+02  0.7816164E-02  0.1186339E+00
        -11   -1    0    0    0    0  0.00000000000E+00  0.00000000000E+00  0.45593999997E+02  0.45594000000E+02  0.51100000000E-03 0.  1.
         11   -1    0    0    0    0 -0.00000000000E+00 -0.00000000000E+00 -0.45593999997E+02  0.45594000000E+02  0.51100000000E-03 0. -1.
    9900012    2    1    2    0    0 -0.41766645222E-01 -0.11603458517E+01  0.21180084298E+00  0.90007743017E+02  0.90000004425E+02 0.  0.
         12    1    1    2    0    0  0.41766645222E-01  0.11603458517E+01 -0.21180084298E+00  0.11802569828E+01  0.00000000000E+00 0. -1.
         11    1    3    3    0    0  0.27472856726E+02  0.41014939943E+01 -0.26343263700E+02  0.38282471867E+02  0.51100000000E-03 0. -1.
        -11    1    3    3    0    0  0.39650791894E+01  0.88899189585E+01  0.41861336351E+01  0.10596047713E+02  0.51100000000E-03 0.  1.
        -12    1    3    3    0    0 -0.31479702561E+02 -0.14151758804E+02  0.22368930907E+02  0.41129223437E+02  0.00000000000E+00 0.  1.
</event>
<event>
 7    1  0.2000468E-015  0.9000773E+02  0.7816164E-02  0.1186339E+00
        -11   -1    0    0    0    0  0.00000000000E+00  0.00000000000E+00  0.45593999997E+02  0.45594000000E+02  0.51100000000E-03 0. -1.
         11   -1    0    0    0    0 -0.00000000000E+00 -0.00000000000E+00 -0.45593999997E+02  0.45594000000E+02  0.51100000000E-03 0.  1.
    9900012    2    1    2    0    0 -0.70751759948E+00 -0.64471055914E+00 -0.69051095716E+00  0.90007729590E+02  0.89999990821E+02 0.  0.
         12    1    1    2    0    0  0.70751759948E+00  0.64471055914E+00  0.69051095716E+00  0.11802704099E+01  0.00000000000E+00 0. -1.
         11    1    3    3    0    0 -0.27564370874E+02  0.10249004317E+02 -0.19695067431E+02  0.35393958701E+02  0.51100000000E-03 0. -1.
        -11    1    3    3    0    0 -0.83491481815E+01  0.41716071222E+01 -0.37624048301E+01  0.10063114414E+02  0.51100000000E-03 0.  1.
        -12    1    3    3    0    0  0.35206001456E+02 -0.15065321998E+02  0.22766961304E+02  0.44550656476E+02  0.00000000000E+00 0.  1.
</event>
<event>
 7    1  0.2000468E-015  0.9000775E+02  0.7816164E-02  0.1186339E+00
        -11   -1    0    0    0    0  0.00000000000E+00  0.00000000000E+00  0.45593999997E+02  0.45594000000E+02  0.51100000000E-03 0.  1.
         11   -1    0    0    0    0 -0.00000000000E+00 -0.00000000000E+00 -0.45593999997E+02  0.45594000000E+02  0.51100000000E-03 0. -1.
    9900012    2    1    2    0    0 -0.64554570470E+00 -0.77113845564E+00  0.61773589075E+00  0.90007753668E+02  0.90000015216E+02 0.  0.
         12    1    1    2    0    0  0.64554570470E+00  0.77113845564E+00 -0.61773589075E+00  0.11802463325E+01  0.00000000000E+00 0. -1.
         11    1    3    3    0    0  0.23155118772E+02  0.25837380623E+02  0.54515518340E+01  0.35120495163E+02  0.51100000000E-03 0. -1.
        -11    1    3    3    0    0 -0.10496236452E+01  0.10725682003E+02  0.79520253441E+00  0.10806216339E+02  0.51100000000E-03 0.  1.
        -12    1    3    3    0    0 -0.22751040832E+02 -0.37334201082E+02 -0.56290184777E+01  0.44081042166E+02  0.00000000000E+00 0.  1.
</event>
<event>
 7    1  0.2000468E-015  0.9000774E+02  0.7816164E-02  0.1186339E+00
        -11   -1    0    0    0    0  0.00000000000E+00  0.00000000000E+00  0.45593999997E+02  0.45594000000E+02  0.51100000000E-03 0.  1.
         11   -1    0    0    0    0 -0.00000000000E+00 -0.00000000000E+00 -0.45593999997E+02  0.45594000000E+02  0.51100000000E-03 0. -1.
    9900012    2    1    2    0    0 -0.32684691045E+00 -0.10944265593E+01  0.29733827809E+00  0.90007742211E+02  0.90000003608E+02 0.  0.
         12    1    1    2    0    0  0.32684691045E+00  0.10944265593E+01 -0.29733827809E+00  0.11802577889E+01  0.00000000000E+00 0. -1.
         11    1    3    3    0    0 -0.15668606040E+02  0.30749104325E+02  0.18605208868E+02  0.39206714085E+02  0.51100000000E-03 0. -1.
        -11    1    3    3    0    0  0.65312244391E+01  0.43448731494E+01  0.23776614976E+01  0.81968341337E+01  0.51100000000E-03 0.  1.
        -12    1    3    3    0    0  0.88105346905E+01 -0.36188404034E+02 -0.20685532088E+02  0.42604193993E+02  0.00000000000E+00 0.  1.
</event>
<event>
 7    1  0.2000468E-015  0.9000755E+02  0.7816164E-02  0.1186339E+00
        -11   -1    0    0    0    0  0.00000000000E+00  0.00000000000E+00  0.45593999997E+02  0.45594000000E+02  0.51100000000E-03 0. -1.
         11   -1    0    0    0    0 -0.00000000000E+00 -0.00000000000E+00 -0.45593999997E+02  0.45594000000E+02  0.51100000000E-03 0.  1.
    9900012    2    1    2    0    0  0.38099804814E+00  0.95388954880E+00 -0.58172262809E+00  0.90007548391E+02  0.89999807230E+02 0.  0.
         12    1    1    2    0    0 -0.38099804814E+00 -0.95388954880E+00  0.58172262809E+00  0.11804516085E+01  0.00000000000E+00 0. -1.
         11    1    3    3    0    0  0.45585466980E+01 -0.86867607725E+01  0.30551285413E+01  0.10274919532E+02  0.51100000000E-03 0. -1.
        -11    1    3    3    0    0 -0.21863036083E+02 -0.80226717010E+01 -0.33493573672E+02  0.40794302121E+02  0.51100000000E-03 0.  1.
         12    1    3    3    0    0  0.17685487433E+02  0.17663322022E+02  0.29856722502E+02  0.38938326739E+02  0.00000000000E+00 0. -1.
</event>
