<event>
 7    1  0.4096472E-015  0.9000760E+02  0.7816164E-02  0.1186339E+00
        -11   -1    0    0    0    0  0.00000000000E+00  0.00000000000E+00  0.45593999997E+02  0.45594000000E+02  0.51100000000E-03 0.  1.
         11   -1    0    0    0    0 -0.00000000000E+00 -0.00000000000E+00 -0.45593999997E+02  0.45594000000E+02  0.51100000000E-03 0. -1.
    9900012    2    1    2    0    0 -0.98012834810E+00 -0.55148362994E+00  0.35854655059E+00  0.90007601168E+02  0.89999860704E+02 0.  0.
         12    1    1    2    0    0  0.98012834810E+00  0.55148362994E+00 -0.35854655059E+00  0.11803988317E+01  0.00000000000E+00 0. -1.
         11    1    3    3    0    0  0.23571172172E+02 -0.12507173566E+02  0.21878062705E+02  0.34506219383E+02  0.51100000000E-03 0. -1.
        -11    1    3    3    0    0 -0.11889962841E+02 -0.13470312753E+02  0.27056225423E+01  0.18169780836E+02  0.51100000000E-03 0.  1.
         12    1    3    3    0    0 -0.12661337679E+02  0.25426002689E+02 -0.24225138696E+02  0.37331600949E+02  0.00000000000E+00 0. -1.
</event>
<event>
 7    1  0.4096472E-015  0.9000770E+02  0.7816164E-02  0.1186339E+00
        -11   -1    0    0    0    0  0.00000000000E+00  0.00000000000E+00  0.45593999997E+02  0.45594000000E+02  0.51100000000E-03 0.  1.
         11   -1    0    0    0    0 -0.00000000000E+00 -0.00000000000E+00 -0.45593999997E+02  0.45594000000E+02  0.51100000000E-03 0. -1.
    9900012    2    1    2    0    0  0.11373125756E+01  0.12657003608E+00  0.28914596717E+00  0.90007701199E+02  0.89999962055E+02 0.  0.
         12    1    1    2    0    0 -0.11373125756E+01 -0.12657003608E+00 -0.28914596717E+00  0.11802988007E+01  0.00000000000E+00 0. -1.
         11    1    3    3    0    0  0.11662573364E+02  0.33775501507E+02 -0.18453544319E+02  0.40216084068E+02  0.51100000000E-03 0. -1.
        -11    1    3    3    0    0  0.50501282994E+01  0.18106548437E+01  0.79420747077E+01  0.95843005862E+01  0.51100000000E-03 0.  1.
        -12    1    3    3    0    0 -0.15575389088E+02 -0.35459586315E+02  0.10800615579E+02  0.40207316545E+02  0.00000000000E+00 0.  1.
</event>
<event>
 7    1  0.4096472E-015  0.9000748E+02  0.7816164E-02  0.1186340E+00
        -11   -1    0    0    0    0  0.00000000000E+00  0.00000000000E+00  0.45593999997E+02  0.45594000000E+02  0.51100000000E-03 0.  1.
         11   -1    0    0    0    0 -0.00000000000E+00 -0.00000000000E+00 -0.45593999997E+02  0.45594000000E+02  0.51100000000E-03 0. -1.
    9900012    2    1    2    0    0  0.21145041232E+00  0.11582481251E+01  0.85956241674E-01  0.90007475341E+02  0.89999733215E+02 0.  0.
         12    1    1    2    0    0 -0.21145041232E+00 -0.11582481251E+01 -0.85956241674E-01  0.11805246594E+01  0.00000000000E+00 0. -1.
         11    1    3    3    0    0 -0.29659581490E+01  0.74422336843E+00 -0.81216448515E+01  0.86782424211E+01  0.51100000000E-03 0. -1.
        -11    1    3    3    0    0  0.34777948318E+02 -0.14907866178E+02 -0.13346431307E+02  0.40123277434E+02  0.51100000000E-03 0.  1.
         12    1    3    3    0    0 -0.31600539757E+02  0.15321890935E+02  0.21554032400E+02  0.41205955485E+02  0.00000000000E+00 0. -1.
</event>
<event>
 7    1  0.4096472E-015  0.9000773E+02  0.7816164E-02  0.1186339E+00
        -11   -1    0    0    0    0  0.00000000000E+00  0.00000000000E+00  0.45593999997E+02  0.45594000000E+02  0.51100000000E-03 0.  1.
         11   -1    0    0    0    0 -0.00000000000E+00 -0.00000000000E+00 -0.45593999997E+02  0.45594000000E+02  0.51100000000E-03 0. -1.
    9900012    2    1    2    0    0 -0.44040058598E-01  0.64760161171E+00  0.98574774141E+00  0.90007734782E+02  0.89999996081E+02 0.  0.
         12    1    1    2    0    0  0.44040058598E-01 -0.64760161171E+00 -0.98574774141E+00  0.11802652176E+01  0.00000000000E+00 0. -1.
         11    1    3    3    0    0  0.11190758705E+02  0.11385843928E+02 -0.47790700465E+01  0.16664634203E+02  0.51100000000E-03 0. -1.
        -11    1    3    3    0    0 -0.14893147844E+02  0.25758365691E+02  0.17881869237E+02  0.34713981383E+02  0.51100000000E-03 0.  1.
         12    1    3    3    0    0  0.36583490806E+01 -0.36496608008E+02 -0.12117051449E+02  0.38629119196E+02  0.00000000000E+00 0. -1.
</event>
<event>
 7    1  0.4096472E-015  0.9000834E+02  0.7816164E-02  0.1186338E+00
        -11   -1    0    0    0    0  0.00000000000E+00  0.00000000000E+00  0.45593999997E+02  0.45594000000E+02  0.51100000000E-03 0.  1.
         11   -1    0    0    0    0 -0.00000000000E+00 -0.00000000000E+00 -0.45593999997E+02  0.45594000000E+02  0.51100000000E-03 0. -1.
    9900012    2    1    2    0    0  0.11109997870E+01 -0.28831363624E+00  0.27232292594E+00  0.90008336889E+02  0.90000606134E+02 0.  0.
         12    1    1    2    0    0 -0.11109997870E+01  0.28831363624E+00 -0.27232292594E+00  0.11796631110E+01  0.00000000000E+00 0. -1.
         11    1    3    3    0    0  0.29453801927E+02 -0.15985575190E+02 -0.21062219743E+02  0.39581336042E+02  0.51100000000E-03 0. -1.
        -11    1    3    3    0    0  0.49445348725E+01 -0.42738017483E+01  0.53500820276E+01  0.84461342905E+01  0.51100000000E-03 0.  1.
        -12    1    3    3    0    0 -0.33287337013E+02  0.19971063302E+02  0.15984460641E+02  0.41980866556E+02  0.00000000000E+00 0.  1.
</event>
<event>
 7    1  0.4096472E-015  0.9000805E+02  0.7816164E-02  0.1186338E+00
        -11   -1    0    0    0    0  0.00000000000E+00  0.00000000000E+00  0.45593999997E+02  0.45594000000E+02  0.51100000000E-03 0.  1.
         11   -1    0    0    0    0 -0.00000000000E+00 -0.00000000000E+00 -0.45593999997E+02  0.45594000000E+02  0.51100000000E-03 0. -1.
    9900012    2    1    2    0    0 -0.26865233831E+00  0.11454867764E+01 -0.89218836716E-01  0.90008053376E+02  0.90000318880E+02 0.  0.
         12    1    1    2    0    0  0.26865233831E+00 -0.11454867764E+01  0.89218836716E-01  0.11799466236E+01  0.00000000000E+00 0. -1.
         11    1    3    3    0    0 -0.25647206549E+02  0.30249188512E+02  0.13550899680E+02  0.41909658693E+02  0.51100000000E-03 0. -1.
        -11    1    3    3    0    0  0.39206917189E+01 -0.61030866302E+01  0.73149103637E+01  0.10301815561E+02  0.51100000000E-03 0.  1.
        -12    1    3    3    0    0  0.21457862491E+02 -0.23000615105E+02 -0.20955028881E+02  0.37796579122E+02  0.00000000000E+00 0.  1.
</event>
<event>
 7    1  0.4096472E-015  0.9000774E+02  0.7816164E-02  0.1186339E+00
        -11   -1    0    0    0    0  0.00000000000E+00  0.00000000000E+00  0.45593999997E+02  0.45594000000E+02  0.51100000000E-03 0. -1.
         11   -1    0    0    0    0 -0.00000000000E+00 -0.00000000000E+00 -0.45593999997E+02  0.45594000000E+02  0.51100000000E-03 0.  1.
    9900012    2    1    2    0    0 -0.92057059594E+00 -0.70540026828E+00  0.21904611108E+00  0.90007736911E+02  0.89999998238E+02 0.  0.
         12    1    1    2    0    0  0.92057059594E+00  0.70540026828E+00 -0.21904611108E+00  0.11802630891E+01  0.00000000000E+00 0. -1.
         11    1    3    3    0    0 -0.36103062171E+01 -0.71500187346E+01 -0.69168299144E+01  0.10582987065E+02  0.51100000000E-03 0. -1.
        -11    1    3    3    0    0  0.63975299261E+01 -0.34185511256E+02 -0.83812127954E+01  0.35774604081E+02  0.51100000000E-03 0.  1.
         12    1    3    3    0    0 -0.37077943049E+01  0.40630129722E+02  0.15517088821E+02  0.43650145765E+02  0.00000000000E+00 0. -1.
</event>
<event>
 7    1  0.6008554E-015  0.9000779E+02  0.7816164E-02  0.1186339E+00
        -11   -1    0    0    0    0  0.00000000000E+00  0.00000000000E+00  0.45593999997E+02  0.45594000000E+02  0.51100000000E-03 0. -1.
         11   -1    0    0    0    0 -0.00000000000E+00 -0.00000000000E+00 -0.45593999997E+02  0.45594000000E+02  0.51100000000E-03 0.  1.
    9900012    2    1    2    0    0  0.76934125564E+00  0.54703668120E+00 -0.70835555272E+00  0.90007787016E+02  0.90000049005E+02 0.  0.
         12    1    1    2    0    0 -0.76934125564E+00 -0.54703668120E+00  0.70835555272E+00  0.11802129839E+01  0.00000000000E+00 0. -1.
         11    1    3    3    0    0  0.32552889123E+02  0.12763038082E+02  0.18623603505E+02  0.39615960661E+02  0.51100000000E-03 0. -1.
        -11    1    3    3    0    0  0.50223407866E+01  0.22704673587E+01 -0.71025091290E+01  0.89902483388E+01  0.51100000000E-03 0.  1.
        -12    1    3    3    0    0 -0.36805888654E+02 -0.14486468759E+02 -0.12229449929E+02  0.41401578017E+02  0.00000000000E+00 0.  1.
</event>
<event>
 7    1  0.4096472E-015  0.9000777E+02  0.7816164E-02  0.1186339E+00
        -11   -1    0    0    0    0  0.00000000000E+00  0.00000000000E+00  0.45593999997E+02  0.45594000000E+02  0.51100000000E-03 0. -1.
         11   -1    0    0    0    0 -0.00000000000E+00 -0.00000000000E+00 -0.45593999997E+02  0.45594000000E+02  0.51100000000E-03 0.  1.
    9900012    2    1    2    0    0 -0.17582858219E+00  0.11043467531E+01  0.37741122893E+00  0.90007772616E+02  0.90000034415E+02 0.  0.
         12    1    1    2    0    0  0.17582858219E+00 -0.11043467531E+01 -0.37741122893E+00  0.11802273836E+01  0.00000000000E+00 0. -1.
         11    1    3    3    0    0  0.36393204534E+02 -0.32267007558E+01  0.31716027508E+01  0.36673369061E+02  0.51100000000E-03 0. -1.
        -11    1    3    3    0    0  0.29723056894E+01 -0.94265417074E+00  0.10760312501E+02  0.11203014030E+02  0.51100000000E-03 0.  1.
        -12    1    3    3    0    0 -0.39541338806E+02  0.52737016796E+01 -0.13554504022E+02  0.42131389524E+02  0.00000000000E+00 0.  1.
</event>
<event>
 7    1  0.4096472E-015  0.9000779E+02  0.7816164E-02  0.1186339E+00
        -11   -1    0    0    0    0  0.00000000000E+00  0.00000000000E+00  0.45593999997E+02  0.45594000000E+02  0.51100000000E-03 0.  1.
         11   -1    0    0    0    0 -0.00000000000E+00 -0.00000000000E+00 -0.45593999997E+02  0.45594000000E+02  0.51100000000E-03 0. -1.
    9900012    2    1    2    0    0  0.10414514921E+01 -0.47378127570E+00 -0.28948451492E+00  0.90007791886E+02  0.90000053939E+02 0.  0.
         12    1    1    2    0    0 -0.10414514921E+01  0.47378127570E+00  0.28948451492E+00  0.11802081138E+01  0.00000000000E+00 0. -1.
         11    1    3    3    0    0 -0.13147075733E+02 -0.12384171957E+02  0.90425741316E+01  0.20198551002E+02  0.51100000000E-03 0. -1.
        -11    1    3    3    0    0  0.38312933479E+02  0.99720855549E+01  0.75472039494E+01  0.40302402531E+02  0.51100000000E-03 0.  1.
         12    1    3    3    0    0 -0.24124406253E+02  0.19383051262E+01 -0.16879262596E+02  0.29506838353E+02  0.00000000000E+00 0. -1.
</event>
<event>
 7    1  0.4096472E-015  0.9000775E+02  0.7816164E-02  0.1186339E+00
        -11   -1    0    0    0    0  0.00000000000E+00  0.00000000000E+00  0.45593999997E+02  0.45594000000E+02  0.51100000000E-03 0. -1.
         11   -1    0    0    0    0 -0.00000000000E+00 -0.00000000000E+00 -0.45593999997E+02  0.45594000000E+02  0.51100000000E-03 0.  1.
    9900012    2    1    2    0    0  0.44169167464E+00  0.79699324078E+00 -0.75013153825E+00  0.90007751261E+02  0.90000012778E+02 0.  0.
         12    1    1    2    0    0 -0.44169167464E+00 -0.79699324078E+00  0.75013153825E+00  0.11802487390E+01  0.00000000000E+00 0. -1.
         11    1    3    3    0    0 -0.35141914910E+02 -0.89248946558E+01  0.26788747519E+01  0.36356351554E+02  0.51100000000E-03 0. -1.
        -11    1    3    3    0    0 -0.83415526578E+01  0.32966836597E+01  0.10628539355E+01  0.90321250348E+01  0.51100000000E-03 0.  1.
        -12    1    3    3    0    0  0.43925159242E+02  0.64252042368E+01 -0.44918602256E+01  0.44619274672E+02  0.00000000000E+00 0.  1.
</event>
<event>
 7    1  0.5143285E-015  0.9000771E+02  0.7816164E-02  0.1186339E+00
        -11   -1    0    0    0    0  0.00000000000E+00  0.00000000000E+00  0.45593999997E+02  0.45594000000E+02  0.51100000000E-03 0. -1.
         11   -1    0    0    0    0 -0.00000000000E+00 -0.00000000000E+00 -0.45593999997E+02  0.45594000000E+02  0.51100000000E-03 0.  1.
    9900012    2    1    2    0    0 -0.56289370646E+00 -0.70574932133E+00 -0.76036662994E+00  0.90007708154E+02  0.89999969102E+02 0.  0.
         12    1    1    2    0    0  0.56289370646E+00  0.70574932133E+00  0.76036662994E+00  0.11802918458E+01  0.00000000000E+00 0. -1.
         11    1    3    3    0    0 -0.18260093755E+02  0.13575457431E+02  0.28589109533E+02  0.36538490014E+02  0.51100000000E-03 0. -1.
        -11    1    3    3    0    0  0.44924660137E+00  0.69681044420E+01  0.56905343661E+01  0.90076902509E+01  0.51100000000E-03 0.  1.
        -12    1    3    3    0    0  0.17247953447E+02 -0.21249311194E+02 -0.35040010529E+02  0.44461527889E+02  0.00000000000E+00 0.  1.
</event>
<event>
 7    1  0.4096472E-015  0.9000763E+02  0.7816164E-02  0.1186339E+00
        -11   -1    0    0    0    0  0.00000000000E+00  0.00000000000E+00  0.45593999997E+02  0.45594000000E+02  0.51100000000E-03 0. -1.
         11   -1    0    0    0    0 -0.00000000000E+00 -0.00000000000E+00 -0.45593999997E+02  0.45594000000E+02  0.51100000000E-03 0.  1.
    9900012    2    1    2    0    0 -0.97683851703E+00 -0.66071227669E+00  0.50241031174E-01  0.90007627871E+02  0.89999887759E+02 0.  0.
         12    1    1    2    0    0  0.97683851703E+00  0.66071227669E+00 -0.50241031174E-01  0.11803721287E+01  0.00000000000E+00 0. -1.
         11    1    3    3    0    0 -0.21341354695E+02  0.41525106574E+01  0.30870964978E+02  0.37758618141E+02  0.51100000000E-03 0. -1.
        -11    1    3    3    0    0 -0.83673302725E+01  0.22478666178E+01  0.10904144392E+01  0.87323607422E+01  0.51100000000E-03 0.  1.
        -12    1    3    3    0    0  0.28731846450E+02 -0.70610895519E+01 -0.31911138386E+02  0.43516648988E+02  0.00000000000E+00 0.  1.
</event>
<event>
 7    1  0.4096472E-015  0.9000766E+02  0.7816164E-02  0.1186339E+00
        -11   -1    0    0    0    0  0.00000000000E+00  0.00000000000E+00  0.45593999997E+02  0.45594000000E+02  0.51100000000E-03 0.  1.
         11   -1    0    0    0    0 -0.00000000000E+00 -0.00000000000E+00 -0.45593999997E+02  0.45594000000E+02  0.51100000000E-03 0. -1.
    9900012    2    1    2    0    0 -0.83716682742E+00  0.70413626853E+00  0.44333619889E+00  0.90007659724E+02  0.89999920032E+02 0.  0.
         12    1    1    2    0    0  0.83716682742E+00 -0.70413626853E+00 -0.44333619889E+00  0.11803402759E+01  0.00000000000E+00 0. -1.
         11    1    3    3    0    0  0.42920005181E+01  0.52712001909E+01  0.45274702182E+01  0.81673010681E+01  0.51100000000E-03 0. -1.
        -11    1    3    3    0    0 -0.13677523527E+02 -0.29205266824E+01  0.37150968648E+02  0.39696329776E+02  0.51100000000E-03 0.  1.
         12    1    3    3    0    0  0.85483561811E+01 -0.16465372399E+01 -0.41235102667E+02  0.42144028880E+02  0.00000000000E+00 0. -1.
</event>
<event>
 7    1  0.4096472E-015  0.9000770E+02  0.7816164E-02  0.1186339E+00
        -11   -1    0    0    0    0  0.00000000000E+00  0.00000000000E+00  0.45593999997E+02  0.45594000000E+02  0.51100000000E-03 0.  1.
         11   -1    0    0    0    0 -0.00000000000E+00 -0.00000000000E+00 -0.45593999997E+02  0.45594000000E+02  0.51100000000E-03 0. -1.
    9900012    2    1    2    0    0 -0.35790757235E+00 -0.83822837846E+00 -0.74991943330E+00  0.90007701817E+02  0.89999962681E+02 0.  0.
         12    1    1    2    0    0  0.35790757235E+00  0.83822837846E+00  0.74991943330E+00  0.11802981832E+01  0.00000000000E+00 0. -1.
         11    1    3    3    0    0 -0.61125400064E+01 -0.32551035313E+00  0.83988771883E+01  0.10392797535E+02  0.51100000000E-03 0. -1.
        -11    1    3    3    0    0  0.31545826302E+02  0.84452456569E+01  0.21089437869E+02  0.38874486764E+02  0.51100000000E-03 0.  1.
         12    1    3    3    0    0 -0.25791193868E+02 -0.89579636822E+01 -0.30238234490E+02  0.40740417518E+02  0.00000000000E+00 0. -1.
</event>
<event>
 7    1  0.4616094E-015  0.9000772E+02  0.7816164E-02  0.1186339E+00
        -11   -1    0    0    0    0  0.00000000000E+00  0.00000000000E+00  0.45593999997E+02  0.45594000000E+02  0.51100000000E-03 0. -1.
         11   -1    0    0    0    0 -0.00000000000E+00 -0.00000000000E+00 -0.45593999997E+02  0.45594000000E+02  0.51100000000E-03 0.  1.
    9900012    2    1    2    0    0  0.51232566731E-01  0.11773992755E+01  0.64578535536E-01  0.90007718586E+02  0.89999979671E+02 0.  0.
         12    1    1    2    0    0 -0.51232566731E-01 -0.11773992755E+01 -0.64578535536E-01  0.11802814144E+01  0.00000000000E+00 0. -1.
         11    1    3    3    0    0  0.20054400954E+01 -0.21250785937E+02  0.36993320245E+02  0.42709758088E+02  0.51100000000E-03 0. -1.
        -11    1    3    3    0    0 -0.64078564632E+01 -0.20738992818E+00 -0.67191028499E+01  0.92870866478E+01  0.51100000000E-03 0.  1.
        -12    1    3    3    0    0  0.44536489346E+01  0.22635575141E+02 -0.30209638860E+02  0.38010873850E+02  0.00000000000E+00 0.  1.
</event>
<event>
 7    1  0.6738878E-015  0.9000801E+02  0.7816164E-02  0.1186339E+00
        -11   -1    0    0    0    0  0.00000000000E+00  0.00000000000E+00  0.45593999997E+02  0.45594000000E+02  0.51100000000E-03 0. -1.
         11   -1    0    0    0    0 -0.00000000000E+00 -0.00000000000E+00 -0.45593999997E+02  0.45594000000E+02  0.51100000000E-03 0.  1.
    9900012    2    1    2    0    0 -0.70373202042E-01 -0.94182620609E+00 -0.70737907266E+00  0.90008010957E+02  0.90000275901E+02 0.  0.
         12    1    1    2    0    0  0.70373202042E-01  0.94182620609E+00  0.70737907266E+00  0.11799890434E+01  0.00000000000E+00 0. -1.
         11    1    3    3    0    0  0.23099123565E+02  0.34640570410E+01  0.30867642470E+02  0.38708920840E+02  0.51100000000E-03 0. -1.
        -11    1    3    3    0    0  0.59619668293E+01  0.67369980700E+01 -0.48202570487E+01  0.10206227008E+02  0.51100000000E-03 0.  1.
        -12    1    3    3    0    0 -0.29131463596E+02 -0.11142881317E+02 -0.26754764494E+02  0.41092863108E+02  0.00000000000E+00 0.  1.
</event>
<event>
 7    1  0.4096472E-015  0.9000774E+02  0.7816164E-02  0.1186339E+00
        -11   -1    0    0    0    0  0.00000000000E+00  0.00000000000E+00  0.45593999997E+02  0.45594000000E+02  0.51100000000E-03 0.  1.
         11   -1    0    0    0    0 -0.00000000000E+00 -0.00000000000E+00 -0.45593999997E+02  0.45594000000E+02  0.51100000000E-03 0. -1.
    9900012    2    1    2    0    0  0.78014761476E+00  0.23756971273E+00  0.85319727078E+00  0.90007739329E+02  0.90000000688E+02 0.  0.
         12    1    1    2    0    0 -0.78014761476E+00 -0.23756971273E+00 -0.85319727078E+00  0.11802606712E+01  0.00000000000E+00 0. -1.
         11    1    3    3    0    0 -0.13595703164E+02 -0.31032477161E+01 -0.39451054415E+02  0.41843266909E+02  0.51100000000E-03 0. -1.
        -11    1    3    3    0    0  0.44442401793E+01  0.77776363851E+01  0.32218990746E+01  0.95196393008E+01  0.51100000000E-03 0.  1.
        -12    1    3    3    0    0  0.99316105998E+01 -0.44368189563E+01  0.37082352611E+02  0.38644833119E+02  0.00000000000E+00 0.  1.
</event>
<event>
 7    1  0.4545818E-015  0.9000791E+02  0.7816164E-02  0.1186339E+00
        -11   -1    0    0    0    0  0.00000000000E+00  0.00000000000E+00  0.45593999997E+02  0.45594000000E+02  0.51100000000E-03 0. -1.
         11   -1    0    0    0    0 -0.00000000000E+00 -0.00000000000E+00 -0.45593999997E+02  0.45594000000E+02  0.51100000000E-03 0.  1.
    9900012    2    1    2    0    0  0.17658370332E+00  0.25837697060E+00 -0.11378358938E+01  0.90007910603E+02  0.90000174223E+02 0.  0.
         12    1    1    2    0    0 -0.17658370332E+00 -0.25837697060E+00  0.11378358938E+01  0.11800893968E+01  0.00000000000E+00 0. -1.
         11    1    3    3    0    0  0.81056463622E+01 -0.42766571021E+01  0.26422467040E+00  0.91684848179E+01  0.51100000000E-03 0. -1.
        -11    1    3    3    0    0  0.11125968749E+02  0.24870597600E+02 -0.30262331185E+02  0.40720295856E+02  0.51100000000E-03 0.  1.
         12    1    3    3    0    0 -0.19055031408E+02 -0.20335563527E+02  0.28860270621E+02  0.40119129929E+02  0.00000000000E+00 0. -1.
</event>
<event>
 7    1  0.4096472E-015  0.9000768E+02  0.7816164E-02  0.1186339E+00
        -11   -1    0    0    0    0  0.00000000000E+00  0.00000000000E+00  0.45593999997E+02  0.45594000000E+02  0.51100000000E-03 0. -1.
         11   -1    0    0    0    0 -0.00000000000E+00 -0.00000000000E+00 -0.45593999997E+02  0.45594000000E+02  0.51100000000E-03 0.  1.
    9900012    2    1    2    0    0 -0.93359643712E+00 -0.71533132242E+00 -0.99315918778E-01  0.90007675951E+02  0.89999936474E+02 0.  0.
         12    1    1    2    0    0  0.93359643712E+00  0.71533132242E+00  0.99315918778E-01  0.11803240487E+01  0.00000000000E+00 0. -1.
         11    1    3    3    0    0 -0.61341877444E+01  0.19328771269E+02  0.29617837277E+02  0.35894929214E+02  0.51100000000E-03 0. -1.
        -11    1    3    3    0    0 -0.37905747147E+01  0.65863921057E+01  0.52595734937E+01  0.92418683844E+01  0.51100000000E-03 0.  1.
        -12    1    3    3    0    0  0.89911660220E+01 -0.26630494697E+02 -0.34976726689E+02  0.44870878353E+02  0.00000000000E+00 0.  1.
</event>
<event>
 7    1  0.4096472E-015  0.9000774E+02  0.7816164E-02  0.1186339E+00
        -11   -1    0    0    0    0  0.00000000000E+00  0.00000000000E+00  0.45593999997E+02  0.45594000000E+02  0.51100000000E-03 0. -1.
         11   -1    0    0    0    0 -0.00000000000E+00 -0.00000000000E+00 -0.45593999997E+02  0.45594000000E+02  0.51100000000E-03 0.  1.
    9900012    2    1    2    0    0 -0.68429900428E+00 -0.19114191724E+00  0.94245323360E+00  0.90007737971E+02  0.89999999312E+02 0.  0.
         12    1    1    2    0    0  0.68429900428E+00  0.19114191724E+00 -0.94245323360E+00  0.11802620291E+01  0.00000000000E+00 0. -1.
         11    1    3    3    0    0  0.87809532511E+01  0.33601245606E+02  0.11587891332E+02  0.36611856987E+02  0.51100000000E-03 0. -1.
        -11    1    3    3    0    0  0.67011013589E+01  0.61423820900E+01 -0.34142203213E+01  0.97103304694E+01  0.51100000000E-03 0.  1.
        -12    1    3    3    0    0 -0.16166353614E+02 -0.39934769613E+02 -0.72312177766E+01  0.43685550515E+02  0.00000000000E+00 0.  1.
</event>
<event>
 7    1  0.4096472E-015  0.9000788E+02  0.7816164E-02  0.1186339E+00
        -11   -1    0    0    0    0  0.00000000000E+00  0.00000000000E+00  0.45593999997E+02  0.45594000000E+02  0.51100000000E-03 0. -1.
         11   -1    0    0    0    0 -0.00000000000E+00 -0.00000000000E+00 -0.45593999997E+02  0.45594000000E+02  0.51100000000E-03 0.  1.
    9900012    2    1    2    0    0 -0.53468548819E+00  0.89580556718E+00  0.55166399817E+00  0.90007877399E+02  0.90000140581E+02 0.  0.
         12    1    1    2    0    0  0.53468548819E+00 -0.89580556718E+00 -0.55166399817E+00  0.11801226006E+01  0.00000000000E+00 0. -1.
         11    1    3    3    0    0 -0.66964418199E+00 -0.46602014870E+01 -0.17503284839E+01  0.50229026760E+01  0.51100000000E-03 0. -1.
        -11    1    3    3    0    0  0.13896977956E+02 -0.16641859044E+02 -0.33963293938E+02  0.40293706756E+02  0.51100000000E-03 0.  1.
         12    1    3    3    0    0 -0.13762019262E+02  0.22197866098E+02  0.36265286420E+02  0.44691267968E+02  0.00000000000E+00 0. -1.
</event>
<event>
 7    1  0.4096472E-015  0.9000775E+02  0.7816164E-02  0.1186339E+00
        -11   -1    0    0    0    0  0.00000000000E+00  0.00000000000E+00  0.45593999997E+02  0.45594000000E+02  0.51100000000E-03 0.  1.
         11   -1    0    0    0    0 -0.00000000000E+00 -0.00000000000E+00 -0.45593999997E+02  0.45594000000E+02  0.51100000000E-03 0. -1.
    9900012    2    1    2    0    0  0.81399887329E+00 -0.28007861801E+00  0.80743826320E+00  0.90007748016E+02  0.90000009489E+02 0.  0.
         12    1    1    2    0    0 -0.81399887329E+00  0.28007861801E+00 -0.80743826320E+00  0.11802519845E+01  0.00000000000E+00 0. -1.
         11    1    3    3    0    0 -0.15939683659E+02 -0.37023851674E+02  0.18501563607E+02  0.44352530526E+02  0.51100000000E-03 0. -1.
        -11    1    3    3    0    0  0.69465219272E+01  0.58182200004E+01 -0.85315059435E+00  0.91013030417E+01  0.51100000000E-03 0.  1.
        -12    1    3    3    0    0  0.98071606055E+01  0.30925553055E+02 -0.16840974750E+02  0.36553914447E+02  0.00000000000E+00 0.  1.
</event>
<event>
 7    1  0.4096472E-015  0.9000767E+02  0.7816164E-02  0.1186339E+00
        -11   -1    0    0    0    0  0.00000000000E+00  0.00000000000E+00  0.45593999997E+02  0.45594000000E+02  0.51100000000E-03 0. -1.
         11   -1    0    0    0    0 -0.00000000000E+00 -0.00000000000E+00 -0.45593999997E+02  0.45594000000E+02  0.51100000000E-03 0.  1.
    9900012    2    1    2    0    0  0.32117426885E+00  0.11305779845E+01  0.10870933997E+00  0.90007670719E+02  0.89999931173E+02 0.  0.
         12    1    1    2    0    0 -0.32117426885E+00 -0.11305779845E+01 -0.10870933997E+00  0.11803292806E+01  0.00000000000E+00 0. -1.
         11    1    3    3    0    0  0.81319883485E+01  0.22618472913E+01  0.13541629095E+01  0.85486224104E+01  0.51100000000E-03 0. -1.
        -11    1    3    3    0    0 -0.33578188791E+02 -0.11595421485E+02  0.24825505178E+02  0.43338830966E+02  0.51100000000E-03 0.  1.
         12    1    3    3    0    0  0.25767374711E+02  0.10464152179E+02 -0.26070958747E+02  0.38120217343E+02  0.00000000000E+00 0. -1.
</event>
<event>
 7    1  0.4096472E-015  0.9000730E+02  0.7816164E-02  0.1186340E+00
        -11   -1    0    0    0    0  0.00000000000E+00  0.00000000000E+00  0.45593999997E+02  0.45594000000E+02  0.51100000000E-03 0.  1.
         11   -1    0    0    0    0 -0.00000000000E+00 -0.00000000000E+00 -0.45593999997E+02  0.45594000000E+02  0.51100000000E-03 0. -1.
    9900012    2    1    2    0    0 -0.10722554340E+01  0.26792218032E+00  0.41538964137E+00  0.90007295734E+02  0.89999551236E+02 0.  0.
         12    1    1    2    0    0  0.10722554340E+01 -0.26792218032E+00 -0.41538964137E+00  0.11807042664E+01  0.00000000000E+00 0. -1.
         11    1    3    3    0    0  0.23462757863E+02  0.71625584570E+01 -0.26612304868E+02  0.36194171089E+02  0.51100000000E-03 0. -1.
        -11    1    3    3    0    0  0.74424289696E+01  0.66518676058E+01  0.29307198751E+00  0.99861395476E+01  0.51100000000E-03 0.  1.
        -12    1    3    3    0    0 -0.31977442267E+02 -0.13546503882E+02  0.26734622521E+02  0.43826985097E+02  0.00000000000E+00 0.  1.
</event>
<event>
 7    1  0.4096472E-015  0.9000777E+02  0.7816164E-02  0.1186339E+00
        -11   -1    0    0    0    0  0.00000000000E+00  0.00000000000E+00  0.45593999997E+02  0.45594000000E+02  0.51100000000E-03 0.  1.
         11   -1    0    0    0    0 -0.00000000000E+00 -0.00000000000E+00 -0.45593999997E+02  0.45594000000E+02  0.51100000000E-03 0. -1.
    9900012    2    1    2    0    0 -0.10341328899E+01  0.73526972316E-01  0.56399874014E+00  0.90007774755E+02  0.90000036582E+02 0.  0.
         12    1    1    2    0    0  0.10341328899E+01 -0.73526972316E-01 -0.56399874014E+00  0.11802252448E+01  0.00000000000E+00 0. -1.
         11    1    3    3    0    0  0.60728831938E+01  0.19123792418E+01 -0.72559223804E+01  0.96532644479E+01  0.51100000000E-03 0. -1.
        -11    1    3    3    0    0 -0.69228739310E+01  0.33035583209E+02  0.24488528130E+02  0.41700886701E+02  0.51100000000E-03 0.  1.
         12    1    3    3    0    0 -0.18414215267E+00 -0.34874435478E+02 -0.16668607010E+02  0.38653623606E+02  0.00000000000E+00 0. -1.
</event>
<event>
 7    1  0.4096472E-015  0.9000773E+02  0.7816164E-02  0.1186339E+00
        -11   -1    0    0    0    0  0.00000000000E+00  0.00000000000E+00  0.45593999997E+02  0.45594000000E+02  0.51100000000E-03 0.  1.
         11   -1    0    0    0    0 -0.00000000000E+00 -0.00000000000E+00 -0.45593999997E+02  0.45594000000E+02  0.51100000000E-03 0. -1.
    9900012    2    1    2    0    0 -0.98930874859E+00  0.16989410735E+00 -0.62084800398E+00  0.90007725434E+02  0.89999986609E+02 0.  0.
         12    1    1    2    0    0  0.98930874859E+00 -0.16989410735E+00  0.62084800398E+00  0.11802745663E+01  0.00000000000E+00 0. -1.
         11    1    3    3    0    0  0.25576750993E+02  0.75392765663E+01 -0.27780467647E+02  0.38506691178E+02  0.51100000000E-03 0. -1.
        -11    1    3    3    0    0  0.82431622553E+01 -0.37769882435E+00  0.49755267296E+01  0.96357795153E+01  0.51100000000E-03 0.  1.
        -12    1    3    3    0    0 -0.34809221997E+02 -0.69916836346E+01  0.22184092914E+02  0.41865254741E+02  0.00000000000E+00 0.  1.
</event>
<event>
 7    1  0.4096472E-015  0.9000775E+02  0.7816164E-02  0.1186339E+00
        -11   -1    0    0    0    0  0.00000000000E+00  0.00000000000E+00  0.45593999997E+02  0.45594000000E+02  0.51100000000E-03 0. -1.
         11   -1    0    0    0    0 -0.00000000000E+00 -0.00000000000E+00 -0.45593999997E+02  0.45594000000E+02  0.51100000000E-03 0.  1.
    9900012    2    1    2    0    0 -0.77112273726E+00  0.57639428544E+00 -0.68274332616E+00  0.90007746172E+02  0.90000007622E+02 0.  0.
         12    1    1    2    0    0  0.77112273726E+00 -0.57639428544E+00  0.68274332616E+00  0.11802538276E+01  0.00000000000E+00 0. -1.
         11    1    3    3    0    0 -0.69414234690E+01 -0.50907711213E+01  0.24209421672E+02  0.25694268005E+02  0.51100000000E-03 0. -1.
        -11    1    3    3    0    0  0.26149307223E+02  0.10896354920E+02  0.41978647557E+01  0.28638067106E+02  0.51100000000E-03 0.  1.
        -12    1    3    3    0    0 -0.19979006491E+02 -0.52291895137E+01 -0.29090029754E+02  0.35675411061E+02  0.00000000000E+00 0.  1.
</event>
<event>
 7    1  0.4096472E-015  0.9000776E+02  0.7816164E-02  0.1186339E+00
        -11   -1    0    0    0    0  0.00000000000E+00  0.00000000000E+00  0.45593999997E+02  0.45594000000E+02  0.51100000000E-03 0.  1.
         11   -1    0    0    0    0 -0.00000000000E+00 -0.00000000000E+00 -0.45593999997E+02  0.45594000000E+02  0.51100000000E-03 0. -1.
    9900012    2    1    2    0    0 -0.10799360488E+00  0.55902661613E-01  0.11739567273E+01  0.90007761836E+02  0.90000023492E+02 0.  0.
         12    1    1    2    0    0  0.10799360488E+00 -0.55902661613E-01 -0.11739567273E+01  0.11802381641E+01  0.00000000000E+00 0. -1.
         11    1    3    3    0    0 -0.15888550986E+02 -0.28151980750E+02  0.15031419435E+02  0.35650016033E+02  0.51100000000E-03 0. -1.
        -11    1    3    3    0    0  0.96412955150E+00 -0.62515437696E+01  0.85722469637E+01  0.10653392115E+02  0.51100000000E-03 0.  1.
        -12    1    3    3    0    0  0.14816427830E+02  0.34459427182E+02 -0.22429709672E+02  0.43704353688E+02  0.00000000000E+00 0.  1.
</event>
<event>
 7    1  0.5097030E-015  0.9000780E+02  0.7816164E-02  0.1186339E+00
        -11   -1    0    0    0    0  0.00000000000E+00  0.00000000000E+00  0.45593999997E+02  0.45594000000E+02  0.51100000000E-03 0.  1.
         11   -1    0    0    0    0 -0.00000000000E+00 -0.00000000000E+00 -0.45593999997E+02  0.45594000000E+02  0.51100000000E-03 0. -1.
    9900012    2    1    2    0    0 -0.91455694185E+00  0.45617657821E+00 -0.59021904396E+00  0.90007800868E+02  0.90000063040E+02 0.  0.
         12    1    1    2    0    0  0.91455694185E+00 -0.45617657821E+00  0.59021904396E+00  0.11801991316E+01  0.00000000000E+00 0. -1.
         11    1    3    3    0    0 -0.49184103247E+01  0.59967627812E+01  0.52482078656E+01  0.93645934262E+01  0.51100000000E-03 0. -1.
        -11    1    3    3    0    0 -0.22396605116E+02  0.28705672801E+02 -0.82602321381E+01  0.37334367637E+02  0.51100000000E-03 0.  1.
         12    1    3    3    0    0  0.26400458498E+02 -0.34246259004E+02  0.24218052285E+01  0.43308839805E+02  0.00000000000E+00 0. -1.
</event>
<event>
 7    1  0.4096472E-015  0.9000773E+02  0.7816164E-02  0.1186339E+00
        -11   -1    0    0    0    0  0.00000000000E+00  0.00000000000E+00  0.45593999997E+02  0.45594000000E+02  0.51100000000E-03 0.  1.
         11   -1    0    0    0    0 -0.00000000000E+00 -0.00000000000E+00 -0.45593999997E+02  0.45594000000E+02  0.51100000000E-03 0. -1.
    9900012    2    1    2    0    0 -0.34646859528E+00 -0.86122144793E+00  0.72890305442E+00  0.90007727772E+02  0.89999988978E+02 0.  0.
         12    1    1    2    0    0  0.34646859528E+00  0.86122144793E+00 -0.72890305442E+00  0.11802722282E+01  0.00000000000E+00 0. -1.
         11    1    3    3    0    0  0.13424673428E+02  0.65650291655E+01  0.14985810740E+02  0.21163553303E+02  0.51100000000E-03 0. -1.
        -11    1    3    3    0    0 -0.27884259859E+02  0.21346360910E+02 -0.48896060746E+01  0.35455709270E+02  0.51100000000E-03 0.  1.
         12    1    3    3    0    0  0.14113117836E+02 -0.28772611523E+02 -0.93673016108E+01  0.33388465200E+02  0.00000000000E+00 0. -1.
</event>
<event>
 7    1  0.4096472E-015  0.9000789E+02  0.7816164E-02  0.1186339E+00
        -11   -1    0    0    0    0  0.00000000000E+00  0.00000000000E+00  0.45593999997E+02  0.45594000000E+02  0.51100000000E-03 0.  1.
         11   -1    0    0    0    0 -0.00000000000E+00 -0.00000000000E+00 -0.45593999997E+02  0.45594000000E+02  0.51100000000E-03 0. -1.
    9900012    2    1    2    0    0 -0.25703064886E+00  0.63074129939E+00  0.96372040772E+00  0.90007891376E+02  0.90000154742E+02 0.  0.
         12    1    1    2    0    0  0.25703064886E+00 -0.63074129939E+00 -0.96372040772E+00  0.11801086244E+01  0.00000000000E+00 0. -1.
         11    1    3    3    0    0  0.51271177403E+01 -0.23418292862E+02  0.29773321238E+02  0.38225049832E+02  0.51100000000E-03 0. -1.
        -11    1    3    3    0    0  0.53687370364E+01 -0.45945188272E+01  0.29736201832E+01  0.76665088453E+01  0.51100000000E-03 0.  1.
        -12    1    3    3    0    0 -0.10752885426E+02  0.28643552988E+02 -0.31783221013E+02  0.44116332698E+02  0.00000000000E+00 0.  1.
</event>
<event>
 7    1  0.4096472E-015  0.9000754E+02  0.7816164E-02  0.1186339E+00
        -11   -1    0    0    0    0  0.00000000000E+00  0.00000000000E+00  0.45593999997E+02  0.45594000000E+02  0.51100000000E-03 0. -1.
         11   -1    0    0    0    0 -0.00000000000E+00 -0.00000000000E+00 -0.45593999997E+02  0.45594000000E+02  0.51100000000E-03 0.  1.
    9900012    2    1    2    0    0  0.57883730974E-01  0.16313822193E+00 -0.11677024720E+01  0.90007536672E+02  0.89999795356E+02 0.  0.
         12    1    1    2    0    0 -0.57883730974E-01 -0.16313822193E+00  0.11677024720E+01  0.11804633280E+01  0.00000000000E+00 0. -1.
         11    1    3    3    0    0  0.78790088292E-01  0.35533452663E+02 -0.51292219563E+01  0.35901829816E+02  0.51100000000E-03 0. -1.
        -11    1    3    3    0    0  0.63671393623E+01  0.77207024893E+01  0.33040350430E+01  0.10538802513E+02  0.51100000000E-03 0.  1.
        -12    1    3    3    0    0 -0.63880457196E+01 -0.43091016930E+02  0.65748444133E+00  0.43566904342E+02  0.00000000000E+00 0.  1.
</event>
<event>
 7    1  0.4096472E-015  0.9000774E+02  0.7816164E-02  0.1186339E+00
        -11   -1    0    0    0    0  0.00000000000E+00  0.00000000000E+00  0.45593999997E+02  0.45594000000E+02  0.51100000000E-03 0.  1.
         11   -1    0    0    0    0 -0.00000000000E+00 -0.00000000000E+00 -0.45593999997E+02  0.45594000000E+02  0.51100000000E-03 0. -1.
    9900012    2    1    2    0    0 -0.54402014742E+00 -0.48081798129E+00  0.93052624444E+00  0.90007736070E+02  0.89999997387E+02 0.  0.
         12    1    1    2    0    0  0.54402014742E+00  0.48081798129E+00 -0.93052624444E+00  0.11802639296E+01  0.00000000000E+00 0. -1.
         11    1    3    3    0    0 -0.36043842096E+01 -0.18685295927E+01 -0.29285930274E+02  0.29566005829E+02  0.51100000000E-03 0. -1.
        -11    1    3    3    0    0 -0.17098142326E+02  0.59128668161E+01 -0.57331079818E+01  0.18978329546E+02  0.51100000000E-03 0.  1.
        -12    1    3    3    0    0  0.20158506388E+02 -0.45251552047E+01  0.35949564501E+02  0.41463400695E+02  0.00000000000E+00 0.  1.
</event>
<event>
 7    1  0.4096472E-015  0.9000775E+02  0.7816164E-02  0.1186339E+00
        -11   -1    0    0    0    0  0.00000000000E+00  0.00000000000E+00  0.45593999997E+02  0.45594000000E+02  0.51100000000E-03 0.  1.
         11   -1    0    0    0    0 -0.00000000000E+00 -0.00000000000E+00 -0.45593999997E+02  0.45594000000E+02  0.51100000000E-03 0. -1.
    9900012    2    1    2    0    0 -0.20097279661E+00 -0.38693508167E+00  0.10967629238E+01  0.90007746750E+02  0.90000008207E+02 0.  0.
         12    1    1    2    0    0  0.20097279661E+00  0.38693508167E+00 -0.10967629238E+01  0.11802532497E+01  0.00000000000E+00 0. -1.
         11    1    3    3    0    0 -0.17834129526E+02 -0.19194167219E+02 -0.92896422682E+00  0.26217078517E+02  0.51100000000E-03 0. -1.
        -11    1    3    3    0    0  0.33710292163E+01 -0.14135845462E+02  0.19131980508E+02  0.24025374988E+02  0.51100000000E-03 0.  1.
        -12    1    3    3    0    0  0.14262127513E+02  0.32943077600E+02 -0.17106253357E+02  0.39765293245E+02  0.00000000000E+00 0.  1.
</event>
<event>
 7    1  0.4096472E-015  0.9000771E+02  0.7816164E-02  0.1186339E+00
        -11   -1    0    0    0    0  0.00000000000E+00  0.00000000000E+00  0.45593999997E+02  0.45594000000E+02  0.51100000000E-03 0.  1.
         11   -1    0    0    0    0 -0.00000000000E+00 -0.00000000000E+00 -0.45593999997E+02  0.45594000000E+02  0.51100000000E-03 0. -1.
    9900012    2    1    2    0    0  0.34552439745E+00  0.41594698848E+00  0.10491334729E+01  0.90007711878E+02  0.89999972875E+02 0.  0.
         12    1    1    2    0    0 -0.34552439745E+00 -0.41594698848E+00 -0.10491334729E+01  0.11802881218E+01  0.00000000000E+00 0. -1.
         11    1    3    3    0    0  0.83739409949E+01 -0.28728520473E+01 -0.39940567945E+01  0.97122940962E+01  0.51100000000E-03 0. -1.
        -11    1    3    3    0    0  0.90425504498E+01  0.35332447985E+02 -0.14279022302E+02  0.39166823683E+02  0.51100000000E-03 0.  1.
         12    1    3    3    0    0 -0.17070967047E+02 -0.32043648950E+02  0.19322212570E+02  0.41128594099E+02  0.00000000000E+00 0. -1.
</event>
<event>
 7    1  0.4096472E-015  0.9000785E+02  0.7816164E-02  0.1186339E+00
        -11   -1    0    0    0    0  0.00000000000E+00  0.00000000000E+00  0.45593999997E+02  0.45594000000E+02  0.51100000000E-03 0.  1.
         11   -1    0    0    0    0 -0.00000000000E+00 -0.00000000000E+00 -0.45593999997E+02  0.45594000000E+02  0.51100000000E-03 0. -1.
    9900012    2    1    2    0    0  0.14523665453E+00 -0.30074140421E-02  0.11711740369E+01  0.90007851130E+02  0.90000113965E+02 0.  0.
         12    1    1    2    0    0 -0.14523665453E+00  0.30074140421E-02 -0.11711740369E+01  0.11801488699E+01  0.00000000000E+00 0. -1.
         11    1    3    3    0    0 -0.36758389457E+01  0.45974642444E+01  0.60293349840E+01  0.84262298832E+01  0.51100000000E-03 0. -1.
        -11    1    3    3    0    0 -0.37263382758E+01 -0.12477750189E+02  0.36529007844E+02  0.38780771795E+02  0.51100000000E-03 0.  1.
         12    1    3    3    0    0  0.75474138760E+01  0.78772785305E+01 -0.41387168791E+02  0.42800849452E+02  0.00000000000E+00 0. -1.
</event>
<event>
 7    1  0.4096472E-015  0.9000774E+02  0.7816164E-02  0.1186339E+00
        -11   -1    0    0    0    0  0.00000000000E+00  0.00000000000E+00  0.45593999997E+02  0.45594000000E+02  0.51100000000E-03 0.  1.
         11   -1    0    0    0    0 -0.00000000000E+00 -0.00000000000E+00 -0.45593999997E+02  0.45594000000E+02  0.51100000000E-03 0. -1.
    9900012    2    1    2    0    0  0.20547570639E+00 -0.11564710868E+01  0.11565072396E+00  0.90007737008E+02  0.89999998336E+02 0.  0.
         12    1    1    2    0    0 -0.20547570639E+00  0.11564710868E+01 -0.11565072396E+00  0.11802629921E+01  0.00000000000E+00 0. -1.
         11    1    3    3    0    0 -0.39152556192E+02  0.81299872797E+00 -0.11835443770E+02  0.40910406412E+02  0.51100000000E-03 0. -1.
        -11    1    3    3    0    0  0.39917859736E+01  0.34860057691E+01 -0.68608278103E+01  0.86693454184E+01  0.51100000000E-03 0.  1.
        -12    1    3    3    0    0  0.35366245925E+02 -0.54554755838E+01  0.18811922304E+02  0.40427985177E+02  0.00000000000E+00 0.  1.
</event>
<event>
 7    1  0.4096472E-015  0.9000745E+02  0.7816164E-02  0.1186340E+00
        -11   -1    0    0    0    0  0.00000000000E+00  0.00000000000E+00  0.45593999997E+02  0.45594000000E+02  0.51100000000E-03 0.  1.
         11   -1    0    0    0    0 -0.00000000000E+00 -0.00000000000E+00 -0.45593999997E+02  0.45594000000E+02  0.51100000000E-03 0. -1.
    9900012    2    1    2    0    0  0.76976256749E+00  0.77826126747E+00  0.44212955461E+00  0.90007447776E+02  0.89999705286E+02 0.  0.
         12    1    1    2    0    0 -0.76976256749E+00 -0.77826126747E+00 -0.44212955461E+00  0.11805522241E+01  0.00000000000E+00 0. -1.
         11    1    3    3    0    0 -0.13493096977E+02  0.30065718525E+02  0.19315939078E+02  0.38198384772E+02  0.51100000000E-03 0. -1.
        -11    1    3    3    0    0 -0.18408033426E+01  0.76602164877E+01 -0.41068105702E+01  0.88844452221E+01  0.51100000000E-03 0.  1.
        -12    1    3    3    0    0  0.16103662887E+02 -0.36947673746E+02 -0.14766998954E+02  0.42924617781E+02  0.00000000000E+00 0.  1.
</event>
<event>
 7    1  0.4096472E-015  0.9000773E+02  0.7816164E-02  0.1186339E+00
        -11   -1    0    0    0    0  0.00000000000E+00  0.00000000000E+00  0.45593999997E+02  0.45594000000E+02  0.51100000000E-03 0. -1.
         11   -1    0    0    0    0 -0.00000000000E+00 -0.00000000000E+00 -0.45593999997E+02  0.45594000000E+02  0.51100000000E-03 0.  1.
    9900012    2    1    2    0    0  0.10266917478E+01 -0.58197527811E+00  0.15430722897E-01  0.90007733388E+02  0.89999994668E+02 0.  0.
         12    1    1    2    0    0 -0.10266917478E+01  0.58197527811E+00 -0.15430722897E-01  0.11802666125E+01  0.00000000000E+00 0. -1.
         11    1    3    3    0    0  0.13729766220E+02  0.99431425843E+01  0.42403228151E+01  0.17474349852E+02  0.51100000000E-03 0. -1.
        -11    1    3    3    0    0 -0.21263412941E+02  0.15741994637E+02  0.22024923842E+02  0.34424415689E+02  0.51100000000E-03 0.  1.
         12    1    3    3    0    0  0.85603384687E+01 -0.26267112499E+02 -0.26249815934E+02  0.38108967846E+02  0.00000000000E+00 0. -1.
</event>
<event>
 7    1  0.4096472E-015  0.9000774E+02  0.7816164E-02  0.1186339E+00
        -11   -1    0    0    0    0  0.00000000000E+00  0.00000000000E+00  0.45593999997E+02  0.45594000000E+02  0.51100000000E-03 0.  1.
         11   -1    0    0    0    0 -0.00000000000E+00 -0.00000000000E+00 -0.45593999997E+02  0.45594000000E+02  0.51100000000E-03 0. -1.
    9900012    2    1    2    0    0 -0.11277364717E+01 -0.25646070058E+00 -0.23546195088E+00  0.90007744108E+02  0.90000005530E+02 0.  0.
         12    1    1    2    0    0  0.11277364717E+01  0.25646070058E+00  0.23546195088E+00  0.11802558921E+01  0.00000000000E+00 0. -1.
         11    1    3    3    0    0 -0.85047329075E+01  0.76885391064E+01  0.33409245663E+01  0.11941770917E+02  0.51100000000E-03 0. -1.
        -11    1    3    3    0    0  0.17376091707E+02  0.28138486581E+02 -0.18341266827E+02  0.37816729885E+02  0.51100000000E-03 0.  1.
         12    1    3    3    0    0 -0.99990952714E+01 -0.36083486388E+02  0.14764880309E+02  0.40249243306E+02  0.00000000000E+00 0. -1.
</event>
<event>
 7    1  0.4096472E-015  0.9000773E+02  0.7816164E-02  0.1186339E+00
        -11   -1    0    0    0    0  0.00000000000E+00  0.00000000000E+00  0.45593999997E+02  0.45594000000E+02  0.51100000000E-03 0.  1.
         11   -1    0    0    0    0 -0.00000000000E+00 -0.00000000000E+00 -0.45593999997E+02  0.45594000000E+02  0.51100000000E-03 0. -1.
    9900012    2    1    2    0    0  0.39941614040E-01  0.10492943118E+01  0.53890691478E+00  0.90007731154E+02  0.89999992406E+02 0.  0.
         12    1    1    2    0    0 -0.39941614040E-01 -0.10492943118E+01 -0.53890691478E+00  0.11802688457E+01  0.00000000000E+00 0. -1.
         11    1    3    3    0    0 -0.65194527400E+01 -0.64636738645E+01  0.35363769062E+01  0.98381047840E+01  0.51100000000E-03 0. -1.
        -11    1    3    3    0    0  0.85536723786E+01 -0.35302393714E+02 -0.74407650879E+01  0.37078151228E+02  0.51100000000E-03 0.  1.
         12    1    3    3    0    0 -0.19942780245E+01  0.42815361890E+02  0.44432950965E+01  0.43091475143E+02  0.00000000000E+00 0. -1.
</event>
<event>
 7    1  0.4424664E-015  0.9000772E+02  0.7816164E-02  0.1186339E+00
        -11   -1    0    0    0    0  0.00000000000E+00  0.00000000000E+00  0.45593999997E+02  0.45594000000E+02  0.51100000000E-03 0. -1.
         11   -1    0    0    0    0 -0.00000000000E+00 -0.00000000000E+00 -0.45593999997E+02  0.45594000000E+02  0.51100000000E-03 0.  1.
    9900012    2    1    2    0    0  0.62013757326E+00 -0.89648610507E-01 -0.10002246417E+01  0.90007721720E+02  0.89999982847E+02 0.  0.
         12    1    1    2    0    0 -0.62013757326E+00  0.89648610507E-01  0.10002246417E+01  0.11802782795E+01  0.00000000000E+00 0. -1.
         11    1    3    3    0    0 -0.17649750004E+01 -0.14430535840E+01 -0.93704127223E+01  0.96437635416E+01  0.51100000000E-03 0. -1.
        -11    1    3    3    0    0  0.18919268412E+02  0.18289042489E+02 -0.27066809052E+02  0.37749701256E+02  0.51100000000E-03 0.  1.
         12    1    3    3    0    0 -0.16534155839E+02 -0.16935637515E+02  0.35436997132E+02  0.42614256923E+02  0.00000000000E+00 0. -1.
</event>
<event>
 7    1  0.4096472E-015  0.9000776E+02  0.7816164E-02  0.1186339E+00
        -11   -1    0    0    0    0  0.00000000000E+00  0.00000000000E+00  0.45593999997E+02  0.45594000000E+02  0.51100000000E-03 0. -1.
         11   -1    0    0    0    0 -0.00000000000E+00 -0.00000000000E+00 -0.45593999997E+02  0.45594000000E+02  0.51100000000E-03 0.  1.
    9900012    2    1    2    0    0  0.38048478720E-01 -0.83842309784E+00 -0.82979704777E+00  0.90007760991E+02  0.90000022636E+02 0.  0.
         12    1    1    2    0    0 -0.38048478720E-01  0.83842309784E+00  0.82979704777E+00  0.11802390089E+01  0.00000000000E+00 0. -1.
         11    1    3    3    0    0 -0.69579023009E+01  0.79956924617E+01  0.11701322024E+02  0.15788110709E+02  0.51100000000E-03 0. -1.
        -11    1    3    3    0    0 -0.29542927392E+02 -0.37311813994E+01 -0.20910942492E+02  0.36386450634E+02  0.51100000000E-03 0.  1.
         12    1    3    3    0    0  0.36538878172E+02 -0.51029341601E+01  0.83798234203E+01  0.37833199649E+02  0.00000000000E+00 0. -1.
</event>
<event>
 7    1  0.4096472E-015  0.9000794E+02  0.7816164E-02  0.1186339E+00
        -11   -1    0    0    0    0  0.00000000000E+00  0.00000000000E+00  0.45593999997E+02  0.45594000000E+02  0.51100000000E-03 0.  1.
         11   -1    0    0    0    0 -0.00000000000E+00 -0.00000000000E+00 -0.45593999997E+02  0.45594000000E+02  0.51100000000E-03 0. -1.
    9900012    2    1    2    0    0  0.61932247552E+00 -0.44181521179E+00  0.90210163103E+00  0.90007937136E+02  0.90000201106E+02 0.  0.
         12    1    1    2    0    0 -0.61932247552E+00  0.44181521179E+00 -0.90210163103E+00  0.11800628639E+01  0.00000000000E+00 0. -1.
         11    1    3    3    0    0 -0.26304729030E+02 -0.27928525286E+02  0.65147659197E+00  0.38371417957E+02  0.51100000000E-03 0. -1.
        -11    1    3    3    0    0 -0.56011073953E+01  0.33401476776E+00 -0.66586837924E+01  0.87075852007E+01  0.51100000000E-03 0.  1.
        -12    1    3    3    0    0  0.32525158901E+02  0.27152695307E+02  0.69093088315E+01  0.42928933978E+02  0.00000000000E+00 0.  1.
</event>
<event>
 7    1  0.4096472E-015  0.9000776E+02  0.7816164E-02  0.1186339E+00
        -11   -1    0    0    0    0  0.00000000000E+00  0.00000000000E+00  0.45593999997E+02  0.45594000000E+02  0.51100000000E-03 0. -1.
         11   -1    0    0    0    0 -0.00000000000E+00 -0.00000000000E+00 -0.45593999997E+02  0.45594000000E+02  0.51100000000E-03 0.  1.
    9900012    2    1    2    0    0 -0.41024712149E-01  0.11140588279E+01 -0.38748654635E+00  0.90007764463E+02  0.90000026154E+02 0.  0.
         12    1    1    2    0    0  0.41024712149E-01 -0.11140588279E+01  0.38748654635E+00  0.11802355369E+01  0.00000000000E+00 0. -1.
         11    1    3    3    0    0 -0.31926989830E+00 -0.22112890121E+02  0.23973493199E+02  0.32616103679E+02  0.51100000000E-03 0. -1.
        -11    1    3    3    0    0  0.39771382417E+01 -0.25166651307E+01  0.11883380725E+02  0.12781469778E+02  0.51100000000E-03 0.  1.
        -12    1    3    3    0    0 -0.36988930555E+01  0.25743614080E+02 -0.36244360470E+02  0.44610191006E+02  0.00000000000E+00 0.  1.
</event>
<event>
 7    1  0.4096472E-015  0.9000767E+02  0.7816164E-02  0.1186339E+00
        -11   -1    0    0    0    0  0.00000000000E+00  0.00000000000E+00  0.45593999997E+02  0.45594000000E+02  0.51100000000E-03 0.  1.
         11   -1    0    0    0    0 -0.00000000000E+00 -0.00000000000E+00 -0.45593999997E+02  0.45594000000E+02  0.51100000000E-03 0. -1.
    9900012    2    1    2    0    0 -0.23264043740E+00 -0.21959733128E+00  0.11361440623E+01  0.90007674667E+02  0.89999935173E+02 0.  0.
         12    1    1    2    0    0  0.23264043740E+00  0.21959733128E+00 -0.11361440623E+01  0.11803253329E+01  0.00000000000E+00 0. -1.
         11    1    3    3    0    0  0.63000631004E+01 -0.24926877388E+01  0.31345821513E+01  0.74652456595E+01  0.51100000000E-03 0. -1.
        -11    1    3    3    0    0 -0.12800273195E+01  0.47944188250E+01  0.39916851136E+02  0.40224121205E+02  0.51100000000E-03 0.  1.
         12    1    3    3    0    0 -0.52526762183E+01 -0.25213284175E+01 -0.41915289225E+02  0.42318307803E+02  0.00000000000E+00 0. -1.
</event>
<event>
 7    1  0.4096472E-015  0.9000772E+02  0.7816164E-02  0.1186339E+00
        -11   -1    0    0    0    0  0.00000000000E+00  0.00000000000E+00  0.45593999997E+02  0.45594000000E+02  0.51100000000E-03 0.  1.
         11   -1    0    0    0    0 -0.00000000000E+00 -0.00000000000E+00 -0.45593999997E+02  0.45594000000E+02  0.51100000000E-03 0. -1.
    9900012    2    1    2    0    0  0.66118762296E+00 -0.61870280070E+00  0.75703791739E+00  0.90007716713E+02  0.89999977774E+02 0.  0.
         12    1    1    2    0    0 -0.66118762296E+00  0.61870280070E+00 -0.75703791739E+00  0.11802832866E+01  0.00000000000E+00 0. -1.
         11    1    3    3    0    0  0.10204522478E+02 -0.15499235575E+02  0.29021559857E+01  0.18782467677E+02  0.51100000000E-03 0. -1.
        -11    1    3    3    0    0  0.27800661226E+02 -0.58055833968E+01  0.10086978846E+01  0.28418286979E+02  0.51100000000E-03 0.  1.
         12    1    3    3    0    0 -0.37343996080E+02  0.20686116171E+02 -0.31538159529E+01  0.42806962057E+02  0.00000000000E+00 0. -1.
</event>
<event>
 7    1  0.4096472E-015  0.9000777E+02  0.7816164E-02  0.1186339E+00
        -11   -1    0    0    0    0  0.00000000000E+00  0.00000000000E+00  0.45593999997E+02  0.45594000000E+02  0.51100000000E-03 0. -1.
         11   -1    0    0    0    0 -0.00000000000E+00 -0.00000000000E+00 -0.45593999997E+02  0.45594000000E+02  0.51100000000E-03 0.  1.
    9900012    2    1    2    0    0 -0.36689476984E+00 -0.61425256960E+00 -0.93862736473E+00  0.90007771496E+02  0.90000033280E+02 0.  0.
         12    1    1    2    0    0  0.36689476984E+00  0.61425256960E+00  0.93862736473E+00  0.11802285038E+01  0.00000000000E+00 0. -1.
         11    1    3    3    0    0 -0.21570664651E+02 -0.20816281265E+02 -0.26204015481E+01  0.30091155573E+02  0.51100000000E-03 0. -1.
        -11    1    3    3    0    0  0.23356951334E+02 -0.89180761945E+00 -0.19131337189E+02  0.30205141274E+02  0.51100000000E-03 0.  1.
        -12    1    3    3    0    0 -0.21531814534E+01  0.21093836314E+02  0.20813111373E+02  0.29711474649E+02  0.00000000000E+00 0.  1.
</event>
<event>
 7    1  0.4096472E-015  0.9000768E+02  0.7816164E-02  0.1186339E+00
        -11   -1    0    0    0    0  0.00000000000E+00  0.00000000000E+00  0.45593999997E+02  0.45594000000E+02  0.51100000000E-03 0.  1.
         11   -1    0    0    0    0 -0.00000000000E+00 -0.00000000000E+00 -0.45593999997E+02  0.45594000000E+02  0.51100000000E-03 0. -1.
    9900012    2    1    2    0    0 -0.75480641151E+00  0.78837580571E+00  0.44931648589E+00  0.90007680368E+02  0.89999940949E+02 0.  0.
         12    1    1    2    0    0  0.75480641151E+00 -0.78837580571E+00 -0.44931648589E+00  0.11803196323E+01  0.00000000000E+00 0. -1.
         11    1    3    3    0    0 -0.59275032252E+01  0.25963049693E+02 -0.29935700764E+02  0.40066961756E+02  0.51100000000E-03 0. -1.
        -11    1    3    3    0    0 -0.11649129928E+02 -0.93672749615E+01  0.53222149005E+01  0.15867389199E+02  0.51100000000E-03 0.  1.
        -12    1    3    3    0    0  0.16821826741E+02 -0.15807398926E+02  0.25062802349E+02  0.34073329413E+02  0.00000000000E+00 0.  1.
</event>
<event>
 7    1  0.4096472E-015  0.9000763E+02  0.7816164E-02  0.1186339E+00
        -11   -1    0    0    0    0  0.00000000000E+00  0.00000000000E+00  0.45593999997E+02  0.45594000000E+02  0.51100000000E-03 0. -1.
         11   -1    0    0    0    0 -0.00000000000E+00 -0.00000000000E+00 -0.45593999997E+02  0.45594000000E+02  0.51100000000E-03 0.  1.
    9900012    2    1    2    0    0 -0.10363660268E+01 -0.23980553102E+00  0.51157603954E+00  0.90007630872E+02  0.89999890799E+02 0.  0.
         12    1    1    2    0    0  0.10363660268E+01  0.23980553102E+00 -0.51157603954E+00  0.11803691280E+01  0.00000000000E+00 0. -1.
         11    1    3    3    0    0  0.66036199220E+01 -0.79245406515E+01  0.42521139427E+00  0.10324095389E+02  0.51100000000E-03 0. -1.
        -11    1    3    3    0    0 -0.19711546141E+02  0.96958714150E+01 -0.35669614296E+02  0.41891244408E+02  0.51100000000E-03 0.  1.
         12    1    3    3    0    0  0.12071560192E+02 -0.20111362945E+01  0.35755978941E+02  0.37792291075E+02  0.00000000000E+00 0. -1.
</event>
<event>
 7    1  0.4096472E-015  0.9000782E+02  0.7816164E-02  0.1186339E+00
        -11   -1    0    0    0    0  0.00000000000E+00  0.00000000000E+00  0.45593999997E+02  0.45594000000E+02  0.51100000000E-03 0. -1.
         11   -1    0    0    0    0 -0.00000000000E+00 -0.00000000000E+00 -0.45593999997E+02  0.45594000000E+02  0.51100000000E-03 0.  1.
    9900012    2    1    2    0    0  0.10791100448E+01 -0.92736007276E-02  0.47775600217E+00  0.90007824044E+02  0.90000086522E+02 0.  0.
         12    1    1    2    0    0 -0.10791100448E+01  0.92736007276E-02 -0.47775600217E+00  0.11801759556E+01  0.00000000000E+00 0. -1.
         11    1    3    3    0    0  0.64287701099E+01  0.16918004858E+01 -0.87428394858E+01  0.10983101408E+02  0.51100000000E-03 0. -1.
        -11    1    3    3    0    0 -0.58746113273E+01  0.24669651201E+02 -0.25139407241E+02  0.35708438013E+02  0.51100000000E-03 0.  1.
         12    1    3    3    0    0  0.52495126224E+00 -0.26370725287E+02  0.34360002729E+02  0.43316284623E+02  0.00000000000E+00 0. -1.
</event>
<event>
 7    1  0.4096472E-015  0.9000774E+02  0.7816164E-02  0.1186339E+00
        -11   -1    0    0    0    0  0.00000000000E+00  0.00000000000E+00  0.45593999997E+02  0.45594000000E+02  0.51100000000E-03 0.  1.
         11   -1    0    0    0    0 -0.00000000000E+00 -0.00000000000E+00 -0.45593999997E+02  0.45594000000E+02  0.51100000000E-03 0. -1.
    9900012    2    1    2    0    0 -0.76484901139E-01 -0.11085014500E+01  0.39798196915E+00  0.90007739413E+02  0.90000000774E+02 0.  0.
         12    1    1    2    0    0  0.76484901139E-01  0.11085014500E+01 -0.39798196915E+00  0.11802605867E+01  0.00000000000E+00 0. -1.
         11    1    3    3    0    0 -0.12826893579E+02  0.29113571133E+01  0.88251310113E+01  0.15839448752E+02  0.51100000000E-03 0. -1.
        -11    1    3    3    0    0  0.65898614810E+01 -0.16697822000E+02  0.29038348306E+02  0.34138969031E+02  0.51100000000E-03 0.  1.
         12    1    3    3    0    0  0.61605471969E+01  0.12677963437E+02 -0.37465497348E+02  0.40029321631E+02  0.00000000000E+00 0. -1.
</event>
<event>
 7    1  0.4096472E-015  0.9000767E+02  0.7816164E-02  0.1186339E+00
        -11   -1    0    0    0    0  0.00000000000E+00  0.00000000000E+00  0.45593999997E+02  0.45594000000E+02  0.51100000000E-03 0.  1.
         11   -1    0    0    0    0 -0.00000000000E+00 -0.00000000000E+00 -0.45593999997E+02  0.45594000000E+02  0.51100000000E-03 0. -1.
    9900012    2    1    2    0    0  0.59418694592E+00 -0.10127810674E+01  0.11996058072E+00  0.90007672013E+02  0.89999932483E+02 0.  0.
         12    1    1    2    0    0 -0.59418694592E+00  0.10127810674E+01 -0.11996058072E+00  0.11803279875E+01  0.00000000000E+00 0. -1.
         11    1    3    3    0    0  0.14185457694E+02 -0.14390272888E+02 -0.30515774250E+02  0.36599448659E+02  0.51100000000E-03 0. -1.
        -11    1    3    3    0    0 -0.96651183396E+00 -0.61131358460E+01 -0.69004938192E+01  0.92693791706E+01  0.51100000000E-03 0.  1.
        -12    1    3    3    0    0 -0.12624758914E+02  0.19490627667E+02  0.37536228650E+02  0.44138844183E+02  0.00000000000E+00 0.  1.
</event>
<event>
 7    1  0.4096472E-015  0.9000779E+02  0.7816164E-02  0.1186339E+00
        -11   -1    0    0    0    0  0.00000000000E+00  0.00000000000E+00  0.45593999997E+02  0.45594000000E+02  0.51100000000E-03 0.  1.
         11   -1    0    0    0    0 -0.00000000000E+00 -0.00000000000E+00 -0.45593999997E+02  0.45594000000E+02  0.51100000000E-03 0. -1.
    9900012    2    1    2    0    0 -0.88987676693E+00 -0.69392759758E+00  0.34565503357E+00  0.90007790877E+02  0.90000052917E+02 0.  0.
         12    1    1    2    0    0  0.88987676693E+00  0.69392759758E+00 -0.34565503357E+00  0.11802091227E+01  0.00000000000E+00 0. -1.
         11    1    3    3    0    0 -0.62496419652E+01  0.52823938208E+01  0.35106747391E+01  0.89042993298E+01  0.51100000000E-03 0. -1.
        -11    1    3    3    0    0 -0.17858475681E+02 -0.26115033470E+02 -0.27486099402E+02  0.41909495193E+02  0.51100000000E-03 0.  1.
         12    1    3    3    0    0  0.23218240879E+02  0.20138712051E+02  0.24321079697E+02  0.39193996354E+02  0.00000000000E+00 0. -1.
</event>
<event>
 7    1  0.4096472E-015  0.9000778E+02  0.7816164E-02  0.1186339E+00
        -11   -1    0    0    0    0  0.00000000000E+00  0.00000000000E+00  0.45593999997E+02  0.45594000000E+02  0.51100000000E-03 0.  1.
         11   -1    0    0    0    0 -0.00000000000E+00 -0.00000000000E+00 -0.45593999997E+02  0.45594000000E+02  0.51100000000E-03 0. -1.
    9900012    2    1    2    0    0  0.93258513241E+00 -0.48431138567E+00  0.53724974080E+00  0.90007783989E+02  0.90000045938E+02 0.  0.
         12    1    1    2    0    0 -0.93258513241E+00  0.48431138567E+00 -0.53724974080E+00  0.11802160105E+01  0.00000000000E+00 0. -1.
         11    1    3    3    0    0  0.21307044794E+02  0.12000042938E+02  0.30837779779E+02  0.39356827239E+02  0.51100000000E-03 0. -1.
        -11    1    3    3    0    0 -0.11723182983E+01  0.66131205896E+01  0.33097525875E+01  0.74874666327E+01  0.51100000000E-03 0.  1.
        -12    1    3    3    0    0 -0.19202141363E+02 -0.19097474913E+02 -0.33610282626E+02  0.43163490118E+02  0.00000000000E+00 0.  1.
</event>
<event>
 7    1  0.4096472E-015  0.9000729E+02  0.7816164E-02  0.1186340E+00
        -11   -1    0    0    0    0  0.00000000000E+00  0.00000000000E+00  0.45593999997E+02  0.45594000000E+02  0.51100000000E-03 0. -1.
         11   -1    0    0    0    0 -0.00000000000E+00 -0.00000000000E+00 -0.45593999997E+02  0.45594000000E+02  0.51100000000E-03 0.  1.
    9900012    2    1    2    0    0  0.10203607424E+01 -0.97719931472E-01 -0.58600221879E+00  0.90007286728E+02  0.89999542112E+02 0.  0.
         12    1    1    2    0    0 -0.10203607424E+01  0.97719931472E-01  0.58600221879E+00  0.11807132717E+01  0.00000000000E+00 0. -1.
         11    1    3    3    0    0  0.33938920642E+01  0.32552013920E+01  0.77530289720E+01  0.90677614629E+01  0.51100000000E-03 0. -1.
        -11    1    3    3    0    0 -0.40111751768E+02 -0.11710425389E+02 -0.26453270454E+01  0.41869851303E+02  0.51100000000E-03 0.  1.
         12    1    3    3    0    0  0.37738220446E+02  0.83575040658E+01 -0.56937041453E+01  0.39069673963E+02  0.00000000000E+00 0. -1.
</event>
<event>
 7    1  0.4096472E-015  0.9000784E+02  0.7816164E-02  0.1186339E+00
        -11   -1    0    0    0    0  0.00000000000E+00  0.00000000000E+00  0.45593999997E+02  0.45594000000E+02  0.51100000000E-03 0. -1.
         11   -1    0    0    0    0 -0.00000000000E+00 -0.00000000000E+00 -0.45593999997E+02  0.45594000000E+02  0.51100000000E-03 0.  1.
    9900012    2    1    2    0    0 -0.47309821838E+00 -0.80422734133E+00 -0.72262362334E+00  0.90007835418E+02  0.90000098045E+02 0.  0.
         12    1    1    2    0    0  0.47309821838E+00  0.80422734133E+00  0.72262362334E+00  0.11801645825E+01  0.00000000000E+00 0. -1.
         11    1    3    3    0    0  0.27227376542E+01  0.10414268886E+02 -0.42692221205E+01  0.11580006673E+02  0.51100000000E-03 0. -1.
        -11    1    3    3    0    0  0.22548354346E+02 -0.19972637936E+02 -0.24895753510E+02  0.39078550292E+02  0.51100000000E-03 0.  1.
         12    1    3    3    0    0 -0.25744190218E+02  0.87541417087E+01  0.28442352007E+02  0.39349278453E+02  0.00000000000E+00 0. -1.
</event>
<event>
 7    1  0.4096472E-015  0.9000773E+02  0.7816164E-02  0.1186339E+00
        -11   -1    0    0    0    0  0.00000000000E+00  0.00000000000E+00  0.45593999997E+02  0.45594000000E+02  0.51100000000E-03 0.  1.
         11   -1    0    0    0    0 -0.00000000000E+00 -0.00000000000E+00 -0.45593999997E+02  0.45594000000E+02  0.51100000000E-03 0. -1.
    9900012    2    1    2    0    0  0.37399334695E+00 -0.77948070022E+00 -0.80347338837E+00  0.90007732797E+02  0.89999994070E+02 0.  0.
         12    1    1    2    0    0 -0.37399334695E+00  0.77948070022E+00  0.80347338837E+00  0.11802672034E+01  0.00000000000E+00 0. -1.
         11    1    3    3    0    0  0.83381979202E+01  0.92672169313E+00  0.45890074240E+01  0.95626014793E+01  0.51100000000E-03 0. -1.
        -11    1    3    3    0    0 -0.63614088097E+00 -0.14735126344E+02  0.34674272665E+02  0.37680682169E+02  0.51100000000E-03 0.  1.
         12    1    3    3    0    0 -0.73280636922E+01  0.13028923951E+02 -0.40066753477E+02  0.42764449149E+02  0.00000000000E+00 0. -1.
</event>
<event>
 7    1  0.4096472E-015  0.9000784E+02  0.7816164E-02  0.1186339E+00
        -11   -1    0    0    0    0  0.00000000000E+00  0.00000000000E+00  0.45593999997E+02  0.45594000000E+02  0.51100000000E-03 0.  1.
         11   -1    0    0    0    0 -0.00000000000E+00 -0.00000000000E+00 -0.45593999997E+02  0.45594000000E+02  0.51100000000E-03 0. -1.
    9900012    2    1    2    0    0  0.65854713893E+00 -0.74442472401E+00  0.63633381957E+00  0.90007841861E+02  0.90000104573E+02 0.  0.
         12    1    1    2    0    0 -0.65854713893E+00  0.74442472401E+00 -0.63633381957E+00  0.11801581393E+01  0.00000000000E+00 0. -1.
         11    1    3    3    0    0  0.20666632902E+02  0.26185592672E+02  0.16224316392E+02  0.37094789684E+02  0.51100000000E-03 0. -1.
        -11    1    3    3    0    0  0.78395387474E+01  0.41140558563E+01 -0.23873153141E+01  0.91696836385E+01  0.51100000000E-03 0.  1.
        -12    1    3    3    0    0 -0.27847624510E+02 -0.31044073252E+02 -0.13200667258E+02  0.43743368538E+02  0.00000000000E+00 0.  1.
</event>
<event>
 7    1  0.4096472E-015  0.9000749E+02  0.7816164E-02  0.1186340E+00
        -11   -1    0    0    0    0  0.00000000000E+00  0.00000000000E+00  0.45593999997E+02  0.45594000000E+02  0.51100000000E-03 0. -1.
         11   -1    0    0    0    0 -0.00000000000E+00 -0.00000000000E+00 -0.45593999997E+02  0.45594000000E+02  0.51100000000E-03 0.  1.
    9900012    2    1    2    0    0 -0.18021152653E+00 -0.66240046556E+00 -0.96039007448E+00  0.90007491776E+02  0.89999749867E+02 0.  0.
         12    1    1    2    0    0  0.18021152653E+00  0.66240046556E+00  0.96039007448E+00  0.11805082237E+01  0.00000000000E+00 0. -1.
         11    1    3    3    0    0  0.35445403246E+02  0.65288800654E+01  0.16180449613E+02  0.39507085898E+02  0.51100000000E-03 0. -1.
        -11    1    3    3    0    0 -0.66438895210E+01  0.14800720003E+01  0.84684776340E+01  0.10864943387E+02  0.51100000000E-03 0.  1.
        -12    1    3    3    0    0 -0.28981725252E+02 -0.86713525313E+01 -0.25609317322E+02  0.39635462492E+02  0.00000000000E+00 0.  1.
</event>
<event>
 7    1  0.4096472E-015  0.9000778E+02  0.7816164E-02  0.1186339E+00
        -11   -1    0    0    0    0  0.00000000000E+00  0.00000000000E+00  0.45593999997E+02  0.45594000000E+02  0.51100000000E-03 0.  1.
         11   -1    0    0    0    0 -0.00000000000E+00 -0.00000000000E+00 -0.45593999997E+02  0.45594000000E+02  0.51100000000E-03 0. -1.
    9900012    2    1    2    0    0  0.67452001558E+00 -0.68494155139E+00  0.68468514376E+00  0.90007781407E+02  0.90000043322E+02 0.  0.
         12    1    1    2    0    0 -0.67452001558E+00  0.68494155139E+00 -0.68468514376E+00  0.11802185926E+01  0.00000000000E+00 0. -1.
         11    1    3    3    0    0  0.34550359728E+02 -0.51512587496E+01 -0.62976098210E+01  0.35495390035E+02  0.51100000000E-03 0. -1.
        -11    1    3    3    0    0  0.83925393076E+01 -0.55748086038E+01  0.43906037665E+01  0.10990478092E+02  0.51100000000E-03 0.  1.
        -12    1    3    3    0    0 -0.42268379020E+02  0.10041125802E+02  0.25916911982E+01  0.43521913280E+02  0.00000000000E+00 0.  1.
</event>
<event>
 7    1  0.4096472E-015  0.9000771E+02  0.7816164E-02  0.1186339E+00
        -11   -1    0    0    0    0  0.00000000000E+00  0.00000000000E+00  0.45593999997E+02  0.45594000000E+02  0.51100000000E-03 0. -1.
         11   -1    0    0    0    0 -0.00000000000E+00 -0.00000000000E+00 -0.45593999997E+02  0.45594000000E+02  0.51100000000E-03 0.  1.
    9900012    2    1    2    0    0 -0.92710759868E+00 -0.63181794337E-01 -0.72770429477E+00  0.90007714450E+02  0.89999975481E+02 0.  0.
         12    1    1    2    0    0  0.92710759868E+00  0.63181794337E-01  0.72770429477E+00  0.11802855499E+01  0.00000000000E+00 0. -1.
         11    1    3    3    0    0  0.10952733088E+02 -0.34663088033E+02 -0.15732264185E+02  0.39610556304E+02  0.51100000000E-03 0. -1.
        -11    1    3    3    0    0  0.71369325811E+01  0.83036178809E+00 -0.28456720779E+01  0.77280759056E+01  0.51100000000E-03 0.  1.
        -12    1    3    3    0    0 -0.19016773268E+02  0.33769544450E+02  0.17850231968E+02  0.42669082240E+02  0.00000000000E+00 0.  1.
</event>
<event>
 7    1  0.4096472E-015  0.9000734E+02  0.7816164E-02  0.1186340E+00
        -11   -1    0    0    0    0  0.00000000000E+00  0.00000000000E+00  0.45593999997E+02  0.45594000000E+02  0.51100000000E-03 0.  1.
         11   -1    0    0    0    0 -0.00000000000E+00 -0.00000000000E+00 -0.45593999997E+02  0.45594000000E+02  0.51100000000E-03 0. -1.
    9900012    2    1    2    0    0  0.11414167989E+01  0.28433356730E+00  0.10139309605E+00  0.90007339826E+02  0.89999595911E+02 0.  0.
         12    1    1    2    0    0 -0.11414167989E+01 -0.28433356730E+00 -0.10139309605E+00  0.11806601739E+01  0.00000000000E+00 0. -1.
         11    1    3    3    0    0  0.40458732114E+02  0.70693587194E+01 -0.62590753923E+01  0.41545888629E+02  0.51100000000E-03 0. -1.
        -11    1    3    3    0    0 -0.27645847834E+01  0.76483537288E+01  0.40734816490E+01  0.90957955557E+01  0.51100000000E-03 0.  1.
        -12    1    3    3    0    0 -0.36552730532E+02 -0.14433378881E+02  0.22869868394E+01  0.39365655641E+02  0.00000000000E+00 0.  1.
</event>
<event>
 7    1  0.4096472E-015  0.9000780E+02  0.7816164E-02  0.1186339E+00
        -11   -1    0    0    0    0  0.00000000000E+00  0.00000000000E+00  0.45593999997E+02  0.45594000000E+02  0.51100000000E-03 0.  1.
         11   -1    0    0    0    0 -0.00000000000E+00 -0.00000000000E+00 -0.45593999997E+02  0.45594000000E+02  0.51100000000E-03 0. -1.
    9900012    2    1    2    0    0 -0.96914942274E+00  0.66075967036E+00 -0.13047210730E+00  0.90007797934E+02  0.90000060067E+02 0.  0.
         12    1    1    2    0    0  0.96914942274E+00 -0.66075967036E+00  0.13047210730E+00  0.11802020659E+01  0.00000000000E+00 0. -1.
         11    1    3    3    0    0  0.74586865438E+01 -0.29551267948E+01 -0.17448540953E+01  0.82103164011E+01  0.51100000000E-03 0. -1.
        -11    1    3    3    0    0  0.14312199263E+02  0.36660333534E+02  0.10458880209E+02  0.40721091317E+02  0.51100000000E-03 0.  1.
         12    1    3    3    0    0 -0.22740035230E+02 -0.33044447069E+02 -0.88444982206E+01  0.41076390215E+02  0.00000000000E+00 0. -1.
</event>
<event>
 7    1  0.4096472E-015  0.9000769E+02  0.7816164E-02  0.1186339E+00
        -11   -1    0    0    0    0  0.00000000000E+00  0.00000000000E+00  0.45593999997E+02  0.45594000000E+02  0.51100000000E-03 0. -1.
         11   -1    0    0    0    0 -0.00000000000E+00 -0.00000000000E+00 -0.45593999997E+02  0.45594000000E+02  0.51100000000E-03 0.  1.
    9900012    2    1    2    0    0  0.96603730355E+00 -0.67477063825E+00  0.67677659558E-01  0.90007693365E+02  0.89999954118E+02 0.  0.
         12    1    1    2    0    0 -0.96603730355E+00  0.67477063825E+00 -0.67677659558E-01  0.11803066346E+01  0.00000000000E+00 0. -1.
         11    1    3    3    0    0  0.82378834728E+01 -0.50421350163E+01 -0.22712835580E+01  0.99219241529E+01  0.51100000000E-03 0. -1.
        -11    1    3    3    0    0  0.65226759021E+01 -0.31359301101E+02  0.20158284362E+02  0.37845838545E+02  0.51100000000E-03 0.  1.
         12    1    3    3    0    0 -0.13794522071E+02  0.35726665479E+02 -0.17819323145E+02  0.42239930667E+02  0.00000000000E+00 0. -1.
</event>
<event>
 7    1  0.4096472E-015  0.9000773E+02  0.7816164E-02  0.1186339E+00
        -11   -1    0    0    0    0  0.00000000000E+00  0.00000000000E+00  0.45593999997E+02  0.45594000000E+02  0.51100000000E-03 0.  1.
         11   -1    0    0    0    0 -0.00000000000E+00 -0.00000000000E+00 -0.45593999997E+02  0.45594000000E+02  0.51100000000E-03 0. -1.
    9900012    2    1    2    0    0 -0.10514922282E+01 -0.31838048428E+00  0.43131400793E+00  0.90007731466E+02  0.89999992721E+02 0.  0.
         12    1    1    2    0    0  0.10514922282E+01  0.31838048428E+00 -0.43131400793E+00  0.11802685339E+01  0.00000000000E+00 0. -1.
         11    1    3    3    0    0  0.18637629493E+01 -0.88485891544E+01  0.21228163903E+01  0.92885678144E+01  0.51100000000E-03 0. -1.
        -11    1    3    3    0    0 -0.22518111826E+02 -0.28140308224E+02  0.10226575236E+02  0.37463651030E+02  0.51100000000E-03 0.  1.
         12    1    3    3    0    0  0.19602856648E+02  0.36670516894E+02 -0.11918077618E+02  0.43255512622E+02  0.00000000000E+00 0. -1.
</event>
<event>
 7    1  0.4096472E-015  0.9000779E+02  0.7816164E-02  0.1186339E+00
        -11   -1    0    0    0    0  0.00000000000E+00  0.00000000000E+00  0.45593999997E+02  0.45594000000E+02  0.51100000000E-03 0. -1.
         11   -1    0    0    0    0 -0.00000000000E+00 -0.00000000000E+00 -0.45593999997E+02  0.45594000000E+02  0.51100000000E-03 0.  1.
    9900012    2    1    2    0    0  0.10553866912E+01 -0.51684023063E+00 -0.10926766373E+00  0.90007786327E+02  0.90000048306E+02 0.  0.
         12    1    1    2    0    0 -0.10553866912E+01  0.51684023063E+00  0.10926766373E+00  0.11802136731E+01  0.00000000000E+00 0. -1.
         11    1    3    3    0    0  0.53238713363E+01  0.24460606663E+02  0.32585216731E+02  0.41090889915E+02  0.51100000000E-03 0. -1.
        -11    1    3    3    0    0  0.48490606116E+01 -0.10317285179E+02  0.59662429071E+00  0.11415591228E+02  0.51100000000E-03 0.  1.
        -12    1    3    3    0    0 -0.91175452567E+01 -0.14660161714E+02 -0.33291108685E+02  0.37501305184E+02  0.00000000000E+00 0.  1.
</event>
<event>
 7    1  0.4096472E-015  0.9000770E+02  0.7816164E-02  0.1186339E+00
        -11   -1    0    0    0    0  0.00000000000E+00  0.00000000000E+00  0.45593999997E+02  0.45594000000E+02  0.51100000000E-03 0. -1.
         11   -1    0    0    0    0 -0.00000000000E+00 -0.00000000000E+00 -0.45593999997E+02  0.45594000000E+02  0.51100000000E-03 0.  1.
    9900012    2    1    2    0    0  0.11370673163E+01 -0.21147754834E+00  0.23549267293E+00  0.90007702735E+02  0.89999963611E+02 0.  0.
         12    1    1    2    0    0 -0.11370673163E+01  0.21147754834E+00 -0.23549267293E+00  0.11802972652E+01  0.00000000000E+00 0. -1.
         11    1    3    3    0    0  0.11290045562E+01  0.70250318250E+01  0.40692720470E+01  0.81966272749E+01  0.51100000000E-03 0. -1.
        -11    1    3    3    0    0  0.25368956492E+02  0.26881387736E+02 -0.11296529966E+02  0.38649767782E+02  0.51100000000E-03 0.  1.
         12    1    3    3    0    0 -0.25360893732E+02 -0.34117897109E+02  0.74627505920E+01  0.43161307677E+02  0.00000000000E+00 0. -1.
</event>
<event>
 7    1  0.5660922E-015  0.9000778E+02  0.7816164E-02  0.1186339E+00
        -11   -1    0    0    0    0  0.00000000000E+00  0.00000000000E+00  0.45593999997E+02  0.45594000000E+02  0.51100000000E-03 0. -1.
         11   -1    0    0    0    0 -0.00000000000E+00 -0.00000000000E+00 -0.45593999997E+02  0.45594000000E+02  0.51100000000E-03 0.  1.
    9900012    2    1    2    0    0 -0.32015580716E+00 -0.11386623893E+00 -0.11302465722E+01  0.90007778591E+02  0.90000040468E+02 0.  0.
         12    1    1    2    0    0  0.32015580716E+00  0.11386623893E+00  0.11302465722E+01  0.11802214094E+01  0.00000000000E+00 0. -1.
         11    1    3    3    0    0 -0.84468424652E+01 -0.73255988946E+01  0.35544447152E+02  0.37261525336E+02  0.51100000000E-03 0. -1.
        -11    1    3    3    0    0  0.19683013390E+01  0.69253672842E+01  0.61569017489E+01  0.94732445122E+01  0.51100000000E-03 0.  1.
        -12    1    3    3    0    0  0.61583853191E+01  0.28636537139E+00 -0.42831595473E+02  0.43273008742E+02  0.00000000000E+00 0.  1.
</event>
<event>
 7    1  0.4096472E-015  0.9000773E+02  0.7816164E-02  0.1186339E+00
        -11   -1    0    0    0    0  0.00000000000E+00  0.00000000000E+00  0.45593999997E+02  0.45594000000E+02  0.51100000000E-03 0. -1.
         11   -1    0    0    0    0 -0.00000000000E+00 -0.00000000000E+00 -0.45593999997E+02  0.45594000000E+02  0.51100000000E-03 0.  1.
    9900012    2    1    2    0    0 -0.10658717000E+01  0.40877288545E+00  0.29977049235E+00  0.90007728802E+02  0.89999990022E+02 0.  0.
         12    1    1    2    0    0  0.10658717000E+01 -0.40877288545E+00 -0.29977049235E+00  0.11802711980E+01  0.00000000000E+00 0. -1.
         11    1    3    3    0    0 -0.71392073262E+01 -0.54504737952E+01  0.79754638775E+00  0.90173181345E+01  0.51100000000E-03 0. -1.
        -11    1    3    3    0    0 -0.35116905902E+02  0.14373445898E+02  0.60465085138E+01  0.38423343069E+02  0.51100000000E-03 0.  1.
         12    1    3    3    0    0  0.41190241529E+02 -0.85141992174E+01 -0.65442844092E+01  0.42567067598E+02  0.00000000000E+00 0. -1.
</event>
<event>
 7    1  0.4096472E-015  0.9000771E+02  0.7816164E-02  0.1186339E+00
        -11   -1    0    0    0    0  0.00000000000E+00  0.00000000000E+00  0.45593999997E+02  0.45594000000E+02  0.51100000000E-03 0. -1.
         11   -1    0    0    0    0 -0.00000000000E+00 -0.00000000000E+00 -0.45593999997E+02  0.45594000000E+02  0.51100000000E-03 0.  1.
    9900012    2    1    2    0    0 -0.88572743264E-01 -0.10197426713E+01 -0.58768680998E+00  0.90007705108E+02  0.89999966015E+02 0.  0.
         12    1    1    2    0    0  0.88572743264E-01  0.10197426713E+01  0.58768680998E+00  0.11802948924E+01  0.00000000000E+00 0. -1.
         11    1    3    3    0    0  0.10338143244E+02 -0.52541602330E+01 -0.42825157087E+01  0.12362174021E+02  0.51100000000E-03 0. -1.
        -11    1    3    3    0    0  0.12126851031E+02  0.34372254523E+02 -0.96551543066E+01  0.37705893463E+02  0.51100000000E-03 0.  1.
         12    1    3    3    0    0 -0.22553567018E+02 -0.30137836961E+02  0.13349983205E+02  0.39939637623E+02  0.00000000000E+00 0. -1.
</event>
<event>
 7    1  0.4096472E-015  0.9000768E+02  0.7816164E-02  0.1186339E+00
        -11   -1    0    0    0    0  0.00000000000E+00  0.00000000000E+00  0.45593999997E+02  0.45594000000E+02  0.51100000000E-03 0. -1.
         11   -1    0    0    0    0 -0.00000000000E+00 -0.00000000000E+00 -0.45593999997E+02  0.45594000000E+02  0.51100000000E-03 0.  1.
    9900012    2    1    2    0    0 -0.11284681479E+01 -0.34276223701E+00 -0.47302749836E-01  0.90007676374E+02  0.89999936902E+02 0.  0.
         12    1    1    2    0    0  0.11284681479E+01  0.34276223701E+00  0.47302749836E-01  0.11803236260E+01  0.00000000000E+00 0. -1.
         11    1    3    3    0    0 -0.63030234703E+01 -0.10977073620E+02  0.39721167114E+01  0.13266573090E+02  0.51100000000E-03 0. -1.
        -11    1    3    3    0    0  0.38557004216E+02 -0.62352565805E+01 -0.46443140250E+01  0.39333073256E+02  0.51100000000E-03 0.  1.
         12    1    3    3    0    0 -0.33382448893E+02  0.16869567963E+02  0.62489456379E+00  0.37408030028E+02  0.00000000000E+00 0. -1.
</event>
<event>
 7    1  0.4096472E-015  0.9000754E+02  0.7816164E-02  0.1186339E+00
        -11   -1    0    0    0    0  0.00000000000E+00  0.00000000000E+00  0.45593999997E+02  0.45594000000E+02  0.51100000000E-03 0.  1.
         11   -1    0    0    0    0 -0.00000000000E+00 -0.00000000000E+00 -0.45593999997E+02  0.45594000000E+02  0.51100000000E-03 0. -1.
    9900012    2    1    2    0    0  0.45414332737E+00  0.10849817747E+01 -0.10027501679E+00  0.90007539627E+02  0.89999798350E+02 0.  0.
         12    1    1    2    0    0 -0.45414332737E+00 -0.10849817747E+01  0.10027501679E+00  0.11804603730E+01  0.00000000000E+00 0. -1.
         11    1    3    3    0    0 -0.26928009381E+02 -0.85677809351E+01 -0.24766879310E+02  0.37575562143E+02  0.51100000000E-03 0. -1.
        -11    1    3    3    0    0 -0.44551839421E+01  0.72657126088E+01 -0.40994909073E+01  0.94575403585E+01  0.51100000000E-03 0.  1.
        -12    1    3    3    0    0  0.31837336650E+02  0.23870501009E+01  0.28766095200E+02  0.42974437125E+02  0.00000000000E+00 0.  1.
</event>
<event>
 7    1  0.4096472E-015  0.9000777E+02  0.7816164E-02  0.1186339E+00
        -11   -1    0    0    0    0  0.00000000000E+00  0.00000000000E+00  0.45593999997E+02  0.45594000000E+02  0.51100000000E-03 0.  1.
         11   -1    0    0    0    0 -0.00000000000E+00 -0.00000000000E+00 -0.45593999997E+02  0.45594000000E+02  0.51100000000E-03 0. -1.
    9900012    2    1    2    0    0 -0.44751113429E+00 -0.94679887799E+00  0.54429692947E+00  0.90007765499E+02  0.90000027203E+02 0.  0.
         12    1    1    2    0    0  0.44751113429E+00  0.94679887799E+00 -0.54429692947E+00  0.11802345013E+01  0.00000000000E+00 0. -1.
         11    1    3    3    0    0 -0.91530018489E+01 -0.62349269009E+00  0.15172699805E+01  0.92988329609E+01  0.51100000000E-03 0. -1.
        -11    1    3    3    0    0  0.12310300197E+02  0.10302466943E+02  0.37415789064E+02  0.40713948318E+02  0.51100000000E-03 0.  1.
         12    1    3    3    0    0 -0.36048094827E+01 -0.10625773131E+02 -0.38388762115E+02  0.39994984220E+02  0.00000000000E+00 0. -1.
</event>
<event>
 7    1  0.4096472E-015  0.9000774E+02  0.7816164E-02  0.1186339E+00
        -11   -1    0    0    0    0  0.00000000000E+00  0.00000000000E+00  0.45593999997E+02  0.45594000000E+02  0.51100000000E-03 0.  1.
         11   -1    0    0    0    0 -0.00000000000E+00 -0.00000000000E+00 -0.45593999997E+02  0.45594000000E+02  0.51100000000E-03 0. -1.
    9900012    2    1    2    0    0  0.26150401697E+00 -0.10847488996E+01  0.38465131222E+00  0.90007736827E+02  0.89999998153E+02 0.  0.
         12    1    1    2    0    0 -0.26150401697E+00  0.10847488996E+01 -0.38465131222E+00  0.11802631732E+01  0.00000000000E+00 0. -1.
         11    1    3    3    0    0 -0.21443951323E+02  0.25854505634E+02 -0.14773536368E+02  0.36695447770E+02  0.51100000000E-03 0. -1.
        -11    1    3    3    0    0 -0.84532218018E+01 -0.25903327193E+01 -0.44232345107E+01  0.98859388135E+01  0.51100000000E-03 0.  1.
        -12    1    3    3    0    0  0.30158677141E+02 -0.24348921815E+02  0.19581422191E+02  0.43426350244E+02  0.00000000000E+00 0.  1.
</event>
<event>
 7    1  0.4096472E-015  0.9000784E+02  0.7816164E-02  0.1186339E+00
        -11   -1    0    0    0    0  0.00000000000E+00  0.00000000000E+00  0.45593999997E+02  0.45594000000E+02  0.51100000000E-03 0. -1.
         11   -1    0    0    0    0 -0.00000000000E+00 -0.00000000000E+00 -0.45593999997E+02  0.45594000000E+02  0.51100000000E-03 0.  1.
    9900012    2    1    2    0    0  0.57598183790E+00 -0.18060014710E+00 -0.10141052941E+01  0.90007838554E+02  0.90000101223E+02 0.  0.
         12    1    1    2    0    0 -0.57598183790E+00  0.18060014710E+00  0.10141052941E+01  0.11801614458E+01  0.00000000000E+00 0. -1.
         11    1    3    3    0    0 -0.37872257411E+02 -0.40819003659E+01 -0.12474593660E+02  0.40082231465E+02  0.51100000000E-03 0. -1.
        -11    1    3    3    0    0  0.25528302446E+01 -0.44326031071E+01 -0.70320459394E+01  0.86956646047E+01  0.51100000000E-03 0.  1.
        -12    1    3    3    0    0  0.35895409004E+02  0.83339033259E+01  0.18492534306E+02  0.41229942484E+02  0.00000000000E+00 0.  1.
</event>
<event>
 7    1  0.4096472E-015  0.9000769E+02  0.7816164E-02  0.1186339E+00
        -11   -1    0    0    0    0  0.00000000000E+00  0.00000000000E+00  0.45593999997E+02  0.45594000000E+02  0.51100000000E-03 0.  1.
         11   -1    0    0    0    0 -0.00000000000E+00 -0.00000000000E+00 -0.45593999997E+02  0.45594000000E+02  0.51100000000E-03 0. -1.
    9900012    2    1    2    0    0  0.73211988807E+00 -0.89470869943E+00 -0.23795595679E+00  0.90007692318E+02  0.89999953056E+02 0.  0.
         12    1    1    2    0    0 -0.73211988807E+00  0.89470869943E+00  0.23795595679E+00  0.11803076822E+01  0.00000000000E+00 0. -1.
         11    1    3    3    0    0 -0.10481580801E+02  0.26197220232E+02 -0.33673796260E+01  0.28416493974E+02  0.51100000000E-03 0. -1.
        -11    1    3    3    0    0  0.78140349708E+01  0.13216699055E+02  0.12811532107E+02  0.19996890549E+02  0.51100000000E-03 0.  1.
        -12    1    3    3    0    0  0.33996657183E+01 -0.40308627986E+02 -0.96821084378E+01  0.41594307795E+02  0.00000000000E+00 0.  1.
</event>
<event>
 7    1  0.4096472E-015  0.9000793E+02  0.7816164E-02  0.1186339E+00
        -11   -1    0    0    0    0  0.00000000000E+00  0.00000000000E+00  0.45593999997E+02  0.45594000000E+02  0.51100000000E-03 0. -1.
         11   -1    0    0    0    0 -0.00000000000E+00 -0.00000000000E+00 -0.45593999997E+02  0.45594000000E+02  0.51100000000E-03 0.  1.
    9900012    2    1    2    0    0 -0.10614654815E+00  0.46934360120E+00 -0.10775073922E+01  0.90007926830E+02  0.90000190664E+02 0.  0.
         12    1    1    2    0    0  0.10614654815E+00 -0.46934360120E+00  0.10775073922E+01  0.11800731697E+01  0.00000000000E+00 0. -1.
         11    1    3    3    0    0  0.38089470499E+01  0.38002317444E+01  0.60043136411E+01  0.80623583089E+01  0.51100000000E-03 0. -1.
        -11    1    3    3    0    0  0.38560580442E+02 -0.60709025826E+01 -0.21151100871E+01  0.39092811528E+02  0.51100000000E-03 0.  1.
         12    1    3    3    0    0 -0.42475674040E+02  0.27400144394E+01 -0.49667109462E+01  0.42852756993E+02  0.00000000000E+00 0. -1.
</event>
<event>
 7    1  0.4096472E-015  0.9000771E+02  0.7816164E-02  0.1186339E+00
        -11   -1    0    0    0    0  0.00000000000E+00  0.00000000000E+00  0.45593999997E+02  0.45594000000E+02  0.51100000000E-03 0.  1.
         11   -1    0    0    0    0 -0.00000000000E+00 -0.00000000000E+00 -0.45593999997E+02  0.45594000000E+02  0.51100000000E-03 0. -1.
    9900012    2    1    2    0    0  0.43586399142E+00  0.10095360230E+01 -0.42888585744E+00  0.90007710426E+02  0.89999971403E+02 0.  0.
         12    1    1    2    0    0 -0.43586399142E+00 -0.10095360230E+01  0.42888585744E+00  0.11802895744E+01  0.00000000000E+00 0. -1.
         11    1    3    3    0    0  0.20655621026E+02  0.98356190990E-01 -0.13887374045E+02  0.24890229248E+02  0.51100000000E-03 0. -1.
        -11    1    3    3    0    0  0.66158720794E+01 -0.21161921160E+02 -0.87976173298E+01  0.23853610660E+02  0.51100000000E-03 0.  1.
        -12    1    3    3    0    0 -0.26835629114E+02  0.22073100992E+02  0.22256105517E+02  0.41263870518E+02  0.00000000000E+00 0.  1.
</event>
<event>
 7    1  0.4096472E-015  0.9000775E+02  0.7816164E-02  0.1186339E+00
        -11   -1    0    0    0    0  0.00000000000E+00  0.00000000000E+00  0.45593999997E+02  0.45594000000E+02  0.51100000000E-03 0.  1.
         11   -1    0    0    0    0 -0.00000000000E+00 -0.00000000000E+00 -0.45593999997E+02  0.45594000000E+02  0.51100000000E-03 0. -1.
    9900012    2    1    2    0    0 -0.52912811963E+00  0.52518472648E+00  0.91498387769E+00  0.90007749577E+02  0.90000011072E+02 0.  0.
         12    1    1    2    0    0  0.52912811963E+00 -0.52518472648E+00 -0.91498387769E+00  0.11802504227E+01  0.00000000000E+00 0. -1.
         11    1    3    3    0    0 -0.25614664649E+02  0.31266292678E+02 -0.13832675517E+02  0.42720428545E+02  0.51100000000E-03 0. -1.
        -11    1    3    3    0    0  0.80588541600E+01 -0.25415837270E+00 -0.23617879472E+01  0.84016527790E+01  0.51100000000E-03 0.  1.
        -12    1    3    3    0    0  0.17026682369E+02 -0.30486949579E+02  0.17109447342E+02  0.38885668253E+02  0.00000000000E+00 0.  1.
</event>
<event>
 7    1  0.4096472E-015  0.9000767E+02  0.7816164E-02  0.1186339E+00
        -11   -1    0    0    0    0  0.00000000000E+00  0.00000000000E+00  0.45593999997E+02  0.45594000000E+02  0.51100000000E-03 0.  1.
         11   -1    0    0    0    0 -0.00000000000E+00 -0.00000000000E+00 -0.45593999997E+02  0.45594000000E+02  0.51100000000E-03 0. -1.
    9900012    2    1    2    0    0 -0.13767431465E+00  0.11687338750E+01 -0.91009039018E-01  0.90007671345E+02  0.89999931807E+02 0.  0.
         12    1    1    2    0    0  0.13767431465E+00 -0.11687338750E+01  0.91009039018E-01  0.11803286545E+01  0.00000000000E+00 0. -1.
         11    1    3    3    0    0 -0.13620788761E+02  0.28418690014E+02  0.21365264445E+02  0.38073906467E+02  0.51100000000E-03 0. -1.
        -11    1    3    3    0    0  0.29185897197E+01 -0.20117142846E+01  0.97839621299E+01  0.10406299800E+02  0.51100000000E-03 0.  1.
        -12    1    3    3    0    0  0.10564524727E+02 -0.25238241854E+02 -0.31240235614E+02  0.41527465078E+02  0.00000000000E+00 0.  1.
</event>
<event>
 7    1  0.4096472E-015  0.9000773E+02  0.7816164E-02  0.1186339E+00
        -11   -1    0    0    0    0  0.00000000000E+00  0.00000000000E+00  0.45593999997E+02  0.45594000000E+02  0.51100000000E-03 0.  1.
         11   -1    0    0    0    0 -0.00000000000E+00 -0.00000000000E+00 -0.45593999997E+02  0.45594000000E+02  0.51100000000E-03 0. -1.
    9900012    2    1    2    0    0  0.33654668253E+00  0.11065201264E+01 -0.23533189351E+00  0.90007732420E+02  0.89999993688E+02 0.  0.
         12    1    1    2    0    0 -0.33654668253E+00 -0.11065201264E+01  0.23533189351E+00  0.11802675797E+01  0.00000000000E+00 0. -1.
         11    1    3    3    0    0  0.38599820603E+02 -0.44700373570E+01  0.94627140642E+01  0.39993378730E+02  0.51100000000E-03 0. -1.
        -11    1    3    3    0    0 -0.21941585503E+01  0.73053865612E+01  0.68874052023E+01  0.10277127772E+02  0.51100000000E-03 0.  1.
        -12    1    3    3    0    0 -0.36069115370E+02 -0.17288290779E+01 -0.16585451160E+02  0.39737225919E+02  0.00000000000E+00 0.  1.
</event>
<event>
 7    1  0.4096472E-015  0.9000776E+02  0.7816164E-02  0.1186339E+00
        -11   -1    0    0    0    0  0.00000000000E+00  0.00000000000E+00  0.45593999997E+02  0.45594000000E+02  0.51100000000E-03 0. -1.
         11   -1    0    0    0    0 -0.00000000000E+00 -0.00000000000E+00 -0.45593999997E+02  0.45594000000E+02  0.51100000000E-03 0.  1.
    9900012    2    1    2    0    0 -0.44762931254E+00  0.10812348036E+01 -0.15336785026E+00  0.90007761719E+02  0.90000023374E+02 0.  0.
         12    1    1    2    0    0  0.44762931254E+00 -0.10812348036E+01  0.15336785026E+00  0.11802382808E+01  0.00000000000E+00 0. -1.
         11    1    3    3    0    0 -0.36238883968E+01  0.33879924167E+02  0.92812716357E+01  0.35314640478E+02  0.51100000000E-03 0. -1.
        -11    1    3    3    0    0  0.65492689423E+00  0.50607644226E+01  0.10615292939E+02  0.11778145449E+02  0.51100000000E-03 0.  1.
        -12    1    3    3    0    0  0.25213321900E+01 -0.37859453786E+02 -0.20049932425E+02  0.42914975792E+02  0.00000000000E+00 0.  1.
</event>
<event>
 7    1  0.4096472E-015  0.9000773E+02  0.7816164E-02  0.1186339E+00
        -11   -1    0    0    0    0  0.00000000000E+00  0.00000000000E+00  0.45593999997E+02  0.45594000000E+02  0.51100000000E-03 0. -1.
         11   -1    0    0    0    0 -0.00000000000E+00 -0.00000000000E+00 -0.45593999997E+02  0.45594000000E+02  0.51100000000E-03 0.  1.
    9900012    2    1    2    0    0  0.18363493892E+00  0.60672351168E+00 -0.99559103953E+00  0.90007730231E+02  0.89999991470E+02 0.  0.
         12    1    1    2    0    0 -0.18363493892E+00 -0.60672351168E+00  0.99559103953E+00  0.11802697693E+01  0.00000000000E+00 0. -1.
         11    1    3    3    0    0 -0.21360587627E+02 -0.21470818849E+02  0.30438992732E+02  0.42939527764E+02  0.51100000000E-03 0. -1.
        -11    1    3    3    0    0  0.80524018636E+01  0.54526410192E-01 -0.28454453101E+01  0.85405332489E+01  0.51100000000E-03 0.  1.
        -12    1    3    3    0    0  0.13491820703E+02  0.22023015950E+02 -0.28589138461E+02  0.38527669218E+02  0.00000000000E+00 0.  1.
</event>
<event>
 7    1  0.4096472E-015  0.9000778E+02  0.7816164E-02  0.1186339E+00
        -11   -1    0    0    0    0  0.00000000000E+00  0.00000000000E+00  0.45593999997E+02  0.45594000000E+02  0.51100000000E-03 0.  1.
         11   -1    0    0    0    0 -0.00000000000E+00 -0.00000000000E+00 -0.45593999997E+02  0.45594000000E+02  0.51100000000E-03 0. -1.
    9900012    2    1    2    0    0 -0.26262738968E+00 -0.40406887523E-01  0.11499140978E+01  0.90007784640E+02  0.90000046598E+02 0.  0.
         12    1    1    2    0    0  0.26262738968E+00  0.40406887523E-01 -0.11499140978E+01  0.11802153595E+01  0.00000000000E+00 0. -1.
         11    1    3    3    0    0  0.27545521931E+01  0.35259759106E+02 -0.10009367001E+02  0.36756300113E+02  0.51100000000E-03 0. -1.
        -11    1    3    3    0    0  0.38101567501E+01  0.41248617123E+01 -0.72810025442E+01  0.91948233760E+01  0.51100000000E-03 0.  1.
        -12    1    3    3    0    0 -0.68273363329E+01 -0.39425027706E+02  0.18440283643E+02  0.44056661151E+02  0.00000000000E+00 0.  1.
</event>
<event>
 7    1  0.4096472E-015  0.9000760E+02  0.7816164E-02  0.1186339E+00
        -11   -1    0    0    0    0  0.00000000000E+00  0.00000000000E+00  0.45593999997E+02  0.45594000000E+02  0.51100000000E-03 0.  1.
         11   -1    0    0    0    0 -0.00000000000E+00 -0.00000000000E+00 -0.45593999997E+02  0.45594000000E+02  0.51100000000E-03 0. -1.
    9900012    2    1    2    0    0  0.79621708247E+00 -0.75370276527E+00 -0.43738289288E+00  0.90007604602E+02  0.89999864183E+02 0.  0.
         12    1    1    2    0    0 -0.79621708247E+00  0.75370276527E+00  0.43738289288E+00  0.11803953981E+01  0.00000000000E+00 0. -1.
         11    1    3    3    0    0  0.32572650015E+02 -0.15665174315E+02 -0.16474800883E+02  0.39721458681E+02  0.51100000000E-03 0. -1.
        -11    1    3    3    0    0  0.46347028922E+01 -0.18895960094E+01 -0.30642076854E+01  0.58685954860E+01  0.51100000000E-03 0.  1.
        -12    1    3    3    0    0 -0.36411135825E+02  0.16801067559E+02  0.19101625676E+02  0.44417550435E+02  0.00000000000E+00 0.  1.
</event>
<event>
 7    1  0.4096472E-015  0.9000777E+02  0.7816164E-02  0.1186339E+00
        -11   -1    0    0    0    0  0.00000000000E+00  0.00000000000E+00  0.45593999997E+02  0.45594000000E+02  0.51100000000E-03 0.  1.
         11   -1    0    0    0    0 -0.00000000000E+00 -0.00000000000E+00 -0.45593999997E+02  0.45594000000E+02  0.51100000000E-03 0. -1.
    9900012    2    1    2    0    0 -0.39639359617E+00 -0.66200283379E+00  0.89307239569E+00  0.90007765303E+02  0.90000027005E+02 0.  0.
         12    1    1    2    0    0  0.39639359617E+00  0.66200283379E+00 -0.89307239569E+00  0.11802346966E+01  0.00000000000E+00 0. -1.
         11    1    3    3    0    0 -0.27513079833E+01 -0.50403340480E+01  0.71812120860E+01  0.91948066983E+01  0.51100000000E-03 0. -1.
        -11    1    3    3    0    0  0.23046691065E+02 -0.23966528342E+02  0.18308991798E+02  0.37957392306E+02  0.51100000000E-03 0.  1.
         12    1    3    3    0    0 -0.20691776678E+02  0.28344859556E+02 -0.24597131489E+02  0.42855566299E+02  0.00000000000E+00 0. -1.
</event>
<event>
 7    1  0.4096472E-015  0.9000767E+02  0.7816164E-02  0.1186339E+00
        -11   -1    0    0    0    0  0.00000000000E+00  0.00000000000E+00  0.45593999997E+02  0.45594000000E+02  0.51100000000E-03 0. -1.
         11   -1    0    0    0    0 -0.00000000000E+00 -0.00000000000E+00 -0.45593999997E+02  0.45594000000E+02  0.51100000000E-03 0.  1.
    9900012    2    1    2    0    0  0.30518962183E+00 -0.96611059081E+00 -0.60553876064E+00  0.90007666331E+02  0.89999926727E+02 0.  0.
         12    1    1    2    0    0 -0.30518962183E+00  0.96611059081E+00  0.60553876064E+00  0.11803336688E+01  0.00000000000E+00 0. -1.
         11    1    3    3    0    0  0.88900442545E+01  0.32143553683E+01 -0.42247183489E+01  0.10354381327E+02  0.51100000000E-03 0. -1.
        -11    1    3    3    0    0  0.45484819833E+01 -0.13160319741E+02 -0.35117169524E+02  0.37776954611E+02  0.51100000000E-03 0.  1.
         12    1    3    3    0    0 -0.13133336616E+02  0.89798537818E+01  0.38736349112E+02  0.41876330393E+02  0.00000000000E+00 0. -1.
</event>
<event>
 7    1  0.4096472E-015  0.9000777E+02  0.7816164E-02  0.1186339E+00
        -11   -1    0    0    0    0  0.00000000000E+00  0.00000000000E+00  0.45593999997E+02  0.45594000000E+02  0.51100000000E-03 0.  1.
         11   -1    0    0    0    0 -0.00000000000E+00 -0.00000000000E+00 -0.45593999997E+02  0.45594000000E+02  0.51100000000E-03 0. -1.
    9900012    2    1    2    0    0  0.61377025426E+00  0.13054877163E+00  0.99958761188E+00  0.90007774470E+02  0.90000036293E+02 0.  0.
         12    1    1    2    0    0 -0.61377025426E+00 -0.13054877163E+00 -0.99958761188E+00  0.11802255296E+01  0.00000000000E+00 0. -1.
         11    1    3    3    0    0  0.19721903918E+01 -0.66317589947E+01  0.36991833753E+01  0.78456178986E+01  0.51100000000E-03 0. -1.
        -11    1    3    3    0    0  0.32835646013E+02 -0.11514636887E+02  0.16938957899E+02  0.38700062102E+02  0.51100000000E-03 0.  1.
         12    1    3    3    0    0 -0.34194066150E+02  0.18276944654E+02 -0.19638553663E+02  0.43462094470E+02  0.00000000000E+00 0. -1.
</event>
<event>
 7    1  0.4096472E-015  0.9000777E+02  0.7816164E-02  0.1186339E+00
        -11   -1    0    0    0    0  0.00000000000E+00  0.00000000000E+00  0.45593999997E+02  0.45594000000E+02  0.51100000000E-03 0.  1.
         11   -1    0    0    0    0 -0.00000000000E+00 -0.00000000000E+00 -0.45593999997E+02  0.45594000000E+02  0.51100000000E-03 0. -1.
    9900012    2    1    2    0    0 -0.17395042534E+00  0.29781449225E-02  0.11673388589E+01  0.90007767976E+02  0.90000029713E+02 0.  0.
         12    1    1    2    0    0  0.17395042534E+00 -0.29781449225E-02 -0.11673388589E+01  0.11802320243E+01  0.00000000000E+00 0. -1.
         11    1    3    3    0    0  0.57281589525E+01 -0.40127036533E+01  0.58402179073E+01  0.91116266968E+01  0.51100000000E-03 0. -1.
        -11    1    3    3    0    0  0.59966938795E+01  0.15623613235E+02 -0.39174225794E+02  0.42599032792E+02  0.51100000000E-03 0.  1.
         12    1    3    3    0    0 -0.11898803257E+02 -0.11607931436E+02  0.34501346746E+02  0.38297108487E+02  0.00000000000E+00 0. -1.
</event>
<event>
 7    1  0.4096472E-015  0.9000774E+02  0.7816164E-02  0.1186339E+00
        -11   -1    0    0    0    0  0.00000000000E+00  0.00000000000E+00  0.45593999997E+02  0.45594000000E+02  0.51100000000E-03 0. -1.
         11   -1    0    0    0    0 -0.00000000000E+00 -0.00000000000E+00 -0.45593999997E+02  0.45594000000E+02  0.51100000000E-03 0.  1.
    9900012    2    1    2    0    0  0.11392254534E+01  0.21680151070E+00  0.21948376769E+00  0.90007741277E+02  0.90000002662E+02 0.  0.
         12    1    1    2    0    0 -0.11392254534E+01 -0.21680151070E+00 -0.21948376769E+00  0.11802587229E+01  0.00000000000E+00 0. -1.
         11    1    3    3    0    0  0.66228412380E+01 -0.65679434253E+01  0.71742968728E+01  0.11767346463E+02  0.51100000000E-03 0. -1.
        -11    1    3    3    0    0 -0.23584277365E+01 -0.31736122657E+02 -0.19839972771E+02  0.37501575734E+02  0.51100000000E-03 0.  1.
         12    1    3    3    0    0 -0.31251880481E+01  0.38520867593E+02  0.12885159665E+02  0.40738819080E+02  0.00000000000E+00 0. -1.
</event>
<event>
 7    1  0.4096472E-015  0.9000760E+02  0.7816164E-02  0.1186339E+00
        -11   -1    0    0    0    0  0.00000000000E+00  0.00000000000E+00  0.45593999997E+02  0.45594000000E+02  0.51100000000E-03 0.  1.
         11   -1    0    0    0    0 -0.00000000000E+00 -0.00000000000E+00 -0.45593999997E+02  0.45594000000E+02  0.51100000000E-03 0. -1.
    9900012    2    1    2    0    0 -0.35562284953E+00  0.10542053822E+01 -0.39437953822E+00  0.90007596756E+02  0.89999856233E+02 0.  0.
         12    1    1    2    0    0  0.35562284953E+00 -0.10542053822E+01  0.39437953822E+00  0.11804032443E+01  0.00000000000E+00 0. -1.
         11    1    3    3    0    0 -0.10556745238E+01  0.77038661313E+01 -0.15899507964E+01  0.79367465541E+01  0.51100000000E-03 0. -1.
        -11    1    3    3    0    0  0.12431302618E+02  0.56595339445E+01  0.38620157207E+02  0.40964425447E+02  0.51100000000E-03 0.  1.
         12    1    3    3    0    0 -0.11731250944E+02 -0.12309194694E+02 -0.37424585948E+02  0.41106424755E+02  0.00000000000E+00 0. -1.
</event>
<event>
 7    1  0.4096472E-015  0.9000774E+02  0.7816164E-02  0.1186339E+00
        -11   -1    0    0    0    0  0.00000000000E+00  0.00000000000E+00  0.45593999997E+02  0.45594000000E+02  0.51100000000E-03 0.  1.
         11   -1    0    0    0    0 -0.00000000000E+00 -0.00000000000E+00 -0.45593999997E+02  0.45594000000E+02  0.51100000000E-03 0. -1.
    9900012    2    1    2    0    0  0.30287280658E+00  0.79451321827E-01  0.11379687444E+01  0.90007738456E+02  0.89999999803E+02 0.  0.
         12    1    1    2    0    0 -0.30287280658E+00 -0.79451321827E-01 -0.11379687444E+01  0.11802615442E+01  0.00000000000E+00 0. -1.
         11    1    3    3    0    0 -0.17192155406E+02  0.22574575239E+02 -0.18214447976E+02  0.33718656112E+02  0.51100000000E-03 0. -1.
        -11    1    3    3    0    0 -0.11777980949E+02 -0.31052889169E+01 -0.54054363423E+01  0.13326004533E+02  0.51100000000E-03 0.  1.
        -12    1    3    3    0    0  0.29273009161E+02 -0.19389835000E+02  0.24757853063E+02  0.42963077811E+02  0.00000000000E+00 0.  1.
</event>
<event>
 7    1  0.4096472E-015  0.9000774E+02  0.7816164E-02  0.1186339E+00
        -11   -1    0    0    0    0  0.00000000000E+00  0.00000000000E+00  0.45593999997E+02  0.45594000000E+02  0.51100000000E-03 0. -1.
         11   -1    0    0    0    0 -0.00000000000E+00 -0.00000000000E+00 -0.45593999997E+02  0.45594000000E+02  0.51100000000E-03 0.  1.
    9900012    2    1    2    0    0  0.67917826743E-02  0.65842007666E+00 -0.97951886389E+00  0.90007737177E+02  0.89999998508E+02 0.  0.
         12    1    1    2    0    0 -0.67917826743E-02 -0.65842007666E+00  0.97951886389E+00  0.11802628226E+01  0.00000000000E+00 0. -1.
         11    1    3    3    0    0  0.17084667544E+02 -0.25740458847E+02 -0.18134328124E+02  0.35823329598E+02  0.51100000000E-03 0. -1.
        -11    1    3    3    0    0  0.98621780123E+00 -0.72914952628E+01 -0.59973032722E+01  0.94924272722E+01  0.51100000000E-03 0.  1.
        -12    1    3    3    0    0 -0.18064093563E+02  0.33690374186E+02  0.23152112532E+02  0.44691980307E+02  0.00000000000E+00 0.  1.
</event>
<event>
 7    1  0.4096472E-015  0.9000777E+02  0.7816164E-02  0.1186339E+00
        -11   -1    0    0    0    0  0.00000000000E+00  0.00000000000E+00  0.45593999997E+02  0.45594000000E+02  0.51100000000E-03 0.  1.
         11   -1    0    0    0    0 -0.00000000000E+00 -0.00000000000E+00 -0.45593999997E+02  0.45594000000E+02  0.51100000000E-03 0. -1.
    9900012    2    1    2    0    0 -0.85871494200E-01  0.88624561611E+00  0.77468973616E+00  0.90007767229E+02  0.90000028957E+02 0.  0.
         12    1    1    2    0    0  0.85871494200E-01 -0.88624561611E+00 -0.77468973616E+00  0.11802327706E+01  0.00000000000E+00 0. -1.
         11    1    3    3    0    0  0.16416387049E+02  0.38123464148E+02  0.72081067600E+01  0.42129005278E+02  0.51100000000E-03 0. -1.
        -11    1    3    3    0    0 -0.11367924445E+02 -0.53914009843E+01  0.51641292350E+01  0.13600189035E+02  0.51100000000E-03 0.  1.
        -12    1    3    3    0    0 -0.51343340980E+01 -0.31845817548E+02 -0.11597546259E+02  0.34278572916E+02  0.00000000000E+00 0.  1.
</event>
<event>
 7    1  0.4096472E-015  0.9000781E+02  0.7816164E-02  0.1186339E+00
        -11   -1    0    0    0    0  0.00000000000E+00  0.00000000000E+00  0.45593999997E+02  0.45594000000E+02  0.51100000000E-03 0. -1.
         11   -1    0    0    0    0 -0.00000000000E+00 -0.00000000000E+00 -0.45593999997E+02  0.45594000000E+02  0.51100000000E-03 0.  1.
    9900012    2    1    2    0    0  0.16537445071E+00 -0.91545212940E+00 -0.72625257178E+00  0.90007811834E+02  0.90000074150E+02 0.  0.
         12    1    1    2    0    0 -0.16537445071E+00  0.91545212940E+00  0.72625257178E+00  0.11801881664E+01  0.00000000000E+00 0. -1.
         11    1    3    3    0    0  0.16128371369E+00 -0.10108822050E+00  0.75890497871E+01  0.75914365041E+01  0.51100000000E-03 0. -1.
        -11    1    3    3    0    0  0.65333065366E+01 -0.34766758239E+02  0.17307642957E+02  0.39382306659E+02  0.51100000000E-03 0.  1.
         12    1    3    3    0    0 -0.65292157995E+01  0.33952394330E+02 -0.25622945316E+02  0.43034068671E+02  0.00000000000E+00 0. -1.
</event>
<event>
 7    1  0.4096472E-015  0.9000803E+02  0.7816164E-02  0.1186338E+00
        -11   -1    0    0    0    0  0.00000000000E+00  0.00000000000E+00  0.45593999997E+02  0.45594000000E+02  0.51100000000E-03 0.  1.
         11   -1    0    0    0    0 -0.00000000000E+00 -0.00000000000E+00 -0.45593999997E+02  0.45594000000E+02  0.51100000000E-03 0. -1.
    9900012    2    1    2    0    0  0.11294329919E+00  0.69621189139E+00  0.94597119981E+00  0.90008030213E+02  0.90000295412E+02 0.  0.
         12    1    1    2    0    0 -0.11294329919E+00 -0.69621189139E+00 -0.94597119981E+00  0.11799697866E+01  0.00000000000E+00 0. -1.
         11    1    3    3    0    0 -0.49277945775E+01  0.79543969881E+01 -0.44336732516E+01  0.10354373453E+02  0.51100000000E-03 0. -1.
        -11    1    3    3    0    0  0.55188295113E+01  0.33904631171E+02 -0.98917011396E+01  0.35746709578E+02  0.51100000000E-03 0.  1.
         12    1    3    3    0    0 -0.47809163458E+00 -0.41162816267E+02  0.15271345591E+02  0.43906947182E+02  0.00000000000E+00 0. -1.
</event>
<event>
 7    1  0.4096472E-015  0.9000784E+02  0.7816164E-02  0.1186339E+00
        -11   -1    0    0    0    0  0.00000000000E+00  0.00000000000E+00  0.45593999997E+02  0.45594000000E+02  0.51100000000E-03 0. -1.
         11   -1    0    0    0    0 -0.00000000000E+00 -0.00000000000E+00 -0.45593999997E+02  0.45594000000E+02  0.51100000000E-03 0.  1.
    9900012    2    1    2    0    0  0.78111314431E+00 -0.76778223336E-01 -0.88133076963E+00  0.90007840449E+02  0.90000103143E+02 0.  0.
         12    1    1    2    0    0 -0.78111314431E+00  0.76778223336E-01  0.88133076963E+00  0.11801595508E+01  0.00000000000E+00 0. -1.
         11    1    3    3    0    0  0.54437403076E+01 -0.33119326134E+02 -0.43362226237E+01  0.33842678662E+02  0.51100000000E-03 0. -1.
        -11    1    3    3    0    0 -0.16721939376E+02  0.68179756916E+01  0.16526143425E+02  0.24479000507E+02  0.51100000000E-03 0.  1.
        -12    1    3    3    0    0  0.12059312213E+02  0.26224572219E+02 -0.13071251571E+02  0.31686161281E+02  0.00000000000E+00 0.  1.
</event>
<event>
 7    1  0.4096472E-015  0.9000768E+02  0.7816164E-02  0.1186339E+00
        -11   -1    0    0    0    0  0.00000000000E+00  0.00000000000E+00  0.45593999997E+02  0.45594000000E+02  0.51100000000E-03 0. -1.
         11   -1    0    0    0    0 -0.00000000000E+00 -0.00000000000E+00 -0.45593999997E+02  0.45594000000E+02  0.51100000000E-03 0.  1.
    9900012    2    1    2    0    0 -0.31234135385E+00  0.10418338053E+00 -0.11334606463E+01  0.90007684646E+02  0.89999945283E+02 0.  0.
         12    1    1    2    0    0  0.31234135385E+00 -0.10418338053E+00  0.11334606463E+01  0.11803153540E+01  0.00000000000E+00 0. -1.
         11    1    3    3    0    0  0.43724261367E+01 -0.11139692454E+02 -0.57012202811E+00  0.11980646797E+02  0.51100000000E-03 0. -1.
        -11    1    3    3    0    0  0.31691240001E+02 -0.56405067509E+01 -0.14856772489E+02  0.35452414561E+02  0.51100000000E-03 0.  1.
         12    1    3    3    0    0 -0.36376007491E+02  0.16884382585E+02  0.14293433871E+02  0.42574623288E+02  0.00000000000E+00 0. -1.
</event>
<event>
 7    1  0.4096472E-015  0.9000780E+02  0.7816164E-02  0.1186339E+00
        -11   -1    0    0    0    0  0.00000000000E+00  0.00000000000E+00  0.45593999997E+02  0.45594000000E+02  0.51100000000E-03 0. -1.
         11   -1    0    0    0    0 -0.00000000000E+00 -0.00000000000E+00 -0.45593999997E+02  0.45594000000E+02  0.51100000000E-03 0.  1.
    9900012    2    1    2    0    0  0.17343030878E+00 -0.54373999066E+00 -0.10330288443E+01  0.90007796694E+02  0.90000058811E+02 0.  0.
         12    1    1    2    0    0 -0.17343030878E+00  0.54373999066E+00  0.10330288443E+01  0.11802033057E+01  0.00000000000E+00 0. -1.
         11    1    3    3    0    0  0.59466288874E+00  0.98886414066E+01 -0.63047194238E+01  0.11742586601E+02  0.51100000000E-03 0. -1.
        -11    1    3    3    0    0 -0.21644483197E+02 -0.36227633493E+02 -0.68031942828E+01  0.42745859847E+02  0.51100000000E-03 0.  1.
         12    1    3    3    0    0  0.21223250617E+02  0.25795252096E+02  0.12074884862E+02  0.35519350246E+02  0.00000000000E+00 0. -1.
</event>
<event>
 7    1  0.4096472E-015  0.9000786E+02  0.7816164E-02  0.1186339E+00
        -11   -1    0    0    0    0  0.00000000000E+00  0.00000000000E+00  0.45593999997E+02  0.45594000000E+02  0.51100000000E-03 0.  1.
         11   -1    0    0    0    0 -0.00000000000E+00 -0.00000000000E+00 -0.45593999997E+02  0.45594000000E+02  0.51100000000E-03 0. -1.
    9900012    2    1    2    0    0 -0.63902238781E+00  0.47534044001E+00 -0.87088686927E+00  0.90007855058E+02  0.90000117944E+02 0.  0.
         12    1    1    2    0    0  0.63902238781E+00 -0.47534044001E+00  0.87088686927E+00  0.11801449424E+01  0.00000000000E+00 0. -1.
         11    1    3    3    0    0  0.34139403800E+02 -0.16612931683E+02 -0.64163940946E+01  0.38505304886E+02  0.51100000000E-03 0. -1.
        -11    1    3    3    0    0  0.32753896028E+01  0.10166331793E+01  0.94082761752E+01  0.10013859442E+02  0.51100000000E-03 0.  1.
        -12    1    3    3    0    0 -0.38053815790E+02  0.16071638944E+02 -0.38627689499E+01  0.41488690730E+02  0.00000000000E+00 0.  1.
</event>
<event>
 7    1  0.4096472E-015  0.9000773E+02  0.7816164E-02  0.1186339E+00
        -11   -1    0    0    0    0  0.00000000000E+00  0.00000000000E+00  0.45593999997E+02  0.45594000000E+02  0.51100000000E-03 0. -1.
         11   -1    0    0    0    0 -0.00000000000E+00 -0.00000000000E+00 -0.45593999997E+02  0.45594000000E+02  0.51100000000E-03 0.  1.
    9900012    2    1    2    0    0  0.49530796658E+00  0.45680050846E+00 -0.96904077023E+00  0.90007730242E+02  0.89999991482E+02 0.  0.
         12    1    1    2    0    0 -0.49530796658E+00 -0.45680050846E+00  0.96904077023E+00  0.11802697576E+01  0.00000000000E+00 0. -1.
         11    1    3    3    0    0 -0.90024954919E+01 -0.31119935224E+01 -0.52058178610E+01  0.10854951342E+02  0.51100000000E-03 0. -1.
        -11    1    3    3    0    0 -0.35284041161E+01 -0.36424924709E+02  0.58509535415E+01  0.37060200125E+02  0.51100000000E-03 0.  1.
         12    1    3    3    0    0  0.13026207575E+02  0.39993718740E+02 -0.16141764508E+01  0.42092578776E+02  0.00000000000E+00 0. -1.
</event>
<event>
 7    1  0.4096472E-015  0.9000773E+02  0.7816164E-02  0.1186339E+00
        -11   -1    0    0    0    0  0.00000000000E+00  0.00000000000E+00  0.45593999997E+02  0.45594000000E+02  0.51100000000E-03 0. -1.
         11   -1    0    0    0    0 -0.00000000000E+00 -0.00000000000E+00 -0.45593999997E+02  0.45594000000E+02  0.51100000000E-03 0.  1.
    9900012    2    1    2    0    0 -0.11480550220E+01  0.26853309324E+00 -0.53831470408E-01  0.90007729614E+02  0.89999990845E+02 0.  0.
         12    1    1    2    0    0  0.11480550220E+01 -0.26853309324E+00  0.53831470408E-01  0.11802703855E+01  0.00000000000E+00 0. -1.
         11    1    3    3    0    0  0.29476484211E+02 -0.16033868627E+02 -0.14886531875E+02  0.36709084654E+02  0.51100000000E-03 0. -1.
        -11    1    3    3    0    0  0.46808276749E+01 -0.72409487382E+01  0.39863839260E+01  0.94990917154E+01  0.51100000000E-03 0.  1.
        -12    1    3    3    0    0 -0.35305366908E+02  0.23543350458E+02  0.10846316478E+02  0.43799553245E+02  0.00000000000E+00 0.  1.
</event>
<event>
 7    1  0.4096472E-015  0.9000790E+02  0.7816164E-02  0.1186339E+00
        -11   -1    0    0    0    0  0.00000000000E+00  0.00000000000E+00  0.45593999997E+02  0.45594000000E+02  0.51100000000E-03 0. -1.
         11   -1    0    0    0    0 -0.00000000000E+00 -0.00000000000E+00 -0.45593999997E+02  0.45594000000E+02  0.51100000000E-03 0.  1.
    9900012    2    1    2    0    0  0.12704096732E+00 -0.13862903257E+00 -0.11650233000E+01  0.90007899705E+02  0.90000163181E+02 0.  0.
         12    1    1    2    0    0 -0.12704096732E+00  0.13862903257E+00  0.11650233000E+01  0.11801002948E+01  0.00000000000E+00 0. -1.
         11    1    3    3    0    0 -0.17625665783E+01  0.39556857509E+02  0.14314048392E+02  0.42103961792E+02  0.51100000000E-03 0. -1.
        -11    1    3    3    0    0  0.62052170003E+01 -0.33263437369E+01 -0.77545845029E+01  0.10473913392E+02  0.51100000000E-03 0.  1.
        -12    1    3    3    0    0 -0.43156094547E+01 -0.36369142805E+02 -0.77244871895E+01  0.37430024521E+02  0.00000000000E+00 0.  1.
</event>
<event>
 7    1  0.4096472E-015  0.9000769E+02  0.7816164E-02  0.1186339E+00
        -11   -1    0    0    0    0  0.00000000000E+00  0.00000000000E+00  0.45593999997E+02  0.45594000000E+02  0.51100000000E-03 0. -1.
         11   -1    0    0    0    0 -0.00000000000E+00 -0.00000000000E+00 -0.45593999997E+02  0.45594000000E+02  0.51100000000E-03 0.  1.
    9900012    2    1    2    0    0  0.77206089540E+00  0.85021393327E+00  0.27239923587E+00  0.90007685168E+02  0.89999945812E+02 0.  0.
         12    1    1    2    0    0 -0.77206089540E+00 -0.85021393327E+00 -0.27239923587E+00  0.11803148318E+01  0.00000000000E+00 0. -1.
         11    1    3    3    0    0 -0.34036554032E+01  0.56699699279E+01 -0.75784779163E+01  0.10058168664E+02  0.51100000000E-03 0. -1.
        -11    1    3    3    0    0  0.23896064834E+01  0.36616271695E+02 -0.37441560789E+01  0.36884688923E+02  0.51100000000E-03 0.  1.
         12    1    3    3    0    0  0.17861098152E+01 -0.41436027689E+02  0.11595033231E+02  0.43064827581E+02  0.00000000000E+00 0. -1.
</event>
<event>
 7    1  0.4096472E-015  0.9000777E+02  0.7816164E-02  0.1186339E+00
        -11   -1    0    0    0    0  0.00000000000E+00  0.00000000000E+00  0.45593999997E+02  0.45594000000E+02  0.51100000000E-03 0.  1.
         11   -1    0    0    0    0 -0.00000000000E+00 -0.00000000000E+00 -0.45593999997E+02  0.45594000000E+02  0.51100000000E-03 0. -1.
    9900012    2    1    2    0    0 -0.57387625129E+00 -0.95330211156E+00 -0.39346518852E+00  0.90007773868E+02  0.90000035683E+02 0.  0.
         12    1    1    2    0    0  0.57387625129E+00  0.95330211156E+00  0.39346518852E+00  0.11802261318E+01  0.00000000000E+00 0. -1.
         11    1    3    3    0    0 -0.38299487276E+01  0.68075180163E+01  0.19315340812E+01  0.80462185507E+01  0.51100000000E-03 0. -1.
        -11    1    3    3    0    0 -0.13351365145E+01  0.10074492048E+02  0.37089512665E+02  0.38456597997E+02  0.51100000000E-03 0.  1.
         12    1    3    3    0    0  0.45912089908E+01 -0.17835312176E+02 -0.39414511934E+02  0.43504957320E+02  0.00000000000E+00 0. -1.
</event>
<event>
 7    1  0.4096472E-015  0.9000782E+02  0.7816164E-02  0.1186339E+00
        -11   -1    0    0    0    0  0.00000000000E+00  0.00000000000E+00  0.45593999997E+02  0.45594000000E+02  0.51100000000E-03 0. -1.
         11   -1    0    0    0    0 -0.00000000000E+00 -0.00000000000E+00 -0.45593999997E+02  0.45594000000E+02  0.51100000000E-03 0.  1.
    9900012    2    1    2    0    0 -0.80882957993E+00  0.81948459193E+00 -0.25897653409E+00  0.90007818179E+02  0.90000080579E+02 0.  0.
         12    1    1    2    0    0  0.80882957993E+00 -0.81948459193E+00  0.25897653409E+00  0.11801818212E+01  0.00000000000E+00 0. -1.
         11    1    3    3    0    0 -0.64708591437E+01 -0.67826090839E+00 -0.19094213109E+02  0.20172283718E+02  0.51100000000E-03 0. -1.
        -11    1    3    3    0    0  0.14704008278E+02 -0.28186052883E+02 -0.29408783093E+01  0.31926637814E+02  0.51100000000E-03 0.  1.
         12    1    3    3    0    0 -0.90419787146E+01  0.29683798384E+02  0.21776114884E+02  0.37908896647E+02  0.00000000000E+00 0. -1.
</event>
<event>
 7    1  0.4096472E-015  0.9000756E+02  0.7816164E-02  0.1186339E+00
        -11   -1    0    0    0    0  0.00000000000E+00  0.00000000000E+00  0.45593999997E+02  0.45594000000E+02  0.51100000000E-03 0.  1.
         11   -1    0    0    0    0 -0.00000000000E+00 -0.00000000000E+00 -0.45593999997E+02  0.45594000000E+02  0.51100000000E-03 0. -1.
    9900012    2    1    2    0    0 -0.37430309626E+00 -0.85261535635E+00  0.72551694446E+00  0.90007563390E+02  0.89999822426E+02 0.  0.
         12    1    1    2    0    0  0.37430309626E+00  0.85261535635E+00 -0.72551694446E+00  0.11804366101E+01  0.00000000000E+00 0. -1.
         11    1    3    3    0    0 -0.26255683963E+02 -0.18739510482E+02 -0.16036932228E+02  0.36023789210E+02  0.51100000000E-03 0. -1.
        -11    1    3    3    0    0 -0.33808534915E+01 -0.96605574045E+01 -0.49352812464E+00  0.10246956132E+02  0.51100000000E-03 0.  1.
        -12    1    3    3    0    0  0.29262234358E+02  0.27547452530E+02  0.17255977297E+02  0.43736818049E+02  0.00000000000E+00 0.  1.
</event>
<event>
 7    1  0.4096472E-015  0.9000772E+02  0.7816164E-02  0.1186339E+00
        -11   -1    0    0    0    0  0.00000000000E+00  0.00000000000E+00  0.45593999997E+02  0.45594000000E+02  0.51100000000E-03 0.  1.
         11   -1    0    0    0    0 -0.00000000000E+00 -0.00000000000E+00 -0.45593999997E+02  0.45594000000E+02  0.51100000000E-03 0. -1.
    9900012    2    1    2    0    0 -0.38984317366E+00  0.88901674768E-01  0.11104827645E+01  0.90007723262E+02  0.89999984409E+02 0.  0.
         12    1    1    2    0    0  0.38984317366E+00 -0.88901674768E-01 -0.11104827645E+01  0.11802767379E+01  0.00000000000E+00 0. -1.
         11    1    3    3    0    0  0.68223769394E+01  0.10228995111E+02 -0.15395861462E+01  0.12391428241E+02  0.51100000000E-03 0. -1.
        -11    1    3    3    0    0 -0.34513981383E+02 -0.74044250550E+01  0.24139741458E+02  0.42764091703E+02  0.51100000000E-03 0.  1.
         12    1    3    3    0    0  0.27301761270E+02 -0.27356683813E+01 -0.21489672547E+02  0.34852203318E+02  0.00000000000E+00 0. -1.
</event>
<event>
 7    1  0.4096472E-015  0.9000791E+02  0.7816164E-02  0.1186339E+00
        -11   -1    0    0    0    0  0.00000000000E+00  0.00000000000E+00  0.45593999997E+02  0.45594000000E+02  0.51100000000E-03 0. -1.
         11   -1    0    0    0    0 -0.00000000000E+00 -0.00000000000E+00 -0.45593999997E+02  0.45594000000E+02  0.51100000000E-03 0.  1.
    9900012    2    1    2    0    0 -0.56981605708E+00  0.41116164176E+00 -0.94808977725E+00  0.90007907436E+02  0.90000171014E+02 0.  0.
         12    1    1    2    0    0  0.56981605708E+00 -0.41116164176E+00  0.94808977725E+00  0.11800925643E+01  0.00000000000E+00 0. -1.
         11    1    3    3    0    0  0.18336881353E+02 -0.25966536680E+02  0.16288881879E+02  0.35718761429E+02  0.51100000000E-03 0. -1.
        -11    1    3    3    0    0 -0.91635287442E+01 -0.71400400227E+01  0.52705665432E+01  0.12756539598E+02  0.51100000000E-03 0.  1.
        -12    1    3    3    0    0 -0.97431686656E+01  0.33517738344E+02 -0.22507538199E+02  0.41532606409E+02  0.00000000000E+00 0.  1.
</event>
<event>
 7    1  0.4096472E-015  0.9000708E+02  0.7816164E-02  0.1186340E+00
        -11   -1    0    0    0    0  0.00000000000E+00  0.00000000000E+00  0.45593999997E+02  0.45594000000E+02  0.51100000000E-03 0.  1.
         11   -1    0    0    0    0 -0.00000000000E+00 -0.00000000000E+00 -0.45593999997E+02  0.45594000000E+02  0.51100000000E-03 0. -1.
    9900012    2    1    2    0    0 -0.14821754659E+00  0.84693838011E+00  0.80950879336E+00  0.90007077671E+02  0.89999330294E+02 0.  0.
         12    1    1    2    0    0  0.14821754659E+00 -0.84693838011E+00 -0.80950879336E+00  0.11809223291E+01  0.00000000000E+00 0. -1.
         11    1    3    3    0    0  0.79429072876E+01 -0.22723516260E+01 -0.60751332727E+01  0.10254784378E+02  0.51100000000E-03 0. -1.
        -11    1    3    3    0    0  0.26638771272E+02 -0.13752865983E+02  0.23127535087E+02  0.37863548923E+02  0.51100000000E-03 0.  1.
         12    1    3    3    0    0 -0.34729896106E+02  0.16872155989E+02 -0.16242893021E+02  0.41888744370E+02  0.00000000000E+00 0. -1.
</event>
<event>
 7    1  0.4096472E-015  0.9000770E+02  0.7816164E-02  0.1186339E+00
        -11   -1    0    0    0    0  0.00000000000E+00  0.00000000000E+00  0.45593999997E+02  0.45594000000E+02  0.51100000000E-03 0.  1.
         11   -1    0    0    0    0 -0.00000000000E+00 -0.00000000000E+00 -0.45593999997E+02  0.45594000000E+02  0.51100000000E-03 0. -1.
    9900012    2    1    2    0    0  0.11561070665E+01  0.23458410337E+00  0.38671020639E-01  0.90007699742E+02  0.89999960579E+02 0.  0.
         12    1    1    2    0    0 -0.11561070665E+01 -0.23458410337E+00 -0.38671020639E-01  0.11803002578E+01  0.00000000000E+00 0. -1.
         11    1    3    3    0    0 -0.60976026778E+01 -0.84237778285E+00  0.57093351504E+01  0.83956457087E+01  0.51100000000E-03 0. -1.
        -11    1    3    3    0    0 -0.39272335791E+01  0.36605482903E+02 -0.19768090903E+02  0.41787102799E+02  0.51100000000E-03 0.  1.
         12    1    3    3    0    0  0.11180943323E+02 -0.35528521017E+02  0.14097426773E+02  0.39824951235E+02  0.00000000000E+00 0. -1.
</event>
<event>
 7    1  0.4096472E-015  0.9000774E+02  0.7816164E-02  0.1186339E+00
        -11   -1    0    0    0    0  0.00000000000E+00  0.00000000000E+00  0.45593999997E+02  0.45594000000E+02  0.51100000000E-03 0.  1.
         11   -1    0    0    0    0 -0.00000000000E+00 -0.00000000000E+00 -0.45593999997E+02  0.45594000000E+02  0.51100000000E-03 0. -1.
    9900012    2    1    2    0    0  0.34173900687E+00 -0.57613102955E+00  0.97175539390E+00  0.90007736869E+02  0.89999998196E+02 0.  0.
         12    1    1    2    0    0 -0.34173900687E+00  0.57613102955E+00 -0.97175539390E+00  0.11802631307E+01  0.00000000000E+00 0. -1.
         11    1    3    3    0    0  0.23563299969E+02 -0.12246577928E+02 -0.26589750592E+02  0.37579550465E+02  0.51100000000E-03 0. -1.
        -11    1    3    3    0    0  0.80922720162E+01 -0.10542140093E+01 -0.94046593694E+00  0.82146643268E+01  0.51100000000E-03 0.  1.
        -12    1    3    3    0    0 -0.31313832978E+02  0.12724660907E+02  0.28501971923E+02  0.44213522077E+02  0.00000000000E+00 0.  1.
</event>
<event>
 7    1  0.4096472E-015  0.9000774E+02  0.7816164E-02  0.1186339E+00
        -11   -1    0    0    0    0  0.00000000000E+00  0.00000000000E+00  0.45593999997E+02  0.45594000000E+02  0.51100000000E-03 0.  1.
         11   -1    0    0    0    0 -0.00000000000E+00 -0.00000000000E+00 -0.45593999997E+02  0.45594000000E+02  0.51100000000E-03 0. -1.
    9900012    2    1    2    0    0  0.15012473263E+00 -0.10811291311E+01 -0.44902718437E+00  0.90007744500E+02  0.90000005927E+02 0.  0.
         12    1    1    2    0    0 -0.15012473263E+00  0.10811291311E+01  0.44902718437E+00  0.11802555002E+01  0.00000000000E+00 0. -1.
         11    1    3    3    0    0  0.62561008173E-01 -0.61689001083E+01  0.60347380371E+01  0.86300235146E+01  0.51100000000E-03 0. -1.
        -11    1    3    3    0    0  0.25262186249E+02 -0.27215167499E+02  0.79134566213E+01  0.37966645783E+02  0.51100000000E-03 0.  1.
         12    1    3    3    0    0 -0.25174622525E+02  0.32302938476E+02 -0.14397221843E+02  0.43411075202E+02  0.00000000000E+00 0. -1.
</event>
<event>
 7    1  0.4096472E-015  0.9000804E+02  0.7816164E-02  0.1186338E+00
        -11   -1    0    0    0    0  0.00000000000E+00  0.00000000000E+00  0.45593999997E+02  0.45594000000E+02  0.51100000000E-03 0. -1.
         11   -1    0    0    0    0 -0.00000000000E+00 -0.00000000000E+00 -0.45593999997E+02  0.45594000000E+02  0.51100000000E-03 0.  1.
    9900012    2    1    2    0    0 -0.93316159611E+00  0.70734102782E+00  0.14551716574E+00  0.90008043586E+02  0.90000308961E+02 0.  0.
         12    1    1    2    0    0  0.93316159611E+00 -0.70734102782E+00 -0.14551716574E+00  0.11799564143E+01  0.00000000000E+00 0. -1.
         11    1    3    3    0    0  0.50317454199E+01  0.68343007547E+01 -0.79127826618E+00  0.85236289415E+01  0.51100000000E-03 0. -1.
        -11    1    3    3    0    0  0.32027914064E+02  0.17065325841E+02 -0.47896322752E+01  0.36605371230E+02  0.51100000000E-03 0.  1.
         12    1    3    3    0    0 -0.37992821080E+02 -0.23192285568E+02  0.57264277071E+01  0.44879043414E+02  0.00000000000E+00 0. -1.
</event>
<event>
 7    1  0.4096472E-015  0.9000825E+02  0.7816164E-02  0.1186338E+00
        -11   -1    0    0    0    0  0.00000000000E+00  0.00000000000E+00  0.45593999997E+02  0.45594000000E+02  0.51100000000E-03 0. -1.
         11   -1    0    0    0    0 -0.00000000000E+00 -0.00000000000E+00 -0.45593999997E+02  0.45594000000E+02  0.51100000000E-03 0.  1.
    9900012    2    1    2    0    0  0.63747817907E+00 -0.78415103405E+00 -0.60872790771E+00  0.90008245391E+02  0.90000513428E+02 0.  0.
         12    1    1    2    0    0 -0.63747817907E+00  0.78415103405E+00  0.60872790771E+00  0.11797546095E+01  0.00000000000E+00 0. -1.
         11    1    3    3    0    0  0.33457568642E+02 -0.21644216862E+02  0.19477669209E+02  0.44353811798E+02  0.51100000000E-03 0. -1.
        -11    1    3    3    0    0 -0.25574104471E+01  0.65447414578E+01 -0.63408080754E+01  0.94646625008E+01  0.51100000000E-03 0.  1.
        -12    1    3    3    0    0 -0.30262680015E+02  0.14315324370E+02 -0.13745589042E+02  0.36189771091E+02  0.00000000000E+00 0.  1.
</event>
<event>
 7    1  0.4096472E-015  0.9000781E+02  0.7816164E-02  0.1186339E+00
        -11   -1    0    0    0    0  0.00000000000E+00  0.00000000000E+00  0.45593999997E+02  0.45594000000E+02  0.51100000000E-03 0.  1.
         11   -1    0    0    0    0 -0.00000000000E+00 -0.00000000000E+00 -0.45593999997E+02  0.45594000000E+02  0.51100000000E-03 0. -1.
    9900012    2    1    2    0    0  0.56500444317E+00  0.48946327614E+00  0.91325438503E+00  0.90007814467E+02  0.90000076818E+02 0.  0.
         12    1    1    2    0    0 -0.56500444317E+00 -0.48946327614E+00 -0.91325438503E+00  0.11801855326E+01  0.00000000000E+00 0. -1.
         11    1    3    3    0    0 -0.35535768363E+02 -0.21702989714E+02 -0.71021552348E+01  0.42240397783E+02  0.51100000000E-03 0. -1.
        -11    1    3    3    0    0  0.31116720735E+01  0.80144567036E+01 -0.45480176920E+01  0.97261752264E+01  0.51100000000E-03 0.  1.
        -12    1    3    3    0    0  0.32989100732E+02  0.14177996287E+02  0.12563427312E+02  0.38041241458E+02  0.00000000000E+00 0.  1.
</event>
<event>
 7    1  0.4096472E-015  0.9000773E+02  0.7816164E-02  0.1186339E+00
        -11   -1    0    0    0    0  0.00000000000E+00  0.00000000000E+00  0.45593999997E+02  0.45594000000E+02  0.51100000000E-03 0.  1.
         11   -1    0    0    0    0 -0.00000000000E+00 -0.00000000000E+00 -0.45593999997E+02  0.45594000000E+02  0.51100000000E-03 0. -1.
    9900012    2    1    2    0    0 -0.35867524666E-01  0.10142740196E+01  0.60248668684E+00  0.90007733728E+02  0.89999995013E+02 0.  0.
         12    1    1    2    0    0  0.35867524666E-01 -0.10142740196E+01 -0.60248668684E+00  0.11802662725E+01  0.00000000000E+00 0. -1.
         11    1    3    3    0    0  0.71220913531E+01  0.23052767100E+02 -0.27360028461E+02  0.36479109280E+02  0.51100000000E-03 0. -1.
        -11    1    3    3    0    0  0.19741473516E+01 -0.18298483545E+01 -0.95660739973E+01  0.99375738865E+01  0.51100000000E-03 0.  1.
        -12    1    3    3    0    0 -0.91321062294E+01 -0.20208644726E+02  0.37528589145E+02  0.43591050561E+02  0.00000000000E+00 0.  1.
</event>
<event>
 7    1  0.4096472E-015  0.9000775E+02  0.7816164E-02  0.1186339E+00
        -11   -1    0    0    0    0  0.00000000000E+00  0.00000000000E+00  0.45593999997E+02  0.45594000000E+02  0.51100000000E-03 0.  1.
         11   -1    0    0    0    0 -0.00000000000E+00 -0.00000000000E+00 -0.45593999997E+02  0.45594000000E+02  0.51100000000E-03 0. -1.
    9900012    2    1    2    0    0 -0.55960452424E+00 -0.58121600734E+00  0.86140897675E+00  0.90007748037E+02  0.90000009511E+02 0.  0.
         12    1    1    2    0    0  0.55960452424E+00  0.58121600734E+00 -0.86140897675E+00  0.11802519629E+01  0.00000000000E+00 0. -1.
         11    1    3    3    0    0 -0.30393799509E+02 -0.17608608881E+02 -0.16482097080E+02  0.38800846379E+02  0.51100000000E-03 0. -1.
        -11    1    3    3    0    0 -0.44809664087E+01 -0.52462318245E+01  0.48429102227E+01  0.84294595318E+01  0.51100000000E-03 0.  1.
        -12    1    3    3    0    0  0.34315161393E+02  0.22273624698E+02  0.12500595834E+02  0.42777442126E+02  0.00000000000E+00 0.  1.
</event>
<event>
 7    1  0.4096472E-015  0.9000772E+02  0.7816164E-02  0.1186339E+00
        -11   -1    0    0    0    0  0.00000000000E+00  0.00000000000E+00  0.45593999997E+02  0.45594000000E+02  0.51100000000E-03 0. -1.
         11   -1    0    0    0    0 -0.00000000000E+00 -0.00000000000E+00 -0.45593999997E+02  0.45594000000E+02  0.51100000000E-03 0.  1.
    9900012    2    1    2    0    0  0.75259726290E+00  0.34225269819E-01 -0.90855818916E+00  0.90007723764E+02  0.89999984918E+02 0.  0.
         12    1    1    2    0    0 -0.75259726290E+00 -0.34225269819E-01  0.90855818916E+00  0.11802762356E+01  0.00000000000E+00 0. -1.
         11    1    3    3    0    0 -0.36224005353E+01  0.92165985670E+01 -0.54861050893E+01  0.11320990420E+02  0.51100000000E-03 0. -1.
        -11    1    3    3    0    0  0.33615512185E+02  0.16622551377E+02 -0.66900271576E+01  0.38092890903E+02  0.51100000000E-03 0.  1.
         12    1    3    3    0    0 -0.29240514386E+02 -0.25804924674E+02  0.11267574058E+02  0.40593842441E+02  0.00000000000E+00 0. -1.
</event>
<event>
 7    1  0.4096472E-015  0.9000771E+02  0.7816164E-02  0.1186339E+00
        -11   -1    0    0    0    0  0.00000000000E+00  0.00000000000E+00  0.45593999997E+02  0.45594000000E+02  0.51100000000E-03 0. -1.
         11   -1    0    0    0    0 -0.00000000000E+00 -0.00000000000E+00 -0.45593999997E+02  0.45594000000E+02  0.51100000000E-03 0.  1.
    9900012    2    1    2    0    0  0.59370380165E+00 -0.27097156547E+00 -0.98345373234E+00  0.90007707224E+02  0.89999968159E+02 0.  0.
         12    1    1    2    0    0 -0.59370380165E+00  0.27097156547E+00  0.98345373234E+00  0.11802927760E+01  0.00000000000E+00 0. -1.
         11    1    3    3    0    0 -0.87497274594E+01  0.34761389888E+01  0.25585581603E+01  0.97564077920E+01  0.51100000000E-03 0. -1.
        -11    1    3    3    0    0  0.93299378409E+00  0.33894231029E+02 -0.18803792453E+02  0.38772051601E+02  0.51100000000E-03 0.  1.
         12    1    3    3    0    0  0.84104374769E+01 -0.37641341584E+02  0.15261780560E+02  0.41479247831E+02  0.00000000000E+00 0. -1.
</event>
<event>
 7    1  0.4096472E-015  0.9000775E+02  0.7816164E-02  0.1186339E+00
        -11   -1    0    0    0    0  0.00000000000E+00  0.00000000000E+00  0.45593999997E+02  0.45594000000E+02  0.51100000000E-03 0.  1.
         11   -1    0    0    0    0 -0.00000000000E+00 -0.00000000000E+00 -0.45593999997E+02  0.45594000000E+02  0.51100000000E-03 0. -1.
    9900012    2    1    2    0    0 -0.47859165724E-01 -0.25328456313E+00  0.11517537156E+01  0.90007754182E+02  0.90000015737E+02 0.  0.
         12    1    1    2    0    0  0.47859165724E-01  0.25328456313E+00 -0.11517537156E+01  0.11802458181E+01  0.00000000000E+00 0. -1.
         11    1    3    3    0    0 -0.59442282704E+01  0.49154246629E+01  0.55560848126E+00  0.77333013903E+01  0.51100000000E-03 0. -1.
        -11    1    3    3    0    0  0.29558626452E+02  0.28084860605E+02  0.55986234839E+01  0.41156000511E+02  0.51100000000E-03 0.  1.
         12    1    3    3    0    0 -0.23662257347E+02 -0.33253569831E+02 -0.50024782495E+01  0.41118452280E+02  0.00000000000E+00 0. -1.
</event>
<event>
 7    1  0.4096472E-015  0.9000767E+02  0.7816164E-02  0.1186339E+00
        -11   -1    0    0    0    0  0.00000000000E+00  0.00000000000E+00  0.45593999997E+02  0.45594000000E+02  0.51100000000E-03 0. -1.
         11   -1    0    0    0    0 -0.00000000000E+00 -0.00000000000E+00 -0.45593999997E+02  0.45594000000E+02  0.51100000000E-03 0.  1.
    9900012    2    1    2    0    0  0.11123697920E+01 -0.16081276101E+00 -0.36049921274E+00  0.90007666581E+02  0.89999926980E+02 0.  0.
         12    1    1    2    0    0 -0.11123697920E+01  0.16081276101E+00  0.36049921274E+00  0.11803334193E+01  0.00000000000E+00 0. -1.
         11    1    3    3    0    0 -0.22274503573E+02  0.29877117406E+02  0.98469289962E+01  0.38545527170E+02  0.51100000000E-03 0. -1.
        -11    1    3    3    0    0 -0.61563083461E+01  0.12275571917E+01 -0.52089772283E+01  0.81572344049E+01  0.51100000000E-03 0.  1.
        -12    1    3    3    0    0  0.29543181711E+02 -0.31265487359E+02 -0.49984509807E+01  0.43304905006E+02  0.00000000000E+00 0.  1.
</event>
<event>
 7    1  0.5246514E-015  0.9000766E+02  0.7816164E-02  0.1186339E+00
        -11   -1    0    0    0    0  0.00000000000E+00  0.00000000000E+00  0.45593999997E+02  0.45594000000E+02  0.51100000000E-03 0. -1.
         11   -1    0    0    0    0 -0.00000000000E+00 -0.00000000000E+00 -0.45593999997E+02  0.45594000000E+02  0.51100000000E-03 0.  1.
    9900012    2    1    2    0    0  0.10025382392E+01 -0.40431934819E+00 -0.47396112946E+00  0.90007662672E+02  0.89999923019E+02 0.  0.
         12    1    1    2    0    0 -0.10025382392E+01  0.40431934819E+00  0.47396112946E+00  0.11803373283E+01  0.00000000000E+00 0. -1.
         11    1    3    3    0    0 -0.25272435247E+02  0.13660880586E+02  0.25997306414E+02  0.38745007197E+02  0.51100000000E-03 0. -1.
        -11    1    3    3    0    0  0.43928721660E+01  0.84429927710E+01  0.97129147736E+00  0.95668626097E+01  0.51100000000E-03 0.  1.
        -12    1    3    3    0    0  0.21882101320E+02 -0.22508192705E+02 -0.27442559021E+02  0.41695792865E+02  0.00000000000E+00 0.  1.
</event>
<event>
 7    1  0.4096472E-015  0.9000777E+02  0.7816164E-02  0.1186339E+00
        -11   -1    0    0    0    0  0.00000000000E+00  0.00000000000E+00  0.45593999997E+02  0.45594000000E+02  0.51100000000E-03 0.  1.
         11   -1    0    0    0    0 -0.00000000000E+00 -0.00000000000E+00 -0.45593999997E+02  0.45594000000E+02  0.51100000000E-03 0. -1.
    9900012    2    1    2    0    0 -0.26424142001E+00  0.10890100940E+01  0.37038787450E+00  0.90007765409E+02  0.90000027112E+02 0.  0.
         12    1    1    2    0    0  0.26424142001E+00 -0.10890100940E+01 -0.37038787450E+00  0.11802345912E+01  0.00000000000E+00 0. -1.
         11    1    3    3    0    0 -0.31696841078E+02  0.60403092644E+01 -0.21501967054E+02  0.38775116476E+02  0.51100000000E-03 0. -1.
        -11    1    3    3    0    0 -0.71490299090E+01 -0.24933584118E+01  0.48470718279E+01  0.89899705436E+01  0.51100000000E-03 0.  1.
        -12    1    3    3    0    0  0.38581629567E+02 -0.24579407586E+01  0.17025283100E+02  0.42242678389E+02  0.00000000000E+00 0.  1.
</event>
<event>
 7    1  0.4096472E-015  0.9000785E+02  0.7816164E-02  0.1186339E+00
        -11   -1    0    0    0    0  0.00000000000E+00  0.00000000000E+00  0.45593999997E+02  0.45594000000E+02  0.51100000000E-03 0. -1.
         11   -1    0    0    0    0 -0.00000000000E+00 -0.00000000000E+00 -0.45593999997E+02  0.45594000000E+02  0.51100000000E-03 0.  1.
    9900012    2    1    2    0    0 -0.30611093310E-01  0.88008962130E+00 -0.78565308860E+00  0.90007853587E+02  0.90000116454E+02 0.  0.
         12    1    1    2    0    0  0.30611093310E-01 -0.88008962130E+00  0.78565308860E+00  0.11801464130E+01  0.00000000000E+00 0. -1.
         11    1    3    3    0    0 -0.45150618378E+01  0.55461249254E+01 -0.70964973481E+01  0.10074996772E+02  0.51100000000E-03 0. -1.
        -11    1    3    3    0    0  0.35679760314E+02  0.18625469221E+02 -0.12777202427E+01  0.40268920634E+02  0.51100000000E-03 0.  1.
         12    1    3    3    0    0 -0.31195309569E+02 -0.23291504525E+02  0.75885645021E+01  0.39663936181E+02  0.00000000000E+00 0. -1.
</event>
<event>
 7    1  0.4096472E-015  0.9000775E+02  0.7816164E-02  0.1186339E+00
        -11   -1    0    0    0    0  0.00000000000E+00  0.00000000000E+00  0.45593999997E+02  0.45594000000E+02  0.51100000000E-03 0.  1.
         11   -1    0    0    0    0 -0.00000000000E+00 -0.00000000000E+00 -0.45593999997E+02  0.45594000000E+02  0.51100000000E-03 0. -1.
    9900012    2    1    2    0    0  0.42033401743E+00 -0.78036501732E+00  0.77931919586E+00  0.90007750596E+02  0.90000012104E+02 0.  0.
         12    1    1    2    0    0 -0.42033401743E+00  0.78036501732E+00 -0.77931919586E+00  0.11802494039E+01  0.00000000000E+00 0. -1.
         11    1    3    3    0    0 -0.36896330845E+01 -0.28740921884E+01  0.72945399430E+01  0.86651088537E+01  0.51100000000E-03 0. -1.
        -11    1    3    3    0    0 -0.96143315655E+01 -0.33851455624E+02  0.13839878182E+02  0.37814000683E+02  0.51100000000E-03 0.  1.
         12    1    3    3    0    0  0.13724298667E+02  0.35945182795E+02 -0.20355098929E+02  0.43528641059E+02  0.00000000000E+00 0. -1.
</event>
<event>
 7    1  0.4096472E-015  0.9000765E+02  0.7816164E-02  0.1186339E+00
        -11   -1    0    0    0    0  0.00000000000E+00  0.00000000000E+00  0.45593999997E+02  0.45594000000E+02  0.51100000000E-03 0.  1.
         11   -1    0    0    0    0 -0.00000000000E+00 -0.00000000000E+00 -0.45593999997E+02  0.45594000000E+02  0.51100000000E-03 0. -1.
    9900012    2    1    2    0    0  0.62904373192E-01 -0.69738272667E+00  0.95022762605E+00  0.90007647439E+02  0.89999907585E+02 0.  0.
         12    1    1    2    0    0 -0.62904373192E-01  0.69738272667E+00 -0.95022762605E+00  0.11803525613E+01  0.00000000000E+00 0. -1.
         11    1    3    3    0    0  0.11259936557E+02  0.10721758181E+02 -0.29253656022E+02  0.33128819186E+02  0.51100000000E-03 0. -1.
        -11    1    3    3    0    0  0.57943354741E+01 -0.30717841730E+01 -0.10276306117E+02  0.12190678786E+02  0.51100000000E-03 0.  1.
        -12    1    3    3    0    0 -0.16991367658E+02 -0.83473567347E+01  0.40480189765E+02  0.44688149467E+02  0.00000000000E+00 0.  1.
</event>
<event>
 7    1  0.4096472E-015  0.9000805E+02  0.7816164E-02  0.1186338E+00
        -11   -1    0    0    0    0  0.00000000000E+00  0.00000000000E+00  0.45593999997E+02  0.45594000000E+02  0.51100000000E-03 0.  1.
         11   -1    0    0    0    0 -0.00000000000E+00 -0.00000000000E+00 -0.45593999997E+02  0.45594000000E+02  0.51100000000E-03 0. -1.
    9900012    2    1    2    0    0 -0.11068900063E+01  0.40791288967E+00  0.26286863886E-01  0.90008046861E+02  0.90000312279E+02 0.  0.
         12    1    1    2    0    0  0.11068900063E+01 -0.40791288967E+00 -0.26286863886E-01  0.11799531392E+01  0.00000000000E+00 0. -1.
         11    1    3    3    0    0  0.16441849327E+02 -0.20739643930E+02 -0.20096484568E+02  0.33231550248E+02  0.51100000000E-03 0. -1.
        -11    1    3    3    0    0  0.24300657996E+01  0.17338772733E+02 -0.10201284629E+02  0.20263377508E+02  0.51100000000E-03 0.  1.
        -12    1    3    3    0    0 -0.19978805133E+02  0.38087840870E+01  0.30324056061E+02  0.36513119105E+02  0.00000000000E+00 0.  1.
</event>
<event>
 7    1  0.4096472E-015  0.9000777E+02  0.7816164E-02  0.1186339E+00
        -11   -1    0    0    0    0  0.00000000000E+00  0.00000000000E+00  0.45593999997E+02  0.45594000000E+02  0.51100000000E-03 0.  1.
         11   -1    0    0    0    0 -0.00000000000E+00 -0.00000000000E+00 -0.45593999997E+02  0.45594000000E+02  0.51100000000E-03 0. -1.
    9900012    2    1    2    0    0 -0.66877534405E+00  0.46966298794E-01 -0.97133069246E+00  0.90007767138E+02  0.90000028864E+02 0.  0.
         12    1    1    2    0    0  0.66877534405E+00 -0.46966298794E-01  0.97133069246E+00  0.11802328618E+01  0.00000000000E+00 0. -1.
         11    1    3    3    0    0 -0.10558749029E+02  0.12030988519E+02 -0.35063178477E+02  0.38544238882E+02  0.51100000000E-03 0. -1.
        -11    1    3    3    0    0  0.11262935887E+02 -0.68839089173E+01 -0.33762358195E+01  0.13625009921E+02  0.51100000000E-03 0.  1.
        -12    1    3    3    0    0 -0.13729622019E+01 -0.51001133026E+01  0.37468083604E+02  0.37838518336E+02  0.00000000000E+00 0.  1.
</event>
<event>
 7    1  0.4096472E-015  0.9000760E+02  0.7816164E-02  0.1186339E+00
        -11   -1    0    0    0    0  0.00000000000E+00  0.00000000000E+00  0.45593999997E+02  0.45594000000E+02  0.51100000000E-03 0. -1.
         11   -1    0    0    0    0 -0.00000000000E+00 -0.00000000000E+00 -0.45593999997E+02  0.45594000000E+02  0.51100000000E-03 0.  1.
    9900012    2    1    2    0    0 -0.88112008428E+00  0.44716495826E+00 -0.64577566635E+00  0.90007595275E+02  0.89999854733E+02 0.  0.
         12    1    1    2    0    0  0.88112008428E+00 -0.44716495826E+00  0.64577566635E+00  0.11804047247E+01  0.00000000000E+00 0. -1.
         11    1    3    3    0    0 -0.36787331925E+01 -0.28457711962E+01  0.84185680598E+01  0.96178885438E+01  0.51100000000E-03 0. -1.
        -11    1    3    3    0    0 -0.37630872455E+02 -0.38467264694E+01 -0.10673878974E+02  0.39304090866E+02  0.51100000000E-03 0.  1.
         12    1    3    3    0    0  0.40428485563E+02  0.71396626239E+01  0.16095352475E+01  0.41085615865E+02  0.00000000000E+00 0. -1.
</event>
<event>
 7    1  0.4096472E-015  0.9000762E+02  0.7816164E-02  0.1186339E+00
        -11   -1    0    0    0    0  0.00000000000E+00  0.00000000000E+00  0.45593999997E+02  0.45594000000E+02  0.51100000000E-03 0.  1.
         11   -1    0    0    0    0 -0.00000000000E+00 -0.00000000000E+00 -0.45593999997E+02  0.45594000000E+02  0.51100000000E-03 0. -1.
    9900012    2    1    2    0    0 -0.94399333996E+00  0.17190035637E+00  0.68747744225E+00  0.90007619387E+02  0.89999879163E+02 0.  0.
         12    1    1    2    0    0  0.94399333996E+00 -0.17190035637E+00 -0.68747744225E+00  0.11803806132E+01  0.00000000000E+00 0. -1.
         11    1    3    3    0    0  0.17701629702E+01 -0.79241189182E+01  0.20565201249E+01  0.83758231151E+01  0.51100000000E-03 0. -1.
        -11    1    3    3    0    0  0.18641874561E+02  0.18958000883E+02  0.31331906050E+02  0.41092744148E+02  0.51100000000E-03 0.  1.
         12    1    3    3    0    0 -0.21356030872E+02 -0.10861981609E+02 -0.32700948733E+02  0.40539052123E+02  0.00000000000E+00 0. -1.
</event>
<event>
 7    1  0.4096472E-015  0.9000772E+02  0.7816164E-02  0.1186339E+00
        -11   -1    0    0    0    0  0.00000000000E+00  0.00000000000E+00  0.45593999997E+02  0.45594000000E+02  0.51100000000E-03 0.  1.
         11   -1    0    0    0    0 -0.00000000000E+00 -0.00000000000E+00 -0.45593999997E+02  0.45594000000E+02  0.51100000000E-03 0. -1.
    9900012    2    1    2    0    0  0.40886402140E+00  0.67935023974E+00  0.87428822537E+00  0.90007717645E+02  0.89999978718E+02 0.  0.
         12    1    1    2    0    0 -0.40886402140E+00 -0.67935023974E+00 -0.87428822537E+00  0.11802823549E+01  0.00000000000E+00 0. -1.
         11    1    3    3    0    0 -0.54092395744E+01 -0.34997333912E+02  0.10165177952E+02  0.36842965363E+02  0.51100000000E-03 0. -1.
        -11    1    3    3    0    0 -0.13433386791E+01 -0.78925429464E+01 -0.30714967239E+01  0.85750151810E+01  0.51100000000E-03 0.  1.
        -12    1    3    3    0    0  0.71614422749E+01  0.43569227098E+02 -0.62193930028E+01  0.44589737101E+02  0.00000000000E+00 0.  1.
</event>
<event>
 7    1  0.4096472E-015  0.9000776E+02  0.7816164E-02  0.1186339E+00
        -11   -1    0    0    0    0  0.00000000000E+00  0.00000000000E+00  0.45593999997E+02  0.45594000000E+02  0.51100000000E-03 0.  1.
         11   -1    0    0    0    0 -0.00000000000E+00 -0.00000000000E+00 -0.45593999997E+02  0.45594000000E+02  0.51100000000E-03 0. -1.
    9900012    2    1    2    0    0 -0.20078748709E+00  0.20124541462E+00  0.11454956982E+01  0.90007756073E+02  0.90000017653E+02 0.  0.
         12    1    1    2    0    0  0.20078748709E+00 -0.20124541462E+00 -0.11454956982E+01  0.11802439267E+01  0.00000000000E+00 0. -1.
         11    1    3    3    0    0  0.65534304755E+01  0.15200963504E+01  0.82516365283E+01  0.10646485315E+02  0.51100000000E-03 0. -1.
        -11    1    3    3    0    0  0.23816675004E+01 -0.19924229569E+02  0.30448781588E+02  0.36466087869E+02  0.51100000000E-03 0.  1.
         12    1    3    3    0    0 -0.91358854629E+01  0.18605378633E+02 -0.37554922418E+02  0.42895182889E+02  0.00000000000E+00 0. -1.
</event>
<event>
 7    1  0.4096472E-015  0.9000761E+02  0.7816164E-02  0.1186339E+00
        -11   -1    0    0    0    0  0.00000000000E+00  0.00000000000E+00  0.45593999997E+02  0.45594000000E+02  0.51100000000E-03 0. -1.
         11   -1    0    0    0    0 -0.00000000000E+00 -0.00000000000E+00 -0.45593999997E+02  0.45594000000E+02  0.51100000000E-03 0.  1.
    9900012    2    1    2    0    0 -0.10925662865E+01  0.30199990012E+00 -0.32927993988E+00  0.90007605867E+02  0.89999865464E+02 0.  0.
         12    1    1    2    0    0  0.10925662865E+01 -0.30199990012E+00  0.32927993988E+00  0.11803941329E+01  0.00000000000E+00 0. -1.
         11    1    3    3    0    0  0.33520366745E+02 -0.55267632668E+01  0.13934961678E+02  0.36719793792E+02  0.51100000000E-03 0. -1.
        -11    1    3    3    0    0  0.34457354233E+01 -0.91104216921E+00  0.79468933670E+01  0.87095467671E+01  0.51100000000E-03 0.  1.
        -12    1    3    3    0    0 -0.38058668455E+02  0.67398053362E+01 -0.22211134984E+02  0.44578265308E+02  0.00000000000E+00 0.  1.
</event>
<event>
 7    1  0.4096472E-015  0.9000775E+02  0.7816164E-02  0.1186339E+00
        -11   -1    0    0    0    0  0.00000000000E+00  0.00000000000E+00  0.45593999997E+02  0.45594000000E+02  0.51100000000E-03 0.  1.
         11   -1    0    0    0    0 -0.00000000000E+00 -0.00000000000E+00 -0.45593999997E+02  0.45594000000E+02  0.51100000000E-03 0. -1.
    9900012    2    1    2    0    0 -0.67151374677E+00  0.89964439452E+00 -0.36428295430E+00  0.90007748832E+02  0.90000010317E+02 0.  0.
         12    1    1    2    0    0  0.67151374677E+00 -0.89964439452E+00  0.36428295430E+00  0.11802511680E+01  0.00000000000E+00 0. -1.
         11    1    3    3    0    0 -0.23632134155E+02 -0.30204566952E+02  0.19858044655E+01  0.38402305258E+02  0.51100000000E-03 0. -1.
        -11    1    3    3    0    0 -0.80626024760E+01  0.10676276931E+01 -0.21940157902E+01  0.84237220471E+01  0.51100000000E-03 0.  1.
        -12    1    3    3    0    0  0.31023222885E+02  0.30036583653E+02 -0.15607162959E+00  0.43181721527E+02  0.00000000000E+00 0.  1.
</event>
<event>
 7    1  0.4096472E-015  0.9000771E+02  0.7816164E-02  0.1186339E+00
        -11   -1    0    0    0    0  0.00000000000E+00  0.00000000000E+00  0.45593999997E+02  0.45594000000E+02  0.51100000000E-03 0.  1.
         11   -1    0    0    0    0 -0.00000000000E+00 -0.00000000000E+00 -0.45593999997E+02  0.45594000000E+02  0.51100000000E-03 0. -1.
    9900012    2    1    2    0    0 -0.34014129867E+00  0.11297032658E+01 -0.34152855160E-01  0.90007706821E+02  0.89999967751E+02 0.  0.
         12    1    1    2    0    0  0.34014129867E+00 -0.11297032658E+01  0.34152855160E-01  0.11802931794E+01  0.00000000000E+00 0. -1.
         11    1    3    3    0    0  0.12607332146E+01 -0.78496364686E+01 -0.13456437997E+02  0.15629522218E+02  0.51100000000E-03 0. -1.
        -11    1    3    3    0    0  0.34194343017E+01 -0.83026204574E+01  0.40711073718E+02  0.41689537787E+02  0.51100000000E-03 0.  1.
         12    1    3    3    0    0 -0.50203088149E+01  0.17281960192E+02 -0.27288788576E+02  0.32688646815E+02  0.00000000000E+00 0. -1.
</event>
<event>
 7    1  0.4096472E-015  0.9000779E+02  0.7816164E-02  0.1186339E+00
        -11   -1    0    0    0    0  0.00000000000E+00  0.00000000000E+00  0.45593999997E+02  0.45594000000E+02  0.51100000000E-03 0.  1.
         11   -1    0    0    0    0 -0.00000000000E+00 -0.00000000000E+00 -0.45593999997E+02  0.45594000000E+02  0.51100000000E-03 0. -1.
    9900012    2    1    2    0    0 -0.62080572115E+00  0.67439736065E+00  0.74342683323E+00  0.90007790273E+02  0.90000052305E+02 0.  0.
         12    1    1    2    0    0  0.62080572115E+00 -0.67439736065E+00 -0.74342683323E+00  0.11802097271E+01  0.00000000000E+00 0. -1.
         11    1    3    3    0    0  0.85803127552E+01  0.11638583459E+01 -0.82856584509E+01  0.11984509562E+02  0.51100000000E-03 0. -1.
        -11    1    3    3    0    0 -0.37267966770E+02  0.45785027485E+01 -0.15290019104E+02  0.40541937781E+02  0.51100000000E-03 0.  1.
         12    1    3    3    0    0  0.28066848294E+02 -0.50679637338E+01  0.24319104388E+02  0.37481342929E+02  0.00000000000E+00 0. -1.
</event>
<event>
 7    1  0.4096472E-015  0.9000772E+02  0.7816164E-02  0.1186339E+00
        -11   -1    0    0    0    0  0.00000000000E+00  0.00000000000E+00  0.45593999997E+02  0.45594000000E+02  0.51100000000E-03 0. -1.
         11   -1    0    0    0    0 -0.00000000000E+00 -0.00000000000E+00 -0.45593999997E+02  0.45594000000E+02  0.51100000000E-03 0.  1.
    9900012    2    1    2    0    0 -0.41629786026E+00 -0.93782564990E+00 -0.58329616730E+00  0.90007722373E+02  0.89999983508E+02 0.  0.
         12    1    1    2    0    0  0.41629786026E+00  0.93782564990E+00  0.58329616730E+00  0.11802776270E+01  0.00000000000E+00 0. -1.
         11    1    3    3    0    0 -0.49055910594E+01  0.59564882305E+01  0.41184464628E+00  0.77274958400E+01  0.51100000000E-03 0. -1.
        -11    1    3    3    0    0  0.12062863913E+02  0.35108850519E+02 -0.10447719638E+02  0.38565514601E+02  0.51100000000E-03 0.  1.
         12    1    3    3    0    0 -0.75735707140E+01 -0.42003164399E+02  0.94525788247E+01  0.43714711932E+02  0.00000000000E+00 0. -1.
</event>
<event>
 7    1  0.4096472E-015  0.9000776E+02  0.7816164E-02  0.1186339E+00
        -11   -1    0    0    0    0  0.00000000000E+00  0.00000000000E+00  0.45593999997E+02  0.45594000000E+02  0.51100000000E-03 0.  1.
         11   -1    0    0    0    0 -0.00000000000E+00 -0.00000000000E+00 -0.45593999997E+02  0.45594000000E+02  0.51100000000E-03 0. -1.
    9900012    2    1    2    0    0  0.18218201200E+00  0.87367135594E+00 -0.77231346549E+00  0.90007762730E+02  0.90000024398E+02 0.  0.
         12    1    1    2    0    0 -0.18218201200E+00 -0.87367135594E+00  0.77231346549E+00  0.11802372696E+01  0.00000000000E+00 0. -1.
         11    1    3    3    0    0  0.25252397255E+02  0.14872434726E+02  0.19767432260E+02  0.35350024897E+02  0.51100000000E-03 0. -1.
        -11    1    3    3    0    0  0.68631336661E+01  0.88888297032E+01 -0.62445356332E+01  0.12849440562E+02  0.51100000000E-03 0.  1.
        -12    1    3    3    0    0 -0.31933348909E+02 -0.22887593073E+02 -0.14295210092E+02  0.41808297272E+02  0.00000000000E+00 0.  1.
</event>
<event>
 7    1  0.4096472E-015  0.9000776E+02  0.7816164E-02  0.1186339E+00
        -11   -1    0    0    0    0  0.00000000000E+00  0.00000000000E+00  0.45593999997E+02  0.45594000000E+02  0.51100000000E-03 0.  1.
         11   -1    0    0    0    0 -0.00000000000E+00 -0.00000000000E+00 -0.45593999997E+02  0.45594000000E+02  0.51100000000E-03 0. -1.
    9900012    2    1    2    0    0  0.39252079674E+00  0.10960898292E+01  0.19358542000E+00  0.90007762395E+02  0.90000024059E+02 0.  0.
         12    1    1    2    0    0 -0.39252079674E+00 -0.10960898292E+01 -0.19358542000E+00  0.11802376051E+01  0.00000000000E+00 0. -1.
         11    1    3    3    0    0  0.89600777256E+01  0.15329900172E+02 -0.70455781335E+01  0.19103115024E+02  0.51100000000E-03 0. -1.
        -11    1    3    3    0    0  0.22816711995E+02 -0.17278357174E+02  0.21990313831E+02  0.36093183228E+02  0.51100000000E-03 0.  1.
         12    1    3    3    0    0 -0.31384268923E+02  0.30445468309E+01 -0.14751150277E+02  0.34811464143E+02  0.00000000000E+00 0. -1.
</event>
<event>
 7    1  0.4096472E-015  0.9000782E+02  0.7816164E-02  0.1186339E+00
        -11   -1    0    0    0    0  0.00000000000E+00  0.00000000000E+00  0.45593999997E+02  0.45594000000E+02  0.51100000000E-03 0.  1.
         11   -1    0    0    0    0 -0.00000000000E+00 -0.00000000000E+00 -0.45593999997E+02  0.45594000000E+02  0.51100000000E-03 0. -1.
    9900012    2    1    2    0    0  0.10088776311E+01 -0.57392333357E+00  0.21356559545E+00  0.90007816823E+02  0.90000079205E+02 0.  0.
         12    1    1    2    0    0 -0.10088776311E+01  0.57392333357E+00 -0.21356559545E+00  0.11801831768E+01  0.00000000000E+00 0. -1.
         11    1    3    3    0    0  0.41238842629E+02 -0.11500540608E+02  0.13215326763E+00  0.42812638793E+02  0.51100000000E-03 0. -1.
        -11    1    3    3    0    0 -0.59668382274E+01  0.32590218488E+01 -0.86627056768E+01  0.11012122945E+02  0.51100000000E-03 0.  1.
        -12    1    3    3    0    0 -0.34263126770E+02  0.76675954262E+01  0.87441180046E+01  0.36183055086E+02  0.00000000000E+00 0.  1.
</event>
<event>
 7    1  0.4096472E-015  0.9000773E+02  0.7816164E-02  0.1186339E+00
        -11   -1    0    0    0    0  0.00000000000E+00  0.00000000000E+00  0.45593999997E+02  0.45594000000E+02  0.51100000000E-03 0. -1.
         11   -1    0    0    0    0 -0.00000000000E+00 -0.00000000000E+00 -0.45593999997E+02  0.45594000000E+02  0.51100000000E-03 0.  1.
    9900012    2    1    2    0    0 -0.87078212729E+00 -0.35006696891E+00  0.71570966316E+00  0.90007725152E+02  0.89999986324E+02 0.  0.
         12    1    1    2    0    0  0.87078212729E+00  0.35006696891E+00 -0.71570966316E+00  0.11802748484E+01  0.00000000000E+00 0. -1.
         11    1    3    3    0    0  0.65648054866E+01  0.35293980503E+01 -0.50165219364E+01  0.89843649900E+01  0.51100000000E-03 0. -1.
        -11    1    3    3    0    0  0.18873986350E+02 -0.32119882991E+02  0.16805095467E+02  0.40869615584E+02  0.51100000000E-03 0.  1.
         12    1    3    3    0    0 -0.26309573964E+02  0.28240417971E+02 -0.11072863867E+02  0.40153744577E+02  0.00000000000E+00 0. -1.
</event>
<event>
 7    1  0.4096472E-015  0.9000791E+02  0.7816164E-02  0.1186339E+00
        -11   -1    0    0    0    0  0.00000000000E+00  0.00000000000E+00  0.45593999997E+02  0.45594000000E+02  0.51100000000E-03 0.  1.
         11   -1    0    0    0    0 -0.00000000000E+00 -0.00000000000E+00 -0.45593999997E+02  0.45594000000E+02  0.51100000000E-03 0. -1.
    9900012    2    1    2    0    0  0.95560430009E+00  0.25147541357E+00  0.64513742640E+00  0.90007906037E+02  0.90000169597E+02 0.  0.
         12    1    1    2    0    0 -0.95560430009E+00 -0.25147541357E+00 -0.64513742640E+00  0.11800939628E+01  0.00000000000E+00 0. -1.
         11    1    3    3    0    0 -0.37755969035E+01  0.58633418223E+01 -0.71415320569E+01  0.99817528363E+01  0.51100000000E-03 0. -1.
        -11    1    3    3    0    0 -0.35950475604E+02  0.17520965826E+01 -0.59067866804E+01  0.36474603051E+02  0.51100000000E-03 0.  1.
         12    1    3    3    0    0  0.40681676807E+02 -0.73639629914E+01  0.13693456164E+02  0.43551550150E+02  0.00000000000E+00 0. -1.
</event>
<event>
 7    1  0.4096472E-015  0.9000760E+02  0.7816164E-02  0.1186339E+00
        -11   -1    0    0    0    0  0.00000000000E+00  0.00000000000E+00  0.45593999997E+02  0.45594000000E+02  0.51100000000E-03 0.  1.
         11   -1    0    0    0    0 -0.00000000000E+00 -0.00000000000E+00 -0.45593999997E+02  0.45594000000E+02  0.51100000000E-03 0. -1.
    9900012    2    1    2    0    0 -0.23806826489E+00  0.11268468174E+01 -0.25860876180E+00  0.90007602296E+02  0.89999861846E+02 0.  0.
         12    1    1    2    0    0  0.23806826489E+00 -0.11268468174E+01  0.25860876180E+00  0.11803977043E+01  0.00000000000E+00 0. -1.
         11    1    3    3    0    0 -0.94540166304E+01 -0.12324292882E+01  0.29083349841E+01  0.99677341979E+01  0.51100000000E-03 0. -1.
        -11    1    3    3    0    0  0.57370676551E+01  0.14484602921E+02  0.35820848615E+02  0.39062141043E+02  0.51100000000E-03 0.  1.
         12    1    3    3    0    0  0.34788807104E+01 -0.12125326816E+02 -0.38987792361E+02  0.40977727055E+02  0.00000000000E+00 0. -1.
</event>
<event>
 7    1  0.4096472E-015  0.9000772E+02  0.7816164E-02  0.1186339E+00
        -11   -1    0    0    0    0  0.00000000000E+00  0.00000000000E+00  0.45593999997E+02  0.45594000000E+02  0.51100000000E-03 0.  1.
         11   -1    0    0    0    0 -0.00000000000E+00 -0.00000000000E+00 -0.45593999997E+02  0.45594000000E+02  0.51100000000E-03 0. -1.
    9900012    2    1    2    0    0 -0.54242659550E-01  0.55711848338E+00  0.10391081920E+01  0.90007716515E+02  0.89999977573E+02 0.  0.
         12    1    1    2    0    0  0.54242659550E-01 -0.55711848338E+00 -0.10391081920E+01  0.11802834851E+01  0.00000000000E+00 0. -1.
         11    1    3    3    0    0 -0.47513093800E+01  0.29675421922E+02 -0.26843749299E+02  0.40296308562E+02  0.51100000000E-03 0. -1.
        -11    1    3    3    0    0 -0.10143722317E+02 -0.43657040865E+01  0.26060762760E+01  0.11346634234E+02  0.51100000000E-03 0.  1.
        -12    1    3    3    0    0  0.14840789037E+02 -0.24752599352E+02  0.25276781215E+02  0.38364773719E+02  0.00000000000E+00 0.  1.
</event>
<event>
 7    1  0.4096472E-015  0.9000754E+02  0.7816164E-02  0.1186339E+00
        -11   -1    0    0    0    0  0.00000000000E+00  0.00000000000E+00  0.45593999997E+02  0.45594000000E+02  0.51100000000E-03 0. -1.
         11   -1    0    0    0    0 -0.00000000000E+00 -0.00000000000E+00 -0.45593999997E+02  0.45594000000E+02  0.51100000000E-03 0.  1.
    9900012    2    1    2    0    0 -0.49177770261E-01 -0.10468178834E+01  0.54335108568E+00  0.90007543929E+02  0.89999802708E+02 0.  0.
         12    1    1    2    0    0  0.49177770261E-01  0.10468178834E+01 -0.54335108568E+00  0.11804560714E+01  0.00000000000E+00 0. -1.
         11    1    3    3    0    0 -0.30200472159E+01  0.23597488021E+01 -0.78078478000E+01  0.86977920833E+01  0.51100000000E-03 0. -1.
        -11    1    3    3    0    0 -0.37692285768E+02 -0.11324325660E+02  0.20870211415E+01  0.39411983147E+02  0.51100000000E-03 0.  1.
         12    1    3    3    0    0  0.40663155214E+02  0.79177589746E+01  0.62641777441E+01  0.41897768698E+02  0.00000000000E+00 0. -1.
</event>
<event>
 7    1  0.4096472E-015  0.9000771E+02  0.7816164E-02  0.1186339E+00
        -11   -1    0    0    0    0  0.00000000000E+00  0.00000000000E+00  0.45593999997E+02  0.45594000000E+02  0.51100000000E-03 0.  1.
         11   -1    0    0    0    0 -0.00000000000E+00 -0.00000000000E+00 -0.45593999997E+02  0.45594000000E+02  0.51100000000E-03 0. -1.
    9900012    2    1    2    0    0  0.84018286821E+00  0.34845877162E+00  0.75217312453E+00  0.90007705470E+02  0.89999966383E+02 0.  0.
         12    1    1    2    0    0 -0.84018286821E+00 -0.34845877162E+00 -0.75217312453E+00  0.11802945297E+01  0.00000000000E+00 0. -1.
         11    1    3    3    0    0  0.61560948474E+01  0.72313446566E+01  0.91019108415E+01  0.13154262828E+02  0.51100000000E-03 0. -1.
        -11    1    3    3    0    0 -0.23805939662E+02  0.10864084457E+02  0.24051237613E+02  0.35541709656E+02  0.51100000000E-03 0.  1.
         12    1    3    3    0    0  0.18490027683E+02 -0.17746970342E+02 -0.32400975329E+02  0.41311732987E+02  0.00000000000E+00 0. -1.
</event>
<event>
 7    1  0.4096472E-015  0.9000773E+02  0.7816164E-02  0.1186339E+00
        -11   -1    0    0    0    0  0.00000000000E+00  0.00000000000E+00  0.45593999997E+02  0.45594000000E+02  0.51100000000E-03 0.  1.
         11   -1    0    0    0    0 -0.00000000000E+00 -0.00000000000E+00 -0.45593999997E+02  0.45594000000E+02  0.51100000000E-03 0. -1.
    9900012    2    1    2    0    0  0.20544108564E+00 -0.78038480024E+00  0.86129209354E+00  0.90007732850E+02  0.89999994123E+02 0.  0.
         12    1    1    2    0    0 -0.20544108564E+00  0.78038480024E+00 -0.86129209354E+00  0.11802671505E+01  0.00000000000E+00 0. -1.
         11    1    3    3    0    0 -0.81451686820E+01 -0.18013831154E+02 -0.29715106884E+02  0.35690747584E+02  0.51100000000E-03 0. -1.
        -11    1    3    3    0    0 -0.10644428634E+02 -0.21169745374E+01 -0.29028260044E+01  0.11234404355E+02  0.51100000000E-03 0.  1.
        -12    1    3    3    0    0  0.18995038401E+02  0.19350420891E+02  0.33479224982E+02  0.43082580911E+02  0.00000000000E+00 0.  1.
</event>
<event>
 7    1  0.4096472E-015  0.9000779E+02  0.7816164E-02  0.1186339E+00
        -11   -1    0    0    0    0  0.00000000000E+00  0.00000000000E+00  0.45593999997E+02  0.45594000000E+02  0.51100000000E-03 0.  1.
         11   -1    0    0    0    0 -0.00000000000E+00 -0.00000000000E+00 -0.45593999997E+02  0.45594000000E+02  0.51100000000E-03 0. -1.
    9900012    2    1    2    0    0 -0.38874565301E+00 -0.10309064443E+01 -0.42308169891E+00  0.90007792644E+02  0.90000054707E+02 0.  0.
         12    1    1    2    0    0  0.38874565301E+00  0.10309064443E+01  0.42308169891E+00  0.11802073561E+01  0.00000000000E+00 0. -1.
         11    1    3    3    0    0  0.52606785787E+01  0.10425802102E+02 -0.37486189178E+02  0.39263042010E+02  0.51100000000E-03 0. -1.
        -11    1    3    3    0    0 -0.80531443733E+01  0.72202610398E+01  0.20782713670E+01  0.11013832935E+02  0.51100000000E-03 0.  1.
        -12    1    3    3    0    0  0.24037201416E+01 -0.18676969586E+02  0.34984836112E+02  0.39730917699E+02  0.00000000000E+00 0.  1.
</event>
<event>
 7    1  0.4096472E-015  0.9000736E+02  0.7816164E-02  0.1186340E+00
        -11   -1    0    0    0    0  0.00000000000E+00  0.00000000000E+00  0.45593999997E+02  0.45594000000E+02  0.51100000000E-03 0. -1.
         11   -1    0    0    0    0 -0.00000000000E+00 -0.00000000000E+00 -0.45593999997E+02  0.45594000000E+02  0.51100000000E-03 0.  1.
    9900012    2    1    2    0    0  0.55760850813E+00 -0.72071928636E+00 -0.75070551809E+00  0.90007355128E+02  0.89999611415E+02 0.  0.
         12    1    1    2    0    0 -0.55760850813E+00  0.72071928636E+00  0.75070551809E+00  0.11806448717E+01  0.00000000000E+00 0. -1.
         11    1    3    3    0    0  0.24330765553E+02 -0.18272684300E+02  0.18181349488E+02  0.35446277849E+02  0.51100000000E-03 0. -1.
        -11    1    3    3    0    0  0.57847790510E+01 -0.87456774564E+01  0.47072337636E+00  0.10496290945E+02  0.51100000000E-03 0.  1.
        -12    1    3    3    0    0 -0.29557936096E+02  0.26297642470E+02 -0.19402778382E+02  0.44064786334E+02  0.00000000000E+00 0.  1.
</event>
<event>
 7    1  0.4096472E-015  0.9000774E+02  0.7816164E-02  0.1186339E+00
        -11   -1    0    0    0    0  0.00000000000E+00  0.00000000000E+00  0.45593999997E+02  0.45594000000E+02  0.51100000000E-03 0. -1.
         11   -1    0    0    0    0 -0.00000000000E+00 -0.00000000000E+00 -0.45593999997E+02  0.45594000000E+02  0.51100000000E-03 0.  1.
    9900012    2    1    2    0    0 -0.59547201780E+00 -0.74213316717E+00 -0.69832188308E+00  0.90007744937E+02  0.90000006370E+02 0.  0.
         12    1    1    2    0    0  0.59547201780E+00  0.74213316717E+00  0.69832188308E+00  0.11802550632E+01  0.00000000000E+00 0. -1.
         11    1    3    3    0    0  0.78745668082E+01 -0.13119816174E+01 -0.56806453676E+01  0.97979503079E+01  0.51100000000E-03 0. -1.
        -11    1    3    3    0    0  0.24328962852E+02 -0.44397644185E+01 -0.25234812050E+02  0.35332784790E+02  0.51100000000E-03 0.  1.
         12    1    3    3    0    0 -0.32799001678E+02  0.50096128688E+01  0.30217135535E+02  0.44877009839E+02  0.00000000000E+00 0. -1.
</event>
<event>
 7    1  0.4096472E-015  0.9000780E+02  0.7816164E-02  0.1186339E+00
        -11   -1    0    0    0    0  0.00000000000E+00  0.00000000000E+00  0.45593999997E+02  0.45594000000E+02  0.51100000000E-03 0.  1.
         11   -1    0    0    0    0 -0.00000000000E+00 -0.00000000000E+00 -0.45593999997E+02  0.45594000000E+02  0.51100000000E-03 0. -1.
    9900012    2    1    2    0    0  0.11511773685E+01  0.22629729488E+00 -0.12826051878E+00  0.90007800627E+02  0.90000062795E+02 0.  0.
         12    1    1    2    0    0 -0.11511773685E+01 -0.22629729488E+00  0.12826051878E+00  0.11801993730E+01  0.00000000000E+00 0. -1.
         11    1    3    3    0    0  0.47801399015E+00 -0.53679638272E+01 -0.89723693006E+01  0.10466467606E+02  0.51100000000E-03 0. -1.
        -11    1    3    3    0    0 -0.25770425771E+02  0.44210297101E+01  0.34090054080E+02  0.42962683058E+02  0.51100000000E-03 0.  1.
         12    1    3    3    0    0  0.26443589149E+02  0.11732314120E+01 -0.25245945299E+02  0.36578649962E+02  0.00000000000E+00 0. -1.
</event>
<event>
 7    1  0.4096472E-015  0.9000771E+02  0.7816164E-02  0.1186339E+00
        -11   -1    0    0    0    0  0.00000000000E+00  0.00000000000E+00  0.45593999997E+02  0.45594000000E+02  0.51100000000E-03 0.  1.
         11   -1    0    0    0    0 -0.00000000000E+00 -0.00000000000E+00 -0.45593999997E+02  0.45594000000E+02  0.51100000000E-03 0. -1.
    9900012    2    1    2    0    0  0.57240708447E+00  0.90467641480E+00 -0.49698325415E+00  0.90007711205E+02  0.89999972192E+02 0.  0.
         12    1    1    2    0    0 -0.57240708447E+00 -0.90467641480E+00  0.49698325415E+00  0.11802887955E+01  0.00000000000E+00 0. -1.
         11    1    3    3    0    0 -0.25093853588E+01 -0.72486963308E+01 -0.68592392318E+01  0.10290275821E+02  0.51100000000E-03 0. -1.
        -11    1    3    3    0    0  0.20438056237E+02 -0.22079318148E+02  0.25949112172E+02  0.39731182406E+02  0.51100000000E-03 0.  1.
         12    1    3    3    0    0 -0.17356263793E+02  0.30232690894E+02 -0.19586856194E+02  0.39986252977E+02  0.00000000000E+00 0. -1.
</event>
<event>
 7    1  0.4096472E-015  0.9000825E+02  0.7816164E-02  0.1186338E+00
        -11   -1    0    0    0    0  0.00000000000E+00  0.00000000000E+00  0.45593999997E+02  0.45594000000E+02  0.51100000000E-03 0.  1.
         11   -1    0    0    0    0 -0.00000000000E+00 -0.00000000000E+00 -0.45593999997E+02  0.45594000000E+02  0.51100000000E-03 0. -1.
    9900012    2    1    2    0    0 -0.99713554183E+00 -0.28166814796E+00  0.56408196244E+00  0.90008252275E+02  0.90000520403E+02 0.  0.
         12    1    1    2    0    0  0.99713554183E+00  0.28166814796E+00 -0.56408196244E+00  0.11797477250E+01  0.00000000000E+00 0. -1.
         11    1    3    3    0    0  0.17274250206E+02 -0.89563348621E+00 -0.35226912353E+02  0.39244582221E+02  0.51100000000E-03 0. -1.
        -11    1    3    3    0    0  0.60283237259E+01 -0.52550121474E+01  0.12024746137E+01  0.80871370132E+01  0.51100000000E-03 0.  1.
        -12    1    3    3    0    0 -0.24299709474E+02  0.58689774856E+01  0.34588519701E+02  0.42676533041E+02  0.00000000000E+00 0.  1.
</event>
<event>
 7    1  0.4096472E-015  0.9000779E+02  0.7816164E-02  0.1186339E+00
        -11   -1    0    0    0    0  0.00000000000E+00  0.00000000000E+00  0.45593999997E+02  0.45594000000E+02  0.51100000000E-03 0.  1.
         11   -1    0    0    0    0 -0.00000000000E+00 -0.00000000000E+00 -0.45593999997E+02  0.45594000000E+02  0.51100000000E-03 0. -1.
    9900012    2    1    2    0    0  0.81523912260E+00 -0.10822209995E+00  0.84650221742E+00  0.90007791182E+02  0.90000053226E+02 0.  0.
         12    1    1    2    0    0 -0.81523912260E+00  0.10822209995E+00 -0.84650221742E+00  0.11802088180E+01  0.00000000000E+00 0. -1.
         11    1    3    3    0    0 -0.96593881105E+01  0.63850084405E+01  0.24460150037E+01  0.11834487784E+02  0.51100000000E-03 0. -1.
        -11    1    3    3    0    0 -0.11832560613E+02  0.28611330896E+02  0.13698555601E+02  0.33856582404E+02  0.51100000000E-03 0.  1.
         12    1    3    3    0    0  0.22307187846E+02 -0.35104561436E+02 -0.15298068387E+02  0.44316720993E+02  0.00000000000E+00 0. -1.
</event>
<event>
 7    1  0.4096472E-015  0.9000767E+02  0.7816164E-02  0.1186339E+00
        -11   -1    0    0    0    0  0.00000000000E+00  0.00000000000E+00  0.45593999997E+02  0.45594000000E+02  0.51100000000E-03 0.  1.
         11   -1    0    0    0    0 -0.00000000000E+00 -0.00000000000E+00 -0.45593999997E+02  0.45594000000E+02  0.51100000000E-03 0. -1.
    9900012    2    1    2    0    0  0.67862229571E-01 -0.80406360678E+00  0.86142102197E+00  0.90007673883E+02  0.89999934378E+02 0.  0.
         12    1    1    2    0    0 -0.67862229571E-01  0.80406360678E+00 -0.86142102197E+00  0.11803261172E+01  0.00000000000E+00 0. -1.
         11    1    3    3    0    0 -0.29110549270E+02 -0.88856933590E+01 -0.30591140139E+02  0.43153186215E+02  0.51100000000E-03 0. -1.
        -11    1    3    3    0    0  0.10558570926E+02  0.71020307733E+01  0.34011592693E+01  0.13171565805E+02  0.51100000000E-03 0.  1.
        -12    1    3    3    0    0  0.18619840573E+02  0.97959897888E+00  0.28051401892E+02  0.33682921863E+02  0.00000000000E+00 0.  1.
</event>
<event>
 7    1  0.4096472E-015  0.9000772E+02  0.7816164E-02  0.1186339E+00
        -11   -1    0    0    0    0  0.00000000000E+00  0.00000000000E+00  0.45593999997E+02  0.45594000000E+02  0.51100000000E-03 0. -1.
         11   -1    0    0    0    0 -0.00000000000E+00 -0.00000000000E+00 -0.45593999997E+02  0.45594000000E+02  0.51100000000E-03 0.  1.
    9900012    2    1    2    0    0  0.95103700888E+00  0.69030038531E+00  0.10984783586E+00  0.90007723523E+02  0.89999984674E+02 0.  0.
         12    1    1    2    0    0 -0.95103700888E+00 -0.69030038531E+00 -0.10984783586E+00  0.11802764766E+01  0.00000000000E+00 0. -1.
         11    1    3    3    0    0 -0.30288370195E+01  0.49072249445E+01  0.37213274207E+02  0.37657436023E+02  0.51100000000E-03 0. -1.
        -11    1    3    3    0    0 -0.51239555815E+00 -0.90824183747E+01  0.45516969840E+01  0.10172060678E+02  0.51100000000E-03 0.  1.
        -12    1    3    3    0    0  0.44922695866E+01  0.48654938155E+01 -0.41655123355E+02  0.42178226822E+02  0.00000000000E+00 0.  1.
</event>
<event>
 7    1  0.4096472E-015  0.9000776E+02  0.7816164E-02  0.1186339E+00
        -11   -1    0    0    0    0  0.00000000000E+00  0.00000000000E+00  0.45593999997E+02  0.45594000000E+02  0.51100000000E-03 0.  1.
         11   -1    0    0    0    0 -0.00000000000E+00 -0.00000000000E+00 -0.45593999997E+02  0.45594000000E+02  0.51100000000E-03 0. -1.
    9900012    2    1    2    0    0  0.23872936824E+00  0.97632455480E+00  0.61868117747E+00  0.90007759454E+02  0.90000021079E+02 0.  0.
         12    1    1    2    0    0 -0.23872936824E+00 -0.97632455480E+00 -0.61868117747E+00  0.11802405462E+01  0.00000000000E+00 0. -1.
         11    1    3    3    0    0  0.35644447436E+00  0.16425233576E+02 -0.28833936563E+02  0.33186009833E+02  0.51100000000E-03 0. -1.
        -11    1    3    3    0    0 -0.10703591635E+02  0.92871661800E+01 -0.31838642444E+01  0.14524301062E+02  0.51100000000E-03 0.  1.
        -12    1    3    3    0    0  0.10585876529E+02 -0.24736075201E+02  0.32636481985E+02  0.42297448559E+02  0.00000000000E+00 0.  1.
</event>
<event>
 7    1  0.4096472E-015  0.9000771E+02  0.7816164E-02  0.1186339E+00
        -11   -1    0    0    0    0  0.00000000000E+00  0.00000000000E+00  0.45593999997E+02  0.45594000000E+02  0.51100000000E-03 0. -1.
         11   -1    0    0    0    0 -0.00000000000E+00 -0.00000000000E+00 -0.45593999997E+02  0.45594000000E+02  0.51100000000E-03 0.  1.
    9900012    2    1    2    0    0 -0.10576039077E+01  0.31129206645E+00 -0.42149693234E+00  0.90007708324E+02  0.89999969274E+02 0.  0.
         12    1    1    2    0    0  0.10576039077E+01 -0.31129206645E+00  0.42149693234E+00  0.11802916759E+01  0.00000000000E+00 0. -1.
         11    1    3    3    0    0 -0.98121092746E+01 -0.42003556544E+01  0.20598709730E+01  0.10870305641E+02  0.51100000000E-03 0. -1.
        -11    1    3    3    0    0 -0.28780480828E+02 -0.14455325987E+02 -0.14614087301E+02  0.35367274054E+02  0.51100000000E-03 0.  1.
         12    1    3    3    0    0  0.37534986195E+02  0.18966973708E+02  0.12132719396E+02  0.43770128629E+02  0.00000000000E+00 0. -1.
</event>
<event>
 7    1  0.4096472E-015  0.9000764E+02  0.7816164E-02  0.1186339E+00
        -11   -1    0    0    0    0  0.00000000000E+00  0.00000000000E+00  0.45593999997E+02  0.45594000000E+02  0.51100000000E-03 0. -1.
         11   -1    0    0    0    0 -0.00000000000E+00 -0.00000000000E+00 -0.45593999997E+02  0.45594000000E+02  0.51100000000E-03 0.  1.
    9900012    2    1    2    0    0 -0.87856110597E+00  0.72483798242E+00  0.30984044004E+00  0.90007635304E+02  0.89999895290E+02 0.  0.
         12    1    1    2    0    0  0.87856110597E+00 -0.72483798242E+00 -0.30984044004E+00  0.11803646962E+01  0.00000000000E+00 0. -1.
         11    1    3    3    0    0 -0.34904876646E+02  0.13191407507E+02 -0.12599949925E+02  0.39384291082E+02  0.51100000000E-03 0. -1.
        -11    1    3    3    0    0 -0.34911157654E+01  0.61313096734E+01  0.13576457414E+01  0.71849878093E+01  0.51100000000E-03 0.  1.
        -12    1    3    3    0    0  0.37517431305E+02 -0.18597879198E+02  0.11552144624E+02  0.43438356412E+02  0.00000000000E+00 0.  1.
</event>
<event>
 7    1  0.4096472E-015  0.9000792E+02  0.7816164E-02  0.1186339E+00
        -11   -1    0    0    0    0  0.00000000000E+00  0.00000000000E+00  0.45593999997E+02  0.45594000000E+02  0.51100000000E-03 0.  1.
         11   -1    0    0    0    0 -0.00000000000E+00 -0.00000000000E+00 -0.45593999997E+02  0.45594000000E+02  0.51100000000E-03 0. -1.
    9900012    2    1    2    0    0  0.47885976445E+00 -0.10388915292E+01  0.28979439276E+00  0.90007922429E+02  0.90000186205E+02 0.  0.
         12    1    1    2    0    0 -0.47885976445E+00  0.10388915292E+01 -0.28979439276E+00  0.11800775710E+01  0.00000000000E+00 0. -1.
         11    1    3    3    0    0  0.61004510146E+01 -0.71181517903E+01 -0.35729819306E+01  0.10032436774E+02  0.51100000000E-03 0. -1.
        -11    1    3    3    0    0  0.94065563366E+01  0.14740990615E+02  0.37918785313E+02  0.41756608893E+02  0.51100000000E-03 0.  1.
         12    1    3    3    0    0 -0.15028147587E+02 -0.86617303544E+01 -0.34056008989E+02  0.38218876761E+02  0.00000000000E+00 0. -1.
</event>
<event>
 7    1  0.4096472E-015  0.9000781E+02  0.7816164E-02  0.1186339E+00
        -11   -1    0    0    0    0  0.00000000000E+00  0.00000000000E+00  0.45593999997E+02  0.45594000000E+02  0.51100000000E-03 0. -1.
         11   -1    0    0    0    0 -0.00000000000E+00 -0.00000000000E+00 -0.45593999997E+02  0.45594000000E+02  0.51100000000E-03 0.  1.
    9900012    2    1    2    0    0  0.10621214654E+01  0.45294443884E+00 -0.24410935093E+00  0.90007809317E+02  0.90000071600E+02 0.  0.
         12    1    1    2    0    0 -0.10621214654E+01 -0.45294443884E+00  0.24410935093E+00  0.11801906826E+01  0.00000000000E+00 0. -1.
         11    1    3    3    0    0 -0.16184597000E+02 -0.27072365478E+02  0.57367744791E+01  0.32058770006E+02  0.51100000000E-03 0. -1.
        -11    1    3    3    0    0 -0.53822423176E+01 -0.10687696371E+02 -0.63290049003E+01  0.13537048769E+02  0.51100000000E-03 0.  1.
        -12    1    3    3    0    0  0.22628960783E+02  0.38213006288E+02  0.34812107021E+00  0.44411990542E+02  0.00000000000E+00 0.  1.
</event>
<event>
 7    1  0.4096472E-015  0.9000790E+02  0.7816164E-02  0.1186339E+00
        -11   -1    0    0    0    0  0.00000000000E+00  0.00000000000E+00  0.45593999997E+02  0.45594000000E+02  0.51100000000E-03 0. -1.
         11   -1    0    0    0    0 -0.00000000000E+00 -0.00000000000E+00 -0.45593999997E+02  0.45594000000E+02  0.51100000000E-03 0.  1.
    9900012    2    1    2    0    0 -0.16431790528E+00  0.80445172216E+00 -0.84764462297E+00  0.90007896465E+02  0.90000159898E+02 0.  0.
         12    1    1    2    0    0  0.16431790528E+00 -0.80445172216E+00  0.84764462297E+00  0.11801035353E+01  0.00000000000E+00 0. -1.
         11    1    3    3    0    0 -0.10004719374E+02 -0.28727321932E+02  0.22081053441E+02  0.37588912680E+02  0.51100000000E-03 0. -1.
        -11    1    3    3    0    0 -0.92298772819E+01  0.91516696201E+00  0.25508737507E+01  0.96195177821E+01  0.51100000000E-03 0.  1.
        -12    1    3    3    0    0  0.19070278751E+02  0.28616606692E+02 -0.25479571815E+02  0.42799466002E+02  0.00000000000E+00 0.  1.
</event>
<event>
 7    1  0.4096472E-015  0.9000775E+02  0.7816164E-02  0.1186339E+00
        -11   -1    0    0    0    0  0.00000000000E+00  0.00000000000E+00  0.45593999997E+02  0.45594000000E+02  0.51100000000E-03 0. -1.
         11   -1    0    0    0    0 -0.00000000000E+00 -0.00000000000E+00 -0.45593999997E+02  0.45594000000E+02  0.51100000000E-03 0.  1.
    9900012    2    1    2    0    0  0.11454062854E+01 -0.25494427697E+00  0.12660397577E+00  0.90007753962E+02  0.90000015515E+02 0.  0.
         12    1    1    2    0    0 -0.11454062854E+01  0.25494427697E+00 -0.12660397577E+00  0.11802460378E+01  0.00000000000E+00 0. -1.
         11    1    3    3    0    0 -0.54180691195E+01 -0.66092540207E+01 -0.42065175581E+01  0.95253609865E+01  0.51100000000E-03 0. -1.
        -11    1    3    3    0    0 -0.18025455165E+02 -0.23287489845E+02  0.23300749609E+02  0.37551952677E+02  0.51100000000E-03 0.  1.
         12    1    3    3    0    0  0.24588930570E+02  0.29641799589E+02 -0.18967628075E+02  0.42930440299E+02  0.00000000000E+00 0. -1.
</event>
<event>
 7    1  0.4096472E-015  0.9000772E+02  0.7816164E-02  0.1186339E+00
        -11   -1    0    0    0    0  0.00000000000E+00  0.00000000000E+00  0.45593999997E+02  0.45594000000E+02  0.51100000000E-03 0.  1.
         11   -1    0    0    0    0 -0.00000000000E+00 -0.00000000000E+00 -0.45593999997E+02  0.45594000000E+02  0.51100000000E-03 0. -1.
    9900012    2    1    2    0    0  0.63165282166E+00  0.89591627975E+00  0.43749871328E+00  0.90007721901E+02  0.89999983030E+02 0.  0.
         12    1    1    2    0    0 -0.63165282166E+00 -0.89591627975E+00 -0.43749871328E+00  0.11802780992E+01  0.00000000000E+00 0. -1.
         11    1    3    3    0    0 -0.10999755499E+01  0.16223815589E+02 -0.28932133351E+02  0.33188710113E+02  0.51100000000E-03 0. -1.
        -11    1    3    3    0    0 -0.79417646532E+01  0.13528051258E+02  0.18644047930E+01  0.15797335286E+02  0.51100000000E-03 0.  1.
        -12    1    3    3    0    0  0.96733930248E+01 -0.28855950567E+02  0.27505227271E+02  0.41021676501E+02  0.00000000000E+00 0.  1.
</event>
<event>
 7    1  0.4096472E-015  0.9000753E+02  0.7816164E-02  0.1186339E+00
        -11   -1    0    0    0    0  0.00000000000E+00  0.00000000000E+00  0.45593999997E+02  0.45594000000E+02  0.51100000000E-03 0.  1.
         11   -1    0    0    0    0 -0.00000000000E+00 -0.00000000000E+00 -0.45593999997E+02  0.45594000000E+02  0.51100000000E-03 0. -1.
    9900012    2    1    2    0    0  0.21577768716E+00  0.57038957924E+00  0.10107484189E+01  0.90007526939E+02  0.89999785494E+02 0.  0.
         12    1    1    2    0    0 -0.21577768716E+00 -0.57038957924E+00 -0.10107484189E+01  0.11804730614E+01  0.00000000000E+00 0. -1.
         11    1    3    3    0    0  0.38354469518E+01 -0.36952888656E+02 -0.15444723383E+01  0.37183491342E+02  0.51100000000E-03 0. -1.
        -11    1    3    3    0    0  0.32355326059E+01 -0.41154818074E+01  0.87260565551E+01  0.10175948359E+02  0.51100000000E-03 0.  1.
        -12    1    3    3    0    0 -0.68552018705E+01  0.41638760042E+02 -0.61708357979E+01  0.42648087237E+02  0.00000000000E+00 0.  1.
</event>
<event>
 7    1  0.4096472E-015  0.9000780E+02  0.7816164E-02  0.1186339E+00
        -11   -1    0    0    0    0  0.00000000000E+00  0.00000000000E+00  0.45593999997E+02  0.45594000000E+02  0.51100000000E-03 0.  1.
         11   -1    0    0    0    0 -0.00000000000E+00 -0.00000000000E+00 -0.45593999997E+02  0.45594000000E+02  0.51100000000E-03 0. -1.
    9900012    2    1    2    0    0 -0.82551707081E+00  0.42312363973E+00  0.72962786532E+00  0.90007801343E+02  0.90000063520E+02 0.  0.
         12    1    1    2    0    0  0.82551707081E+00 -0.42312363973E+00 -0.72962786532E+00  0.11801986572E+01  0.00000000000E+00 0. -1.
         11    1    3    3    0    0 -0.36348155757E-01  0.34881686170E+01  0.95136410699E+01  0.10133015748E+02  0.51100000000E-03 0. -1.
        -11    1    3    3    0    0  0.15923537285E+02  0.32665321940E+02  0.76604493952E+01  0.37138454226E+02  0.51100000000E-03 0.  1.
         12    1    3    3    0    0 -0.16712706200E+02 -0.35730366917E+02 -0.16444462600E+02  0.42736331368E+02  0.00000000000E+00 0. -1.
</event>
<event>
 7    1  0.4096472E-015  0.9000762E+02  0.7816164E-02  0.1186339E+00
        -11   -1    0    0    0    0  0.00000000000E+00  0.00000000000E+00  0.45593999997E+02  0.45594000000E+02  0.51100000000E-03 0. -1.
         11   -1    0    0    0    0 -0.00000000000E+00 -0.00000000000E+00 -0.45593999997E+02  0.45594000000E+02  0.51100000000E-03 0.  1.
    9900012    2    1    2    0    0  0.36703834180E+00 -0.60266474943E-01 -0.11202400266E+01  0.90007624251E+02  0.89999884091E+02 0.  0.
         12    1    1    2    0    0 -0.36703834180E+00  0.60266474943E-01  0.11202400266E+01  0.11803757493E+01  0.00000000000E+00 0. -1.
         11    1    3    3    0    0  0.36208488124E+02  0.60216524241E+01  0.21801066005E+02  0.42691935883E+02  0.51100000000E-03 0. -1.
        -11    1    3    3    0    0 -0.10776916930E+01  0.19703980419E+01 -0.85605508809E+01  0.88502496843E+01  0.51100000000E-03 0.  1.
        -12    1    3    3    0    0 -0.34763758090E+02 -0.80523169410E+01 -0.14360755151E+02  0.38465438684E+02  0.00000000000E+00 0.  1.
</event>
<event>
 7    1  0.4096472E-015  0.9000762E+02  0.7816164E-02  0.1186339E+00
        -11   -1    0    0    0    0  0.00000000000E+00  0.00000000000E+00  0.45593999997E+02  0.45594000000E+02  0.51100000000E-03 0.  1.
         11   -1    0    0    0    0 -0.00000000000E+00 -0.00000000000E+00 -0.45593999997E+02  0.45594000000E+02  0.51100000000E-03 0. -1.
    9900012    2    1    2    0    0  0.17131250442E+00 -0.10464632437E+01  0.51850947953E+00  0.90007624901E+02  0.89999884749E+02 0.  0.
         12    1    1    2    0    0 -0.17131250442E+00  0.10464632437E+01 -0.51850947953E+00  0.11803750993E+01  0.00000000000E+00 0. -1.
         11    1    3    3    0    0 -0.29167057953E+02  0.61634096097E+01 -0.23627948581E+02  0.38039253963E+02  0.51100000000E-03 0. -1.
        -11    1    3    3    0    0 -0.65977573257E+01 -0.60592586274E+01  0.57578579555E+00  0.89764439722E+01  0.51100000000E-03 0.  1.
        -12    1    3    3    0    0  0.35936127783E+02 -0.11506142260E+01  0.23570672265E+02  0.42991926965E+02  0.00000000000E+00 0.  1.
</event>
<event>
 7    1  0.4096472E-015  0.9000780E+02  0.7816164E-02  0.1186339E+00
        -11   -1    0    0    0    0  0.00000000000E+00  0.00000000000E+00  0.45593999997E+02  0.45594000000E+02  0.51100000000E-03 0.  1.
         11   -1    0    0    0    0 -0.00000000000E+00 -0.00000000000E+00 -0.45593999997E+02  0.45594000000E+02  0.51100000000E-03 0. -1.
    9900012    2    1    2    0    0  0.46262482572E+00  0.75738742970E-01  0.10831067074E+01  0.90007797379E+02  0.90000059505E+02 0.  0.
         12    1    1    2    0    0 -0.46262482572E+00 -0.75738742970E-01 -0.10831067074E+01  0.11802026208E+01  0.00000000000E+00 0. -1.
         11    1    3    3    0    0 -0.85903885930E+01 -0.33961686444E+02 -0.18479863678E+02  0.39606770685E+02  0.51100000000E-03 0. -1.
        -11    1    3    3    0    0  0.39755709208E+01  0.64683435850E+00  0.15930514402E+02  0.16431824250E+02  0.51100000000E-03 0.  1.
        -12    1    3    3    0    0  0.50774424980E+01  0.33390590828E+02  0.36324559834E+01  0.33969202444E+02  0.00000000000E+00 0.  1.
</event>
<event>
 7    1  0.4096472E-015  0.9000773E+02  0.7816164E-02  0.1186339E+00
        -11   -1    0    0    0    0  0.00000000000E+00  0.00000000000E+00  0.45593999997E+02  0.45594000000E+02  0.51100000000E-03 0.  1.
         11   -1    0    0    0    0 -0.00000000000E+00 -0.00000000000E+00 -0.45593999997E+02  0.45594000000E+02  0.51100000000E-03 0. -1.
    9900012    2    1    2    0    0 -0.10766455980E+01  0.16885143259E+00  0.45317975722E+00  0.90007725268E+02  0.89999986442E+02 0.  0.
         12    1    1    2    0    0  0.10766455980E+01 -0.16885143259E+00 -0.45317975722E+00  0.11802747317E+01  0.00000000000E+00 0. -1.
         11    1    3    3    0    0 -0.23167140927E+02 -0.22136628393E+02 -0.14934590384E+02  0.35352351061E+02  0.51100000000E-03 0. -1.
        -11    1    3    3    0    0  0.29095913501E+00 -0.92512108102E+01 -0.57159918081E+01  0.10878516502E+02  0.51100000000E-03 0.  1.
        -12    1    3    3    0    0  0.21799536194E+02  0.31556690636E+02  0.21103761949E+02  0.43776857705E+02  0.00000000000E+00 0.  1.
</event>
<event>
 7    1  0.4096472E-015  0.9000769E+02  0.7816164E-02  0.1186339E+00
        -11   -1    0    0    0    0  0.00000000000E+00  0.00000000000E+00  0.45593999997E+02  0.45594000000E+02  0.51100000000E-03 0.  1.
         11   -1    0    0    0    0 -0.00000000000E+00 -0.00000000000E+00 -0.45593999997E+02  0.45594000000E+02  0.51100000000E-03 0. -1.
    9900012    2    1    2    0    0 -0.41717183985E+00 -0.32868508980E+00  0.10540717055E+01  0.90007689281E+02  0.89999949980E+02 0.  0.
         12    1    1    2    0    0  0.41717183985E+00  0.32868508980E+00 -0.10540717055E+01  0.11803107186E+01  0.00000000000E+00 0. -1.
         11    1    3    3    0    0  0.41605341421E+02  0.63864545926E+01  0.19929815644E+00  0.42093122443E+02  0.51100000000E-03 0. -1.
        -11    1    3    3    0    0 -0.23576798409E+01  0.13010823639E+01 -0.62714388151E+01  0.68251311066E+01  0.51100000000E-03 0.  1.
        -12    1    3    3    0    0 -0.39664833419E+02 -0.80162220464E+01  0.71262123641E+01  0.41089435732E+02  0.00000000000E+00 0.  1.
</event>
<event>
 7    1  0.4096472E-015  0.9000772E+02  0.7816164E-02  0.1186339E+00
        -11   -1    0    0    0    0  0.00000000000E+00  0.00000000000E+00  0.45593999997E+02  0.45594000000E+02  0.51100000000E-03 0. -1.
         11   -1    0    0    0    0 -0.00000000000E+00 -0.00000000000E+00 -0.45593999997E+02  0.45594000000E+02  0.51100000000E-03 0.  1.
    9900012    2    1    2    0    0 -0.22804110461E+00 -0.45474392122E+00 -0.10650231089E+01  0.90007716559E+02  0.89999977617E+02 0.  0.
         12    1    1    2    0    0  0.22804110461E+00  0.45474392122E+00  0.10650231089E+01  0.11802834413E+01  0.00000000000E+00 0. -1.
         11    1    3    3    0    0 -0.70156082320E+01 -0.38181955578E+01 -0.10001467800E+02  0.12799481810E+02  0.51100000000E-03 0. -1.
        -11    1    3    3    0    0 -0.29307191297E+01  0.28128650468E+02 -0.22417777318E+02  0.36088319882E+02  0.51100000000E-03 0.  1.
         12    1    3    3    0    0  0.97182862572E+01 -0.24765198831E+02  0.31354222009E+02  0.41119914867E+02  0.00000000000E+00 0. -1.
</event>
<event>
 7    1  0.4531631E-015  0.9000784E+02  0.7816164E-02  0.1186339E+00
        -11   -1    0    0    0    0  0.00000000000E+00  0.00000000000E+00  0.45593999997E+02  0.45594000000E+02  0.51100000000E-03 0. -1.
         11   -1    0    0    0    0 -0.00000000000E+00 -0.00000000000E+00 -0.45593999997E+02  0.45594000000E+02  0.51100000000E-03 0.  1.
    9900012    2    1    2    0    0  0.87218151794E+00  0.79222219153E+00  0.66850777236E-01  0.90007836610E+02  0.90000099253E+02 0.  0.
         12    1    1    2    0    0 -0.87218151794E+00 -0.79222219153E+00 -0.66850777236E-01  0.11801633901E+01  0.00000000000E+00 0. -1.
         11    1    3    3    0    0 -0.19291035499E+02  0.25040500949E+02 -0.25584302312E+02  0.40666045584E+02  0.51100000000E-03 0. -1.
        -11    1    3    3    0    0  0.71796219426E+01 -0.37839059698E+01 -0.55514071759E+01  0.98327533032E+01  0.51100000000E-03 0.  1.
        -12    1    3    3    0    0  0.12983595075E+02 -0.20464372787E+02  0.31202560265E+02  0.39509037722E+02  0.00000000000E+00 0.  1.
</event>
<event>
 7    1  0.4096472E-015  0.9000781E+02  0.7816164E-02  0.1186339E+00
        -11   -1    0    0    0    0  0.00000000000E+00  0.00000000000E+00  0.45593999997E+02  0.45594000000E+02  0.51100000000E-03 0.  1.
         11   -1    0    0    0    0 -0.00000000000E+00 -0.00000000000E+00 -0.45593999997E+02  0.45594000000E+02  0.51100000000E-03 0. -1.
    9900012    2    1    2    0    0  0.33734759816E+00  0.21690093566E+00  0.11099597765E+01  0.90007805049E+02  0.90000067275E+02 0.  0.
         12    1    1    2    0    0 -0.33734759816E+00 -0.21690093566E+00 -0.11099597765E+01  0.11801949514E+01  0.00000000000E+00 0. -1.
         11    1    3    3    0    0  0.84376478815E+01  0.28486236980E+01 -0.40357090494E+01  0.97772954613E+01  0.51100000000E-03 0. -1.
        -11    1    3    3    0    0  0.35939207204E+02 -0.23617834700E+01  0.17415060037E+01  0.36058805846E+02  0.51100000000E-03 0.  1.
         12    1    3    3    0    0 -0.44039507487E+02 -0.26993929227E+00  0.34041628222E+01  0.44171703742E+02  0.00000000000E+00 0. -1.
</event>
<event>
 7    1  0.4096472E-015  0.9000771E+02  0.7816164E-02  0.1186339E+00
        -11   -1    0    0    0    0  0.00000000000E+00  0.00000000000E+00  0.45593999997E+02  0.45594000000E+02  0.51100000000E-03 0.  1.
         11   -1    0    0    0    0 -0.00000000000E+00 -0.00000000000E+00 -0.45593999997E+02  0.45594000000E+02  0.51100000000E-03 0. -1.
    9900012    2    1    2    0    0  0.93783327026E+00  0.69806741592E+00 -0.16201982291E+00  0.90007711992E+02  0.89999972990E+02 0.  0.
         12    1    1    2    0    0 -0.93783327026E+00 -0.69806741592E+00  0.16201982291E+00  0.11802880085E+01  0.00000000000E+00 0. -1.
         11    1    3    3    0    0  0.51849994486E+01  0.15333909156E+00  0.71469130054E+01  0.88309737814E+01  0.51100000000E-03 0. -1.
        -11    1    3    3    0    0 -0.45986101129E+01  0.27114290559E+02  0.26489245633E+02  0.38183924654E+02  0.51100000000E-03 0.  1.
         12    1    3    3    0    0  0.35144393454E+00 -0.26569562235E+02 -0.33798178461E+02  0.42992813556E+02  0.00000000000E+00 0. -1.
</event>
<event>
 7    1  0.4096472E-015  0.9000801E+02  0.7816164E-02  0.1186339E+00
        -11   -1    0    0    0    0  0.00000000000E+00  0.00000000000E+00  0.45593999997E+02  0.45594000000E+02  0.51100000000E-03 0. -1.
         11   -1    0    0    0    0 -0.00000000000E+00 -0.00000000000E+00 -0.45593999997E+02  0.45594000000E+02  0.51100000000E-03 0.  1.
    9900012    2    1    2    0    0 -0.44085841608E+00 -0.54532885926E+00 -0.94901680699E+00  0.90008011607E+02  0.90000276560E+02 0.  0.
         12    1    1    2    0    0  0.44085841608E+00  0.54532885926E+00  0.94901680699E+00  0.11799883930E+01  0.00000000000E+00 0. -1.
         11    1    3    3    0    0 -0.72822218706E+01 -0.52228563815E+01 -0.17040617438E+01  0.91221056145E+01  0.51100000000E-03 0. -1.
        -11    1    3    3    0    0  0.30368804095E+02 -0.21276861630E+02 -0.17924709623E+02  0.41185729547E+02  0.51100000000E-03 0.  1.
         12    1    3    3    0    0 -0.23527440640E+02  0.25954389153E+02  0.18679754560E+02  0.39700176445E+02  0.00000000000E+00 0. -1.
</event>
<event>
 7    1  0.4096472E-015  0.9000779E+02  0.7816164E-02  0.1186339E+00
        -11   -1    0    0    0    0  0.00000000000E+00  0.00000000000E+00  0.45593999997E+02  0.45594000000E+02  0.51100000000E-03 0.  1.
         11   -1    0    0    0    0 -0.00000000000E+00 -0.00000000000E+00 -0.45593999997E+02  0.45594000000E+02  0.51100000000E-03 0. -1.
    9900012    2    1    2    0    0  0.76787155746E+00  0.18314273413E+00  0.87733718271E+00  0.90007793017E+02  0.90000055085E+02 0.  0.
         12    1    1    2    0    0 -0.76787155746E+00 -0.18314273413E+00 -0.87733718271E+00  0.11802069827E+01  0.00000000000E+00 0. -1.
         11    1    3    3    0    0  0.60165089401E+01 -0.42444050845E+01 -0.72071088473E+01  0.10303192347E+02  0.51100000000E-03 0. -1.
        -11    1    3    3    0    0 -0.32576985437E+02 -0.17904849642E+02  0.20303473958E+02  0.42356518694E+02  0.51100000000E-03 0.  1.
         12    1    3    3    0    0  0.27328348055E+02  0.22332397461E+02 -0.12219027928E+02  0.37348081976E+02  0.00000000000E+00 0. -1.
</event>
<event>
 7    1  0.4096472E-015  0.9000773E+02  0.7816164E-02  0.1186339E+00
        -11   -1    0    0    0    0  0.00000000000E+00  0.00000000000E+00  0.45593999997E+02  0.45594000000E+02  0.51100000000E-03 0. -1.
         11   -1    0    0    0    0 -0.00000000000E+00 -0.00000000000E+00 -0.45593999997E+02  0.45594000000E+02  0.51100000000E-03 0.  1.
    9900012    2    1    2    0    0  0.73031946589E+00 -0.88918277070E+00 -0.26270735452E+00  0.90007734066E+02  0.89999995355E+02 0.  0.
         12    1    1    2    0    0 -0.73031946589E+00  0.88918277070E+00  0.26270735452E+00  0.11802659345E+01  0.00000000000E+00 0. -1.
         11    1    3    3    0    0 -0.99179273413E+01  0.24488716938E+02  0.28916938028E+02  0.39169526998E+02  0.51100000000E-03 0. -1.
        -11    1    3    3    0    0  0.98541610291E+01  0.51289888756E+01 -0.74806723649E+01  0.13392963666E+02  0.51100000000E-03 0.  1.
        -12    1    3    3    0    0  0.79408577805E+00 -0.30506888585E+02 -0.21698973018E+02  0.37445243401E+02  0.00000000000E+00 0.  1.
</event>
<event>
 7    1  0.4096472E-015  0.9000772E+02  0.7816164E-02  0.1186339E+00
        -11   -1    0    0    0    0  0.00000000000E+00  0.00000000000E+00  0.45593999997E+02  0.45594000000E+02  0.51100000000E-03 0. -1.
         11   -1    0    0    0    0 -0.00000000000E+00 -0.00000000000E+00 -0.45593999997E+02  0.45594000000E+02  0.51100000000E-03 0.  1.
    9900012    2    1    2    0    0 -0.90548096799E+00  0.75263628558E+00 -0.81824789408E-01  0.90007723567E+02  0.89999984718E+02 0.  0.
         12    1    1    2    0    0  0.90548096799E+00 -0.75263628558E+00  0.81824789408E-01  0.11802764328E+01  0.00000000000E+00 0. -1.
         11    1    3    3    0    0 -0.12652424135E+02  0.82046927669E+00  0.16634277923E+01  0.12787650238E+02  0.51100000000E-03 0. -1.
        -11    1    3    3    0    0  0.22642542724E+02  0.30183890682E+02  0.15430903758E+02  0.40765975871E+02  0.51100000000E-03 0.  1.
         12    1    3    3    0    0 -0.10895599557E+02 -0.30251723673E+02 -0.17176156339E+02  0.36454097458E+02  0.00000000000E+00 0. -1.
</event>
<event>
 7    1  0.4096472E-015  0.9000766E+02  0.7816164E-02  0.1186339E+00
        -11   -1    0    0    0    0  0.00000000000E+00  0.00000000000E+00  0.45593999997E+02  0.45594000000E+02  0.51100000000E-03 0.  1.
         11   -1    0    0    0    0 -0.00000000000E+00 -0.00000000000E+00 -0.45593999997E+02  0.45594000000E+02  0.51100000000E-03 0. -1.
    9900012    2    1    2    0    0 -0.75691490738E+00 -0.57943609705E+00  0.69609153181E+00  0.90007656919E+02  0.89999917191E+02 0.  0.
         12    1    1    2    0    0  0.75691490738E+00  0.57943609705E+00 -0.69609153181E+00  0.11803430807E+01  0.00000000000E+00 0. -1.
         11    1    3    3    0    0 -0.58382434068E+01  0.50559520853E+01  0.30422344875E+01  0.83007787890E+01  0.51100000000E-03 0. -1.
        -11    1    3    3    0    0  0.13970003493E+02  0.36252613142E+02 -0.88464953101E+00  0.38861234698E+02  0.51100000000E-03 0.  1.
         12    1    3    3    0    0 -0.88886749939E+01 -0.41888001324E+02 -0.14614934247E+01  0.42845643432E+02  0.00000000000E+00 0. -1.
</event>
<event>
 7    1  0.4096472E-015  0.9000765E+02  0.7816164E-02  0.1186339E+00
        -11   -1    0    0    0    0  0.00000000000E+00  0.00000000000E+00  0.45593999997E+02  0.45594000000E+02  0.51100000000E-03 0.  1.
         11   -1    0    0    0    0 -0.00000000000E+00 -0.00000000000E+00 -0.45593999997E+02  0.45594000000E+02  0.51100000000E-03 0. -1.
    9900012    2    1    2    0    0  0.59203397617E+00 -0.87347408919E+00  0.52893313510E+00  0.90007647733E+02  0.89999907883E+02 0.  0.
         12    1    1    2    0    0 -0.59203397617E+00  0.87347408919E+00 -0.52893313510E+00  0.11803522673E+01  0.00000000000E+00 0. -1.
         11    1    3    3    0    0  0.14561191475E+02  0.57131843305E+01 -0.10203295188E+02  0.18675545650E+02  0.51100000000E-03 0. -1.
        -11    1    3    3    0    0  0.17780512047E+02 -0.26600535068E+01 -0.20054238453E+02  0.26933157511E+02  0.51100000000E-03 0.  1.
         12    1    3    3    0    0 -0.31749669546E+02 -0.39266049129E+01  0.30786466777E+02  0.44398944571E+02  0.00000000000E+00 0. -1.
</event>
<event>
 7    1  0.4096472E-015  0.9000775E+02  0.7816164E-02  0.1186339E+00
        -11   -1    0    0    0    0  0.00000000000E+00  0.00000000000E+00  0.45593999997E+02  0.45594000000E+02  0.51100000000E-03 0.  1.
         11   -1    0    0    0    0 -0.00000000000E+00 -0.00000000000E+00 -0.45593999997E+02  0.45594000000E+02  0.51100000000E-03 0. -1.
    9900012    2    1    2    0    0  0.87314458715E+00 -0.58246186105E-01  0.79196571581E+00  0.90007752660E+02  0.90000014195E+02 0.  0.
         12    1    1    2    0    0 -0.87314458715E+00  0.58246186105E-01 -0.79196571581E+00  0.11802473399E+01  0.00000000000E+00 0. -1.
         11    1    3    3    0    0 -0.26382886849E+01 -0.37548148690E+02 -0.41264721224E+01  0.37866235747E+02  0.51100000000E-03 0. -1.
        -11    1    3    3    0    0 -0.90190236063E+01 -0.29995041277E+01  0.33818515249E+00  0.95107403119E+01  0.51100000000E-03 0.  1.
        -12    1    3    3    0    0  0.12530456878E+02  0.40489406631E+02  0.45802526858E+01  0.42630776601E+02  0.00000000000E+00 0.  1.
</event>
<event>
 7    1  0.4096472E-015  0.9000775E+02  0.7816164E-02  0.1186339E+00
        -11   -1    0    0    0    0  0.00000000000E+00  0.00000000000E+00  0.45593999997E+02  0.45594000000E+02  0.51100000000E-03 0.  1.
         11   -1    0    0    0    0 -0.00000000000E+00 -0.00000000000E+00 -0.45593999997E+02  0.45594000000E+02  0.51100000000E-03 0. -1.
    9900012    2    1    2    0    0 -0.14613325708E+00 -0.83140815455E+00  0.82486497868E+00  0.90007747196E+02  0.90000008659E+02 0.  0.
         12    1    1    2    0    0  0.14613325708E+00  0.83140815455E+00 -0.82486497868E+00  0.11802528040E+01  0.00000000000E+00 0. -1.
         11    1    3    3    0    0 -0.67750546329E+01 -0.13891073250E+02 -0.69621246461E+01  0.16950942781E+02  0.51100000000E-03 0. -1.
        -11    1    3    3    0    0  0.10047166042E+02 -0.26702422847E+02  0.15411105308E+02  0.32426333411E+02  0.51100000000E-03 0.  1.
         12    1    3    3    0    0 -0.34182446666E+01  0.39762087942E+02 -0.76241156836E+01  0.40630471005E+02  0.00000000000E+00 0. -1.
</event>
<event>
 7    1  0.4096472E-015  0.9000768E+02  0.7816164E-02  0.1186339E+00
        -11   -1    0    0    0    0  0.00000000000E+00  0.00000000000E+00  0.45593999997E+02  0.45594000000E+02  0.51100000000E-03 0. -1.
         11   -1    0    0    0    0 -0.00000000000E+00 -0.00000000000E+00 -0.45593999997E+02  0.45594000000E+02  0.51100000000E-03 0.  1.
    9900012    2    1    2    0    0  0.53376599486E+00 -0.77530216539E+00  0.71215379168E+00  0.90007676905E+02  0.89999937440E+02 0.  0.
         12    1    1    2    0    0 -0.53376599486E+00  0.77530216539E+00 -0.71215379168E+00  0.11803230947E+01  0.00000000000E+00 0. -1.
         11    1    3    3    0    0  0.93217879238E+01 -0.10159037675E+02  0.15044071839E+02  0.20406515487E+02  0.51100000000E-03 0. -1.
        -11    1    3    3    0    0  0.28529217699E+02  0.10644190469E+02 -0.98013995243E+01  0.31988786882E+02  0.51100000000E-03 0.  1.
         12    1    3    3    0    0 -0.37317239628E+02 -0.12604549595E+01 -0.45305185227E+01  0.37612374536E+02  0.00000000000E+00 0. -1.
</event>
<event>
 7    1  0.4096472E-015  0.9000783E+02  0.7816164E-02  0.1186339E+00
        -11   -1    0    0    0    0  0.00000000000E+00  0.00000000000E+00  0.45593999997E+02  0.45594000000E+02  0.51100000000E-03 0.  1.
         11   -1    0    0    0    0 -0.00000000000E+00 -0.00000000000E+00 -0.45593999997E+02  0.45594000000E+02  0.51100000000E-03 0. -1.
    9900012    2    1    2    0    0 -0.64406970941E+00 -0.47182194043E+00  0.86911697342E+00  0.90007827959E+02  0.90000090488E+02 0.  0.
         12    1    1    2    0    0  0.64406970941E+00  0.47182194043E+00 -0.86911697342E+00  0.11801720415E+01  0.00000000000E+00 0. -1.
         11    1    3    3    0    0  0.14890403671E+01  0.17403879152E+01 -0.11507471652E+02  0.11733204822E+02  0.51100000000E-03 0. -1.
        -11    1    3    3    0    0 -0.10241461522E+02  0.22109689374E+02 -0.23716297633E+02  0.34002774475E+02  0.51100000000E-03 0.  1.
         12    1    3    3    0    0  0.81083514455E+01 -0.24321899230E+02  0.36092886259E+02  0.44271848661E+02  0.00000000000E+00 0. -1.
</event>
<event>
 7    1  0.4096472E-015  0.9000785E+02  0.7816164E-02  0.1186339E+00
        -11   -1    0    0    0    0  0.00000000000E+00  0.00000000000E+00  0.45593999997E+02  0.45594000000E+02  0.51100000000E-03 0. -1.
         11   -1    0    0    0    0 -0.00000000000E+00 -0.00000000000E+00 -0.45593999997E+02  0.45594000000E+02  0.51100000000E-03 0.  1.
    9900012    2    1    2    0    0 -0.85780312754E+00  0.21176273171E+00 -0.78235626717E+00  0.90007851285E+02  0.90000114122E+02 0.  0.
         12    1    1    2    0    0  0.85780312754E+00 -0.21176273171E+00  0.78235626717E+00  0.11801487148E+01  0.00000000000E+00 0. -1.
         11    1    3    3    0    0  0.54916324196E+01  0.81175867662E+01 -0.38505547800E+01  0.10529957926E+02  0.51100000000E-03 0. -1.
        -11    1    3    3    0    0  0.11550265902E+02  0.14267977059E+02 -0.30405281678E+02  0.35517108074E+02  0.51100000000E-03 0.  1.
         12    1    3    3    0    0 -0.17899701449E+02 -0.22173801094E+02  0.33473480190E+02  0.43960785286E+02  0.00000000000E+00 0. -1.
</event>
<event>
 7    1  0.5617940E-015  0.9000777E+02  0.7816164E-02  0.1186339E+00
        -11   -1    0    0    0    0  0.00000000000E+00  0.00000000000E+00  0.45593999997E+02  0.45594000000E+02  0.51100000000E-03 0. -1.
         11   -1    0    0    0    0 -0.00000000000E+00 -0.00000000000E+00 -0.45593999997E+02  0.45594000000E+02  0.51100000000E-03 0.  1.
    9900012    2    1    2    0    0 -0.20769352404E+00 -0.87522271312E+00 -0.76406698518E+00  0.90007767076E+02  0.90000028801E+02 0.  0.
         12    1    1    2    0    0  0.20769352404E+00  0.87522271312E+00  0.76406698518E+00  0.11802329242E+01  0.00000000000E+00 0. -1.
         11    1    3    3    0    0  0.12285090816E+02 -0.16210160187E+02  0.35040953077E+02  0.40516183710E+02  0.51100000000E-03 0. -1.
        -11    1    3    3    0    0 -0.47640992660E+01 -0.76716746711E+01 -0.51629082460E+01  0.10402252443E+02  0.51100000000E-03 0.  1.
        -12    1    3    3    0    0 -0.77286850739E+01  0.23006612145E+02 -0.30642111816E+02  0.39089330922E+02  0.00000000000E+00 0.  1.
</event>
<event>
 7    1  0.4096472E-015  0.9000744E+02  0.7816164E-02  0.1186340E+00
        -11   -1    0    0    0    0  0.00000000000E+00  0.00000000000E+00  0.45593999997E+02  0.45594000000E+02  0.51100000000E-03 0. -1.
         11   -1    0    0    0    0 -0.00000000000E+00 -0.00000000000E+00 -0.45593999997E+02  0.45594000000E+02  0.51100000000E-03 0.  1.
    9900012    2    1    2    0    0 -0.42376769403E+00  0.10696247924E+01 -0.26467210090E+00  0.90007437602E+02  0.89999694978E+02 0.  0.
         12    1    1    2    0    0  0.42376769403E+00 -0.10696247924E+01  0.26467210090E+00  0.11805623982E+01  0.00000000000E+00 0. -1.
         11    1    3    3    0    0  0.30625210723E+01  0.13608323134E+01 -0.63110614749E+01  0.71456558204E+01  0.51100000000E-03 0. -1.
        -11    1    3    3    0    0  0.24811927903E+02  0.27831951304E+02 -0.11866513389E+02  0.39128805501E+02  0.51100000000E-03 0.  1.
         12    1    3    3    0    0 -0.28298216670E+02 -0.28123158825E+02  0.17912902763E+02  0.43732976280E+02  0.00000000000E+00 0. -1.
</event>
<event>
 7    1  0.4096472E-015  0.9000784E+02  0.7816164E-02  0.1186339E+00
        -11   -1    0    0    0    0  0.00000000000E+00  0.00000000000E+00  0.45593999997E+02  0.45594000000E+02  0.51100000000E-03 0. -1.
         11   -1    0    0    0    0 -0.00000000000E+00 -0.00000000000E+00 -0.45593999997E+02  0.45594000000E+02  0.51100000000E-03 0.  1.
    9900012    2    1    2    0    0 -0.10899383569E+01  0.29039752241E+00 -0.34711992167E+00  0.90007835358E+02  0.90000097984E+02 0.  0.
         12    1    1    2    0    0  0.10899383569E+01 -0.29039752241E+00  0.34711992167E+00  0.11801646423E+01  0.00000000000E+00 0. -1.
         11    1    3    3    0    0  0.16959808553E+02 -0.32681663579E+02 -0.21750515670E+02  0.42764601865E+02  0.51100000000E-03 0. -1.
        -11    1    3    3    0    0  0.10194839768E+01  0.97623177916E+01 -0.86082862421E+00  0.98530818744E+01  0.51100000000E-03 0.  1.
        -12    1    3    3    0    0 -0.19069230887E+02  0.23209743310E+02  0.22264224373E+02  0.37390151619E+02  0.00000000000E+00 0.  1.
</event>
<event>
 7    1  0.4096472E-015  0.9000762E+02  0.7816164E-02  0.1186339E+00
        -11   -1    0    0    0    0  0.00000000000E+00  0.00000000000E+00  0.45593999997E+02  0.45594000000E+02  0.51100000000E-03 0. -1.
         11   -1    0    0    0    0 -0.00000000000E+00 -0.00000000000E+00 -0.45593999997E+02  0.45594000000E+02  0.51100000000E-03 0.  1.
    9900012    2    1    2    0    0  0.61426679916E+00  0.72151181906E+00 -0.70383435557E+00  0.90007624718E+02  0.89999884564E+02 0.  0.
         12    1    1    2    0    0 -0.61426679916E+00 -0.72151181906E+00  0.70383435557E+00  0.11803752817E+01  0.00000000000E+00 0. -1.
         11    1    3    3    0    0  0.53562686972E+00  0.20762219385E+01 -0.11759846035E+02  0.11953726310E+02  0.51100000000E-03 0. -1.
        -11    1    3    3    0    0  0.30707265445E+02 -0.12689245784E+01 -0.18183087603E+02  0.35709536481E+02  0.51100000000E-03 0.  1.
         12    1    3    3    0    0 -0.30628625515E+02 -0.85785541034E-01  0.29239099283E+02  0.42344361926E+02  0.00000000000E+00 0. -1.
</event>
<event>
 7    1  0.4096472E-015  0.9000753E+02  0.7816164E-02  0.1186339E+00
        -11   -1    0    0    0    0  0.00000000000E+00  0.00000000000E+00  0.45593999997E+02  0.45594000000E+02  0.51100000000E-03 0.  1.
         11   -1    0    0    0    0 -0.00000000000E+00 -0.00000000000E+00 -0.45593999997E+02  0.45594000000E+02  0.51100000000E-03 0. -1.
    9900012    2    1    2    0    0 -0.37606640400E-01  0.11625358310E+01  0.20153634556E+00  0.90007525216E+02  0.89999783748E+02 0.  0.
         12    1    1    2    0    0  0.37606640400E-01 -0.11625358310E+01 -0.20153634556E+00  0.11804747843E+01  0.00000000000E+00 0. -1.
         11    1    3    3    0    0  0.19752979763E+02 -0.20202097174E+02 -0.20408893057E+02  0.34854380726E+02  0.51100000000E-03 0. -1.
        -11    1    3    3    0    0  0.17332447001E+01 -0.10980155060E+02 -0.11980845091E+00  0.11116757470E+02  0.51100000000E-03 0.  1.
        -12    1    3    3    0    0 -0.21523831103E+02  0.32344788064E+02  0.20730237853E+02  0.44036387020E+02  0.00000000000E+00 0.  1.
</event>
<event>
 7    1  0.4096472E-015  0.9000772E+02  0.7816164E-02  0.1186339E+00
        -11   -1    0    0    0    0  0.00000000000E+00  0.00000000000E+00  0.45593999997E+02  0.45594000000E+02  0.51100000000E-03 0. -1.
         11   -1    0    0    0    0 -0.00000000000E+00 -0.00000000000E+00 -0.45593999997E+02  0.45594000000E+02  0.51100000000E-03 0.  1.
    9900012    2    1    2    0    0  0.11224469904E+01  0.19898915937E+00  0.30590377603E+00  0.90007719926E+02  0.89999981030E+02 0.  0.
         12    1    1    2    0    0 -0.11224469904E+01 -0.19898915937E+00 -0.30590377603E+00  0.11802800735E+01  0.00000000000E+00 0. -1.
         11    1    3    3    0    0  0.38143369796E+01  0.69832460202E+01 -0.66970230207E+01  0.10400240823E+02  0.51100000000E-03 0. -1.
        -11    1    3    3    0    0 -0.21290525532E+02  0.82789285986E+01 -0.28664992864E+02  0.36653907736E+02  0.51100000000E-03 0.  1.
         12    1    3    3    0    0  0.18598635543E+02 -0.15063185459E+02  0.35667919661E+02  0.42953571367E+02  0.00000000000E+00 0. -1.
</event>
<event>
 7    1  0.4096472E-015  0.9000772E+02  0.7816164E-02  0.1186339E+00
        -11   -1    0    0    0    0  0.00000000000E+00  0.00000000000E+00  0.45593999997E+02  0.45594000000E+02  0.51100000000E-03 0.  1.
         11   -1    0    0    0    0 -0.00000000000E+00 -0.00000000000E+00 -0.45593999997E+02  0.45594000000E+02  0.51100000000E-03 0. -1.
    9900012    2    1    2    0    0  0.11353675753E+01  0.16776851163E+00  0.27542155778E+00  0.90007719169E+02  0.89999980262E+02 0.  0.
         12    1    1    2    0    0 -0.11353675753E+01 -0.16776851163E+00 -0.27542155778E+00  0.11802808306E+01  0.00000000000E+00 0. -1.
         11    1    3    3    0    0 -0.10795949022E+01 -0.70185528673E+01 -0.57774280333E+01  0.91544680045E+01  0.51100000000E-03 0. -1.
        -11    1    3    3    0    0  0.32783539253E+02  0.14587297648E+02 -0.19037326343E+02  0.40619816509E+02  0.51100000000E-03 0.  1.
         12    1    3    3    0    0 -0.30568576776E+02 -0.74009762694E+01  0.25090175934E+02  0.40233434656E+02  0.00000000000E+00 0. -1.
</event>
<event>
 7    1  0.4349015E-015  0.9000762E+02  0.7816164E-02  0.1186339E+00
        -11   -1    0    0    0    0  0.00000000000E+00  0.00000000000E+00  0.45593999997E+02  0.45594000000E+02  0.51100000000E-03 0. -1.
         11   -1    0    0    0    0 -0.00000000000E+00 -0.00000000000E+00 -0.45593999997E+02  0.45594000000E+02  0.51100000000E-03 0.  1.
    9900012    2    1    2    0    0 -0.53532435772E+00 -0.37515665271E+00 -0.98283833217E+00  0.90007624691E+02  0.89999884537E+02 0.  0.
         12    1    1    2    0    0  0.53532435772E+00  0.37515665271E+00  0.98283833217E+00  0.11803753086E+01  0.00000000000E+00 0. -1.
         11    1    3    3    0    0  0.15674979574E+02  0.23022394713E+01  0.38764360428E+02  0.41876973755E+02  0.51100000000E-03 0. -1.
        -11    1    3    3    0    0  0.12555275565E+01 -0.80063704384E+01 -0.73463421057E+01  0.10938329838E+02  0.51100000000E-03 0.  1.
        -12    1    3    3    0    0 -0.17465831488E+02  0.53289743144E+01 -0.32400856654E+02  0.37192321099E+02  0.00000000000E+00 0.  1.
</event>
<event>
 7    1  0.4096472E-015  0.9000773E+02  0.7816164E-02  0.1186339E+00
        -11   -1    0    0    0    0  0.00000000000E+00  0.00000000000E+00  0.45593999997E+02  0.45594000000E+02  0.51100000000E-03 0.  1.
         11   -1    0    0    0    0 -0.00000000000E+00 -0.00000000000E+00 -0.45593999997E+02  0.45594000000E+02  0.51100000000E-03 0. -1.
    9900012    2    1    2    0    0  0.54455881860E+00 -0.10343756715E+01  0.16299735847E+00  0.90007726525E+02  0.89999987715E+02 0.  0.
         12    1    1    2    0    0 -0.54455881860E+00  0.10343756715E+01 -0.16299735847E+00  0.11802734749E+01  0.00000000000E+00 0. -1.
         11    1    3    3    0    0  0.28383129018E+01  0.15533316381E+02 -0.38843407463E+02  0.41930302187E+02  0.51100000000E-03 0. -1.
        -11    1    3    3    0    0  0.72262240470E+01 -0.55895060302E+01  0.36255249902E+01  0.98288007078E+01  0.51100000000E-03 0.  1.
        -12    1    3    3    0    0 -0.95199781302E+01 -0.10978186023E+02  0.35380879831E+02  0.38248623630E+02  0.00000000000E+00 0.  1.
</event>
<event>
 7    1  0.4096472E-015  0.9000773E+02  0.7816164E-02  0.1186339E+00
        -11   -1    0    0    0    0  0.00000000000E+00  0.00000000000E+00  0.45593999997E+02  0.45594000000E+02  0.51100000000E-03 0.  1.
         11   -1    0    0    0    0 -0.00000000000E+00 -0.00000000000E+00 -0.45593999997E+02  0.45594000000E+02  0.51100000000E-03 0. -1.
    9900012    2    1    2    0    0  0.96226038259E+00 -0.72511949310E-01  0.67958046232E+00  0.90007731966E+02  0.89999993228E+02 0.  0.
         12    1    1    2    0    0 -0.96226038259E+00  0.72511949310E-01 -0.67958046232E+00  0.11802680337E+01  0.00000000000E+00 0. -1.
         11    1    3    3    0    0 -0.36679256311E+02 -0.15649759973E+02  0.35171296029E+01  0.40033149160E+02  0.51100000000E-03 0. -1.
        -11    1    3    3    0    0 -0.87541320218E+00  0.35212506592E+01 -0.84788316573E+01  0.92225886287E+01  0.51100000000E-03 0.  1.
        -12    1    3    3    0    0  0.38516929896E+02  0.12055997364E+02  0.56412825167E+01  0.40751994178E+02  0.00000000000E+00 0.  1.
</event>
<event>
 7    1  0.4096472E-015  0.9000769E+02  0.7816164E-02  0.1186339E+00
        -11   -1    0    0    0    0  0.00000000000E+00  0.00000000000E+00  0.45593999997E+02  0.45594000000E+02  0.51100000000E-03 0.  1.
         11   -1    0    0    0    0 -0.00000000000E+00 -0.00000000000E+00 -0.45593999997E+02  0.45594000000E+02  0.51100000000E-03 0. -1.
    9900012    2    1    2    0    0  0.12299304432E+00  0.11728126073E+01 -0.50037862344E-01  0.90007694748E+02  0.89999955518E+02 0.  0.
         12    1    1    2    0    0 -0.12299304432E+00 -0.11728126073E+01  0.50037862344E-01  0.11803052522E+01  0.00000000000E+00 0. -1.
         11    1    3    3    0    0 -0.38241058822E+02 -0.16581154207E+02  0.56306945587E+01  0.42059695388E+02  0.51100000000E-03 0. -1.
        -11    1    3    3    0    0  0.83386208360E+01 -0.34284591071E+01 -0.66286060262E+01  0.11190413192E+02  0.51100000000E-03 0.  1.
        -12    1    3    3    0    0  0.30025431031E+02  0.21182425921E+02  0.94787360524E+00  0.36757586167E+02  0.00000000000E+00 0.  1.
</event>
<event>
 7    1  0.4096472E-015  0.9000771E+02  0.7816164E-02  0.1186339E+00
        -11   -1    0    0    0    0  0.00000000000E+00  0.00000000000E+00  0.45593999997E+02  0.45594000000E+02  0.51100000000E-03 0. -1.
         11   -1    0    0    0    0 -0.00000000000E+00 -0.00000000000E+00 -0.45593999997E+02  0.45594000000E+02  0.51100000000E-03 0.  1.
    9900012    2    1    2    0    0 -0.36999296119E+00  0.19105898358E+00 -0.11043950773E+01  0.90007709013E+02  0.89999969972E+02 0.  0.
         12    1    1    2    0    0  0.36999296119E+00 -0.19105898358E+00  0.11043950773E+01  0.11802909867E+01  0.00000000000E+00 0. -1.
         11    1    3    3    0    0  0.91250396276E+01 -0.65067770680E+01  0.85698994373E+00  0.11240059076E+02  0.51100000000E-03 0. -1.
        -11    1    3    3    0    0 -0.11602881234E+02  0.34539805257E+02  0.21492025449E+02  0.42302862294E+02  0.51100000000E-03 0.  1.
         12    1    3    3    0    0  0.21078486457E+01 -0.27841969205E+02 -0.23453410470E+02  0.36464787643E+02  0.00000000000E+00 0. -1.
</event>
<event>
 7    1  0.4096472E-015  0.9000769E+02  0.7816164E-02  0.1186339E+00
        -11   -1    0    0    0    0  0.00000000000E+00  0.00000000000E+00  0.45593999997E+02  0.45594000000E+02  0.51100000000E-03 0. -1.
         11   -1    0    0    0    0 -0.00000000000E+00 -0.00000000000E+00 -0.45593999997E+02  0.45594000000E+02  0.51100000000E-03 0.  1.
    9900012    2    1    2    0    0 -0.95888880185E+00  0.26637985430E+00 -0.63458175137E+00  0.90007694972E+02  0.89999955745E+02 0.  0.
         12    1    1    2    0    0  0.95888880185E+00 -0.26637985430E+00  0.63458175137E+00  0.11803050285E+01  0.00000000000E+00 0. -1.
         11    1    3    3    0    0  0.33065925054E+01  0.82377878918E+01  0.46378855903E+01  0.10015222731E+02  0.51100000000E-03 0. -1.
        -11    1    3    3    0    0  0.15676051386E+02  0.36915802273E+01 -0.37227280681E+02  0.40561518448E+02  0.51100000000E-03 0.  1.
         12    1    3    3    0    0 -0.19941532693E+02 -0.11662988265E+02  0.31954813339E+02  0.39430953792E+02  0.00000000000E+00 0. -1.
</event>
<event>
 7    1  0.4096472E-015  0.9000768E+02  0.7816164E-02  0.1186339E+00
        -11   -1    0    0    0    0  0.00000000000E+00  0.00000000000E+00  0.45593999997E+02  0.45594000000E+02  0.51100000000E-03 0. -1.
         11   -1    0    0    0    0 -0.00000000000E+00 -0.00000000000E+00 -0.45593999997E+02  0.45594000000E+02  0.51100000000E-03 0.  1.
    9900012    2    1    2    0    0  0.19162767405E-01  0.27859941900E+00 -0.11468041557E+01  0.90007684525E+02  0.89999945161E+02 0.  0.
         12    1    1    2    0    0 -0.19162767405E-01 -0.27859941900E+00  0.11468041557E+01  0.11803154746E+01  0.00000000000E+00 0. -1.
         11    1    3    3    0    0  0.81756112051E+00 -0.48552293215E+01 -0.71983925330E+01  0.87211532076E+01  0.51100000000E-03 0. -1.
        -11    1    3    3    0    0  0.39292103486E+02  0.50422653113E+00  0.10530359685E+02  0.40681840127E+02  0.51100000000E-03 0.  1.
         12    1    3    3    0    0 -0.40090501839E+02  0.46296022094E+01 -0.44787713077E+01  0.40604691191E+02  0.00000000000E+00 0. -1.
</event>
<event>
 7    1  0.4096472E-015  0.9000767E+02  0.7816164E-02  0.1186339E+00
        -11   -1    0    0    0    0  0.00000000000E+00  0.00000000000E+00  0.45593999997E+02  0.45594000000E+02  0.51100000000E-03 0. -1.
         11   -1    0    0    0    0 -0.00000000000E+00 -0.00000000000E+00 -0.45593999997E+02  0.45594000000E+02  0.51100000000E-03 0.  1.
    9900012    2    1    2    0    0 -0.34432606872E+00 -0.10623220262E+01 -0.38223094409E+00  0.90007665715E+02  0.89999926103E+02 0.  0.
         12    1    1    2    0    0  0.34432606872E+00  0.10623220262E+01  0.38223094409E+00  0.11803342846E+01  0.00000000000E+00 0. -1.
         11    1    3    3    0    0  0.60429271774E+01  0.15129737255E+02  0.38290867970E+02  0.41612696241E+02  0.51100000000E-03 0. -1.
        -11    1    3    3    0    0 -0.67160269915E+01  0.38159755062E+01 -0.18177320013E+02  0.19750484823E+02  0.51100000000E-03 0.  1.
        -12    1    3    3    0    0  0.32877374543E+00 -0.20008034787E+02 -0.20495778901E+02  0.28644484652E+02  0.00000000000E+00 0.  1.
</event>
<event>
 7    1  0.4096472E-015  0.9000741E+02  0.7816164E-02  0.1186340E+00
        -11   -1    0    0    0    0  0.00000000000E+00  0.00000000000E+00  0.45593999997E+02  0.45594000000E+02  0.51100000000E-03 0.  1.
         11   -1    0    0    0    0 -0.00000000000E+00 -0.00000000000E+00 -0.45593999997E+02  0.45594000000E+02  0.51100000000E-03 0. -1.
    9900012    2    1    2    0    0  0.35446890531E+00 -0.10946842717E+01 -0.26419670230E+00  0.90007414655E+02  0.89999671728E+02 0.  0.
         12    1    1    2    0    0 -0.35446890531E+00  0.10946842717E+01  0.26419670230E+00  0.11805853451E+01  0.00000000000E+00 0. -1.
         11    1    3    3    0    0 -0.21352332344E+01 -0.88939819142E+01  0.22356198882E+00  0.91494325223E+01  0.51100000000E-03 0. -1.
        -11    1    3    3    0    0 -0.27465230645E+02 -0.21418483152E+02  0.12562105113E+02  0.37025623561E+02  0.51100000000E-03 0.  1.
         12    1    3    3    0    0  0.29954932784E+02  0.29217780795E+02 -0.13049863805E+02  0.43832358572E+02  0.00000000000E+00 0. -1.
</event>
<event>
 7    1  0.4096472E-015  0.9000769E+02  0.7816164E-02  0.1186339E+00
        -11   -1    0    0    0    0  0.00000000000E+00  0.00000000000E+00  0.45593999997E+02  0.45594000000E+02  0.51100000000E-03 0. -1.
         11   -1    0    0    0    0 -0.00000000000E+00 -0.00000000000E+00 -0.45593999997E+02  0.45594000000E+02  0.51100000000E-03 0.  1.
    9900012    2    1    2    0    0  0.10307115395E+01  0.28310463301E+00 -0.50062448294E+00  0.90007686743E+02  0.89999947408E+02 0.  0.
         12    1    1    2    0    0 -0.10307115395E+01 -0.28310463301E+00  0.50062448294E+00  0.11803132567E+01  0.00000000000E+00 0. -1.
         11    1    3    3    0    0  0.23070298015E+01  0.45229704543E+01  0.72533830571E+01  0.88538813110E+01  0.51100000000E-03 0. -1.
        -11    1    3    3    0    0  0.11247759249E+02  0.27742868023E+02  0.20828529224E+02  0.36469253409E+02  0.51100000000E-03 0.  1.
         12    1    3    3    0    0 -0.12524077511E+02 -0.31982733845E+02 -0.28582536764E+02  0.44684552024E+02  0.00000000000E+00 0. -1.
</event>
<event>
 7    1  0.5478304E-015  0.9000774E+02  0.7816164E-02  0.1186339E+00
        -11   -1    0    0    0    0  0.00000000000E+00  0.00000000000E+00  0.45593999997E+02  0.45594000000E+02  0.51100000000E-03 0. -1.
         11   -1    0    0    0    0 -0.00000000000E+00 -0.00000000000E+00 -0.45593999997E+02  0.45594000000E+02  0.51100000000E-03 0.  1.
    9900012    2    1    2    0    0 -0.61761604165E+00  0.15291258769E-02 -0.10057665035E+01  0.90007738091E+02  0.89999999434E+02 0.  0.
         12    1    1    2    0    0  0.61761604165E+00 -0.15291258769E-02  0.10057665035E+01  0.11802619085E+01  0.00000000000E+00 0. -1.
         11    1    3    3    0    0 -0.74933429671E+01 -0.26118111572E+02  0.25101901923E+02  0.36992045379E+02  0.51100000000E-03 0. -1.
        -11    1    3    3    0    0  0.52347200493E+01 -0.14230018279E+01  0.76742498214E+01  0.93979433271E+01  0.51100000000E-03 0.  1.
        -12    1    3    3    0    0  0.16410068761E+01  0.27542642526E+02 -0.33781918248E+02  0.43617749385E+02  0.00000000000E+00 0.  1.
</event>
<event>
 7    1  0.4096472E-015  0.9000754E+02  0.7816164E-02  0.1186339E+00
        -11   -1    0    0    0    0  0.00000000000E+00  0.00000000000E+00  0.45593999997E+02  0.45594000000E+02  0.51100000000E-03 0. -1.
         11   -1    0    0    0    0 -0.00000000000E+00 -0.00000000000E+00 -0.45593999997E+02  0.45594000000E+02  0.51100000000E-03 0.  1.
    9900012    2    1    2    0    0  0.82928422281E+00 -0.71337936072E+00 -0.44368788875E+00  0.90007541878E+02  0.89999800631E+02 0.  0.
         12    1    1    2    0    0 -0.82928422281E+00  0.71337936072E+00  0.44368788875E+00  0.11804581217E+01  0.00000000000E+00 0. -1.
         11    1    3    3    0    0  0.24532642420E+02 -0.21978687117E+01 -0.32680017160E+01  0.24846750420E+02  0.51100000000E-03 0. -1.
        -11    1    3    3    0    0 -0.93860338214E+01  0.22257828181E+02 -0.19830188286E+02  0.31252918487E+02  0.51100000000E-03 0.  1.
        -12    1    3    3    0    0 -0.14317324376E+02 -0.20773338830E+02  0.22654502113E+02  0.33907872971E+02  0.00000000000E+00 0.  1.
</event>
<event>
 7    1  0.4096472E-015  0.9000771E+02  0.7816164E-02  0.1186339E+00
        -11   -1    0    0    0    0  0.00000000000E+00  0.00000000000E+00  0.45593999997E+02  0.45594000000E+02  0.51100000000E-03 0. -1.
         11   -1    0    0    0    0 -0.00000000000E+00 -0.00000000000E+00 -0.45593999997E+02  0.45594000000E+02  0.51100000000E-03 0.  1.
    9900012    2    1    2    0    0  0.15342919109E+00 -0.42325263500E+00 -0.10910585110E+01  0.90007706823E+02  0.89999967753E+02 0.  0.
         12    1    1    2    0    0 -0.15342919109E+00  0.42325263500E+00  0.10910585110E+01  0.11802931772E+01  0.00000000000E+00 0. -1.
         11    1    3    3    0    0 -0.17532884541E+02  0.26379664078E+02  0.15699367267E+02  0.35351928520E+02  0.51100000000E-03 0. -1.
        -11    1    3    3    0    0 -0.74778640271E+01  0.48365280835E+01  0.33190393193E+01  0.95040242305E+01  0.51100000000E-03 0.  1.
        -12    1    3    3    0    0  0.25164177760E+02 -0.31639444796E+02 -0.20109465098E+02  0.45151754073E+02  0.00000000000E+00 0.  1.
</event>
<event>
 7    1  0.4096472E-015  0.9000787E+02  0.7816164E-02  0.1186339E+00
        -11   -1    0    0    0    0  0.00000000000E+00  0.00000000000E+00  0.45593999997E+02  0.45594000000E+02  0.51100000000E-03 0.  1.
         11   -1    0    0    0    0 -0.00000000000E+00 -0.00000000000E+00 -0.45593999997E+02  0.45594000000E+02  0.51100000000E-03 0. -1.
    9900012    2    1    2    0    0 -0.73036062797E+00 -0.76387383068E+00  0.52513453743E+00  0.90007874516E+02  0.90000137659E+02 0.  0.
         12    1    1    2    0    0  0.73036062797E+00  0.76387383068E+00 -0.52513453743E+00  0.11801254842E+01  0.00000000000E+00 0. -1.
         11    1    3    3    0    0 -0.29191749132E+01 -0.89890432424E+01 -0.39825723362E+01  0.10255991579E+02  0.51100000000E-03 0. -1.
        -11    1    3    3    0    0 -0.17543761771E+02 -0.27414166630E+02 -0.13469408737E+02  0.35224211575E+02  0.51100000000E-03 0.  1.
         12    1    3    3    0    0  0.19732576056E+02  0.35639336041E+02  0.17977115611E+02  0.44527671362E+02  0.00000000000E+00 0. -1.
</event>
<event>
 7    1  0.4096472E-015  0.9000770E+02  0.7816164E-02  0.1186339E+00
        -11   -1    0    0    0    0  0.00000000000E+00  0.00000000000E+00  0.45593999997E+02  0.45594000000E+02  0.51100000000E-03 0.  1.
         11   -1    0    0    0    0 -0.00000000000E+00 -0.00000000000E+00 -0.45593999997E+02  0.45594000000E+02  0.51100000000E-03 0. -1.
    9900012    2    1    2    0    0 -0.95624232315E+00 -0.39516313519E+00  0.56794166356E+00  0.90007698760E+02  0.89999959584E+02 0.  0.
         12    1    1    2    0    0  0.95624232315E+00  0.39516313519E+00 -0.56794166356E+00  0.11803012400E+01  0.00000000000E+00 0. -1.
         11    1    3    3    0    0  0.31362426143E+02  0.12305676567E+02 -0.13765197265E+02  0.36393847081E+02  0.51100000000E-03 0. -1.
        -11    1    3    3    0    0 -0.13549400526E+02 -0.26508364168E+00 -0.12603335293E+02  0.18506771321E+02  0.51100000000E-03 0.  1.
        -12    1    3    3    0    0 -0.18769267940E+02 -0.12435756061E+02  0.26936474221E+02  0.35107080359E+02  0.00000000000E+00 0.  1.
</event>
<event>
 7    1  0.4096472E-015  0.9000775E+02  0.7816164E-02  0.1186339E+00
        -11   -1    0    0    0    0  0.00000000000E+00  0.00000000000E+00  0.45593999997E+02  0.45594000000E+02  0.51100000000E-03 0.  1.
         11   -1    0    0    0    0 -0.00000000000E+00 -0.00000000000E+00 -0.45593999997E+02  0.45594000000E+02  0.51100000000E-03 0. -1.
    9900012    2    1    2    0    0  0.15342430491E+00  0.25466968804E+00  0.11421855875E+01  0.90007752745E+02  0.90000014281E+02 0.  0.
         12    1    1    2    0    0 -0.15342430491E+00 -0.25466968804E+00 -0.11421855875E+01  0.11802472553E+01  0.00000000000E+00 0. -1.
         11    1    3    3    0    0 -0.13533342857E+01 -0.71425577616E+01  0.34940622163E+00  0.72780306426E+01  0.51100000000E-03 0. -1.
        -11    1    3    3    0    0 -0.29986669896E+02 -0.83243795993E+01  0.25076336990E+02  0.39966465246E+02  0.51100000000E-03 0.  1.
         12    1    3    3    0    0  0.31493428487E+02  0.15721607049E+02 -0.24283557624E+02  0.42763256856E+02  0.00000000000E+00 0. -1.
</event>
<event>
 7    1  0.4096472E-015  0.9000743E+02  0.7816164E-02  0.1186340E+00
        -11   -1    0    0    0    0  0.00000000000E+00  0.00000000000E+00  0.45593999997E+02  0.45594000000E+02  0.51100000000E-03 0.  1.
         11   -1    0    0    0    0 -0.00000000000E+00 -0.00000000000E+00 -0.45593999997E+02  0.45594000000E+02  0.51100000000E-03 0. -1.
    9900012    2    1    2    0    0  0.13411039019E+00  0.45189954270E+00  0.10823809308E+01  0.90007429260E+02  0.89999686525E+02 0.  0.
         12    1    1    2    0    0 -0.13411039019E+00 -0.45189954270E+00 -0.10823809308E+01  0.11805707403E+01  0.00000000000E+00 0. -1.
         11    1    3    3    0    0  0.10769122046E+00 -0.21096742434E+02 -0.27378868866E+02  0.34564238736E+02  0.51100000000E-03 0. -1.
        -11    1    3    3    0    0 -0.25959028605E+01 -0.11584905210E+02  0.29375982255E+00  0.11875817256E+02  0.51100000000E-03 0.  1.
        -12    1    3    3    0    0  0.26223220302E+01  0.33133547187E+02  0.28167489974E+02  0.43567373268E+02  0.00000000000E+00 0.  1.
</event>
<event>
 7    1  0.4096472E-015  0.9000774E+02  0.7816164E-02  0.1186339E+00
        -11   -1    0    0    0    0  0.00000000000E+00  0.00000000000E+00  0.45593999997E+02  0.45594000000E+02  0.51100000000E-03 0.  1.
         11   -1    0    0    0    0 -0.00000000000E+00 -0.00000000000E+00 -0.45593999997E+02  0.45594000000E+02  0.51100000000E-03 0. -1.
    9900012    2    1    2    0    0 -0.17905008864E+00 -0.29362896740E+00  0.11290439194E+01  0.90007738556E+02  0.89999999905E+02 0.  0.
         12    1    1    2    0    0  0.17905008864E+00  0.29362896740E+00 -0.11290439194E+01  0.11802614442E+01  0.00000000000E+00 0. -1.
         11    1    3    3    0    0 -0.95858816437E+00  0.35853733599E+02  0.32803288708E+01  0.36016241642E+02  0.51100000000E-03 0. -1.
        -11    1    3    3    0    0 -0.25639471940E+01  0.81127780611E+01 -0.43401144072E+01  0.95513133343E+01  0.51100000000E-03 0.  1.
        -12    1    3    3    0    0  0.33434852697E+01 -0.44260140628E+02  0.21888294558E+01  0.44440183579E+02  0.00000000000E+00 0.  1.
</event>
<event>
 7    1  0.4096472E-015  0.9000767E+02  0.7816164E-02  0.1186339E+00
        -11   -1    0    0    0    0  0.00000000000E+00  0.00000000000E+00  0.45593999997E+02  0.45594000000E+02  0.51100000000E-03 0. -1.
         11   -1    0    0    0    0 -0.00000000000E+00 -0.00000000000E+00 -0.45593999997E+02  0.45594000000E+02  0.51100000000E-03 0.  1.
    9900012    2    1    2    0    0 -0.41772338314E-01  0.83318199552E+00 -0.83501288690E+00  0.90007667976E+02  0.89999928393E+02 0.  0.
         12    1    1    2    0    0  0.41772338314E-01 -0.83318199552E+00  0.83501288690E+00  0.11803320241E+01  0.00000000000E+00 0. -1.
         11    1    3    3    0    0 -0.67522961890E+01 -0.73472391539E+01  0.28915411508E+01  0.10389246243E+02  0.51100000000E-03 0. -1.
        -11    1    3    3    0    0 -0.19103388986E+02  0.15270527732E+02  0.28610225988E+02  0.37638723667E+02  0.51100000000E-03 0.  1.
         12    1    3    3    0    0  0.25813912837E+02 -0.70901065827E+01 -0.32336780025E+02  0.41979698066E+02  0.00000000000E+00 0. -1.
</event>
<event>
 7    1  0.4096472E-015  0.9000774E+02  0.7816164E-02  0.1186339E+00
        -11   -1    0    0    0    0  0.00000000000E+00  0.00000000000E+00  0.45593999997E+02  0.45594000000E+02  0.51100000000E-03 0.  1.
         11   -1    0    0    0    0 -0.00000000000E+00 -0.00000000000E+00 -0.45593999997E+02  0.45594000000E+02  0.51100000000E-03 0. -1.
    9900012    2    1    2    0    0  0.10936634134E+01  0.44158689079E+00 -0.43841276334E-01  0.90007737020E+02  0.89999998349E+02 0.  0.
         12    1    1    2    0    0 -0.10936634134E+01 -0.44158689079E+00  0.43841276334E-01  0.11802629798E+01  0.00000000000E+00 0. -1.
         11    1    3    3    0    0  0.63300032368E+01 -0.33075691720E+01 -0.62796172191E+01  0.95101286787E+01  0.51100000000E-03 0. -1.
        -11    1    3    3    0    0  0.25947499443E+02  0.22268467599E+02  0.22309094227E+02  0.40827111851E+02  0.51100000000E-03 0.  1.
         12    1    3    3    0    0 -0.31183839267E+02 -0.18519311536E+02 -0.16073318284E+02  0.39670496491E+02  0.00000000000E+00 0. -1.
</event>
<event>
 7    1  0.4096472E-015  0.9000780E+02  0.7816164E-02  0.1186339E+00
        -11   -1    0    0    0    0  0.00000000000E+00  0.00000000000E+00  0.45593999997E+02  0.45594000000E+02  0.51100000000E-03 0.  1.
         11   -1    0    0    0    0 -0.00000000000E+00 -0.00000000000E+00 -0.45593999997E+02  0.45594000000E+02  0.51100000000E-03 0. -1.
    9900012    2    1    2    0    0  0.61427383179E+00 -0.69821386658E+00  0.72665924071E+00  0.90007801459E+02  0.90000063638E+02 0.  0.
         12    1    1    2    0    0 -0.61427383179E+00  0.69821386658E+00 -0.72665924071E+00  0.11801985409E+01  0.00000000000E+00 0. -1.
         11    1    3    3    0    0  0.15499980450E+02  0.10546009614E+02 -0.28997606826E+02  0.34530116053E+02  0.51100000000E-03 0. -1.
        -11    1    3    3    0    0  0.74744407798E+01  0.10425084533E+02  0.59874758004E+00  0.12841656879E+02  0.51100000000E-03 0.  1.
        -12    1    3    3    0    0 -0.22360147398E+02 -0.21669308013E+02  0.29125518486E+02  0.42636028527E+02  0.00000000000E+00 0.  1.
</event>
<event>
 7    1  0.4096472E-015  0.9000775E+02  0.7816164E-02  0.1186339E+00
        -11   -1    0    0    0    0  0.00000000000E+00  0.00000000000E+00  0.45593999997E+02  0.45594000000E+02  0.51100000000E-03 0.  1.
         11   -1    0    0    0    0 -0.00000000000E+00 -0.00000000000E+00 -0.45593999997E+02  0.45594000000E+02  0.51100000000E-03 0. -1.
    9900012    2    1    2    0    0  0.48352165513E+00 -0.10197230183E+01  0.34547625726E+00  0.90007753386E+02  0.90000014931E+02 0.  0.
         12    1    1    2    0    0 -0.48352165513E+00  0.10197230183E+01 -0.34547625726E+00  0.11802466138E+01  0.00000000000E+00 0. -1.
         11    1    3    3    0    0  0.23119241635E+02 -0.35555566972E+01 -0.54194642779E+00  0.23397329407E+02  0.51100000000E-03 0. -1.
        -11    1    3    3    0    0  0.15989964871E+02 -0.15149327619E+02  0.82002809086E+01  0.23503738237E+02  0.51100000000E-03 0.  1.
        -12    1    3    3    0    0 -0.38625684851E+02  0.17685161297E+02 -0.73128582236E+01  0.43106685742E+02  0.00000000000E+00 0.  1.
</event>
<event>
 7    1  0.4096472E-015  0.9000801E+02  0.7816164E-02  0.1186339E+00
        -11   -1    0    0    0    0  0.00000000000E+00  0.00000000000E+00  0.45593999997E+02  0.45594000000E+02  0.51100000000E-03 0.  1.
         11   -1    0    0    0    0 -0.00000000000E+00 -0.00000000000E+00 -0.45593999997E+02  0.45594000000E+02  0.51100000000E-03 0. -1.
    9900012    2    1    2    0    0 -0.14176630825E+00  0.11229044803E+01 -0.33372244057E+00  0.90008007277E+02  0.90000272173E+02 0.  0.
         12    1    1    2    0    0  0.14176630825E+00 -0.11229044803E+01  0.33372244057E+00  0.11799927226E+01  0.00000000000E+00 0. -1.
         11    1    3    3    0    0  0.14866281742E+01 -0.82515874308E+01  0.44402375996E+01  0.94875955152E+01  0.51100000000E-03 0. -1.
        -11    1    3    3    0    0 -0.18872396631E+02  0.25209804369E+02  0.26704936338E+02  0.41289892419E+02  0.51100000000E-03 0.  1.
         12    1    3    3    0    0  0.17244002149E+02 -0.15835312458E+02 -0.31478896378E+02  0.39230519343E+02  0.00000000000E+00 0. -1.
</event>
<event>
 7    1  0.4096472E-015  0.9000750E+02  0.7816164E-02  0.1186340E+00
        -11   -1    0    0    0    0  0.00000000000E+00  0.00000000000E+00  0.45593999997E+02  0.45594000000E+02  0.51100000000E-03 0. -1.
         11   -1    0    0    0    0 -0.00000000000E+00 -0.00000000000E+00 -0.45593999997E+02  0.45594000000E+02  0.51100000000E-03 0.  1.
    9900012    2    1    2    0    0  0.61396003181E+00  0.32484331052E+00 -0.95451517687E+00  0.90007504629E+02  0.89999762890E+02 0.  0.
         12    1    1    2    0    0 -0.61396003181E+00 -0.32484331052E+00  0.95451517687E+00  0.11804953706E+01  0.00000000000E+00 0. -1.
         11    1    3    3    0    0  0.98214614182E+01  0.39816973513E+00  0.56143148698E+01  0.11319901733E+02  0.51100000000E-03 0. -1.
        -11    1    3    3    0    0  0.82031818273E+01  0.31620995106E+02 -0.21985423251E+02  0.39376875947E+02  0.51100000000E-03 0.  1.
         12    1    3    3    0    0 -0.17410683214E+02 -0.31694321530E+02  0.15416593205E+02  0.39310726949E+02  0.00000000000E+00 0. -1.
</event>
<event>
 7    1  0.4096472E-015  0.9000772E+02  0.7816164E-02  0.1186339E+00
        -11   -1    0    0    0    0  0.00000000000E+00  0.00000000000E+00  0.45593999997E+02  0.45594000000E+02  0.51100000000E-03 0.  1.
         11   -1    0    0    0    0 -0.00000000000E+00 -0.00000000000E+00 -0.45593999997E+02  0.45594000000E+02  0.51100000000E-03 0. -1.
    9900012    2    1    2    0    0  0.11678000381E+01 -0.36481692614E-01 -0.16724393341E+00  0.90007721060E+02  0.89999982178E+02 0.  0.
         12    1    1    2    0    0 -0.11678000381E+01  0.36481692614E-01  0.16724393341E+00  0.11802789400E+01  0.00000000000E+00 0. -1.
         11    1    3    3    0    0  0.43694023509E+01  0.34987770239E+02 -0.12095852569E+02  0.37276606509E+02  0.51100000000E-03 0. -1.
        -11    1    3    3    0    0  0.13935362629E+01  0.77566640627E+01  0.44766956884E+01  0.90635856726E+01  0.51100000000E-03 0.  1.
        -12    1    3    3    0    0 -0.45951385757E+01 -0.42780915994E+02  0.74519129470E+01  0.43667528879E+02  0.00000000000E+00 0.  1.
</event>
<event>
 7    1  0.4096472E-015  0.9000773E+02  0.7816164E-02  0.1186339E+00
        -11   -1    0    0    0    0  0.00000000000E+00  0.00000000000E+00  0.45593999997E+02  0.45594000000E+02  0.51100000000E-03 0. -1.
         11   -1    0    0    0    0 -0.00000000000E+00 -0.00000000000E+00 -0.45593999997E+02  0.45594000000E+02  0.51100000000E-03 0.  1.
    9900012    2    1    2    0    0 -0.88976274961E-01 -0.19678771890E+00 -0.11603399183E+01  0.90007732696E+02  0.89999993967E+02 0.  0.
         12    1    1    2    0    0  0.88976274961E-01  0.19678771890E+00  0.11603399183E+01  0.11802673044E+01  0.00000000000E+00 0. -1.
         11    1    3    3    0    0 -0.53516620855E+01 -0.38824975318E+01 -0.49184901505E+01  0.82404866230E+01  0.51100000000E-03 0. -1.
        -11    1    3    3    0    0  0.28542208390E+02  0.13955153521E+02 -0.27109122215E+02  0.41764919216E+02  0.51100000000E-03 0.  1.
         12    1    3    3    0    0 -0.23279522580E+02 -0.10269443708E+02  0.30867272447E+02  0.40002326857E+02  0.00000000000E+00 0. -1.
</event>
<event>
 7    1  0.4096472E-015  0.9000777E+02  0.7816164E-02  0.1186339E+00
        -11   -1    0    0    0    0  0.00000000000E+00  0.00000000000E+00  0.45593999997E+02  0.45594000000E+02  0.51100000000E-03 0. -1.
         11   -1    0    0    0    0 -0.00000000000E+00 -0.00000000000E+00 -0.45593999997E+02  0.45594000000E+02  0.51100000000E-03 0.  1.
    9900012    2    1    2    0    0 -0.10741030409E+01  0.47856090587E+00 -0.10108245838E+00  0.90007773095E+02  0.90000034900E+02 0.  0.
         12    1    1    2    0    0  0.10741030409E+01 -0.47856090587E+00  0.10108245838E+00  0.11802269046E+01  0.00000000000E+00 0. -1.
         11    1    3    3    0    0  0.11118693189E+02  0.13584058761E+01 -0.84290564365E+01  0.14018544768E+02  0.51100000000E-03 0. -1.
        -11    1    3    3    0    0  0.29664390666E+02 -0.12344654230E+02  0.38244767608E+01  0.32357274057E+02  0.51100000000E-03 0.  1.
         12    1    3    3    0    0 -0.41857186896E+02  0.11464809260E+02  0.45034972173E+01  0.43631954270E+02  0.00000000000E+00 0. -1.
</event>
<event>
 7    1  0.5749587E-015  0.9000771E+02  0.7816164E-02  0.1186339E+00
        -11   -1    0    0    0    0  0.00000000000E+00  0.00000000000E+00  0.45593999997E+02  0.45594000000E+02  0.51100000000E-03 0. -1.
         11   -1    0    0    0    0 -0.00000000000E+00 -0.00000000000E+00 -0.45593999997E+02  0.45594000000E+02  0.51100000000E-03 0.  1.
    9900012    2    1    2    0    0  0.78422612618E+00  0.87539080548E-01 -0.87772582647E+00  0.90007713453E+02  0.89999974470E+02 0.  0.
         12    1    1    2    0    0 -0.78422612618E+00 -0.87539080548E-01  0.87772582647E+00  0.11802865474E+01  0.00000000000E+00 0. -1.
         11    1    3    3    0    0  0.93559516185E+01  0.31280849618E+02  0.27811824476E+02  0.42889660344E+02  0.51100000000E-03 0. -1.
        -11    1    3    3    0    0  0.47417882578E+01 -0.77137042742E+01 -0.22399700164E+01  0.93275535617E+01  0.51100000000E-03 0.  1.
        -12    1    3    3    0    0 -0.13313513750E+02 -0.23479606263E+02 -0.26449580286E+02  0.37790499546E+02  0.00000000000E+00 0.  1.
</event>
<event>
 7    1  0.4096472E-015  0.9000777E+02  0.7816164E-02  0.1186339E+00
        -11   -1    0    0    0    0  0.00000000000E+00  0.00000000000E+00  0.45593999997E+02  0.45594000000E+02  0.51100000000E-03 0.  1.
         11   -1    0    0    0    0 -0.00000000000E+00 -0.00000000000E+00 -0.45593999997E+02  0.45594000000E+02  0.51100000000E-03 0. -1.
    9900012    2    1    2    0    0 -0.80691625669E+00  0.84808194465E+00  0.15027867283E+00  0.90007770993E+02  0.90000032770E+02 0.  0.
         12    1    1    2    0    0  0.80691625669E+00 -0.84808194465E+00 -0.15027867283E+00  0.11802290073E+01  0.00000000000E+00 0. -1.
         11    1    3    3    0    0 -0.56453240513E+01 -0.20994526043E+02 -0.32459811138E+02  0.39067622743E+02  0.51100000000E-03 0. -1.
        -11    1    3    3    0    0  0.94123749067E+01 -0.78690919784E+00 -0.16886918926E+01  0.95949834830E+01  0.51100000000E-03 0.  1.
        -12    1    3    3    0    0 -0.45739671121E+01  0.22629517186E+02  0.34298781704E+02  0.41345164766E+02  0.00000000000E+00 0.  1.
</event>
<event>
 7    1  0.4096472E-015  0.9000773E+02  0.7816164E-02  0.1186339E+00
        -11   -1    0    0    0    0  0.00000000000E+00  0.00000000000E+00  0.45593999997E+02  0.45594000000E+02  0.51100000000E-03 0.  1.
         11   -1    0    0    0    0 -0.00000000000E+00 -0.00000000000E+00 -0.45593999997E+02  0.45594000000E+02  0.51100000000E-03 0. -1.
    9900012    2    1    2    0    0 -0.84196838379E-01 -0.84375705598E+00  0.82099503336E+00  0.90007725489E+02  0.89999986665E+02 0.  0.
         12    1    1    2    0    0  0.84196838379E-01  0.84375705598E+00 -0.82099503336E+00  0.11802745113E+01  0.00000000000E+00 0. -1.
         11    1    3    3    0    0  0.51974564493E+00 -0.62288119336E+01  0.66515809878E+01  0.91275277889E+01  0.51100000000E-03 0. -1.
        -11    1    3    3    0    0  0.35258085758E+02 -0.45403206401E+01  0.14599530243E+02  0.38430370885E+02  0.51100000000E-03 0.  1.
         12    1    3    3    0    0 -0.35862028241E+02  0.99253755177E+01 -0.20430116197E+02  0.42449826814E+02  0.00000000000E+00 0. -1.
</event>
<event>
 7    1  0.4096472E-015  0.9000778E+02  0.7816164E-02  0.1186339E+00
        -11   -1    0    0    0    0  0.00000000000E+00  0.00000000000E+00  0.45593999997E+02  0.45594000000E+02  0.51100000000E-03 0.  1.
         11   -1    0    0    0    0 -0.00000000000E+00 -0.00000000000E+00 -0.45593999997E+02  0.45594000000E+02  0.51100000000E-03 0. -1.
    9900012    2    1    2    0    0  0.12822619057E-01 -0.88638682984E+00  0.77915257114E+00  0.90007777665E+02  0.90000039530E+02 0.  0.
         12    1    1    2    0    0 -0.12822619057E-01  0.88638682984E+00 -0.77915257114E+00  0.11802223353E+01  0.00000000000E+00 0. -1.
         11    1    3    3    0    0 -0.15253829297E+02  0.29333472747E+02 -0.51567180965E+00  0.33066566942E+02  0.51100000000E-03 0. -1.
        -11    1    3    3    0    0  0.56175373032E+01  0.12146083848E+02 -0.10781161430E+01  0.13425587990E+02  0.51100000000E-03 0.  1.
        -12    1    3    3    0    0  0.96491146129E+01 -0.42365943425E+02  0.23729405238E+01  0.43515622733E+02  0.00000000000E+00 0.  1.
</event>
<event>
 7    1  0.4096472E-015  0.9000725E+02  0.7816164E-02  0.1186340E+00
        -11   -1    0    0    0    0  0.00000000000E+00  0.00000000000E+00  0.45593999997E+02  0.45594000000E+02  0.51100000000E-03 0. -1.
         11   -1    0    0    0    0 -0.00000000000E+00 -0.00000000000E+00 -0.45593999997E+02  0.45594000000E+02  0.51100000000E-03 0.  1.
    9900012    2    1    2    0    0  0.11039891660E+01 -0.35883231978E+00 -0.21590947570E+00  0.90007250402E+02  0.89999505306E+02 0.  0.
         12    1    1    2    0    0 -0.11039891660E+01  0.35883231978E+00  0.21590947570E+00  0.11807495984E+01  0.00000000000E+00 0. -1.
         11    1    3    3    0    0  0.50526701323E+01  0.19989192520E+01 -0.69112171190E+01  0.87914774622E+01  0.51100000000E-03 0. -1.
        -11    1    3    3    0    0  0.32496843274E+02 -0.21803748970E+02 -0.12321218587E+01  0.39153115029E+02  0.51100000000E-03 0.  1.
         12    1    3    3    0    0 -0.36445524241E+02  0.19445997398E+02  0.79274295020E+01  0.42062657910E+02  0.00000000000E+00 0. -1.
</event>
<event>
 7    1  0.4096472E-015  0.9000776E+02  0.7816164E-02  0.1186339E+00
        -11   -1    0    0    0    0  0.00000000000E+00  0.00000000000E+00  0.45593999997E+02  0.45594000000E+02  0.51100000000E-03 0.  1.
         11   -1    0    0    0    0 -0.00000000000E+00 -0.00000000000E+00 -0.45593999997E+02  0.45594000000E+02  0.51100000000E-03 0. -1.
    9900012    2    1    2    0    0 -0.64429318787E+00 -0.98863156952E+00  0.21371276183E-01  0.90007761540E+02  0.90000023192E+02 0.  0.
         12    1    1    2    0    0  0.64429318787E+00  0.98863156952E+00 -0.21371276183E-01  0.11802384605E+01  0.00000000000E+00 0. -1.
         11    1    3    3    0    0 -0.14781763082E+01 -0.10616820836E+02 -0.12436823525E+01  0.10791136915E+02  0.51100000000E-03 0. -1.
        -11    1    3    3    0    0  0.19659329479E+02 -0.26833823533E+02 -0.13083591922E+02  0.35745261208E+02  0.51100000000E-03 0.  1.
         12    1    3    3    0    0 -0.18825446359E+02  0.36462012800E+02  0.14348645551E+02  0.43471363416E+02  0.00000000000E+00 0. -1.
</event>
<event>
 7    1  0.4096472E-015  0.9000757E+02  0.7816164E-02  0.1186339E+00
        -11   -1    0    0    0    0  0.00000000000E+00  0.00000000000E+00  0.45593999997E+02  0.45594000000E+02  0.51100000000E-03 0. -1.
         11   -1    0    0    0    0 -0.00000000000E+00 -0.00000000000E+00 -0.45593999997E+02  0.45594000000E+02  0.51100000000E-03 0.  1.
    9900012    2    1    2    0    0 -0.24760160647E+00  0.97288131357E+00  0.62097368604E+00  0.90007570873E+02  0.89999830008E+02 0.  0.
         12    1    1    2    0    0  0.24760160647E+00 -0.97288131357E+00 -0.62097368604E+00  0.11804291273E+01  0.00000000000E+00 0. -1.
         11    1    3    3    0    0  0.26920102161E+02 -0.15874192139E+02  0.28654263555E+01  0.31382997704E+02  0.51100000000E-03 0. -1.
        -11    1    3    3    0    0  0.24895950934E+01 -0.14917391540E+02 -0.46482999006E+00  0.15130853290E+02  0.51100000000E-03 0.  1.
        -12    1    3    3    0    0 -0.29657298861E+02  0.31764464993E+02 -0.17796226794E+01  0.43493719879E+02  0.00000000000E+00 0.  1.
</event>
<event>
 7    1  0.4096472E-015  0.9000773E+02  0.7816164E-02  0.1186339E+00
        -11   -1    0    0    0    0  0.00000000000E+00  0.00000000000E+00  0.45593999997E+02  0.45594000000E+02  0.51100000000E-03 0. -1.
         11   -1    0    0    0    0 -0.00000000000E+00 -0.00000000000E+00 -0.45593999997E+02  0.45594000000E+02  0.51100000000E-03 0.  1.
    9900012    2    1    2    0    0  0.47292532825E+00 -0.10162802602E+01  0.36953138770E+00  0.90007729955E+02  0.89999991190E+02 0.  0.
         12    1    1    2    0    0 -0.47292532825E+00  0.10162802602E+01 -0.36953138770E+00  0.11802700454E+01  0.00000000000E+00 0. -1.
         11    1    3    3    0    0  0.13144534835E+02  0.70933282953E+01  0.35643192749E+02  0.38646232571E+02  0.51100000000E-03 0. -1.
        -11    1    3    3    0    0 -0.16398453884E+01  0.79307885474E+01  0.28250010071E+01  0.85771283559E+01  0.51100000000E-03 0.  1.
        -12    1    3    3    0    0 -0.11031764119E+02 -0.16040397103E+02 -0.38098662369E+02  0.42784369027E+02  0.00000000000E+00 0.  1.
</event>
<event>
 7    1  0.4096472E-015  0.9000772E+02  0.7816164E-02  0.1186339E+00
        -11   -1    0    0    0    0  0.00000000000E+00  0.00000000000E+00  0.45593999997E+02  0.45594000000E+02  0.51100000000E-03 0.  1.
         11   -1    0    0    0    0 -0.00000000000E+00 -0.00000000000E+00 -0.45593999997E+02  0.45594000000E+02  0.51100000000E-03 0. -1.
    9900012    2    1    2    0    0 -0.72993200186E+00 -0.28118311079E+00  0.88384915421E+00  0.90007722915E+02  0.89999984058E+02 0.  0.
         12    1    1    2    0    0  0.72993200186E+00  0.28118311079E+00 -0.88384915421E+00  0.11802770846E+01  0.00000000000E+00 0. -1.
         11    1    3    3    0    0  0.20132776190E+02  0.36397246881E+01  0.10567877261E+02  0.23027294739E+02  0.51100000000E-03 0. -1.
        -11    1    3    3    0    0 -0.24418008486E+01  0.27646409149E+02 -0.12259005348E+02  0.30340888955E+02  0.51100000000E-03 0.  1.
         12    1    3    3    0    0 -0.18420907343E+02 -0.31567316947E+02  0.25749772412E+01  0.36639539222E+02  0.00000000000E+00 0. -1.
</event>
<event>
 7    1  0.4096472E-015  0.9000775E+02  0.7816164E-02  0.1186339E+00
        -11   -1    0    0    0    0  0.00000000000E+00  0.00000000000E+00  0.45593999997E+02  0.45594000000E+02  0.51100000000E-03 0.  1.
         11   -1    0    0    0    0 -0.00000000000E+00 -0.00000000000E+00 -0.45593999997E+02  0.45594000000E+02  0.51100000000E-03 0. -1.
    9900012    2    1    2    0    0  0.83435266300E+00 -0.81072091729E+00 -0.19891634411E+00  0.90007754058E+02  0.90000015611E+02 0.  0.
         12    1    1    2    0    0 -0.83435266300E+00  0.81072091729E+00  0.19891634411E+00  0.11802459421E+01  0.00000000000E+00 0. -1.
         11    1    3    3    0    0  0.21081355626E+02 -0.13573165252E+02 -0.18593214960E+02  0.31214772349E+02  0.51100000000E-03 0. -1.
        -11    1    3    3    0    0 -0.62179204919E+01 -0.11751035888E+02  0.26294902206E+02  0.29464746087E+02  0.51100000000E-03 0.  1.
         12    1    3    3    0    0 -0.14029082471E+02  0.24513480223E+02 -0.79006035894E+01  0.29328235622E+02  0.00000000000E+00 0. -1.
</event>
<event>
 7    1  0.4096472E-015  0.9000772E+02  0.7816164E-02  0.1186339E+00
        -11   -1    0    0    0    0  0.00000000000E+00  0.00000000000E+00  0.45593999997E+02  0.45594000000E+02  0.51100000000E-03 0.  1.
         11   -1    0    0    0    0 -0.00000000000E+00 -0.00000000000E+00 -0.45593999997E+02  0.45594000000E+02  0.51100000000E-03 0. -1.
    9900012    2    1    2    0    0  0.21957449763E+00  0.88165310572E+00  0.75334737725E+00  0.90007721461E+02  0.89999982584E+02 0.  0.
         12    1    1    2    0    0 -0.21957449763E+00 -0.88165310572E+00 -0.75334737725E+00  0.11802785390E+01  0.00000000000E+00 0. -1.
         11    1    3    3    0    0  0.46016028616E+01 -0.70580244159E+01 -0.29302859664E+01  0.89205960371E+01  0.51100000000E-03 0. -1.
        -11    1    3    3    0    0  0.20120654207E+02  0.15909799738E+02  0.33168756361E+02  0.41930047128E+02  0.51100000000E-03 0.  1.
         12    1    3    3    0    0 -0.24502682571E+02 -0.79701222160E+01 -0.29485123017E+02  0.39157078296E+02  0.00000000000E+00 0. -1.
</event>
<event>
 7    1  0.4096472E-015  0.9000774E+02  0.7816164E-02  0.1186339E+00
        -11   -1    0    0    0    0  0.00000000000E+00  0.00000000000E+00  0.45593999997E+02  0.45594000000E+02  0.51100000000E-03 0. -1.
         11   -1    0    0    0    0 -0.00000000000E+00 -0.00000000000E+00 -0.45593999997E+02  0.45594000000E+02  0.51100000000E-03 0.  1.
    9900012    2    1    2    0    0  0.30317094944E+00 -0.11828908044E-01 -0.11405927005E+01  0.90007743987E+02  0.90000005408E+02 0.  0.
         12    1    1    2    0    0 -0.30317094944E+00  0.11828908044E-01  0.11405927005E+01  0.11802560129E+01  0.00000000000E+00 0. -1.
         11    1    3    3    0    0  0.21608568603E+02 -0.28800094920E+02  0.61663350530E+01  0.36529431870E+02  0.51100000000E-03 0. -1.
        -11    1    3    3    0    0  0.74325813557E+00 -0.89965412847E+01  0.49459486403E+00  0.90407307273E+01  0.51100000000E-03 0.  1.
        -12    1    3    3    0    0 -0.22048655790E+02  0.37784807297E+02 -0.78015226175E+01  0.44437581390E+02  0.00000000000E+00 0.  1.
</event>
<event>
 7    1  0.4096472E-015  0.9000775E+02  0.7816164E-02  0.1186339E+00
        -11   -1    0    0    0    0  0.00000000000E+00  0.00000000000E+00  0.45593999997E+02  0.45594000000E+02  0.51100000000E-03 0. -1.
         11   -1    0    0    0    0 -0.00000000000E+00 -0.00000000000E+00 -0.45593999997E+02  0.45594000000E+02  0.51100000000E-03 0.  1.
    9900012    2    1    2    0    0 -0.27419035628E-01 -0.43405524030E+00 -0.10971943660E+01  0.90007749505E+02  0.90000010998E+02 0.  0.
         12    1    1    2    0    0  0.27419035628E-01  0.43405524030E+00  0.10971943660E+01  0.11802504954E+01  0.00000000000E+00 0. -1.
         11    1    3    3    0    0 -0.15688759189E+02 -0.35005159399E+02  0.11662316918E+02  0.40093739980E+02  0.51100000000E-03 0. -1.
        -11    1    3    3    0    0 -0.49723614516E+01  0.59696751564E+01  0.61392215058E+01  0.99020927504E+01  0.51100000000E-03 0.  1.
        -12    1    3    3    0    0  0.20633701605E+02  0.28601429002E+02 -0.18898732790E+02  0.40011916774E+02  0.00000000000E+00 0.  1.
</event>
<event>
 7    1  0.4096472E-015  0.9000753E+02  0.7816164E-02  0.1186339E+00
        -11   -1    0    0    0    0  0.00000000000E+00  0.00000000000E+00  0.45593999997E+02  0.45594000000E+02  0.51100000000E-03 0. -1.
         11   -1    0    0    0    0 -0.00000000000E+00 -0.00000000000E+00 -0.45593999997E+02  0.45594000000E+02  0.51100000000E-03 0.  1.
    9900012    2    1    2    0    0 -0.27490066005E+00  0.56425698563E+00 -0.99977251254E+00  0.90007533399E+02  0.89999792040E+02 0.  0.
         12    1    1    2    0    0  0.27490066005E+00 -0.56425698563E+00  0.99977251254E+00  0.11804666008E+01  0.00000000000E+00 0. -1.
         11    1    3    3    0    0  0.22447700409E+01 -0.24397387404E+01  0.10405973148E+02  0.10921336689E+02  0.51100000000E-03 0. -1.
        -11    1    3    3    0    0  0.10018363043E+02 -0.24301070645E+02  0.21912693123E+02  0.34220984099E+02  0.51100000000E-03 0.  1.
         12    1    3    3    0    0 -0.12538033744E+02  0.27305066371E+02 -0.33318438783E+02  0.44865212611E+02  0.00000000000E+00 0. -1.
</event>
<event>
 7    1  0.4096472E-015  0.9000760E+02  0.7816164E-02  0.1186339E+00
        -11   -1    0    0    0    0  0.00000000000E+00  0.00000000000E+00  0.45593999997E+02  0.45594000000E+02  0.51100000000E-03 0.  1.
         11   -1    0    0    0    0 -0.00000000000E+00 -0.00000000000E+00 -0.45593999997E+02  0.45594000000E+02  0.51100000000E-03 0. -1.
    9900012    2    1    2    0    0  0.35851941579E-01  0.10821967060E+01  0.47000749602E+00  0.90007600865E+02  0.89999860396E+02 0.  0.
         12    1    1    2    0    0 -0.35851941579E-01 -0.10821967060E+01 -0.47000749602E+00  0.11803991353E+01  0.00000000000E+00 0. -1.
         11    1    3    3    0    0  0.43339024997E+01  0.10165838174E+02 -0.41998019010E+01  0.11822238067E+02  0.51100000000E-03 0. -1.
        -11    1    3    3    0    0 -0.32154710126E+02 -0.28945183982E+02  0.72874165175E+01  0.43873175162E+02  0.51100000000E-03 0.  1.
         12    1    3    3    0    0  0.27856659568E+02  0.19861542514E+02 -0.26176071205E+01  0.34312187636E+02  0.00000000000E+00 0. -1.
</event>
<event>
 7    1  0.4096472E-015  0.9000777E+02  0.7816164E-02  0.1186339E+00
        -11   -1    0    0    0    0  0.00000000000E+00  0.00000000000E+00  0.45593999997E+02  0.45594000000E+02  0.51100000000E-03 0. -1.
         11   -1    0    0    0    0 -0.00000000000E+00 -0.00000000000E+00 -0.45593999997E+02  0.45594000000E+02  0.51100000000E-03 0.  1.
    9900012    2    1    2    0    0  0.45527518271E-01  0.10746732732E+01  0.48574487769E+00  0.90007769732E+02  0.90000031493E+02 0.  0.
         12    1    1    2    0    0 -0.45527518271E-01 -0.10746732732E+01 -0.48574487769E+00  0.11802302679E+01  0.00000000000E+00 0. -1.
         11    1    3    3    0    0 -0.37814109650E+01 -0.18600089094E+01 -0.84341540069E+01  0.94283432321E+01  0.51100000000E-03 0. -1.
        -11    1    3    3    0    0  0.30012361076E+02 -0.23843836669E+02  0.17529354792E+02  0.42149123883E+02  0.51100000000E-03 0.  1.
         12    1    3    3    0    0 -0.26185422593E+02  0.26778518851E+02 -0.86094559070E+01  0.38430302617E+02  0.00000000000E+00 0. -1.
</event>
<event>
 7    1  0.4096472E-015  0.9000767E+02  0.7816164E-02  0.1186339E+00
        -11   -1    0    0    0    0  0.00000000000E+00  0.00000000000E+00  0.45593999997E+02  0.45594000000E+02  0.51100000000E-03 0.  1.
         11   -1    0    0    0    0 -0.00000000000E+00 -0.00000000000E+00 -0.45593999997E+02  0.45594000000E+02  0.51100000000E-03 0. -1.
    9900012    2    1    2    0    0  0.53274660342E+00  0.10426183444E+01  0.14936507018E+00  0.90007668742E+02  0.89999929169E+02 0.  0.
         12    1    1    2    0    0 -0.53274660342E+00 -0.10426183444E+01 -0.14936507018E+00  0.11803312585E+01  0.00000000000E+00 0. -1.
         11    1    3    3    0    0 -0.61365466395E+01 -0.29437737301E+02  0.26082972556E+02  0.39806520065E+02  0.51100000000E-03 0. -1.
        -11    1    3    3    0    0  0.94995834423E+01  0.15229083590E+01  0.20451782062E+01  0.98358573395E+01  0.51100000000E-03 0.  1.
        -12    1    3    3    0    0 -0.28302901993E+01  0.28957447286E+02 -0.27978785692E+02  0.40365291337E+02  0.00000000000E+00 0.  1.
</event>
<event>
 7    1  0.4096472E-015  0.9000777E+02  0.7816164E-02  0.1186339E+00
        -11   -1    0    0    0    0  0.00000000000E+00  0.00000000000E+00  0.45593999997E+02  0.45594000000E+02  0.51100000000E-03 0. -1.
         11   -1    0    0    0    0 -0.00000000000E+00 -0.00000000000E+00 -0.45593999997E+02  0.45594000000E+02  0.51100000000E-03 0.  1.
    9900012    2    1    2    0    0 -0.26811964114E+00  0.10567476736E+01 -0.45203351529E+00  0.90007772019E+02  0.90000033810E+02 0.  0.
         12    1    1    2    0    0  0.26811964114E+00 -0.10567476736E+01  0.45203351529E+00  0.11802279807E+01  0.00000000000E+00 0. -1.
         11    1    3    3    0    0 -0.39142132300E+02 -0.82731548530E+01  0.67718354335E+01  0.40575970322E+02  0.51100000000E-03 0. -1.
        -11    1    3    3    0    0  0.95943558989E+00  0.10308026898E+02 -0.48446069707E+01  0.11430054775E+02  0.51100000000E-03 0.  1.
        -12    1    3    3    0    0  0.37914577069E+02 -0.97812437171E+00 -0.23792619781E+01  0.38001746922E+02  0.00000000000E+00 0.  1.
</event>
<event>
 7    1  0.4096472E-015  0.9000809E+02  0.7816164E-02  0.1186338E+00
        -11   -1    0    0    0    0  0.00000000000E+00  0.00000000000E+00  0.45593999997E+02  0.45594000000E+02  0.51100000000E-03 0. -1.
         11   -1    0    0    0    0 -0.00000000000E+00 -0.00000000000E+00 -0.45593999997E+02  0.45594000000E+02  0.51100000000E-03 0.  1.
    9900012    2    1    2    0    0  0.59749472533E-01 -0.37971243462E+00 -0.11155445921E+01  0.90008088448E+02  0.90000354415E+02 0.  0.
         12    1    1    2    0    0 -0.59749472533E-01  0.37971243462E+00  0.11155445921E+01  0.11799115515E+01  0.00000000000E+00 0. -1.
         11    1    3    3    0    0  0.22640810109E+01  0.62454601068E+01  0.40911128644E+01  0.78018612843E+01  0.51100000000E-03 0. -1.
        -11    1    3    3    0    0 -0.26532664873E+02 -0.22280862404E+02  0.23171253309E+02  0.41681244162E+02  0.51100000000E-03 0.  1.
         12    1    3    3    0    0  0.24328333334E+02  0.15655689863E+02 -0.28377910766E+02  0.40524983002E+02  0.00000000000E+00 0. -1.
</event>
<event>
 7    1  0.4096472E-015  0.9000780E+02  0.7816164E-02  0.1186339E+00
        -11   -1    0    0    0    0  0.00000000000E+00  0.00000000000E+00  0.45593999997E+02  0.45594000000E+02  0.51100000000E-03 0.  1.
         11   -1    0    0    0    0 -0.00000000000E+00 -0.00000000000E+00 -0.45593999997E+02  0.45594000000E+02  0.51100000000E-03 0. -1.
    9900012    2    1    2    0    0 -0.11533858774E+01  0.16336861900E+00 -0.18943004115E+00  0.90007800005E+02  0.90000062165E+02 0.  0.
         12    1    1    2    0    0  0.11533858774E+01 -0.16336861900E+00  0.18943004115E+00  0.11801999951E+01  0.00000000000E+00 0. -1.
         11    1    3    3    0    0 -0.74133220008E+01  0.23757988913E+02 -0.26674308036E+02  0.36481750091E+02  0.51100000000E-03 0. -1.
        -11    1    3    3    0    0 -0.65339741507E+00  0.14211853775E+01 -0.92385871147E+01  0.93700687402E+01  0.51100000000E-03 0.  1.
        -12    1    3    3    0    0  0.69133335384E+01 -0.25015805671E+02  0.35723465109E+02  0.44155981174E+02  0.00000000000E+00 0.  1.
</event>
<event>
 7    1  0.4096472E-015  0.9000771E+02  0.7816164E-02  0.1186339E+00
        -11   -1    0    0    0    0  0.00000000000E+00  0.00000000000E+00  0.45593999997E+02  0.45594000000E+02  0.51100000000E-03 0.  1.
         11   -1    0    0    0    0 -0.00000000000E+00 -0.00000000000E+00 -0.45593999997E+02  0.45594000000E+02  0.51100000000E-03 0. -1.
    9900012    2    1    2    0    0 -0.71792614009E+00  0.77497918549E+00  0.52638707352E+00  0.90007705955E+02  0.89999966874E+02 0.  0.
         12    1    1    2    0    0  0.71792614009E+00 -0.77497918549E+00 -0.52638707352E+00  0.11802940446E+01  0.00000000000E+00 0. -1.
         11    1    3    3    0    0  0.16549484849E+01  0.59762790625E+01  0.65296722699E+01  0.90050755763E+01  0.51100000000E-03 0. -1.
        -11    1    3    3    0    0 -0.20440900740E+02 -0.11749420538E+02  0.31213228970E+02  0.39117067490E+02  0.51100000000E-03 0.  1.
         12    1    3    3    0    0  0.18068026115E+02  0.65481206610E+01 -0.37216514166E+02  0.41885562889E+02  0.00000000000E+00 0. -1.
</event>
<event>
 7    1  0.4096472E-015  0.9000766E+02  0.7816164E-02  0.1186339E+00
        -11   -1    0    0    0    0  0.00000000000E+00  0.00000000000E+00  0.45593999997E+02  0.45594000000E+02  0.51100000000E-03 0. -1.
         11   -1    0    0    0    0 -0.00000000000E+00 -0.00000000000E+00 -0.45593999997E+02  0.45594000000E+02  0.51100000000E-03 0.  1.
    9900012    2    1    2    0    0  0.11055043088E+01 -0.40928342566E+00 -0.59517203953E-01  0.90007663185E+02  0.89999923539E+02 0.  0.
         12    1    1    2    0    0 -0.11055043088E+01  0.40928342566E+00  0.59517203953E-01  0.11803368150E+01  0.00000000000E+00 0. -1.
         11    1    3    3    0    0  0.38708737734E+01  0.38408215823E+01  0.18036731957E+02  0.18843016588E+02  0.51100000000E-03 0. -1.
        -11    1    3    3    0    0  0.21054098143E+02 -0.26472204588E+02 -0.18568132868E+02  0.38585336888E+02  0.51100000000E-03 0.  1.
         12    1    3    3    0    0 -0.23819467607E+02  0.22222099580E+02  0.47188370681E+00  0.32579309708E+02  0.00000000000E+00 0. -1.
</event>
<event>
 7    1  0.4096472E-015  0.9000769E+02  0.7816164E-02  0.1186339E+00
        -11   -1    0    0    0    0  0.00000000000E+00  0.00000000000E+00  0.45593999997E+02  0.45594000000E+02  0.51100000000E-03 0. -1.
         11   -1    0    0    0    0 -0.00000000000E+00 -0.00000000000E+00 -0.45593999997E+02  0.45594000000E+02  0.51100000000E-03 0.  1.
    9900012    2    1    2    0    0 -0.64227404027E+00  0.94570290793E+00 -0.29371303804E+00  0.90007687634E+02  0.89999948311E+02 0.  0.
         12    1    1    2    0    0  0.64227404027E+00 -0.94570290793E+00  0.29371303804E+00  0.11803123661E+01  0.00000000000E+00 0. -1.
         11    1    3    3    0    0 -0.14145476159E+02  0.29336072750E+01 -0.47000138015E+01  0.15191796385E+02  0.51100000000E-03 0. -1.
        -11    1    3    3    0    0 -0.72176191416E+01  0.29115072781E+02 -0.14061763013E+02  0.33128758932E+02  0.51100000000E-03 0.  1.
         12    1    3    3    0    0  0.20720821260E+02 -0.31102977148E+02  0.18468063776E+02  0.41687132317E+02  0.00000000000E+00 0. -1.
</event>
<event>
 7    1  0.4096472E-015  0.9000773E+02  0.7816164E-02  0.1186339E+00
        -11   -1    0    0    0    0  0.00000000000E+00  0.00000000000E+00  0.45593999997E+02  0.45594000000E+02  0.51100000000E-03 0.  1.
         11   -1    0    0    0    0 -0.00000000000E+00 -0.00000000000E+00 -0.45593999997E+02  0.45594000000E+02  0.51100000000E-03 0. -1.
    9900012    2    1    2    0    0 -0.54774945420E+00 -0.40584924828E+00  0.96347517172E+00  0.90007734147E+02  0.89999995438E+02 0.  0.
         12    1    1    2    0    0  0.54774945420E+00  0.40584924828E+00 -0.96347517172E+00  0.11802658529E+01  0.00000000000E+00 0. -1.
         11    1    3    3    0    0 -0.82596211683E+01 -0.53171659195E+01 -0.70405494444E+01  0.12085649838E+02  0.51100000000E-03 0. -1.
        -11    1    3    3    0    0 -0.30318164144E+02 -0.68611378504E+01  0.19238715427E+02  0.36556729356E+02  0.51100000000E-03 0.  1.
         12    1    3    3    0    0  0.38030035858E+02  0.11772454522E+02 -0.11234690810E+02  0.41365354954E+02  0.00000000000E+00 0. -1.
</event>
<event>
 7    1  0.4096472E-015  0.9000775E+02  0.7816164E-02  0.1186339E+00
        -11   -1    0    0    0    0  0.00000000000E+00  0.00000000000E+00  0.45593999997E+02  0.45594000000E+02  0.51100000000E-03 0.  1.
         11   -1    0    0    0    0 -0.00000000000E+00 -0.00000000000E+00 -0.45593999997E+02  0.45594000000E+02  0.51100000000E-03 0. -1.
    9900012    2    1    2    0    0  0.44436994653E-01  0.11790819870E+01  0.28141869128E-01  0.90007745390E+02  0.90000006830E+02 0.  0.
         12    1    1    2    0    0 -0.44436994653E-01 -0.11790819870E+01 -0.28141869128E-01  0.11802546095E+01  0.00000000000E+00 0. -1.
         11    1    3    3    0    0 -0.11376938898E+01 -0.11114612478E+02 -0.44710010344E+01  0.12034068656E+02  0.51100000000E-03 0. -1.
        -11    1    3    3    0    0 -0.60668861616E+01  0.36951367487E+02 -0.20012127423E+02  0.42458166601E+02  0.51100000000E-03 0.  1.
         12    1    3    3    0    0  0.72490170460E+01 -0.24657673022E+02  0.24511270327E+02  0.35515510133E+02  0.00000000000E+00 0. -1.
</event>
<event>
 7    1  0.4096472E-015  0.9000781E+02  0.7816164E-02  0.1186339E+00
        -11   -1    0    0    0    0  0.00000000000E+00  0.00000000000E+00  0.45593999997E+02  0.45594000000E+02  0.51100000000E-03 0. -1.
         11   -1    0    0    0    0 -0.00000000000E+00 -0.00000000000E+00 -0.45593999997E+02  0.45594000000E+02  0.51100000000E-03 0.  1.
    9900012    2    1    2    0    0 -0.52732152201E+00 -0.97317451915E+00  0.40952188598E+00  0.90007811537E+02  0.90000073850E+02 0.  0.
         12    1    1    2    0    0  0.52732152201E+00  0.97317451915E+00 -0.40952188598E+00  0.11801884627E+01  0.00000000000E+00 0. -1.
         11    1    3    3    0    0  0.36850161570E+01 -0.10398426849E+01 -0.14783415058E+02  0.15271214029E+02  0.51100000000E-03 0. -1.
        -11    1    3    3    0    0  0.20509627180E+02 -0.10419968966E+02 -0.19989741755E+02  0.30476389812E+02  0.51100000000E-03 0.  1.
         12    1    3    3    0    0 -0.24721964859E+02  0.10486637132E+02  0.35182678699E+02  0.44260207696E+02  0.00000000000E+00 0. -1.
</event>
<event>
 7    1  0.4096472E-015  0.9000775E+02  0.7816164E-02  0.1186339E+00
        -11   -1    0    0    0    0  0.00000000000E+00  0.00000000000E+00  0.45593999997E+02  0.45594000000E+02  0.51100000000E-03 0. -1.
         11   -1    0    0    0    0 -0.00000000000E+00 -0.00000000000E+00 -0.45593999997E+02  0.45594000000E+02  0.51100000000E-03 0.  1.
    9900012    2    1    2    0    0  0.11954873258E+00 -0.11512628306E+01  0.23083811418E+00  0.90007752467E+02  0.90000013999E+02 0.  0.
         12    1    1    2    0    0 -0.11954873258E+00  0.11512628306E+01 -0.23083811418E+00  0.11802475332E+01  0.00000000000E+00 0. -1.
         11    1    3    3    0    0 -0.74739620712E+01  0.62222091844E+01 -0.64937945634E+01  0.11693817352E+02  0.51100000000E-03 0. -1.
        -11    1    3    3    0    0 -0.44697504411E+01  0.34316586842E+02  0.38182679419E+01  0.34816461219E+02  0.51100000000E-03 0.  1.
         12    1    3    3    0    0  0.12063261245E+02 -0.41690058857E+02  0.29063647356E+01  0.43497473896E+02  0.00000000000E+00 0. -1.
</event>
<event>
 7    1  0.4096472E-015  0.9000716E+02  0.7816164E-02  0.1186340E+00
        -11   -1    0    0    0    0  0.00000000000E+00  0.00000000000E+00  0.45593999997E+02  0.45594000000E+02  0.51100000000E-03 0.  1.
         11   -1    0    0    0    0 -0.00000000000E+00 -0.00000000000E+00 -0.45593999997E+02  0.45594000000E+02  0.51100000000E-03 0. -1.
    9900012    2    1    2    0    0  0.10862495447E+01  0.12461112333E+00  0.44599547606E+00  0.90007162175E+02  0.89999415913E+02 0.  0.
         12    1    1    2    0    0 -0.10862495447E+01 -0.12461112333E+00 -0.44599547606E+00  0.11808378254E+01  0.00000000000E+00 0. -1.
         11    1    3    3    0    0  0.70870318131E+01 -0.36041597441E+01 -0.71661307671E+01  0.10703710469E+02  0.51100000000E-03 0. -1.
        -11    1    3    3    0    0  0.31604732355E+02 -0.60555740389E+01  0.20744714242E+02  0.38286711185E+02  0.51100000000E-03 0.  1.
         12    1    3    3    0    0 -0.37605514623E+02  0.97843449063E+01 -0.13132587999E+02  0.41016740520E+02  0.00000000000E+00 0. -1.
</event>
<event>
 7    1  0.4096472E-015  0.9000766E+02  0.7816164E-02  0.1186339E+00
        -11   -1    0    0    0    0  0.00000000000E+00  0.00000000000E+00  0.45593999997E+02  0.45594000000E+02  0.51100000000E-03 0. -1.
         11   -1    0    0    0    0 -0.00000000000E+00 -0.00000000000E+00 -0.45593999997E+02  0.45594000000E+02  0.51100000000E-03 0.  1.
    9900012    2    1    2    0    0 -0.31987057528E+00 -0.29339993406E+00 -0.10976347011E+01  0.90007659946E+02  0.89999920257E+02 0.  0.
         12    1    1    2    0    0  0.31987057528E+00  0.29339993406E+00  0.10976347011E+01  0.11803400540E+01  0.00000000000E+00 0. -1.
         11    1    3    3    0    0  0.21557414267E+02 -0.32331681879E+02  0.93806969983E+01  0.39975708117E+02  0.51100000000E-03 0. -1.
        -11    1    3    3    0    0 -0.89331293606E+01 -0.43299112042E+01  0.36825127350E+00  0.99340092848E+01  0.51100000000E-03 0.  1.
        -12    1    3    3    0    0 -0.12944155482E+02  0.36368193149E+02 -0.10846582973E+02  0.40097942544E+02  0.00000000000E+00 0.  1.
</event>
<event>
 7    1  0.4096472E-015  0.9000776E+02  0.7816164E-02  0.1186339E+00
        -11   -1    0    0    0    0  0.00000000000E+00  0.00000000000E+00  0.45593999997E+02  0.45594000000E+02  0.51100000000E-03 0.  1.
         11   -1    0    0    0    0 -0.00000000000E+00 -0.00000000000E+00 -0.45593999997E+02  0.45594000000E+02  0.51100000000E-03 0. -1.
    9900012    2    1    2    0    0 -0.10631814508E+00 -0.11413809557E+01  0.28090990420E+00  0.90007760868E+02  0.90000022512E+02 0.  0.
         12    1    1    2    0    0  0.10631814508E+00  0.11413809557E+01 -0.28090990420E+00  0.11802391318E+01  0.00000000000E+00 0. -1.
         11    1    3    3    0    0  0.10934515159E+02 -0.10567871288E+02 -0.88110288064E+01  0.17574918327E+02  0.51100000000E-03 0. -1.
        -11    1    3    3    0    0 -0.11842652326E+02 -0.16114331147E+02  0.32249942752E+02  0.37947053775E+02  0.51100000000E-03 0.  1.
         12    1    3    3    0    0  0.80181902219E+00  0.25540821480E+02 -0.23158004042E+02  0.34485788766E+02  0.00000000000E+00 0. -1.
</event>
<event>
 7    1  0.4096472E-015  0.9000745E+02  0.7816164E-02  0.1186340E+00
        -11   -1    0    0    0    0  0.00000000000E+00  0.00000000000E+00  0.45593999997E+02  0.45594000000E+02  0.51100000000E-03 0.  1.
         11   -1    0    0    0    0 -0.00000000000E+00 -0.00000000000E+00 -0.45593999997E+02  0.45594000000E+02  0.51100000000E-03 0. -1.
    9900012    2    1    2    0    0  0.75038924225E+00  0.80466168835E+00  0.42792843903E+00  0.90007454704E+02  0.89999712305E+02 0.  0.
         12    1    1    2    0    0 -0.75038924225E+00 -0.80466168835E+00 -0.42792843903E+00  0.11805452963E+01  0.00000000000E+00 0. -1.
         11    1    3    3    0    0  0.17978588294E+02  0.30772611348E+02  0.33171260535E+01  0.35793666643E+02  0.51100000000E-03 0. -1.
        -11    1    3    3    0    0  0.49596466157E+01  0.42005324252E+01  0.96078238837E+01  0.11599691688E+02  0.51100000000E-03 0.  1.
        -12    1    3    3    0    0 -0.22187845668E+02 -0.34168482085E+02 -0.12497021498E+02  0.42614096373E+02  0.00000000000E+00 0.  1.
</event>
<event>
 7    1  0.4096472E-015  0.9000767E+02  0.7816164E-02  0.1186339E+00
        -11   -1    0    0    0    0  0.00000000000E+00  0.00000000000E+00  0.45593999997E+02  0.45594000000E+02  0.51100000000E-03 0.  1.
         11   -1    0    0    0    0 -0.00000000000E+00 -0.00000000000E+00 -0.45593999997E+02  0.45594000000E+02  0.51100000000E-03 0. -1.
    9900012    2    1    2    0    0  0.18965890532E-01  0.11717946277E+01  0.14044486848E+00  0.90007666524E+02  0.89999926922E+02 0.  0.
         12    1    1    2    0    0 -0.18965890532E-01 -0.11717946277E+01 -0.14044486848E+00  0.11803334765E+01  0.00000000000E+00 0. -1.
         11    1    3    3    0    0  0.28740707234E+01 -0.58331787970E+01 -0.67664235453E+01  0.93846014969E+01  0.51100000000E-03 0. -1.
        -11    1    3    3    0    0  0.34381149796E+02 -0.80738037423E+01 -0.10494581182E+02  0.36842719805E+02  0.51100000000E-03 0.  1.
         12    1    3    3    0    0 -0.37236254629E+02  0.15078777167E+02  0.17401449596E+02  0.43780345221E+02  0.00000000000E+00 0. -1.
</event>
<event>
 7    1  0.4096472E-015  0.9000771E+02  0.7816164E-02  0.1186339E+00
        -11   -1    0    0    0    0  0.00000000000E+00  0.00000000000E+00  0.45593999997E+02  0.45594000000E+02  0.51100000000E-03 0. -1.
         11   -1    0    0    0    0 -0.00000000000E+00 -0.00000000000E+00 -0.45593999997E+02  0.45594000000E+02  0.51100000000E-03 0.  1.
    9900012    2    1    2    0    0  0.67539253443E+00 -0.95801943018E+00  0.13828114509E+00  0.90007712756E+02  0.89999973764E+02 0.  0.
         12    1    1    2    0    0 -0.67539253443E+00  0.95801943018E+00 -0.13828114509E+00  0.11802872444E+01  0.00000000000E+00 0. -1.
         11    1    3    3    0    0  0.42780674477E+01  0.50493251657E+01  0.51239895680E+01  0.83697559744E+01  0.51100000000E-03 0. -1.
        -11    1    3    3    0    0 -0.14686073771E+02  0.35184543738E+02 -0.76940754803E+01  0.38895136953E+02  0.51100000000E-03 0.  1.
         12    1    3    3    0    0  0.11083398858E+02 -0.41191888334E+02  0.27083670574E+01  0.42742819828E+02  0.00000000000E+00 0. -1.
</event>
<event>
 7    1  0.4096472E-015  0.9000804E+02  0.7816164E-02  0.1186338E+00
        -11   -1    0    0    0    0  0.00000000000E+00  0.00000000000E+00  0.45593999997E+02  0.45594000000E+02  0.51100000000E-03 0.  1.
         11   -1    0    0    0    0 -0.00000000000E+00 -0.00000000000E+00 -0.45593999997E+02  0.45594000000E+02  0.51100000000E-03 0. -1.
    9900012    2    1    2    0    0 -0.86976538413E-01  0.95946804720E-02  0.11767143398E+01  0.90008036605E+02  0.90000301888E+02 0.  0.
         12    1    1    2    0    0  0.86976538413E-01 -0.95946804720E-02 -0.11767143398E+01  0.11799633950E+01  0.00000000000E+00 0. -1.
         11    1    3    3    0    0 -0.26567135439E+01  0.88804172470E+01  0.20699840293E+01  0.94976192531E+01  0.51100000000E-03 0. -1.
        -11    1    3    3    0    0 -0.36495768780E+02  0.88205830663E+01 -0.21409657831E+01  0.37607546573E+02  0.51100000000E-03 0.  1.
         12    1    3    3    0    0  0.39065505786E+02 -0.17691405633E+02  0.12476960936E+01  0.42902870779E+02  0.00000000000E+00 0. -1.
</event>
<event>
 7    1  0.4096472E-015  0.9000741E+02  0.7816164E-02  0.1186340E+00
        -11   -1    0    0    0    0  0.00000000000E+00  0.00000000000E+00  0.45593999997E+02  0.45594000000E+02  0.51100000000E-03 0. -1.
         11   -1    0    0    0    0 -0.00000000000E+00 -0.00000000000E+00 -0.45593999997E+02  0.45594000000E+02  0.51100000000E-03 0.  1.
    9900012    2    1    2    0    0 -0.27774208073E+00  0.11317615826E+01 -0.18910066196E+00  0.90007413703E+02  0.89999670764E+02 0.  0.
         12    1    1    2    0    0  0.27774208073E+00 -0.11317615826E+01  0.18910066196E+00  0.11805862966E+01  0.00000000000E+00 0. -1.
         11    1    3    3    0    0  0.11871351837E+02 -0.16869278513E+01 -0.73810781687E+01  0.14080306645E+02  0.51100000000E-03 0. -1.
        -11    1    3    3    0    0  0.23695569817E+02  0.13817541494E+02 -0.16081924216E+02  0.31796741478E+02  0.51100000000E-03 0.  1.
         12    1    3    3    0    0 -0.35844663735E+02 -0.10998852060E+02  0.23273901723E+02  0.44130365581E+02  0.00000000000E+00 0. -1.
</event>
<event>
 7    1  0.4096472E-015  0.9000777E+02  0.7816164E-02  0.1186339E+00
        -11   -1    0    0    0    0  0.00000000000E+00  0.00000000000E+00  0.45593999997E+02  0.45594000000E+02  0.51100000000E-03 0. -1.
         11   -1    0    0    0    0 -0.00000000000E+00 -0.00000000000E+00 -0.45593999997E+02  0.45594000000E+02  0.51100000000E-03 0.  1.
    9900012    2    1    2    0    0  0.48577077428E+00 -0.61860358665E+00 -0.87994318047E+00  0.90007769665E+02  0.90000031425E+02 0.  0.
         12    1    1    2    0    0 -0.48577077428E+00  0.61860358665E+00  0.87994318047E+00  0.11802303349E+01  0.00000000000E+00 0. -1.
         11    1    3    3    0    0  0.15837190574E+02 -0.28491617429E+01  0.34919109227E+01  0.16465957915E+02  0.51100000000E-03 0. -1.
        -11    1    3    3    0    0  0.19847659964E+02 -0.90197685661E+01 -0.23396012728E+02  0.31979043808E+02  0.51100000000E-03 0.  1.
        -12    1    3    3    0    0 -0.35199079764E+02  0.11250326722E+02  0.19024158625E+02  0.41562767942E+02  0.00000000000E+00 0.  1.
</event>
<event>
 7    1  0.4096472E-015  0.9000784E+02  0.7816164E-02  0.1186339E+00
        -11   -1    0    0    0    0  0.00000000000E+00  0.00000000000E+00  0.45593999997E+02  0.45594000000E+02  0.51100000000E-03 0. -1.
         11   -1    0    0    0    0 -0.00000000000E+00 -0.00000000000E+00 -0.45593999997E+02  0.45594000000E+02  0.51100000000E-03 0.  1.
    9900012    2    1    2    0    0 -0.10391240763E+01  0.38567982204E-01 -0.55813882016E+00  0.90007836758E+02  0.90000099403E+02 0.  0.
         12    1    1    2    0    0  0.10391240763E+01 -0.38567982204E-01  0.55813882016E+00  0.11801632420E+01  0.00000000000E+00 0. -1.
         11    1    3    3    0    0 -0.64497282956E+01  0.31014673396E+02 -0.21287949840E+02  0.38166553022E+02  0.51100000000E-03 0. -1.
        -11    1    3    3    0    0 -0.77350145283E+01  0.12093270126E+01 -0.43653998299E+01  0.89637959321E+01  0.51100000000E-03 0.  1.
        -12    1    3    3    0    0  0.13145618748E+02 -0.32185432427E+02  0.25095210850E+02  0.42877487803E+02  0.00000000000E+00 0.  1.
</event>
<event>
 7    1  0.4096472E-015  0.9000735E+02  0.7816164E-02  0.1186340E+00
        -11   -1    0    0    0    0  0.00000000000E+00  0.00000000000E+00  0.45593999997E+02  0.45594000000E+02  0.51100000000E-03 0.  1.
         11   -1    0    0    0    0 -0.00000000000E+00 -0.00000000000E+00 -0.45593999997E+02  0.45594000000E+02  0.51100000000E-03 0. -1.
    9900012    2    1    2    0    0 -0.22183919106E+00 -0.10184176995E+01  0.55456753720E+00  0.90007350860E+02  0.89999607091E+02 0.  0.
         12    1    1    2    0    0  0.22183919106E+00  0.10184176995E+01 -0.55456753720E+00  0.11806491396E+01  0.00000000000E+00 0. -1.
         11    1    3    3    0    0  0.63658972057E+01 -0.25328269760E+02 -0.29332650083E+02  0.39274040503E+02  0.51100000000E-03 0. -1.
        -11    1    3    3    0    0  0.56893978199E+01 -0.59028926609E+01  0.41503108662E+01  0.91890407479E+01  0.51100000000E-03 0.  1.
        -12    1    3    3    0    0 -0.12277134217E+02  0.30212744721E+02  0.25736906754E+02  0.41544269610E+02  0.00000000000E+00 0.  1.
</event>
<event>
 7    1  0.4096472E-015  0.9000753E+02  0.7816164E-02  0.1186339E+00
        -11   -1    0    0    0    0  0.00000000000E+00  0.00000000000E+00  0.45593999997E+02  0.45594000000E+02  0.51100000000E-03 0.  1.
         11   -1    0    0    0    0 -0.00000000000E+00 -0.00000000000E+00 -0.45593999997E+02  0.45594000000E+02  0.51100000000E-03 0. -1.
    9900012    2    1    2    0    0  0.97620544799E+00  0.45639643891E+00 -0.48190152666E+00  0.90007532352E+02  0.89999790979E+02 0.  0.
         12    1    1    2    0    0 -0.97620544799E+00 -0.45639643891E+00  0.48190152666E+00  0.11804676478E+01  0.00000000000E+00 0. -1.
         11    1    3    3    0    0 -0.25902109588E+01  0.47762480183E+01  0.56360582995E+01  0.78285944690E+01  0.51100000000E-03 0. -1.
        -11    1    3    3    0    0  0.13058829441E+02  0.35974663096E+02 -0.12567259095E+02  0.40282073093E+02  0.51100000000E-03 0.  1.
         12    1    3    3    0    0 -0.94924130338E+01 -0.40294514676E+02  0.64492992693E+01  0.41896864790E+02  0.00000000000E+00 0. -1.
</event>
<event>
 7    1  0.4096472E-015  0.9000773E+02  0.7816164E-02  0.1186339E+00
        -11   -1    0    0    0    0  0.00000000000E+00  0.00000000000E+00  0.45593999997E+02  0.45594000000E+02  0.51100000000E-03 0. -1.
         11   -1    0    0    0    0 -0.00000000000E+00 -0.00000000000E+00 -0.45593999997E+02  0.45594000000E+02  0.51100000000E-03 0.  1.
    9900012    2    1    2    0    0 -0.85277219041E+00  0.62111907492E+00  0.52917756477E+00  0.90007729603E+02  0.89999990834E+02 0.  0.
         12    1    1    2    0    0  0.85277219041E+00 -0.62111907492E+00 -0.52917756477E+00  0.11802703966E+01  0.00000000000E+00 0. -1.
         11    1    3    3    0    0 -0.35814732547E+02  0.12311306604E+02 -0.23997159728E+02  0.44834440032E+02  0.51100000000E-03 0. -1.
        -11    1    3    3    0    0  0.66966514162E+01  0.10335307461E+01  0.60727064433E+01  0.90989609187E+01  0.51100000000E-03 0.  1.
        -12    1    3    3    0    0  0.28265308940E+02 -0.12723718275E+02  0.18453630849E+02  0.36074328653E+02  0.00000000000E+00 0.  1.
</event>
<event>
 7    1  0.4096472E-015  0.9000713E+02  0.7816164E-02  0.1186340E+00
        -11   -1    0    0    0    0  0.00000000000E+00  0.00000000000E+00  0.45593999997E+02  0.45594000000E+02  0.51100000000E-03 0.  1.
         11   -1    0    0    0    0 -0.00000000000E+00 -0.00000000000E+00 -0.45593999997E+02  0.45594000000E+02  0.51100000000E-03 0. -1.
    9900012    2    1    2    0    0  0.82271123691E+00  0.84661494338E+00  0.29038191721E-01  0.90007130042E+02  0.89999383356E+02 0.  0.
         12    1    1    2    0    0 -0.82271123691E+00 -0.84661494338E+00 -0.29038191721E-01  0.11808699582E+01  0.00000000000E+00 0. -1.
         11    1    3    3    0    0  0.33853638444E+01 -0.16136849765E+01  0.87527279538E+01  0.95223376571E+01  0.51100000000E-03 0. -1.
        -11    1    3    3    0    0  0.32473585414E+02 -0.59403491435E+01  0.16102619539E+02  0.36730312466E+02  0.51100000000E-03 0.  1.
         12    1    3    3    0    0 -0.35036238022E+02  0.84006490633E+01 -0.24826309301E+02  0.43754479918E+02  0.00000000000E+00 0. -1.
</event>
<event>
 7    1  0.4096472E-015  0.9000767E+02  0.7816164E-02  0.1186339E+00
        -11   -1    0    0    0    0  0.00000000000E+00  0.00000000000E+00  0.45593999997E+02  0.45594000000E+02  0.51100000000E-03 0. -1.
         11   -1    0    0    0    0 -0.00000000000E+00 -0.00000000000E+00 -0.45593999997E+02  0.45594000000E+02  0.51100000000E-03 0.  1.
    9900012    2    1    2    0    0  0.35844173113E+00 -0.60171885085E-01 -0.11229816269E+01  0.90007665783E+02  0.89999926171E+02 0.  0.
         12    1    1    2    0    0 -0.35844173113E+00  0.60171885085E-01  0.11229816269E+01  0.11803342173E+01  0.00000000000E+00 0. -1.
         11    1    3    3    0    0  0.16108081023E+02 -0.35371720094E+02 -0.18207724282E+02  0.42920275866E+02  0.51100000000E-03 0. -1.
        -11    1    3    3    0    0 -0.70899879538E+01 -0.41459772662E+00  0.32368554906E+01  0.78049378081E+01  0.51100000000E-03 0.  1.
        -12    1    3    3    0    0 -0.86596513377E+01  0.35726145936E+02  0.13847887164E+02  0.39282452108E+02  0.00000000000E+00 0.  1.
</event>
<event>
 7    1  0.4096472E-015  0.9000774E+02  0.7816164E-02  0.1186339E+00
        -11   -1    0    0    0    0  0.00000000000E+00  0.00000000000E+00  0.45593999997E+02  0.45594000000E+02  0.51100000000E-03 0. -1.
         11   -1    0    0    0    0 -0.00000000000E+00 -0.00000000000E+00 -0.45593999997E+02  0.45594000000E+02  0.51100000000E-03 0.  1.
    9900012    2    1    2    0    0 -0.69295785721E+00  0.45277966181E+00 -0.84131883934E+00  0.90007738417E+02  0.89999999764E+02 0.  0.
         12    1    1    2    0    0  0.69295785721E+00 -0.45277966181E+00  0.84131883934E+00  0.11802615826E+01  0.00000000000E+00 0. -1.
         11    1    3    3    0    0 -0.43525084481E+01 -0.46383263954E-01 -0.75553139391E+01  0.87194753384E+01  0.51100000000E-03 0. -1.
        -11    1    3    3    0    0  0.27553062229E+01  0.20268451268E+02 -0.31902090828E+02  0.37896506813E+02  0.51100000000E-03 0.  1.
         12    1    3    3    0    0  0.90424436795E+00 -0.19769288342E+02  0.38616085928E+02  0.43391756266E+02  0.00000000000E+00 0. -1.
</event>
<event>
 7    1  0.4096472E-015  0.9000761E+02  0.7816164E-02  0.1186339E+00
        -11   -1    0    0    0    0  0.00000000000E+00  0.00000000000E+00  0.45593999997E+02  0.45594000000E+02  0.51100000000E-03 0.  1.
         11   -1    0    0    0    0 -0.00000000000E+00 -0.00000000000E+00 -0.45593999997E+02  0.45594000000E+02  0.51100000000E-03 0. -1.
    9900012    2    1    2    0    0 -0.73427050720E+00  0.90930725761E+00  0.16533992964E+00  0.90007605931E+02  0.89999865529E+02 0.  0.
         12    1    1    2    0    0  0.73427050720E+00 -0.90930725761E+00 -0.16533992964E+00  0.11803940693E+01  0.00000000000E+00 0. -1.
         11    1    3    3    0    0  0.40835351594E+01 -0.75705768069E+01 -0.40675781899E+00  0.86112917017E+01  0.51100000000E-03 0. -1.
        -11    1    3    3    0    0  0.14459381889E+02 -0.13337769930E+02  0.32623885469E+02  0.38095770561E+02  0.51100000000E-03 0.  1.
         12    1    3    3    0    0 -0.19277187556E+02  0.21817653995E+02 -0.32051787720E+02  0.43300543668E+02  0.00000000000E+00 0. -1.
</event>
<event>
 7    1  0.4096472E-015  0.9000769E+02  0.7816164E-02  0.1186339E+00
        -11   -1    0    0    0    0  0.00000000000E+00  0.00000000000E+00  0.45593999997E+02  0.45594000000E+02  0.51100000000E-03 0.  1.
         11   -1    0    0    0    0 -0.00000000000E+00 -0.00000000000E+00 -0.45593999997E+02  0.45594000000E+02  0.51100000000E-03 0. -1.
    9900012    2    1    2    0    0  0.77946096742E+00 -0.71082668054E+00  0.52942641542E+00  0.90007692286E+02  0.89999953025E+02 0.  0.
         12    1    1    2    0    0 -0.77946096742E+00  0.71082668054E+00 -0.52942641542E+00  0.11803077136E+01  0.00000000000E+00 0. -1.
         11    1    3    3    0    0 -0.18264028201E+02  0.33949669925E+01 -0.27387095304E+02  0.33093103760E+02  0.51100000000E-03 0. -1.
        -11    1    3    3    0    0  0.39150520655E+01  0.17575236424E+02 -0.61626851729E+00  0.18016557806E+02  0.51100000000E-03 0.  1.
        -12    1    3    3    0    0  0.15128437103E+02 -0.21681030097E+02  0.28532790237E+02  0.38898030720E+02  0.00000000000E+00 0.  1.
</event>
<event>
 7    1  0.4096472E-015  0.9000755E+02  0.7816164E-02  0.1186339E+00
        -11   -1    0    0    0    0  0.00000000000E+00  0.00000000000E+00  0.45593999997E+02  0.45594000000E+02  0.51100000000E-03 0.  1.
         11   -1    0    0    0    0 -0.00000000000E+00 -0.00000000000E+00 -0.45593999997E+02  0.45594000000E+02  0.51100000000E-03 0. -1.
    9900012    2    1    2    0    0  0.46852986704E+00 -0.12011732330E+00 -0.10768044799E+01  0.90007552502E+02  0.89999811395E+02 0.  0.
         12    1    1    2    0    0 -0.46852986704E+00  0.12011732330E+00  0.10768044799E+01  0.11804474980E+01  0.00000000000E+00 0. -1.
         11    1    3    3    0    0 -0.20415136835E+01 -0.42360915226E+02 -0.48219780581E+01  0.42683326834E+02  0.51100000000E-03 0. -1.
        -11    1    3    3    0    0  0.11886434423E+01  0.44476889842E+01 -0.66658072754E+01  0.81010985321E+01  0.51100000000E-03 0.  1.
        -12    1    3    3    0    0  0.13214001082E+01  0.37793108919E+02  0.10410980854E+02  0.39223127136E+02  0.00000000000E+00 0.  1.
</event>
<event>
 7    1  0.4096472E-015  0.9000778E+02  0.7816164E-02  0.1186339E+00
        -11   -1    0    0    0    0  0.00000000000E+00  0.00000000000E+00  0.45593999997E+02  0.45594000000E+02  0.51100000000E-03 0. -1.
         11   -1    0    0    0    0 -0.00000000000E+00 -0.00000000000E+00 -0.45593999997E+02  0.45594000000E+02  0.51100000000E-03 0.  1.
    9900012    2    1    2    0    0 -0.45734482038E+00  0.95830709403E+00 -0.51517521456E+00  0.90007778719E+02  0.90000040598E+02 0.  0.
         12    1    1    2    0    0  0.45734482038E+00 -0.95830709403E+00  0.51517521456E+00  0.11802212813E+01  0.00000000000E+00 0. -1.
         11    1    3    3    0    0  0.32424998683E+01  0.90613451915E+01 -0.20724450546E+01  0.98446336062E+01  0.51100000000E-03 0. -1.
        -11    1    3    3    0    0  0.33345509355E+02  0.14760041957E+02 -0.17260586131E+01  0.36507000854E+02  0.51100000000E-03 0.  1.
         12    1    3    3    0    0 -0.37045354044E+02 -0.22863080054E+02  0.32833284532E+01  0.43656144259E+02  0.00000000000E+00 0. -1.
</event>
<event>
 7    1  0.4096472E-015  0.9000772E+02  0.7816164E-02  0.1186339E+00
        -11   -1    0    0    0    0  0.00000000000E+00  0.00000000000E+00  0.45593999997E+02  0.45594000000E+02  0.51100000000E-03 0. -1.
         11   -1    0    0    0    0 -0.00000000000E+00 -0.00000000000E+00 -0.45593999997E+02  0.45594000000E+02  0.51100000000E-03 0.  1.
    9900012    2    1    2    0    0 -0.94915149588E+00 -0.46110978831E+00 -0.52873500518E+00  0.90007715498E+02  0.89999976543E+02 0.  0.
         12    1    1    2    0    0  0.94915149588E+00  0.46110978831E+00  0.52873500518E+00  0.11802845016E+01  0.00000000000E+00 0. -1.
         11    1    3    3    0    0 -0.67949761316E-01 -0.79092939073E+00 -0.40700351306E+01  0.41467303622E+01  0.51100000000E-03 0. -1.
        -11    1    3    3    0    0 -0.19805272744E+02 -0.34345786579E+02 -0.14784476691E+02  0.42313858669E+02  0.51100000000E-03 0.  1.
         12    1    3    3    0    0  0.18924071009E+02  0.34675606181E+02  0.18325776817E+02  0.43547126467E+02  0.00000000000E+00 0. -1.
</event>
<event>
 7    1  0.4096472E-015  0.9000804E+02  0.7816164E-02  0.1186338E+00
        -11   -1    0    0    0    0  0.00000000000E+00  0.00000000000E+00  0.45593999997E+02  0.45594000000E+02  0.51100000000E-03 0. -1.
         11   -1    0    0    0    0 -0.00000000000E+00 -0.00000000000E+00 -0.45593999997E+02  0.45594000000E+02  0.51100000000E-03 0.  1.
    9900012    2    1    2    0    0 -0.24493813582E+00 -0.79648274202E+00 -0.83542205887E+00  0.90008038363E+02  0.90000303669E+02 0.  0.
         12    1    1    2    0    0  0.24493813582E+00  0.79648274202E+00  0.83542205887E+00  0.11799616372E+01  0.00000000000E+00 0. -1.
         11    1    3    3    0    0 -0.27215483295E+01  0.37725780677E+01 -0.48661109908E+01  0.67318799026E+01  0.51100000000E-03 0. -1.
        -11    1    3    3    0    0  0.27461762285E+01  0.60626611633E+01 -0.38686569033E+02  0.39254910114E+02  0.51100000000E-03 0.  1.
         12    1    3    3    0    0 -0.26956603480E+00 -0.10631721973E+02  0.42717257965E+02  0.44021248346E+02  0.00000000000E+00 0. -1.
</event>
<event>
 7    1  0.4096472E-015  0.9000786E+02  0.7816164E-02  0.1186339E+00
        -11   -1    0    0    0    0  0.00000000000E+00  0.00000000000E+00  0.45593999997E+02  0.45594000000E+02  0.51100000000E-03 0.  1.
         11   -1    0    0    0    0 -0.00000000000E+00 -0.00000000000E+00 -0.45593999997E+02  0.45594000000E+02  0.51100000000E-03 0. -1.
    9900012    2    1    2    0    0 -0.48035129208E+00 -0.69708050338E+00  0.82223850510E+00  0.90007858165E+02  0.90000121092E+02 0.  0.
         12    1    1    2    0    0  0.48035129208E+00  0.69708050338E+00 -0.82223850510E+00  0.11801418352E+01  0.00000000000E+00 0. -1.
         11    1    3    3    0    0 -0.81092657464E+00  0.13906583872E+02 -0.39034663238E+02  0.41445815365E+02  0.51100000000E-03 0. -1.
        -11    1    3    3    0    0  0.68512135810E+01  0.35521892629E+01  0.67896891992E+01  0.10278961804E+02  0.51100000000E-03 0.  1.
        -12    1    3    3    0    0 -0.65206382984E+01 -0.18155853638E+02  0.33067212544E+02  0.38283080996E+02  0.00000000000E+00 0.  1.
</event>
<event>
 7    1  0.4096472E-015  0.9000778E+02  0.7816164E-02  0.1186339E+00
        -11   -1    0    0    0    0  0.00000000000E+00  0.00000000000E+00  0.45593999997E+02  0.45594000000E+02  0.51100000000E-03 0. -1.
         11   -1    0    0    0    0 -0.00000000000E+00 -0.00000000000E+00 -0.45593999997E+02  0.45594000000E+02  0.51100000000E-03 0.  1.
    9900012    2    1    2    0    0 -0.18978248442E+00 -0.38480199005E+00 -0.10994657459E+01  0.90007781847E+02  0.90000043767E+02 0.  0.
         12    1    1    2    0    0  0.18978248442E+00  0.38480199005E+00  0.10994657459E+01  0.11802181533E+01  0.00000000000E+00 0. -1.
         11    1    3    3    0    0 -0.86426021933E+01  0.13869719827E+02 -0.18824501661E+02  0.24928408770E+02  0.51100000000E-03 0. -1.
        -11    1    3    3    0    0 -0.18758705453E+02 -0.10154418758E+02 -0.12079452959E+02  0.24513556140E+02  0.51100000000E-03 0.  1.
         12    1    3    3    0    0  0.27211525162E+02 -0.41001030585E+01  0.29804488874E+02  0.40565816937E+02  0.00000000000E+00 0. -1.
</event>
<event>
 7    1  0.4096472E-015  0.9000778E+02  0.7816164E-02  0.1186339E+00
        -11   -1    0    0    0    0  0.00000000000E+00  0.00000000000E+00  0.45593999997E+02  0.45594000000E+02  0.51100000000E-03 0. -1.
         11   -1    0    0    0    0 -0.00000000000E+00 -0.00000000000E+00 -0.45593999997E+02  0.45594000000E+02  0.51100000000E-03 0.  1.
    9900012    2    1    2    0    0  0.65023614947E+00 -0.34748290430E-01  0.98432476545E+00  0.90007784029E+02  0.90000045978E+02 0.  0.
         12    1    1    2    0    0 -0.65023614947E+00  0.34748290430E-01 -0.98432476545E+00  0.11802159708E+01  0.00000000000E+00 0. -1.
         11    1    3    3    0    0  0.27044756259E+01  0.51262573042E+01 -0.87197507061E+01  0.10470279605E+02  0.51100000000E-03 0. -1.
        -11    1    3    3    0    0 -0.31103614709E+01  0.19850259185E+02 -0.27888420394E+02  0.34372534537E+02  0.51100000000E-03 0.  1.
         12    1    3    3    0    0  0.10561219944E+01 -0.25011264779E+02  0.37592495866E+02  0.45164969887E+02  0.00000000000E+00 0. -1.
</event>
<event>
 7    1  0.4096472E-015  0.9000777E+02  0.7816164E-02  0.1186339E+00
        -11   -1    0    0    0    0  0.00000000000E+00  0.00000000000E+00  0.45593999997E+02  0.45594000000E+02  0.51100000000E-03 0.  1.
         11   -1    0    0    0    0 -0.00000000000E+00 -0.00000000000E+00 -0.45593999997E+02  0.45594000000E+02  0.51100000000E-03 0. -1.
    9900012    2    1    2    0    0 -0.58833914528E+00  0.74225290383E+00  0.70417785903E+00  0.90007767489E+02  0.90000029220E+02 0.  0.
         12    1    1    2    0    0  0.58833914528E+00 -0.74225290383E+00 -0.70417785903E+00  0.11802325111E+01  0.00000000000E+00 0. -1.
         11    1    3    3    0    0 -0.16316684468E+02  0.33651981917E+02 -0.26310007753E+01  0.37491495627E+02  0.51100000000E-03 0. -1.
        -11    1    3    3    0    0  0.21597651228E+02 -0.12487862210E+02 -0.10599228967E+02  0.27106251974E+02  0.51100000000E-03 0.  1.
        -12    1    3    3    0    0 -0.58693059050E+01 -0.20421866803E+02  0.13934407601E+02  0.25410019888E+02  0.00000000000E+00 0.  1.
</event>
<event>
 7    1  0.4096472E-015  0.9000755E+02  0.7816164E-02  0.1186339E+00
        -11   -1    0    0    0    0  0.00000000000E+00  0.00000000000E+00  0.45593999997E+02  0.45594000000E+02  0.51100000000E-03 0.  1.
         11   -1    0    0    0    0 -0.00000000000E+00 -0.00000000000E+00 -0.45593999997E+02  0.45594000000E+02  0.51100000000E-03 0. -1.
    9900012    2    1    2    0    0  0.41117961632E-01  0.46773877748E+00  0.10830517614E+01  0.90007546118E+02  0.89999804926E+02 0.  0.
         12    1    1    2    0    0 -0.41117961632E-01 -0.46773877748E+00 -0.10830517614E+01  0.11804538825E+01  0.00000000000E+00 0. -1.
         11    1    3    3    0    0 -0.10481525427E+02 -0.23897375734E+02  0.20754631622E+02  0.33342190634E+02  0.51100000000E-03 0.  1.
        -11    1    3    3    0    0  0.21719494170E+02  0.11036442334E+01  0.34371138023E+01  0.22017452376E+02  0.51100000000E-03 0. -1.
         12    1    3    3    0    0 -0.11196850782E+02  0.23261470278E+02 -0.23108693663E+02  0.34647903107E+02  0.00000000000E+00 0. -1.
</event>
<event>
 7    1  0.4096472E-015  0.9000774E+02  0.7816164E-02  0.1186339E+00
        -11   -1    0    0    0    0  0.00000000000E+00  0.00000000000E+00  0.45593999997E+02  0.45594000000E+02  0.51100000000E-03 0.  1.
         11   -1    0    0    0    0 -0.00000000000E+00 -0.00000000000E+00 -0.45593999997E+02  0.45594000000E+02  0.51100000000E-03 0. -1.
    9900012    2    1    2    0    0  0.93134297361E+00  0.27111840821E+00  0.67238732739E+00  0.90007741705E+02  0.90000003095E+02 0.  0.
         12    1    1    2    0    0 -0.93134297361E+00 -0.27111840821E+00 -0.67238732739E+00  0.11802582954E+01  0.00000000000E+00 0. -1.
         11    1    3    3    0    0  0.72133769608E+01  0.61108445045E+01  0.17306191645E+01  0.96109453589E+01  0.51100000000E-03 0. -1.
        -11    1    3    3    0    0  0.10946080541E+02  0.40454629329E+01  0.36276459752E+02  0.38107269411E+02  0.51100000000E-03 0.  1.
         12    1    3    3    0    0 -0.17228114528E+02 -0.98851890292E+01 -0.37334691589E+02  0.42289526935E+02  0.00000000000E+00 0. -1.
</event>
<event>
 7    1  0.4096472E-015  0.9000775E+02  0.7816164E-02  0.1186339E+00
        -11   -1    0    0    0    0  0.00000000000E+00  0.00000000000E+00  0.45593999997E+02  0.45594000000E+02  0.51100000000E-03 0.  1.
         11   -1    0    0    0    0 -0.00000000000E+00 -0.00000000000E+00 -0.45593999997E+02  0.45594000000E+02  0.51100000000E-03 0. -1.
    9900012    2    1    2    0    0 -0.41686997712E+00  0.97488392698E+00  0.51846815854E+00  0.90007750670E+02  0.90000012179E+02 0.  0.
         12    1    1    2    0    0  0.41686997712E+00 -0.97488392698E+00 -0.51846815854E+00  0.11802493297E+01  0.00000000000E+00 0. -1.
         11    1    3    3    0    0  0.90604803891E+01 -0.19762823724E+01 -0.31981565799E+01  0.98094955359E+01  0.51100000000E-03 0. -1.
        -11    1    3    3    0    0 -0.31905741756E+02 -0.21340798172E+02 -0.16130032380E+02  0.41636329911E+02  0.51100000000E-03 0.  1.
         12    1    3    3    0    0  0.22428391389E+02  0.24291964471E+02  0.19846657118E+02  0.38561925224E+02  0.00000000000E+00 0. -1.
</event>
<event>
 7    1  0.4096472E-015  0.9000780E+02  0.7816164E-02  0.1186339E+00
        -11   -1    0    0    0    0  0.00000000000E+00  0.00000000000E+00  0.45593999997E+02  0.45594000000E+02  0.51100000000E-03 0. -1.
         11   -1    0    0    0    0 -0.00000000000E+00 -0.00000000000E+00 -0.45593999997E+02  0.45594000000E+02  0.51100000000E-03 0.  1.
    9900012    2    1    2    0    0 -0.91314382010E+00  0.57944019851E+00  0.47252531299E+00  0.90007803935E+02  0.90000066147E+02 0.  0.
         12    1    1    2    0    0  0.91314382010E+00 -0.57944019851E+00 -0.47252531299E+00  0.11801960648E+01  0.00000000000E+00 0. -1.
         11    1    3    3    0    0  0.20949134945E+02 -0.26526386334E+02 -0.12528222977E+02  0.36048187169E+02  0.51100000000E-03 0. -1.
        -11    1    3    3    0    0  0.18020101141E+01 -0.90113124166E+01  0.21497030271E+01  0.94378077585E+01  0.51100000000E-03 0.  1.
        -12    1    3    3    0    0 -0.23664288879E+02  0.36117138949E+02  0.10851045263E+02  0.44521809008E+02  0.00000000000E+00 0.  1.
</event>
<event>
 7    1  0.4096472E-015  0.9000779E+02  0.7816164E-02  0.1186339E+00
        -11   -1    0    0    0    0  0.00000000000E+00  0.00000000000E+00  0.45593999997E+02  0.45594000000E+02  0.51100000000E-03 0.  1.
         11   -1    0    0    0    0 -0.00000000000E+00 -0.00000000000E+00 -0.45593999997E+02  0.45594000000E+02  0.51100000000E-03 0. -1.
    9900012    2    1    2    0    0 -0.11695357678E+01 -0.15728220858E+00 -0.18854131349E-01  0.90007785154E+02  0.90000047118E+02 0.  0.
         12    1    1    2    0    0  0.11695357678E+01  0.15728220858E+00  0.18854131349E-01  0.11802148464E+01  0.00000000000E+00 0. -1.
         11    1    3    3    0    0 -0.87812332509E+01 -0.42231474344E+02  0.10689466203E+02  0.44439533871E+02  0.51100000000E-03 0. -1.
        -11    1    3    3    0    0  0.21831323129E+01  0.63202893130E+01 -0.62105532303E+01  0.91259572311E+01  0.51100000000E-03 0.  1.
        -12    1    3    3    0    0  0.54285651702E+01  0.35753902822E+02 -0.44977671036E+01  0.36442294052E+02  0.00000000000E+00 0.  1.
</event>
<event>
 7    1  0.4096472E-015  0.9000782E+02  0.7816164E-02  0.1186339E+00
        -11   -1    0    0    0    0  0.00000000000E+00  0.00000000000E+00  0.45593999997E+02  0.45594000000E+02  0.51100000000E-03 0.  1.
         11   -1    0    0    0    0 -0.00000000000E+00 -0.00000000000E+00 -0.45593999997E+02  0.45594000000E+02  0.51100000000E-03 0. -1.
    9900012    2    1    2    0    0 -0.60194919621E+00  0.99171436371E+00 -0.21678430986E+00  0.90007815417E+02  0.90000077780E+02 0.  0.
         12    1    1    2    0    0  0.60194919621E+00 -0.99171436371E+00  0.21678430986E+00  0.11801845834E+01  0.00000000000E+00 0. -1.
         11    1    3    3    0    0 -0.43125604544E+01 -0.38445697840E+02 -0.18457228974E+02  0.42864194402E+02  0.51100000000E-03 0. -1.
        -11    1    3    3    0    0  0.25488196334E+01  0.22105910788E+01 -0.27840821734E+01  0.43742780262E+01  0.51100000000E-03 0.  1.
        -12    1    3    3    0    0  0.11617916248E+01  0.37226821125E+02  0.21024526838E+02  0.42769342988E+02  0.00000000000E+00 0.  1.
</event>
<event>
 7    1  0.4096472E-015  0.9000781E+02  0.7816164E-02  0.1186339E+00
        -11   -1    0    0    0    0  0.00000000000E+00  0.00000000000E+00  0.45593999997E+02  0.45594000000E+02  0.51100000000E-03 0. -1.
         11   -1    0    0    0    0 -0.00000000000E+00 -0.00000000000E+00 -0.45593999997E+02  0.45594000000E+02  0.51100000000E-03 0.  1.
    9900012    2    1    2    0    0 -0.44392542125E+00  0.73349270808E+00 -0.81102294748E+00  0.90007813763E+02  0.90000076105E+02 0.  0.
         12    1    1    2    0    0  0.44392542125E+00 -0.73349270808E+00  0.81102294748E+00  0.11801862369E+01  0.00000000000E+00 0. -1.
         11    1    3    3    0    0  0.37253047088E+01  0.10684178768E+02 -0.39837110176E+01  0.11995812805E+02  0.51100000000E-03 0. -1.
        -11    1    3    3    0    0  0.18371865724E+02 -0.17911942010E+02 -0.28488107514E+02  0.38339736394E+02  0.51100000000E-03 0.  1.
         12    1    3    3    0    0 -0.22541095854E+02  0.79612559501E+01  0.31660795584E+02  0.39672264564E+02  0.00000000000E+00 0. -1.
</event>
<event>
 7    1  0.4096472E-015  0.9000761E+02  0.7816164E-02  0.1186339E+00
        -11   -1    0    0    0    0  0.00000000000E+00  0.00000000000E+00  0.45593999997E+02  0.45594000000E+02  0.51100000000E-03 0.  1.
         11   -1    0    0    0    0 -0.00000000000E+00 -0.00000000000E+00 -0.45593999997E+02  0.45594000000E+02  0.51100000000E-03 0. -1.
    9900012    2    1    2    0    0  0.24992164466E+00 -0.11473755124E+01 -0.11996109246E+00  0.90007609362E+02  0.89999869005E+02 0.  0.
         12    1    1    2    0    0 -0.24992164466E+00  0.11473755124E+01  0.11996109246E+00  0.11803906382E+01  0.00000000000E+00 0. -1.
         11    1    3    3    0    0  0.84760466336E+01  0.40023151958E+00  0.10695293282E+01  0.85526279616E+01  0.51100000000E-03 0. -1.
        -11    1    3    3    0    0 -0.31373183895E+02 -0.45939859117E+00  0.29454771811E+02  0.43035697943E+02  0.51100000000E-03 0.  1.
         12    1    3    3    0    0  0.23147058906E+02 -0.10882084408E+01 -0.30644262232E+02  0.38419283457E+02  0.00000000000E+00 0. -1.
</event>
<event>
 7    1  0.4096472E-015  0.9000773E+02  0.7816164E-02  0.1186339E+00
        -11   -1    0    0    0    0  0.00000000000E+00  0.00000000000E+00  0.45593999997E+02  0.45594000000E+02  0.51100000000E-03 0. -1.
         11   -1    0    0    0    0 -0.00000000000E+00 -0.00000000000E+00 -0.45593999997E+02  0.45594000000E+02  0.51100000000E-03 0.  1.
    9900012    2    1    2    0    0 -0.11785878948E+01  0.15071091226E-02 -0.62983991995E-01  0.90007729404E+02  0.89999990632E+02 0.  0.
         12    1    1    2    0    0  0.11785878948E+01 -0.15071091226E-02  0.62983991995E-01  0.11802705962E+01  0.00000000000E+00 0. -1.
         11    1    3    3    0    0  0.30540784719E+01 -0.28092826027E+02  0.18961118054E+02  0.34030255180E+02  0.51100000000E-03 0. -1.
        -11    1    3    3    0    0 -0.20726179509E+01 -0.52780835793E+01  0.10131535669E+02  0.11610423193E+02  0.51100000000E-03 0.  1.
        -12    1    3    3    0    0 -0.21600484157E+01  0.33372416716E+02 -0.29155637715E+02  0.44367051031E+02  0.00000000000E+00 0.  1.
</event>
<event>
 7    1  0.4096472E-015  0.9000780E+02  0.7816164E-02  0.1186339E+00
        -11   -1    0    0    0    0  0.00000000000E+00  0.00000000000E+00  0.45593999997E+02  0.45594000000E+02  0.51100000000E-03 0. -1.
         11   -1    0    0    0    0 -0.00000000000E+00 -0.00000000000E+00 -0.45593999997E+02  0.45594000000E+02  0.51100000000E-03 0.  1.
    9900012    2    1    2    0    0  0.17835792539E-01 -0.61220297402E+00 -0.10088402661E+01  0.90007801170E+02  0.90000063345E+02 0.  0.
         12    1    1    2    0    0 -0.17835792539E-01  0.61220297402E+00  0.10088402661E+01  0.11801988305E+01  0.00000000000E+00 0. -1.
         11    1    3    3    0    0 -0.15191065650E+02 -0.30958737614E+02  0.19354966533E+02  0.39545248007E+02  0.51100000000E-03 0. -1.
        -11    1    3    3    0    0  0.99658022662E+01  0.34623888750E+00  0.46964477519E+01  0.11022418878E+02  0.51100000000E-03 0.  1.
        -12    1    3    3    0    0  0.52430991766E+01  0.30000295752E+02 -0.25060254551E+02  0.39440134284E+02  0.00000000000E+00 0.  1.
</event>
<event>
 7    1  0.4096472E-015  0.9000775E+02  0.7816164E-02  0.1186339E+00
        -11   -1    0    0    0    0  0.00000000000E+00  0.00000000000E+00  0.45593999997E+02  0.45594000000E+02  0.51100000000E-03 0. -1.
         11   -1    0    0    0    0 -0.00000000000E+00 -0.00000000000E+00 -0.45593999997E+02  0.45594000000E+02  0.51100000000E-03 0.  1.
    9900012    2    1    2    0    0  0.98789325132E+00 -0.64549959582E+00  0.19518418734E-01  0.90007752665E+02  0.90000014200E+02 0.  0.
         12    1    1    2    0    0 -0.98789325132E+00  0.64549959582E+00 -0.19518418734E-01  0.11802473355E+01  0.00000000000E+00 0. -1.
         11    1    3    3    0    0  0.48911351762E+01  0.59931395612E+01  0.26497094285E+01  0.81769117293E+01  0.51100000000E-03 0. -1.
        -11    1    3    3    0    0  0.35771334371E+02  0.95891073333E+01  0.74975274442E+01  0.37785609167E+02  0.51100000000E-03 0.  1.
         12    1    3    3    0    0 -0.39674576296E+02 -0.16227746490E+02 -0.10127718454E+02  0.44045231768E+02  0.00000000000E+00 0. -1.
</event>
<event>
 7    1  0.4096472E-015  0.9000795E+02  0.7816164E-02  0.1186339E+00
        -11   -1    0    0    0    0  0.00000000000E+00  0.00000000000E+00  0.45593999997E+02  0.45594000000E+02  0.51100000000E-03 0.  1.
         11   -1    0    0    0    0 -0.00000000000E+00 -0.00000000000E+00 -0.45593999997E+02  0.45594000000E+02  0.51100000000E-03 0. -1.
    9900012    2    1    2    0    0 -0.11211347926E+01 -0.28971834554E-01 -0.36707880099E+00  0.90007945155E+02  0.90000209231E+02 0.  0.
         12    1    1    2    0    0  0.11211347926E+01  0.28971834554E-01  0.36707880099E+00  0.11800548447E+01  0.00000000000E+00 0. -1.
         11    1    3    3    0    0 -0.25872607599E+02 -0.11527744473E+02 -0.27502792391E+02  0.39480176116E+02  0.51100000000E-03 0. -1.
        -11    1    3    3    0    0  0.21914709374E+01 -0.98933849646E+01  0.15242574662E+01  0.10247193372E+02  0.51100000000E-03 0.  1.
        -12    1    3    3    0    0  0.22560001869E+02  0.21392157603E+02  0.25611456124E+02  0.40280575667E+02  0.00000000000E+00 0.  1.
</event>
<event>
 7    1  0.4096472E-015  0.9000776E+02  0.7816164E-02  0.1186339E+00
        -11   -1    0    0    0    0  0.00000000000E+00  0.00000000000E+00  0.45593999997E+02  0.45594000000E+02  0.51100000000E-03 0. -1.
         11   -1    0    0    0    0 -0.00000000000E+00 -0.00000000000E+00 -0.45593999997E+02  0.45594000000E+02  0.51100000000E-03 0.  1.
    9900012    2    1    2    0    0  0.71485173790E+00  0.92694409808E+00  0.15072419676E+00  0.90007764366E+02  0.90000026056E+02 0.  0.
         12    1    1    2    0    0 -0.71485173790E+00 -0.92694409808E+00 -0.15072419676E+00  0.11802356339E+01  0.00000000000E+00 0. -1.
         11    1    3    3    0    0  0.15672476888E+01  0.33081771673E+01 -0.71946334255E+01  0.80723634629E+01  0.51100000000E-03 0. -1.
        -11    1    3    3    0    0  0.19799715411E+02 -0.84084552007E+01 -0.31138571510E+02  0.37846287601E+02  0.51100000000E-03 0.  1.
         12    1    3    3    0    0 -0.20652111362E+02  0.60272221315E+01  0.38483929132E+02  0.44089113302E+02  0.00000000000E+00 0. -1.
</event>
<event>
 7    1  0.4502260E-015  0.9000777E+02  0.7816164E-02  0.1186339E+00
        -11   -1    0    0    0    0  0.00000000000E+00  0.00000000000E+00  0.45593999997E+02  0.45594000000E+02  0.51100000000E-03 0. -1.
         11   -1    0    0    0    0 -0.00000000000E+00 -0.00000000000E+00 -0.45593999997E+02  0.45594000000E+02  0.51100000000E-03 0.  1.
    9900012    2    1    2    0    0 -0.23516519240E+00  0.10168686568E+01 -0.55101282282E+00  0.90007771351E+02  0.90000033133E+02 0.  0.
         12    1    1    2    0    0  0.23516519240E+00 -0.10168686568E+01  0.55101282282E+00  0.11802286489E+01  0.00000000000E+00 0. -1.
         11    1    3    3    0    0 -0.13613282751E+02  0.17955577428E+02  0.31598374579E+02  0.38809554292E+02  0.51100000000E-03 0. -1.
        -11    1    3    3    0    0  0.54594857290E+01  0.75728121100E+01  0.80593302175E+00  0.93703252865E+01  0.51100000000E-03 0.  1.
        -12    1    3    3    0    0  0.79186318296E+01 -0.24511520881E+02 -0.32955320423E+02  0.41827891773E+02  0.00000000000E+00 0.  1.
</event>
<event>
 7    1  0.4096472E-015  0.9000776E+02  0.7816164E-02  0.1186339E+00
        -11   -1    0    0    0    0  0.00000000000E+00  0.00000000000E+00  0.45593999997E+02  0.45594000000E+02  0.51100000000E-03 0.  1.
         11   -1    0    0    0    0 -0.00000000000E+00 -0.00000000000E+00 -0.45593999997E+02  0.45594000000E+02  0.51100000000E-03 0. -1.
    9900012    2    1    2    0    0  0.86219459512E-01 -0.10340564416E+01 -0.56237128733E+00  0.90007759353E+02  0.90000020977E+02 0.  0.
         12    1    1    2    0    0 -0.86219459512E-01  0.10340564416E+01  0.56237128733E+00  0.11802406469E+01  0.00000000000E+00 0. -1.
         11    1    3    3    0    0 -0.24304393932E+02  0.20336677135E+02  0.12381351557E+01  0.31714617769E+02  0.51100000000E-03 0. -1.
        -11    1    3    3    0    0 -0.83144651566E+01 -0.50681565579E+01  0.15150617137E+02  0.18009934526E+02  0.51100000000E-03 0.  1.
        -12    1    3    3    0    0  0.32705078548E+02 -0.16302577019E+02 -0.16951123580E+02  0.40283207058E+02  0.00000000000E+00 0.  1.
</event>
<event>
 7    1  0.5231774E-015  0.9000769E+02  0.7816164E-02  0.1186339E+00
        -11   -1    0    0    0    0  0.00000000000E+00  0.00000000000E+00  0.45593999997E+02  0.45594000000E+02  0.51100000000E-03 0. -1.
         11   -1    0    0    0    0 -0.00000000000E+00 -0.00000000000E+00 -0.45593999997E+02  0.45594000000E+02  0.51100000000E-03 0.  1.
    9900012    2    1    2    0    0  0.78363132958E+00  0.87902109459E+00  0.79874729129E-01  0.90007688127E+02  0.89999948810E+02 0.  0.
         12    1    1    2    0    0 -0.78363132958E+00 -0.87902109459E+00 -0.79874729129E-01  0.11803118731E+01  0.00000000000E+00 0. -1.
         11    1    3    3    0    0  0.86214311485E+01  0.17757450351E+02  0.33374716775E+02  0.38775350908E+02  0.51100000000E-03 0. -1.
        -11    1    3    3    0    0  0.84188547383E+01  0.39267939271E+01 -0.74391949801E+00  0.93193477310E+01  0.51100000000E-03 0.  1.
        -12    1    3    3    0    0 -0.16256654557E+02 -0.20805223183E+02 -0.32550922547E+02  0.41912989488E+02  0.00000000000E+00 0.  1.
</event>
<event>
 7    1  0.4096472E-015  0.9000735E+02  0.7816164E-02  0.1186340E+00
        -11   -1    0    0    0    0  0.00000000000E+00  0.00000000000E+00  0.45593999997E+02  0.45594000000E+02  0.51100000000E-03 0.  1.
         11   -1    0    0    0    0 -0.00000000000E+00 -0.00000000000E+00 -0.45593999997E+02  0.45594000000E+02  0.51100000000E-03 0. -1.
    9900012    2    1    2    0    0  0.55355466171E+00  0.84991664000E+00 -0.60428013024E+00  0.90007349529E+02  0.89999605742E+02 0.  0.
         12    1    1    2    0    0 -0.55355466171E+00 -0.84991664000E+00  0.60428013024E+00  0.11806504708E+01  0.00000000000E+00 0. -1.
         11    1    3    3    0    0  0.13591240208E+02 -0.37100318480E+02 -0.53216450097E+00  0.39515043225E+02  0.51100000000E-03 0. -1.
        -11    1    3    3    0    0 -0.45129274455E+00  0.13610378615E+01 -0.10356571259E+02  0.10455365020E+02  0.51100000000E-03 0.  1.
        -12    1    3    3    0    0 -0.12586392801E+02  0.36589197259E+02  0.10284455630E+02  0.40036941284E+02  0.00000000000E+00 0.  1.
</event>
<event>
 7    1  0.4096472E-015  0.9000774E+02  0.7816164E-02  0.1186339E+00
        -11   -1    0    0    0    0  0.00000000000E+00  0.00000000000E+00  0.45593999997E+02  0.45594000000E+02  0.51100000000E-03 0. -1.
         11   -1    0    0    0    0 -0.00000000000E+00 -0.00000000000E+00 -0.45593999997E+02  0.45594000000E+02  0.51100000000E-03 0.  1.
    9900012    2    1    2    0    0 -0.81453490745E+00 -0.40903557304E+00 -0.74981957447E+00  0.90007742990E+02  0.90000004397E+02 0.  0.
         12    1    1    2    0    0  0.81453490745E+00  0.40903557304E+00  0.74981957447E+00  0.11802570100E+01  0.00000000000E+00 0. -1.
         11    1    3    3    0    0 -0.13225188935E+02 -0.10346520944E+02  0.18496148901E+02  0.24981265830E+02  0.51100000000E-03 0. -1.
        -11    1    3    3    0    0 -0.19495096077E+02  0.16003422714E+02  0.33757197019E+01  0.25447274773E+02  0.51100000000E-03 0.  1.
        -12    1    3    3    0    0  0.31905750105E+02 -0.60659373422E+01 -0.22621688178E+02  0.39579202387E+02  0.00000000000E+00 0.  1.
</event>
<event>
 7    1  0.4096472E-015  0.9000785E+02  0.7816164E-02  0.1186339E+00
        -11   -1    0    0    0    0  0.00000000000E+00  0.00000000000E+00  0.45593999997E+02  0.45594000000E+02  0.51100000000E-03 0.  1.
         11   -1    0    0    0    0 -0.00000000000E+00 -0.00000000000E+00 -0.45593999997E+02  0.45594000000E+02  0.51100000000E-03 0. -1.
    9900012    2    1    2    0    0  0.81358045999E-01 -0.11553373125E+01 -0.22657130366E+00  0.90007848318E+02  0.90000111116E+02 0.  0.
         12    1    1    2    0    0 -0.81358045999E-01  0.11553373125E+01  0.22657130366E+00  0.11801516822E+01  0.00000000000E+00 0. -1.
         11    1    3    3    0    0  0.37745197765E+01 -0.57633840263E+01  0.56071034358E+01  0.88827475580E+01  0.51100000000E-03 0. -1.
        -11    1    3    3    0    0 -0.18905787611E+02 -0.31016593609E+02  0.12304893498E+02  0.38351900716E+02  0.51100000000E-03 0.  1.
         12    1    3    3    0    0  0.15212625880E+02  0.35624640323E+02 -0.18138568238E+02  0.42773200044E+02  0.00000000000E+00 0. -1.
</event>
<event>
 7    1  0.4096472E-015  0.9000772E+02  0.7816164E-02  0.1186339E+00
        -11   -1    0    0    0    0  0.00000000000E+00  0.00000000000E+00  0.45593999997E+02  0.45594000000E+02  0.51100000000E-03 0. -1.
         11   -1    0    0    0    0 -0.00000000000E+00 -0.00000000000E+00 -0.45593999997E+02  0.45594000000E+02  0.51100000000E-03 0.  1.
    9900012    2    1    2    0    0 -0.74211353005E-01  0.54510082428E+00 -0.10442258882E+01  0.90007724634E+02  0.89999985799E+02 0.  0.
         12    1    1    2    0    0  0.74211353005E-01 -0.54510082428E+00  0.10442258882E+01  0.11802753658E+01  0.00000000000E+00 0. -1.
         11    1    3    3    0    0  0.53778161683E+01 -0.60169941819E+01 -0.19658932428E+01  0.83060136183E+01  0.51100000000E-03 0. -1.
        -11    1    3    3    0    0  0.36157356199E+02  0.10106814727E+02 -0.93641397135E+01  0.38693529486E+02  0.51100000000E-03 0.  1.
         12    1    3    3    0    0 -0.41609383720E+02 -0.35447197210E+01  0.10285807068E+02  0.43008181530E+02  0.00000000000E+00 0. -1.
</event>
<event>
 7    1  0.4096472E-015  0.9000772E+02  0.7816164E-02  0.1186339E+00
        -11   -1    0    0    0    0  0.00000000000E+00  0.00000000000E+00  0.45593999997E+02  0.45594000000E+02  0.51100000000E-03 0. -1.
         11   -1    0    0    0    0 -0.00000000000E+00 -0.00000000000E+00 -0.45593999997E+02  0.45594000000E+02  0.51100000000E-03 0.  1.
    9900012    2    1    2    0    0  0.10264807548E+01 -0.50766286416E+00 -0.28580674371E+00  0.90007716213E+02  0.89999977267E+02 0.  0.
         12    1    1    2    0    0 -0.10264807548E+01  0.50766286416E+00  0.28580674371E+00  0.11802837872E+01  0.00000000000E+00 0. -1.
         11    1    3    3    0    0 -0.40387138895E+01 -0.49103117012E+00 -0.83335254572E+01  0.92736167862E+01  0.51100000000E-03 0. -1.
        -11    1    3    3    0    0  0.48286786379E+01 -0.35009545211E+02 -0.15463152138E+02  0.38575814542E+02  0.51100000000E-03 0.  1.
         12    1    3    3    0    0  0.23651600646E+00  0.34992913517E+02  0.23510870852E+02  0.42158284885E+02  0.00000000000E+00 0. -1.
</event>
<event>
 7    1  0.4096472E-015  0.9000787E+02  0.7816164E-02  0.1186339E+00
        -11   -1    0    0    0    0  0.00000000000E+00  0.00000000000E+00  0.45593999997E+02  0.45594000000E+02  0.51100000000E-03 0.  1.
         11   -1    0    0    0    0 -0.00000000000E+00 -0.00000000000E+00 -0.45593999997E+02  0.45594000000E+02  0.51100000000E-03 0. -1.
    9900012    2    1    2    0    0 -0.79183716130E+00 -0.84481166774E+00  0.22800630433E+00  0.90007873007E+02  0.90000136131E+02 0.  0.
         12    1    1    2    0    0  0.79183716130E+00  0.84481166774E+00 -0.22800630433E+00  0.11801269926E+01  0.00000000000E+00 0. -1.
         11    1    3    3    0    0  0.15372478993E+02  0.33147866812E+02  0.28409177313E+01  0.36649215522E+02  0.51100000000E-03 0. -1.
        -11    1    3    3    0    0  0.14605877790E+01  0.54833823611E+01  0.70600104190E+01  0.90578444542E+01  0.51100000000E-03 0.  1.
        -12    1    3    3    0    0 -0.17624903934E+02 -0.39476060841E+02 -0.96729218460E+01  0.44300813031E+02  0.00000000000E+00 0.  1.
</event>
<event>
 7    1  0.4096472E-015  0.9000777E+02  0.7816164E-02  0.1186339E+00
        -11   -1    0    0    0    0  0.00000000000E+00  0.00000000000E+00  0.45593999997E+02  0.45594000000E+02  0.51100000000E-03 0.  1.
         11   -1    0    0    0    0 -0.00000000000E+00 -0.00000000000E+00 -0.45593999997E+02  0.45594000000E+02  0.51100000000E-03 0. -1.
    9900012    2    1    2    0    0  0.89480917315E-01  0.10105665747E+01  0.60306635140E+00  0.90007770929E+02  0.90000032705E+02 0.  0.
         12    1    1    2    0    0 -0.89480917315E-01 -0.10105665747E+01 -0.60306635140E+00  0.11802290713E+01  0.00000000000E+00 0. -1.
         11    1    3    3    0    0  0.61178917750E+01 -0.52852246280E-01 -0.28795008182E+02  0.29437796955E+02  0.51100000000E-03 0. -1.
        -11    1    3    3    0    0  0.10575445421E+02  0.19417225032E+02 -0.39788308658E-01  0.22110410606E+02  0.51100000000E-03 0.  1.
        -12    1    3    3    0    0 -0.16603856279E+02 -0.18353806211E+02  0.29437862842E+02  0.38459563368E+02  0.00000000000E+00 0.  1.
</event>
<event>
 7    1  0.4096472E-015  0.9000770E+02  0.7816164E-02  0.1186339E+00
        -11   -1    0    0    0    0  0.00000000000E+00  0.00000000000E+00  0.45593999997E+02  0.45594000000E+02  0.51100000000E-03 0. -1.
         11   -1    0    0    0    0 -0.00000000000E+00 -0.00000000000E+00 -0.45593999997E+02  0.45594000000E+02  0.51100000000E-03 0.  1.
    9900012    2    1    2    0    0  0.97169411851E+00 -0.56766056413E+00 -0.35592462345E+00  0.90007699058E+02  0.89999959886E+02 0.  0.
         12    1    1    2    0    0 -0.97169411851E+00  0.56766056413E+00  0.35592462345E+00  0.11803009420E+01  0.00000000000E+00 0. -1.
         11    1    3    3    0    0 -0.44467729314E+01  0.10726513746E+01 -0.89440066730E+01  0.10045876074E+02  0.51100000000E-03 0. -1.
        -11    1    3    3    0    0 -0.92968143369E+01 -0.37133921647E+02  0.14796870915E+02  0.41040300716E+02  0.51100000000E-03 0.  1.
         12    1    3    3    0    0  0.14715281387E+02  0.35493609709E+02 -0.62087888652E+01  0.38921522268E+02  0.00000000000E+00 0. -1.
</event>
<event>
 7    1  0.4096472E-015  0.9000772E+02  0.7816164E-02  0.1186339E+00
        -11   -1    0    0    0    0  0.00000000000E+00  0.00000000000E+00  0.45593999997E+02  0.45594000000E+02  0.51100000000E-03 0.  1.
         11   -1    0    0    0    0 -0.00000000000E+00 -0.00000000000E+00 -0.45593999997E+02  0.45594000000E+02  0.51100000000E-03 0. -1.
    9900012    2    1    2    0    0 -0.11455872465E+01  0.13584419467E+00  0.24946728378E+00  0.90007721342E+02  0.89999982464E+02 0.  0.
         12    1    1    2    0    0  0.11455872465E+01 -0.13584419467E+00 -0.24946728378E+00  0.11802786578E+01  0.00000000000E+00 0. -1.
         11    1    3    3    0    0 -0.29737503016E+01  0.13915732062E+01  0.11720495609E+02  0.12171675498E+02  0.51100000000E-03 0. -1.
        -11    1    3    3    0    0 -0.20840360412E+01 -0.28325124416E+02  0.21043306338E+02  0.35347936592E+02  0.51100000000E-03 0.  1.
         12    1    3    3    0    0  0.39121990964E+01  0.27069395404E+02 -0.32514334663E+02  0.42488109253E+02  0.00000000000E+00 0. -1.
</event>
<event>
 7    1  0.4096472E-015  0.9000772E+02  0.7816164E-02  0.1186339E+00
        -11   -1    0    0    0    0  0.00000000000E+00  0.00000000000E+00  0.45593999997E+02  0.45594000000E+02  0.51100000000E-03 0.  1.
         11   -1    0    0    0    0 -0.00000000000E+00 -0.00000000000E+00 -0.45593999997E+02  0.45594000000E+02  0.51100000000E-03 0. -1.
    9900012    2    1    2    0    0  0.15968724911E+00  0.98184670552E+00  0.63525082823E+00  0.90007717582E+02  0.89999978654E+02 0.  0.
         12    1    1    2    0    0 -0.15968724911E+00 -0.98184670552E+00 -0.63525082823E+00  0.11802824177E+01  0.00000000000E+00 0. -1.
         11    1    3    3    0    0 -0.21147114756E+01  0.35837785682E+02 -0.10772565474E+02  0.37481556189E+02  0.51100000000E-03 0. -1.
        -11    1    3    3    0    0  0.44147616497E+01  0.75441013010E+01  0.87181985142E+00  0.87842845456E+01  0.51100000000E-03 0.  1.
        -12    1    3    3    0    0 -0.21403629250E+01 -0.42400040277E+02  0.10535996451E+02  0.43741876848E+02  0.00000000000E+00 0.  1.
</event>
<event>
 7    1  0.4096472E-015  0.9000777E+02  0.7816164E-02  0.1186339E+00
        -11   -1    0    0    0    0  0.00000000000E+00  0.00000000000E+00  0.45593999997E+02  0.45594000000E+02  0.51100000000E-03 0. -1.
         11   -1    0    0    0    0 -0.00000000000E+00 -0.00000000000E+00 -0.45593999997E+02  0.45594000000E+02  0.51100000000E-03 0.  1.
    9900012    2    1    2    0    0  0.93125294283E+00 -0.67999873022E+00 -0.25161202819E+00  0.90007771662E+02  0.90000033448E+02 0.  0.
         12    1    1    2    0    0 -0.93125294283E+00  0.67999873022E+00  0.25161202819E+00  0.11802283378E+01  0.00000000000E+00 0. -1.
         11    1    3    3    0    0  0.23566112111E+02  0.14221295279E+02  0.22501289690E+02  0.35551581082E+02  0.51100000000E-03 0. -1.
        -11    1    3    3    0    0  0.78687787698E+01  0.49605038069E+01  0.31051323858E+01  0.98064328245E+01  0.51100000000E-03 0.  1.
        -12    1    3    3    0    0 -0.30503637938E+02 -0.19861797816E+02 -0.25858034104E+02  0.44649757756E+02  0.00000000000E+00 0.  1.
</event>
<event>
 7    1  0.4096472E-015  0.9000748E+02  0.7816164E-02  0.1186340E+00
        -11   -1    0    0    0    0  0.00000000000E+00  0.00000000000E+00  0.45593999997E+02  0.45594000000E+02  0.51100000000E-03 0. -1.
         11   -1    0    0    0    0 -0.00000000000E+00 -0.00000000000E+00 -0.45593999997E+02  0.45594000000E+02  0.51100000000E-03 0.  1.
    9900012    2    1    2    0    0  0.93205472594E+00  0.25613880194E+00 -0.67771386093E+00  0.90007479278E+02  0.89999737204E+02 0.  0.
         12    1    1    2    0    0 -0.93205472594E+00 -0.25613880194E+00  0.67771386093E+00  0.11805207221E+01  0.00000000000E+00 0. -1.
         11    1    3    3    0    0  0.15699922328E+02 -0.63287570049E+01 -0.10520672227E+02  0.19930511050E+02  0.51100000000E-03 0. -1.
        -11    1    3    3    0    0 -0.78289114006E+01 -0.19812103903E+02 -0.20290857929E+02  0.29419895149E+02  0.51100000000E-03 0.  1.
         12    1    3    3    0    0 -0.69389562020E+01  0.26396999710E+02  0.30133816295E+02  0.40657073079E+02  0.00000000000E+00 0. -1.
</event>
<event>
 7    1  0.4096472E-015  0.9000772E+02  0.7816164E-02  0.1186339E+00
        -11   -1    0    0    0    0  0.00000000000E+00  0.00000000000E+00  0.45593999997E+02  0.45594000000E+02  0.51100000000E-03 0.  1.
         11   -1    0    0    0    0 -0.00000000000E+00 -0.00000000000E+00 -0.45593999997E+02  0.45594000000E+02  0.51100000000E-03 0. -1.
    9900012    2    1    2    0    0 -0.47951548748E+00 -0.99633179877E+00  0.41286805953E+00  0.90007715208E+02  0.89999976249E+02 0.  0.
         12    1    1    2    0    0  0.47951548748E+00  0.99633179877E+00 -0.41286805953E+00  0.11802847921E+01  0.00000000000E+00 0. -1.
         11    1    3    3    0    0  0.13889909305E+02  0.24927840683E+01 -0.30749904737E+02  0.33833418310E+02  0.51100000000E-03 0. -1.
        -11    1    3    3    0    0  0.76685507654E+01 -0.76853087408E+01 -0.62674332798E+01  0.12536002611E+02  0.51100000000E-03 0.  1.
        -12    1    3    3    0    0 -0.22037975558E+02  0.41961928737E+01  0.37430206077E+02  0.43638294287E+02  0.00000000000E+00 0.  1.
</event>
<event>
 7    1  0.4096472E-015  0.9000784E+02  0.7816164E-02  0.1186339E+00
        -11   -1    0    0    0    0  0.00000000000E+00  0.00000000000E+00  0.45593999997E+02  0.45594000000E+02  0.51100000000E-03 0.  1.
         11   -1    0    0    0    0 -0.00000000000E+00 -0.00000000000E+00 -0.45593999997E+02  0.45594000000E+02  0.51100000000E-03 0. -1.
    9900012    2    1    2    0    0 -0.10773074845E+01  0.43849204109E+00  0.19979735096E+00  0.90007836593E+02  0.90000099236E+02 0.  0.
         12    1    1    2    0    0  0.10773074845E+01 -0.43849204109E+00 -0.19979735096E+00  0.11801634072E+01  0.00000000000E+00 0. -1.
         11    1    3    3    0    0  0.14003877986E+02  0.14292920357E+02 -0.27373872082E+02  0.33907595668E+02  0.51100000000E-03 0. -1.
        -11    1    3    3    0    0  0.14871229696E+02 -0.45011491088E-01  0.35307431943E+01  0.15284686666E+02  0.51100000000E-03 0.  1.
        -12    1    3    3    0    0 -0.29952415167E+02 -0.13809416825E+02  0.24042926238E+02  0.40815554259E+02  0.00000000000E+00 0.  1.
</event>
<event>
 7    1  0.4096472E-015  0.9000766E+02  0.7816164E-02  0.1186339E+00
        -11   -1    0    0    0    0  0.00000000000E+00  0.00000000000E+00  0.45593999997E+02  0.45594000000E+02  0.51100000000E-03 0.  1.
         11   -1    0    0    0    0 -0.00000000000E+00 -0.00000000000E+00 -0.45593999997E+02  0.45594000000E+02  0.51100000000E-03 0. -1.
    9900012    2    1    2    0    0 -0.11360840577E+01 -0.30929768280E+00 -0.82833910220E-01  0.90007655347E+02  0.89999915598E+02 0.  0.
         12    1    1    2    0    0  0.11360840577E+01  0.30929768280E+00  0.82833910220E-01  0.11803446528E+01  0.00000000000E+00 0. -1.
         11    1    3    3    0    0  0.15331080769E+00 -0.75973190456E+01  0.44092920451E+01  0.87854776470E+01  0.51100000000E-03 0. -1.
        -11    1    3    3    0    0  0.25541197967E+02 -0.26863432235E+02 -0.69866911523E+01  0.37720162229E+02  0.51100000000E-03 0.  1.
         12    1    3    3    0    0 -0.26830592833E+02  0.34151453597E+02  0.24945651969E+01  0.43502015472E+02  0.00000000000E+00 0. -1.
</event>
<event>
 7    1  0.4096472E-015  0.9000774E+02  0.7816164E-02  0.1186339E+00
        -11   -1    0    0    0    0  0.00000000000E+00  0.00000000000E+00  0.45593999997E+02  0.45594000000E+02  0.51100000000E-03 0.  1.
         11   -1    0    0    0    0 -0.00000000000E+00 -0.00000000000E+00 -0.45593999997E+02  0.45594000000E+02  0.51100000000E-03 0. -1.
    9900012    2    1    2    0    0 -0.65902037685E+00 -0.97453287615E+00  0.94813261962E-01  0.90007740817E+02  0.90000002196E+02 0.  0.
         12    1    1    2    0    0  0.65902037685E+00  0.97453287615E+00 -0.94813261962E-01  0.11802591827E+01  0.00000000000E+00 0. -1.
         11    1    3    3    0    0  0.53102784709E+01  0.83902241199E+01 -0.66767934174E+01  0.11965554263E+02  0.51100000000E-03 0. -1.
        -11    1    3    3    0    0 -0.21847662423E+02  0.28928789023E+02  0.18949785984E+01  0.36301324106E+02  0.51100000000E-03 0.  1.
         12    1    3    3    0    0  0.15878363575E+02 -0.38293546019E+02  0.48766280810E+01  0.41740862449E+02  0.00000000000E+00 0. -1.
</event>
<event>
 7    1  0.4096472E-015  0.9000771E+02  0.7816164E-02  0.1186339E+00
        -11   -1    0    0    0    0  0.00000000000E+00  0.00000000000E+00  0.45593999997E+02  0.45594000000E+02  0.51100000000E-03 0. -1.
         11   -1    0    0    0    0 -0.00000000000E+00 -0.00000000000E+00 -0.45593999997E+02  0.45594000000E+02  0.51100000000E-03 0.  1.
    9900012    2    1    2    0    0  0.11213130148E+01 -0.87043477082E-01 -0.35800140024E+00  0.90007710016E+02  0.89999970988E+02 0.  0.
         12    1    1    2    0    0 -0.11213130148E+01  0.87043477082E-01  0.35800140024E+00  0.11802899841E+01  0.00000000000E+00 0. -1.
         11    1    3    3    0    0 -0.39606164090E+01 -0.56934519879E+01  0.77496538413E+01  0.10399952538E+02  0.51100000000E-03 0. -1.
        -11    1    3    3    0    0 -0.25270666098E+02 -0.19698783098E+02 -0.20683669186E+02  0.38137419837E+02  0.51100000000E-03 0.  1.
         12    1    3    3    0    0  0.30352595522E+02  0.25305191609E+02  0.12576013944E+02  0.41470337640E+02  0.00000000000E+00 0. -1.
</event>
<event>
 7    1  0.4096472E-015  0.9000776E+02  0.7816164E-02  0.1186339E+00
        -11   -1    0    0    0    0  0.00000000000E+00  0.00000000000E+00  0.45593999997E+02  0.45594000000E+02  0.51100000000E-03 0.  1.
         11   -1    0    0    0    0 -0.00000000000E+00 -0.00000000000E+00 -0.45593999997E+02  0.45594000000E+02  0.51100000000E-03 0. -1.
    9900012    2    1    2    0    0  0.67826527725E+00 -0.81299746333E+00  0.52149842741E+00  0.90007758808E+02  0.90000020424E+02 0.  0.
         12    1    1    2    0    0 -0.67826527725E+00  0.81299746333E+00 -0.52149842741E+00  0.11802411921E+01  0.00000000000E+00 0. -1.
         11    1    3    3    0    0 -0.16828264923E+01 -0.96933480524E+01  0.55655015580E+01  0.11303437943E+02  0.51100000000E-03 0. -1.
        -11    1    3    3    0    0 -0.12881783271E+02  0.36606069751E+02  0.14600554963E+02  0.41462282720E+02  0.51100000000E-03 0.  1.
         12    1    3    3    0    0  0.15242875040E+02 -0.27725719162E+02 -0.19644558093E+02  0.37242038145E+02  0.00000000000E+00 0. -1.
</event>
<event>
 7    1  0.4096472E-015  0.9000773E+02  0.7816164E-02  0.1186339E+00
        -11   -1    0    0    0    0  0.00000000000E+00  0.00000000000E+00  0.45593999997E+02  0.45594000000E+02  0.51100000000E-03 0.  1.
         11   -1    0    0    0    0 -0.00000000000E+00 -0.00000000000E+00 -0.45593999997E+02  0.45594000000E+02  0.51100000000E-03 0. -1.
    9900012    2    1    2    0    0  0.10686610844E+01 -0.26614298666E+00 -0.42446170852E+00  0.90007730393E+02  0.89999991634E+02 0.  0.
         12    1    1    2    0    0 -0.10686610844E+01  0.26614298666E+00  0.42446170852E+00  0.11802696067E+01  0.00000000000E+00 0. -1.
         11    1    3    3    0    0  0.62621523773E+01 -0.59718437542E+01  0.28521282139E+01  0.91110979487E+01  0.51100000000E-03 0. -1.
        -11    1    3    3    0    0 -0.10288967915E+02  0.22103351209E+02  0.32842937201E+02  0.40903294729E+02  0.51100000000E-03 0.  1.
         12    1    3    3    0    0  0.50954766224E+01 -0.16397650442E+02 -0.36119527123E+02  0.39993337716E+02  0.00000000000E+00 0. -1.
</event>
<event>
 7    1  0.4096472E-015  0.9000770E+02  0.7816164E-02  0.1186339E+00
        -11   -1    0    0    0    0  0.00000000000E+00  0.00000000000E+00  0.45593999997E+02  0.45594000000E+02  0.51100000000E-03 0.  1.
         11   -1    0    0    0    0 -0.00000000000E+00 -0.00000000000E+00 -0.45593999997E+02  0.45594000000E+02  0.51100000000E-03 0. -1.
    9900012    2    1    2    0    0  0.83063440777E+00  0.41028804741E+00  0.73131061876E+00  0.90007701300E+02  0.89999962157E+02 0.  0.
         12    1    1    2    0    0 -0.83063440777E+00 -0.41028804741E+00 -0.73131061876E+00  0.11802987005E+01  0.00000000000E+00 0. -1.
         11    1    3    3    0    0  0.23165066727E+01 -0.92928914915E+01 -0.40833651595E+01  0.10411431541E+02  0.51100000000E-03 0. -1.
        -11    1    3    3    0    0  0.26741554493E+02  0.13809958862E+02  0.29300123917E+02  0.42003844613E+02  0.51100000000E-03 0.  1.
         12    1    3    3    0    0 -0.28227426758E+02 -0.41067793236E+01 -0.24485448138E+02  0.37592425146E+02  0.00000000000E+00 0. -1.
</event>
<event>
 7    1  0.4096472E-015  0.9000772E+02  0.7816164E-02  0.1186339E+00
        -11   -1    0    0    0    0  0.00000000000E+00  0.00000000000E+00  0.45593999997E+02  0.45594000000E+02  0.51100000000E-03 0. -1.
         11   -1    0    0    0    0 -0.00000000000E+00 -0.00000000000E+00 -0.45593999997E+02  0.45594000000E+02  0.51100000000E-03 0.  1.
    9900012    2    1    2    0    0 -0.76280410586E+00  0.65507555943E+00 -0.61811227293E+00  0.90007721696E+02  0.89999982823E+02 0.  0.
         12    1    1    2    0    0  0.76280410586E+00 -0.65507555943E+00  0.61811227293E+00  0.11802783038E+01  0.00000000000E+00 0. -1.
         11    1    3    3    0    0 -0.15734435522E+01  0.49684243838E+00 -0.79335232183E+01  0.81032936475E+01  0.51100000000E-03 0. -1.
        -11    1    3    3    0    0  0.20869126034E+02 -0.24714073396E+01 -0.31655214521E+02  0.37995800851E+02  0.51100000000E-03 0.  1.
         12    1    3    3    0    0 -0.20058486587E+02  0.26296404607E+01  0.38970625467E+02  0.43908627198E+02  0.00000000000E+00 0. -1.
</event>
<event>
 7    1  0.4096472E-015  0.9000770E+02  0.7816164E-02  0.1186339E+00
        -11   -1    0    0    0    0  0.00000000000E+00  0.00000000000E+00  0.45593999997E+02  0.45594000000E+02  0.51100000000E-03 0.  1.
         11   -1    0    0    0    0 -0.00000000000E+00 -0.00000000000E+00 -0.45593999997E+02  0.45594000000E+02  0.51100000000E-03 0. -1.
    9900012    2    1    2    0    0 -0.31278419447E+00 -0.47885944696E+00  0.10324599302E+01  0.90007697569E+02  0.89999958376E+02 0.  0.
         12    1    1    2    0    0  0.31278419447E+00  0.47885944696E+00 -0.10324599302E+01  0.11803024315E+01  0.00000000000E+00 0. -1.
         11    1    3    3    0    0 -0.65174490159E+01  0.60558392525E+01 -0.28904908841E+00  0.89013414924E+01  0.51100000000E-03 0. -1.
        -11    1    3    3    0    0  0.26533347446E+02  0.16629547310E+02  0.26724171884E+02  0.41167241025E+02  0.51100000000E-03 0.  1.
         12    1    3    3    0    0 -0.20328682624E+02 -0.23164246010E+02 -0.25402662866E+02  0.39939115052E+02  0.00000000000E+00 0. -1.
</event>
<event>
 7    1  0.4096472E-015  0.9000754E+02  0.7816164E-02  0.1186339E+00
        -11   -1    0    0    0    0  0.00000000000E+00  0.00000000000E+00  0.45593999997E+02  0.45594000000E+02  0.51100000000E-03 0.  1.
         11   -1    0    0    0    0 -0.00000000000E+00 -0.00000000000E+00 -0.45593999997E+02  0.45594000000E+02  0.51100000000E-03 0. -1.
    9900012    2    1    2    0    0 -0.83682150813E+00  0.82003911749E+00  0.14402106449E+00  0.90007543962E+02  0.89999802742E+02 0.  0.
         12    1    1    2    0    0  0.83682150813E+00 -0.82003911749E+00 -0.14402106449E+00  0.11804560380E+01  0.00000000000E+00 0. -1.
         11    1    3    3    0    0 -0.25337621552E+02  0.25475399583E+02 -0.90447958059E+01  0.37051307416E+02  0.51100000000E-03 0. -1.
        -11    1    3    3    0    0  0.24823218571E+01 -0.13693458047E+01 -0.13432885064E+02  0.13728781124E+02  0.51100000000E-03 0.  1.
        -12    1    3    3    0    0  0.22018478187E+02 -0.23286014661E+02  0.22621701935E+02  0.39227455422E+02  0.00000000000E+00 0.  1.
</event>
<event>
 7    1  0.4096472E-015  0.9000787E+02  0.7816164E-02  0.1186339E+00
        -11   -1    0    0    0    0  0.00000000000E+00  0.00000000000E+00  0.45593999997E+02  0.45594000000E+02  0.51100000000E-03 0.  1.
         11   -1    0    0    0    0 -0.00000000000E+00 -0.00000000000E+00 -0.45593999997E+02  0.45594000000E+02  0.51100000000E-03 0. -1.
    9900012    2    1    2    0    0 -0.13118476121E-01 -0.96442639708E+00  0.68000703520E+00  0.90007872915E+02  0.90000136037E+02 0.  0.
         12    1    1    2    0    0  0.13118476121E-01  0.96442639708E+00 -0.68000703520E+00  0.11801270854E+01  0.00000000000E+00 0. -1.
         11    1    3    3    0    0  0.25593694961E+01 -0.42932452561E+01 -0.85772622415E+01  0.99273236507E+01  0.51100000000E-03 0. -1.
        -11    1    3    3    0    0 -0.28928785742E+02  0.24640856732E+02  0.21953108644E+02  0.43886050681E+02  0.51100000000E-03 0.  1.
         12    1    3    3    0    0  0.26356297770E+02 -0.21312037873E+02 -0.12695839367E+02  0.36194498583E+02  0.00000000000E+00 0. -1.
</event>
<event>
 7    1  0.4096472E-015  0.9000772E+02  0.7816164E-02  0.1186339E+00
        -11   -1    0    0    0    0  0.00000000000E+00  0.00000000000E+00  0.45593999997E+02  0.45594000000E+02  0.51100000000E-03 0. -1.
         11   -1    0    0    0    0 -0.00000000000E+00 -0.00000000000E+00 -0.45593999997E+02  0.45594000000E+02  0.51100000000E-03 0.  1.
    9900012    2    1    2    0    0 -0.11144521815E+00 -0.59336745662E+00 -0.10141743527E+01  0.90007722663E+02  0.89999983802E+02 0.  0.
         12    1    1    2    0    0  0.11144521815E+00  0.59336745662E+00  0.10141743527E+01  0.11802773373E+01  0.00000000000E+00 0. -1.
         11    1    3    3    0    0 -0.20622165610E+02  0.94006852683E+01  0.27298048060E+02  0.35479994731E+02  0.51100000000E-03 0. -1.
        -11    1    3    3    0    0 -0.11396963522E+02  0.24880310802E+01 -0.33511422780E+01  0.12137183817E+02  0.51100000000E-03 0.  1.
        -12    1    3    3    0    0  0.31907683913E+02 -0.12482083805E+02 -0.24961080135E+02  0.42390544115E+02  0.00000000000E+00 0.  1.
</event>
<event>
 7    1  0.4096472E-015  0.9000779E+02  0.7816164E-02  0.1186339E+00
        -11   -1    0    0    0    0  0.00000000000E+00  0.00000000000E+00  0.45593999997E+02  0.45594000000E+02  0.51100000000E-03 0.  1.
         11   -1    0    0    0    0 -0.00000000000E+00 -0.00000000000E+00 -0.45593999997E+02  0.45594000000E+02  0.51100000000E-03 0. -1.
    9900012    2    1    2    0    0  0.11449548702E+01  0.81384116300E-01  0.27451167588E+00  0.90007787439E+02  0.90000049433E+02 0.  0.
         12    1    1    2    0    0 -0.11449548702E+01 -0.81384116300E-01 -0.27451167588E+00  0.11802125611E+01  0.00000000000E+00 0. -1.
         11    1    3    3    0    0  0.44478596774E+01  0.31112391777E+01 -0.83288705173E+01  0.99414963304E+01  0.51100000000E-03 0. -1.
        -11    1    3    3    0    0  0.32895624454E+02 -0.31105774761E+01  0.23888081144E+02  0.40773008492E+02  0.51100000000E-03 0.  1.
         12    1    3    3    0    0 -0.36198529261E+02  0.80722414717E-01 -0.15284698951E+02  0.39293282617E+02  0.00000000000E+00 0. -1.
</event>
<event>
 7    1  0.4096472E-015  0.9000769E+02  0.7816164E-02  0.1186339E+00
        -11   -1    0    0    0    0  0.00000000000E+00  0.00000000000E+00  0.45593999997E+02  0.45594000000E+02  0.51100000000E-03 0.  1.
         11   -1    0    0    0    0 -0.00000000000E+00 -0.00000000000E+00 -0.45593999997E+02  0.45594000000E+02  0.51100000000E-03 0. -1.
    9900012    2    1    2    0    0 -0.89043476920E+00  0.52407644601E+00  0.57060729254E+00  0.90007693734E+02  0.89999954491E+02 0.  0.
         12    1    1    2    0    0  0.89043476920E+00 -0.52407644601E+00 -0.57060729254E+00  0.11803062661E+01  0.00000000000E+00 0. -1.
         11    1    3    3    0    0 -0.13653739753E+02  0.87636703775E+00 -0.39704344762E+02  0.41995566691E+02  0.51100000000E-03 0. -1.
        -11    1    3    3    0    0 -0.66703952399E+00  0.81656685442E+01  0.57770878317E+01  0.10024860527E+02  0.51100000000E-03 0.  1.
        -12    1    3    3    0    0  0.13430344508E+02 -0.85179591360E+01  0.34497864223E+02  0.37987266516E+02  0.00000000000E+00 0.  1.
</event>
<event>
 7    1  0.4096472E-015  0.9000771E+02  0.7816164E-02  0.1186339E+00
        -11   -1    0    0    0    0  0.00000000000E+00  0.00000000000E+00  0.45593999997E+02  0.45594000000E+02  0.51100000000E-03 0.  1.
         11   -1    0    0    0    0 -0.00000000000E+00 -0.00000000000E+00 -0.45593999997E+02  0.45594000000E+02  0.51100000000E-03 0. -1.
    9900012    2    1    2    0    0 -0.63259275561E+00 -0.76575292960E+00  0.63760353663E+00  0.90007707912E+02  0.89999968856E+02 0.  0.
         12    1    1    2    0    0  0.63259275561E+00  0.76575292960E+00 -0.63760353663E+00  0.11802920882E+01  0.00000000000E+00 0. -1.
         11    1    3    3    0    0 -0.82804936797E+01 -0.19657478747E+01  0.32148823839E+01  0.90975935988E+01  0.51100000000E-03 0. -1.
        -11    1    3    3    0    0  0.34781399352E+00  0.25763373691E+02  0.29945836934E+02  0.39504753492E+02  0.51100000000E-03 0.  1.
         12    1    3    3    0    0  0.73000869306E+01 -0.24563378746E+02 -0.32523115781E+02  0.41405360821E+02  0.00000000000E+00 0. -1.
</event>
<event>
 7    1  0.4096472E-015  0.9000772E+02  0.7816164E-02  0.1186339E+00
        -11   -1    0    0    0    0  0.00000000000E+00  0.00000000000E+00  0.45593999997E+02  0.45594000000E+02  0.51100000000E-03 0. -1.
         11   -1    0    0    0    0 -0.00000000000E+00 -0.00000000000E+00 -0.45593999997E+02  0.45594000000E+02  0.51100000000E-03 0.  1.
    9900012    2    1    2    0    0 -0.64702717232E+00 -0.97156309685E+00 -0.17457236290E+00  0.90007722692E+02  0.89999983832E+02 0.  0.
         12    1    1    2    0    0  0.64702717232E+00  0.97156309685E+00  0.17457236290E+00  0.11802773076E+01  0.00000000000E+00 0. -1.
         11    1    3    3    0    0 -0.52149459692E+01  0.68631731061E+01  0.52820691719E+01  0.10109355150E+02  0.51100000000E-03 0. -1.
        -11    1    3    3    0    0  0.28082856300E+02  0.37637463349E+01  0.26339615989E+02  0.38685759333E+02  0.51100000000E-03 0.  1.
         12    1    3    3    0    0 -0.23514937503E+02 -0.11598482538E+02 -0.31796257524E+02  0.41212608210E+02  0.00000000000E+00 0. -1.
</event>
<event>
 7    1  0.4096472E-015  0.9000769E+02  0.7816164E-02  0.1186339E+00
        -11   -1    0    0    0    0  0.00000000000E+00  0.00000000000E+00  0.45593999997E+02  0.45594000000E+02  0.51100000000E-03 0.  1.
         11   -1    0    0    0    0 -0.00000000000E+00 -0.00000000000E+00 -0.45593999997E+02  0.45594000000E+02  0.51100000000E-03 0. -1.
    9900012    2    1    2    0    0  0.10707454467E+01 -0.52477960255E-01  0.49383658327E+00  0.90007693125E+02  0.89999953874E+02 0.  0.
         12    1    1    2    0    0 -0.10707454467E+01  0.52477960255E-01 -0.49383658327E+00  0.11803068749E+01  0.00000000000E+00 0. -1.
         11    1    3    3    0    0  0.12404894766E+01  0.13649697334E+02  0.44327822729E+01  0.14404950898E+02  0.51100000000E-03 0. -1.
        -11    1    3    3    0    0 -0.10117960661E+02  0.56148007690E+01  0.31764989345E+02  0.33807006137E+02  0.51100000000E-03 0.  1.
         12    1    3    3    0    0  0.99482166307E+01 -0.19316976063E+02 -0.35703935035E+02  0.41795736090E+02  0.00000000000E+00 0. -1.
</event>
<event>
 7    1  0.4096472E-015  0.9000766E+02  0.7816164E-02  0.1186339E+00
        -11   -1    0    0    0    0  0.00000000000E+00  0.00000000000E+00  0.45593999997E+02  0.45594000000E+02  0.51100000000E-03 0.  1.
         11   -1    0    0    0    0 -0.00000000000E+00 -0.00000000000E+00 -0.45593999997E+02  0.45594000000E+02  0.51100000000E-03 0. -1.
    9900012    2    1    2    0    0 -0.53222551619E+00 -0.70541109855E+00 -0.78251470076E+00  0.90007661881E+02  0.89999922218E+02 0.  0.
         12    1    1    2    0    0  0.53222551619E+00  0.70541109855E+00  0.78251470076E+00  0.11803381189E+01  0.00000000000E+00 0. -1.
         11    1    3    3    0    0  0.39800949752E+01  0.54612432434E+01  0.82564666159E+01  0.10669375568E+02  0.51100000000E-03 0. -1.
        -11    1    3    3    0    0  0.18657148295E+01 -0.32619938789E+01  0.34769894729E+02  0.34972375893E+02  0.51100000000E-03 0.  1.
         12    1    3    3    0    0 -0.63780353209E+01 -0.29046604631E+01 -0.43808876046E+02  0.44365910420E+02  0.00000000000E+00 0. -1.
</event>
<event>
 7    1  0.4096472E-015  0.9000763E+02  0.7816164E-02  0.1186339E+00
        -11   -1    0    0    0    0  0.00000000000E+00  0.00000000000E+00  0.45593999997E+02  0.45594000000E+02  0.51100000000E-03 0.  1.
         11   -1    0    0    0    0 -0.00000000000E+00 -0.00000000000E+00 -0.45593999997E+02  0.45594000000E+02  0.51100000000E-03 0. -1.
    9900012    2    1    2    0    0 -0.38864509786E+00  0.19926424055E+00  0.10966004602E+01  0.90007625560E+02  0.89999885417E+02 0.  0.
         12    1    1    2    0    0  0.38864509786E+00 -0.19926424055E+00 -0.10966004602E+01  0.11803744401E+01  0.00000000000E+00 0. -1.
         11    1    3    3    0    0  0.28614911761E+02 -0.33061541874E+01 -0.26303945757E+02  0.39008222124E+02  0.51100000000E-03 0. -1.
        -11    1    3    3    0    0  0.34087715095E+01  0.89084154126E+01  0.27668186410E+01  0.99315091512E+01  0.51100000000E-03 0.  1.
        -12    1    3    3    0    0 -0.32412328369E+02 -0.54029969846E+01  0.24633727576E+02  0.41067894285E+02  0.00000000000E+00 0.  1.
</event>
<event>
 7    1  0.4096472E-015  0.9000778E+02  0.7816164E-02  0.1186339E+00
        -11   -1    0    0    0    0  0.00000000000E+00  0.00000000000E+00  0.45593999997E+02  0.45594000000E+02  0.51100000000E-03 0.  1.
         11   -1    0    0    0    0 -0.00000000000E+00 -0.00000000000E+00 -0.45593999997E+02  0.45594000000E+02  0.51100000000E-03 0. -1.
    9900012    2    1    2    0    0 -0.53877698427E+00  0.84923525123E+00  0.61761262665E+00  0.90007776925E+02  0.90000038780E+02 0.  0.
         12    1    1    2    0    0  0.53877698427E+00 -0.84923525123E+00 -0.61761262665E+00  0.11802230752E+01  0.00000000000E+00 0. -1.
         11    1    3    3    0    0  0.28463317737E+02 -0.22849749316E+02 -0.72439053604E+01  0.37212170933E+02  0.51100000000E-03 0. -1.
        -11    1    3    3    0    0  0.85480152719E+01  0.17923494291E+01  0.13121846593E+01  0.88319256341E+01  0.51100000000E-03 0.  1.
        -12    1    3    3    0    0 -0.37550109993E+02  0.21906635138E+02  0.65493333277E+01  0.43963680358E+02  0.00000000000E+00 0.  1.
</event>
<event>
 7    1  0.4096472E-015  0.9000773E+02  0.7816164E-02  0.1186339E+00
        -11   -1    0    0    0    0  0.00000000000E+00  0.00000000000E+00  0.45593999997E+02  0.45594000000E+02  0.51100000000E-03 0.  1.
         11   -1    0    0    0    0 -0.00000000000E+00 -0.00000000000E+00 -0.45593999997E+02  0.45594000000E+02  0.51100000000E-03 0. -1.
    9900012    2    1    2    0    0  0.76894906717E+00 -0.81350277631E-02  0.89537225832E+00  0.90007728706E+02  0.89999989925E+02 0.  0.
         12    1    1    2    0    0 -0.76894906717E+00  0.81350277631E-02 -0.89537225832E+00  0.11802712940E+01  0.00000000000E+00 0. -1.
         11    1    3    3    0    0  0.14771998055E+00  0.50138931897E+01  0.91775373763E+01  0.10458878461E+02  0.51100000000E-03 0. -1.
        -11    1    3    3    0    0 -0.94385297946E+01  0.30678052918E+02  0.15340505891E+02  0.35574708668E+02  0.51100000000E-03 0.  1.
         12    1    3    3    0    0  0.10059758881E+02 -0.35700081136E+02 -0.23622671009E+02  0.43974141577E+02  0.00000000000E+00 0. -1.
</event>
<event>
 7    1  0.4096472E-015  0.9000789E+02  0.7816164E-02  0.1186339E+00
        -11   -1    0    0    0    0  0.00000000000E+00  0.00000000000E+00  0.45593999997E+02  0.45594000000E+02  0.51100000000E-03 0.  1.
         11   -1    0    0    0    0 -0.00000000000E+00 -0.00000000000E+00 -0.45593999997E+02  0.45594000000E+02  0.51100000000E-03 0. -1.
    9900012    2    1    2    0    0  0.38152698567E+00 -0.42113023948E+00  0.10342856571E+01  0.90007889692E+02  0.90000153035E+02 0.  0.
         12    1    1    2    0    0 -0.38152698567E+00  0.42113023948E+00 -0.10342856571E+01  0.11801103084E+01  0.00000000000E+00 0. -1.
         11    1    3    3    0    0 -0.56396078193E+01 -0.64175083201E+01  0.31339745531E+01  0.91000761620E+01  0.51100000000E-03 0. -1.
        -11    1    3    3    0    0  0.78272102907E+01 -0.32198905282E+02  0.17999051566E+02  0.37709422958E+02  0.51100000000E-03 0.  1.
         12    1    3    3    0    0 -0.18060754857E+01  0.38195283363E+02 -0.20098740462E+02  0.43198390572E+02  0.00000000000E+00 0. -1.
</event>
<event>
 7    1  0.4096472E-015  0.9000821E+02  0.7816164E-02  0.1186338E+00
        -11   -1    0    0    0    0  0.00000000000E+00  0.00000000000E+00  0.45593999997E+02  0.45594000000E+02  0.51100000000E-03 0. -1.
         11   -1    0    0    0    0 -0.00000000000E+00 -0.00000000000E+00 -0.45593999997E+02  0.45594000000E+02  0.51100000000E-03 0.  1.
    9900012    2    1    2    0    0  0.48619409766E+00  0.10584017202E+01 -0.18790373815E+00  0.90008209037E+02  0.90000476595E+02 0.  0.
         12    1    1    2    0    0 -0.48619409766E+00 -0.10584017202E+01  0.18790373815E+00  0.11797909632E+01  0.00000000000E+00 0. -1.
         11    1    3    3    0    0  0.11929877690E+02 -0.31304112284E+02  0.18935738745E+02  0.38481575197E+02  0.51100000000E-03 0. -1.
        -11    1    3    3    0    0 -0.31030825044E+01  0.19922290710E+01  0.87332865135E+01  0.94798940547E+01  0.51100000000E-03 0.  1.
        -12    1    3    3    0    0 -0.83406010880E+01  0.30370284933E+02 -0.27856928996E+02  0.42046739785E+02  0.00000000000E+00 0.  1.
</event>
<event>
 7    1  0.4096472E-015  0.9000766E+02  0.7816164E-02  0.1186339E+00
        -11   -1    0    0    0    0  0.00000000000E+00  0.00000000000E+00  0.45593999997E+02  0.45594000000E+02  0.51100000000E-03 0.  1.
         11   -1    0    0    0    0 -0.00000000000E+00 -0.00000000000E+00 -0.45593999997E+02  0.45594000000E+02  0.51100000000E-03 0. -1.
    9900012    2    1    2    0    0  0.11066571484E+00 -0.85487974612E+00  0.80631513245E+00  0.90007656671E+02  0.89999916939E+02 0.  0.
         12    1    1    2    0    0 -0.11066571484E+00  0.85487974612E+00 -0.80631513245E+00  0.11803433287E+01  0.00000000000E+00 0. -1.
         11    1    3    3    0    0  0.84042292712E+01 -0.25210858683E+01  0.39551040308E+01  0.96244372175E+01  0.51100000000E-03 0. -1.
        -11    1    3    3    0    0  0.35826332192E+02  0.39636122523E+01 -0.33789431865E+01  0.36202949572E+02  0.51100000000E-03 0.  1.
         12    1    3    3    0    0 -0.44119895749E+02 -0.22974061301E+01  0.23015428814E+00  0.44180269881E+02  0.00000000000E+00 0. -1.
</event>
<event>
 7    1  0.4096472E-015  0.9000762E+02  0.7816164E-02  0.1186339E+00
        -11   -1    0    0    0    0  0.00000000000E+00  0.00000000000E+00  0.45593999997E+02  0.45594000000E+02  0.51100000000E-03 0.  1.
         11   -1    0    0    0    0 -0.00000000000E+00 -0.00000000000E+00 -0.45593999997E+02  0.45594000000E+02  0.51100000000E-03 0. -1.
    9900012    2    1    2    0    0  0.11070324717E+01 -0.32749165687E-01  0.40830655975E+00  0.90007615466E+02  0.89999875190E+02 0.  0.
         12    1    1    2    0    0 -0.11070324717E+01  0.32749165687E-01 -0.40830655975E+00  0.11803845340E+01  0.00000000000E+00 0. -1.
         11    1    3    3    0    0 -0.38556063797E+02 -0.92209848957E+00  0.11171985516E+02  0.40152628579E+02  0.51100000000E-03 0. -1.
        -11    1    3    3    0    0  0.35401808304E+01 -0.99977012426E+01 -0.48658184502E+01  0.11668894545E+02  0.51100000000E-03 0.  1.
        -12    1    3    3    0    0  0.36122915439E+02  0.10887050566E+02 -0.58978605058E+01  0.38186092342E+02  0.00000000000E+00 0.  1.
</event>
<event>
 7    1  0.4096472E-015  0.9000776E+02  0.7816164E-02  0.1186339E+00
        -11   -1    0    0    0    0  0.00000000000E+00  0.00000000000E+00  0.45593999997E+02  0.45594000000E+02  0.51100000000E-03 0.  1.
         11   -1    0    0    0    0 -0.00000000000E+00 -0.00000000000E+00 -0.45593999997E+02  0.45594000000E+02  0.51100000000E-03 0. -1.
    9900012    2    1    2    0    0  0.46719923299E+00  0.72882840625E+00  0.80219029179E+00  0.90007756282E+02  0.90000017865E+02 0.  0.
         12    1    1    2    0    0 -0.46719923299E+00 -0.72882840625E+00 -0.80219029179E+00  0.11802437178E+01  0.00000000000E+00 0. -1.
         11    1    3    3    0    0  0.37220641619E+01  0.10486389936E+01  0.87961628900E+01  0.96086360745E+01  0.51100000000E-03 0. -1.
        -11    1    3    3    0    0  0.30621150076E+02 -0.29672418282E+01  0.19727447753E+02  0.36546293262E+02  0.51100000000E-03 0.  1.
         12    1    3    3    0    0 -0.33876015005E+02  0.26474312409E+01 -0.27721420352E+02  0.43852826946E+02  0.00000000000E+00 0. -1.
</event>
<event>
 7    1  0.4096472E-015  0.9000788E+02  0.7816164E-02  0.1186339E+00
        -11   -1    0    0    0    0  0.00000000000E+00  0.00000000000E+00  0.45593999997E+02  0.45594000000E+02  0.51100000000E-03 0. -1.
         11   -1    0    0    0    0 -0.00000000000E+00 -0.00000000000E+00 -0.45593999997E+02  0.45594000000E+02  0.51100000000E-03 0.  1.
    9900012    2    1    2    0    0 -0.83559182377E+00  0.61624304429E+00 -0.56099203900E+00  0.90007880831E+02  0.90000144058E+02 0.  0.
         12    1    1    2    0    0  0.83559182377E+00 -0.61624304429E+00  0.56099203900E+00  0.11801191692E+01  0.00000000000E+00 0. -1.
         11    1    3    3    0    0 -0.79668274926E+01  0.24870441042E+01 -0.10307667075E+02  0.13262870333E+02  0.51100000000E-03 0. -1.
        -11    1    3    3    0    0 -0.26587644214E+02 -0.92241057280E+01 -0.17180145795E+02  0.32971872272E+02  0.51100000000E-03 0.  1.
         12    1    3    3    0    0  0.33718879883E+02  0.73533046681E+01  0.26926820831E+02  0.43773138226E+02  0.00000000000E+00 0. -1.
</event>
<event>
 7    1  0.4096472E-015  0.9000777E+02  0.7816164E-02  0.1186339E+00
        -11   -1    0    0    0    0  0.00000000000E+00  0.00000000000E+00  0.45593999997E+02  0.45594000000E+02  0.51100000000E-03 0.  1.
         11   -1    0    0    0    0 -0.00000000000E+00 -0.00000000000E+00 -0.45593999997E+02  0.45594000000E+02  0.51100000000E-03 0. -1.
    9900012    2    1    2    0    0  0.51408216457E+00  0.61841583711E+00  0.86384902356E+00  0.90007765381E+02  0.90000027084E+02 0.  0.
         12    1    1    2    0    0 -0.51408216457E+00 -0.61841583711E+00 -0.86384902356E+00  0.11802346186E+01  0.00000000000E+00 0. -1.
         11    1    3    3    0    0 -0.67765367432E+01 -0.36617744962E+02  0.38398127222E+01  0.37436945099E+02  0.51100000000E-03 0. -1.
        -11    1    3    3    0    0  0.63981752924E+01 -0.56080551730E+01 -0.46283182852E+01  0.96854664475E+01  0.51100000000E-03 0.  1.
        -12    1    3    3    0    0  0.89244361539E+00  0.42844215972E+02  0.16523545866E+01  0.42885353835E+02  0.00000000000E+00 0.  1.
</event>
<event>
 7    1  0.4096472E-015  0.9000774E+02  0.7816164E-02  0.1186339E+00
        -11   -1    0    0    0    0  0.00000000000E+00  0.00000000000E+00  0.45593999997E+02  0.45594000000E+02  0.51100000000E-03 0.  1.
         11   -1    0    0    0    0 -0.00000000000E+00 -0.00000000000E+00 -0.45593999997E+02  0.45594000000E+02  0.51100000000E-03 0. -1.
    9900012    2    1    2    0    0  0.10150839447E+01  0.24035454724E+00 -0.55212660279E+00  0.90007741762E+02  0.90000003153E+02 0.  0.
         12    1    1    2    0    0 -0.10150839447E+01 -0.24035454724E+00  0.55212660279E+00  0.11802582381E+01  0.00000000000E+00 0. -1.
         11    1    3    3    0    0  0.14561358103E+02  0.64782275536E+01 -0.33434566374E+02  0.37038774425E+02  0.51100000000E-03 0. -1.
        -11    1    3    3    0    0 -0.20074897752E+01  0.64208659955E-01 -0.89222616243E+01  0.91455393883E+01  0.51100000000E-03 0.  1.
        -12    1    3    3    0    0 -0.11538784383E+02 -0.63020816663E+01  0.41804701396E+02  0.43823427948E+02  0.00000000000E+00 0.  1.
</event>
<event>
 7    1  0.4096472E-015  0.9000775E+02  0.7816164E-02  0.1186339E+00
        -11   -1    0    0    0    0  0.00000000000E+00  0.00000000000E+00  0.45593999997E+02  0.45594000000E+02  0.51100000000E-03 0.  1.
         11   -1    0    0    0    0 -0.00000000000E+00 -0.00000000000E+00 -0.45593999997E+02  0.45594000000E+02  0.51100000000E-03 0. -1.
    9900012    2    1    2    0    0 -0.19498793815E+00 -0.73962700791E+00  0.89884354071E+00  0.90007750824E+02  0.90000012335E+02 0.  0.
         12    1    1    2    0    0  0.19498793815E+00  0.73962700791E+00 -0.89884354071E+00  0.11802491760E+01  0.00000000000E+00 0. -1.
         11    1    3    3    0    0  0.52229599501E+01 -0.99733640161E+00 -0.65924575103E+01  0.84696214097E+01  0.51100000000E-03 0. -1.
        -11    1    3    3    0    0  0.79670162121E+01  0.37559172977E+02 -0.75852755715E+01  0.39136954759E+02  0.51100000000E-03 0.  1.
         12    1    3    3    0    0 -0.13384964100E+02 -0.37301463584E+02  0.15076576623E+02  0.42401174655E+02  0.00000000000E+00 0. -1.
</event>
<event>
 7    1  0.4096472E-015  0.9000775E+02  0.7816164E-02  0.1186339E+00
        -11   -1    0    0    0    0  0.00000000000E+00  0.00000000000E+00  0.45593999997E+02  0.45594000000E+02  0.51100000000E-03 0.  1.
         11   -1    0    0    0    0 -0.00000000000E+00 -0.00000000000E+00 -0.45593999997E+02  0.45594000000E+02  0.51100000000E-03 0. -1.
    9900012    2    1    2    0    0 -0.10160866468E+00  0.85128748669E+00 -0.81115536459E+00  0.90007750988E+02  0.90000012501E+02 0.  0.
         12    1    1    2    0    0  0.10160866468E+00 -0.85128748669E+00  0.81115536459E+00  0.11802490124E+01  0.00000000000E+00 0. -1.
         11    1    3    3    0    0 -0.53276295935E+01  0.71496266314E+00 -0.77701697830E+01  0.94482986518E+01  0.51100000000E-03 0. -1.
        -11    1    3    3    0    0  0.16166277955E+02  0.37617529683E+02  0.68550809912E+01  0.41514084574E+02  0.51100000000E-03 0.  1.
         12    1    3    3    0    0 -0.10940257026E+02 -0.37481204859E+02  0.10393342723E+00  0.39045367762E+02  0.00000000000E+00 0. -1.
</event>
<event>
 7    1  0.4096472E-015  0.9000763E+02  0.7816164E-02  0.1186339E+00
        -11   -1    0    0    0    0  0.00000000000E+00  0.00000000000E+00  0.45593999997E+02  0.45594000000E+02  0.51100000000E-03 0. -1.
         11   -1    0    0    0    0 -0.00000000000E+00 -0.00000000000E+00 -0.45593999997E+02  0.45594000000E+02  0.51100000000E-03 0.  1.
    9900012    2    1    2    0    0 -0.11539592424E+01  0.17597110722E+00 -0.17518858684E+00  0.90007627684E+02  0.89999887569E+02 0.  0.
         12    1    1    2    0    0  0.11539592424E+01 -0.17597110722E+00  0.17518858684E+00  0.11803723162E+01  0.00000000000E+00 0. -1.
         11    1    3    3    0    0 -0.95013798981E+01  0.18461973688E+01  0.17177548112E+01  0.98303278961E+01  0.51100000000E-03 0. -1.
        -11    1    3    3    0    0 -0.27359879352E+02  0.17054901796E+02 -0.17807048336E+02  0.36831014704E+02  0.51100000000E-03 0.  1.
         12    1    3    3    0    0  0.35707300007E+02 -0.18725128057E+02  0.15914104938E+02  0.43346285084E+02  0.00000000000E+00 0. -1.
</event>
<event>
 7    1  0.4096472E-015  0.9000791E+02  0.7816164E-02  0.1186339E+00
        -11   -1    0    0    0    0  0.00000000000E+00  0.00000000000E+00  0.45593999997E+02  0.45594000000E+02  0.51100000000E-03 0.  1.
         11   -1    0    0    0    0 -0.00000000000E+00 -0.00000000000E+00 -0.45593999997E+02  0.45594000000E+02  0.51100000000E-03 0. -1.
    9900012    2    1    2    0    0 -0.94467138043E+00 -0.47328717689E+00  0.52554967137E+00  0.90007912196E+02  0.90000175837E+02 0.  0.
         12    1    1    2    0    0  0.94467138043E+00  0.47328717689E+00 -0.52554967137E+00  0.11800878043E+01  0.00000000000E+00 0. -1.
         11    1    3    3    0    0  0.13429170059E+01 -0.44682937033E+01  0.85317641847E+01  0.97242004848E+01  0.51100000000E-03 0. -1.
        -11    1    3    3    0    0 -0.35103061942E+02  0.83992103843E+01  0.15904691751E+02  0.39442754882E+02  0.51100000000E-03 0.  1.
         12    1    3    3    0    0  0.32815473555E+02 -0.44042038579E+01 -0.23910906264E+02  0.40840956828E+02  0.00000000000E+00 0. -1.
</event>
<event>
 7    1  0.4096472E-015  0.9000787E+02  0.7816164E-02  0.1186339E+00
        -11   -1    0    0    0    0  0.00000000000E+00  0.00000000000E+00  0.45593999997E+02  0.45594000000E+02  0.51100000000E-03 0. -1.
         11   -1    0    0    0    0 -0.00000000000E+00 -0.00000000000E+00 -0.45593999997E+02  0.45594000000E+02  0.51100000000E-03 0.  1.
    9900012    2    1    2    0    0 -0.34791523981E+00 -0.57976939000E+00  0.96722191253E+00  0.90007874673E+02  0.90000137818E+02 0.  0.
         12    1    1    2    0    0  0.34791523981E+00  0.57976939000E+00 -0.96722191253E+00  0.11801253271E+01  0.00000000000E+00 0. -1.
         11    1    3    3    0    0 -0.25209187607E+02  0.29319771391E+02  0.19063495895E+02  0.43111123973E+02  0.51100000000E-03 0. -1.
        -11    1    3    3    0    0  0.81261593626E+01 -0.48766353953E+01  0.32214577279E+01  0.10009686754E+02  0.51100000000E-03 0.  1.
        -12    1    3    3    0    0  0.16735113005E+02 -0.25022905386E+02 -0.21317731710E+02  0.36887063945E+02  0.00000000000E+00 0.  1.
</event>
<event>
 7    1  0.4096472E-015  0.9000755E+02  0.7816164E-02  0.1186339E+00
        -11   -1    0    0    0    0  0.00000000000E+00  0.00000000000E+00  0.45593999997E+02  0.45594000000E+02  0.51100000000E-03 0.  1.
         11   -1    0    0    0    0 -0.00000000000E+00 -0.00000000000E+00 -0.45593999997E+02  0.45594000000E+02  0.51100000000E-03 0. -1.
    9900012    2    1    2    0    0  0.59435753801E+00  0.31319317523E-02  0.10198989631E+01  0.90007548990E+02  0.89999807837E+02 0.  0.
         12    1    1    2    0    0 -0.59435753801E+00 -0.31319317523E-02 -0.10198989631E+01  0.11804510100E+01  0.00000000000E+00 0. -1.
         11    1    3    3    0    0 -0.83761845108E+01 -0.70676611267E+01  0.72149926349E+00  0.10983299241E+02  0.51100000000E-03 0. -1.
        -11    1    3    3    0    0 -0.23832931252E+02 -0.23340596972E+02 -0.58642990849E+01  0.33870076515E+02  0.51100000000E-03 0.  1.
         12    1    3    3    0    0  0.32803473301E+02  0.30411390031E+02  0.61626987845E+01  0.45154173235E+02  0.00000000000E+00 0. -1.
</event>
<event>
 7    1  0.4096472E-015  0.9000773E+02  0.7816164E-02  0.1186339E+00
        -11   -1    0    0    0    0  0.00000000000E+00  0.00000000000E+00  0.45593999997E+02  0.45594000000E+02  0.51100000000E-03 0.  1.
         11   -1    0    0    0    0 -0.00000000000E+00 -0.00000000000E+00 -0.45593999997E+02  0.45594000000E+02  0.51100000000E-03 0. -1.
    9900012    2    1    2    0    0  0.67449875671E+00 -0.91603054888E-01  0.96421136498E+00  0.90007727468E+02  0.89999988671E+02 0.  0.
         12    1    1    2    0    0 -0.67449875671E+00  0.91603054888E-01 -0.96421136498E+00  0.11802725316E+01  0.00000000000E+00 0. -1.
         11    1    3    3    0    0 -0.12397062310E+02  0.20949028040E+01  0.17868104504E+01  0.12699152079E+02  0.51100000000E-03 0. -1.
        -11    1    3    3    0    0  0.18186744850E+01  0.15672795533E+01  0.37302982071E+02  0.37380160697E+02  0.51100000000E-03 0.  1.
         12    1    3    3    0    0  0.11252886582E+02 -0.37537854122E+01 -0.38125581156E+02  0.39928414693E+02  0.00000000000E+00 0. -1.
</event>
<event>
 7    1  0.4096472E-015  0.9000773E+02  0.7816164E-02  0.1186339E+00
        -11   -1    0    0    0    0  0.00000000000E+00  0.00000000000E+00  0.45593999997E+02  0.45594000000E+02  0.51100000000E-03 0.  1.
         11   -1    0    0    0    0 -0.00000000000E+00 -0.00000000000E+00 -0.45593999997E+02  0.45594000000E+02  0.51100000000E-03 0. -1.
    9900012    2    1    2    0    0  0.49466976566E+00  0.94682968759E+00 -0.50184647208E+00  0.90007731168E+02  0.89999992419E+02 0.  0.
         12    1    1    2    0    0 -0.49466976566E+00 -0.94682968759E+00  0.50184647208E+00  0.11802688320E+01  0.00000000000E+00 0. -1.
         11    1    3    3    0    0  0.72557321047E+01 -0.47546092611E+01 -0.48249471665E+01  0.99263323046E+01  0.51100000000E-03 0. -1.
        -11    1    3    3    0    0  0.11841859487E+02  0.24674962538E+02 -0.27381144684E+02  0.38714473997E+02  0.51100000000E-03 0.  1.
         12    1    3    3    0    0 -0.18602921826E+02 -0.18973523589E+02  0.31704245379E+02  0.41366924866E+02  0.00000000000E+00 0. -1.
</event>
<event>
 7    1  0.4096472E-015  0.9000754E+02  0.7816164E-02  0.1186339E+00
        -11   -1    0    0    0    0  0.00000000000E+00  0.00000000000E+00  0.45593999997E+02  0.45594000000E+02  0.51100000000E-03 0.  1.
         11   -1    0    0    0    0 -0.00000000000E+00 -0.00000000000E+00 -0.45593999997E+02  0.45594000000E+02  0.51100000000E-03 0. -1.
    9900012    2    1    2    0    0 -0.12536349665E+00  0.90855747993E+00  0.74316509812E+00  0.90007539470E+02  0.89999798190E+02 0.  0.
         12    1    1    2    0    0  0.12536349665E+00 -0.90855747993E+00 -0.74316509812E+00  0.11804605303E+01  0.00000000000E+00 0. -1.
         11    1    3    3    0    0  0.16631336069E+02 -0.60978793090E+01 -0.30276873018E+02  0.35078120125E+02  0.51100000000E-03 0. -1.
        -11    1    3    3    0    0 -0.13166634756E+02 -0.13168595111E+02  0.10863931842E+01  0.18653482742E+02  0.51100000000E-03 0.  1.
        -12    1    3    3    0    0 -0.35900648102E+01  0.20175031900E+02  0.29933644932E+02  0.36275936603E+02  0.00000000000E+00 0.  1.
</event>
<event>
 7    1  0.4096472E-015  0.9000785E+02  0.7816164E-02  0.1186339E+00
        -11   -1    0    0    0    0  0.00000000000E+00  0.00000000000E+00  0.45593999997E+02  0.45594000000E+02  0.51100000000E-03 0. -1.
         11   -1    0    0    0    0 -0.00000000000E+00 -0.00000000000E+00 -0.45593999997E+02  0.45594000000E+02  0.51100000000E-03 0.  1.
    9900012    2    1    2    0    0 -0.28854006661E+00  0.45649326696E+00  0.10493387502E+01  0.90007850312E+02  0.90000113136E+02 0.  0.
         12    1    1    2    0    0  0.28854006661E+00 -0.45649326696E+00 -0.10493387502E+01  0.11801496877E+01  0.00000000000E+00 0. -1.
         11    1    3    3    0    0 -0.30267664522E+02  0.82096098673E+01  0.18956200919E+02  0.36645146518E+02  0.51100000000E-03 0. -1.
        -11    1    3    3    0    0 -0.95796658071E+01 -0.22901573805E+01 -0.68552349927E+00  0.98734371184E+01  0.51100000000E-03 0.  1.
        -12    1    3    3    0    0  0.39558790262E+02 -0.54629592198E+01 -0.17221338670E+02  0.43489266676E+02  0.00000000000E+00 0.  1.
</event>
<event>
 7    1  0.4096472E-015  0.9000768E+02  0.7816164E-02  0.1186339E+00
        -11   -1    0    0    0    0  0.00000000000E+00  0.00000000000E+00  0.45593999997E+02  0.45594000000E+02  0.51100000000E-03 0. -1.
         11   -1    0    0    0    0 -0.00000000000E+00 -0.00000000000E+00 -0.45593999997E+02  0.45594000000E+02  0.51100000000E-03 0.  1.
    9900012    2    1    2    0    0 -0.56331987430E+00 -0.84231869495E+00  0.60523902308E+00  0.90007684644E+02  0.89999945281E+02 0.  0.
         12    1    1    2    0    0  0.56331987430E+00  0.84231869495E+00 -0.60523902308E+00  0.11803153560E+01  0.00000000000E+00 0. -1.
         11    1    3    3    0    0  0.32139116630E+02 -0.10075975438E+02 -0.22081337978E+02  0.40274478097E+02  0.51100000000E-03 0. -1.
        -11    1    3    3    0    0  0.33951705729E+01 -0.10576252824E+01  0.91740359340E+01  0.98391407164E+01  0.51100000000E-03 0.  1.
        -12    1    3    3    0    0 -0.36097607077E+02  0.10291282026E+02  0.13512541067E+02  0.39894065831E+02  0.00000000000E+00 0.  1.
</event>
<event>
 7    1  0.4096472E-015  0.9000800E+02  0.7816164E-02  0.1186339E+00
        -11   -1    0    0    0    0  0.00000000000E+00  0.00000000000E+00  0.45593999997E+02  0.45594000000E+02  0.51100000000E-03 0.  1.
         11   -1    0    0    0    0 -0.00000000000E+00 -0.00000000000E+00 -0.45593999997E+02  0.45594000000E+02  0.51100000000E-03 0. -1.
    9900012    2    1    2    0    0 -0.37305292635E+00 -0.57725430339E+00  0.95917525903E+00  0.90007996528E+02  0.90000261282E+02 0.  0.
         12    1    1    2    0    0  0.37305292635E+00  0.57725430339E+00 -0.95917525903E+00  0.11800034721E+01  0.00000000000E+00 0. -1.
         11    1    3    3    0    0 -0.67796025384E+01 -0.14967004094E+02 -0.35213896268E+02  0.38858624690E+02  0.51100000000E-03 0. -1.
        -11    1    3    3    0    0  0.27373943042E+01 -0.10104328122E+02  0.16403509904E+02  0.19459339964E+02  0.51100000000E-03 0.  1.
        -12    1    3    3    0    0  0.36691553078E+01  0.24494077912E+02  0.19769561623E+02  0.31690031874E+02  0.00000000000E+00 0.  1.
</event>
<event>
 7    1  0.4096472E-015  0.9000776E+02  0.7816164E-02  0.1186339E+00
        -11   -1    0    0    0    0  0.00000000000E+00  0.00000000000E+00  0.45593999997E+02  0.45594000000E+02  0.51100000000E-03 0. -1.
         11   -1    0    0    0    0 -0.00000000000E+00 -0.00000000000E+00 -0.45593999997E+02  0.45594000000E+02  0.51100000000E-03 0.  1.
    9900012    2    1    2    0    0 -0.10909090335E+01  0.43616621641E+00 -0.11247484746E+00  0.90007756771E+02  0.90000018361E+02 0.  0.
         12    1    1    2    0    0  0.10909090335E+01 -0.43616621641E+00  0.11247484746E+00  0.11802432287E+01  0.00000000000E+00 0. -1.
         11    1    3    3    0    0  0.86174517584E+01  0.31711623585E+02  0.14332236334E+02  0.35851088461E+02  0.51100000000E-03 0. -1.
        -11    1    3    3    0    0  0.63038917241E+01  0.48733858459E+01  0.56874807962E+01  0.97896056376E+01  0.51100000000E-03 0.  1.
        -12    1    3    3    0    0 -0.16012252516E+02 -0.36148843215E+02 -0.20132191977E+02  0.44367062673E+02  0.00000000000E+00 0.  1.
</event>
<event>
 7    1  0.4096472E-015  0.9000784E+02  0.7816164E-02  0.1186339E+00
        -11   -1    0    0    0    0  0.00000000000E+00  0.00000000000E+00  0.45593999997E+02  0.45594000000E+02  0.51100000000E-03 0.  1.
         11   -1    0    0    0    0 -0.00000000000E+00 -0.00000000000E+00 -0.45593999997E+02  0.45594000000E+02  0.51100000000E-03 0. -1.
    9900012    2    1    2    0    0  0.26570395009E+00 -0.19643222593E+00  0.11329545131E+01  0.90007843173E+02  0.90000105902E+02 0.  0.
         12    1    1    2    0    0 -0.26570395009E+00  0.19643222593E+00 -0.11329545131E+01  0.11801568274E+01  0.00000000000E+00 0. -1.
         11    1    3    3    0    0 -0.23128679839E+02 -0.87263881459E+01  0.29036865055E+01  0.24890099975E+02  0.51100000000E-03 0. -1.
        -11    1    3    3    0    0 -0.30441642698E+01  0.28046232939E+02  0.10411384577E+02  0.30070833830E+02  0.51100000000E-03 0.  1.
         12    1    3    3    0    0  0.26438548059E+02 -0.19516277019E+02 -0.12182116569E+02  0.35046909368E+02  0.00000000000E+00 0. -1.
</event>
<event>
 7    1  0.4096472E-015  0.9000786E+02  0.7816164E-02  0.1186339E+00
        -11   -1    0    0    0    0  0.00000000000E+00  0.00000000000E+00  0.45593999997E+02  0.45594000000E+02  0.51100000000E-03 0. -1.
         11   -1    0    0    0    0 -0.00000000000E+00 -0.00000000000E+00 -0.45593999997E+02  0.45594000000E+02  0.51100000000E-03 0.  1.
    9900012    2    1    2    0    0 -0.66092056233E+00  0.24425376843E+00 -0.94671227687E+00  0.90007855929E+02  0.90000118827E+02 0.  0.
         12    1    1    2    0    0  0.66092056233E+00 -0.24425376843E+00  0.94671227687E+00  0.11801440710E+01  0.00000000000E+00 0. -1.
         11    1    3    3    0    0 -0.32252440134E+01  0.36222320584E+02  0.20149146754E+02  0.41574593475E+02  0.51100000000E-03 0. -1.
        -11    1    3    3    0    0 -0.17308152873E+01 -0.85646536125E+01  0.52306160416E+01  0.10183730038E+02  0.51100000000E-03 0.  1.
        -12    1    3    3    0    0  0.42951387383E+01 -0.27413413204E+02 -0.26326475072E+02  0.38249532415E+02  0.00000000000E+00 0.  1.
</event>
<event>
 7    1  0.4096472E-015  0.9000779E+02  0.7816164E-02  0.1186339E+00
        -11   -1    0    0    0    0  0.00000000000E+00  0.00000000000E+00  0.45593999997E+02  0.45594000000E+02  0.51100000000E-03 0.  1.
         11   -1    0    0    0    0 -0.00000000000E+00 -0.00000000000E+00 -0.45593999997E+02  0.45594000000E+02  0.51100000000E-03 0. -1.
    9900012    2    1    2    0    0 -0.90772286277E+00 -0.75980128605E-01 -0.75044425224E+00  0.90007788006E+02  0.90000050007E+02 0.  0.
         12    1    1    2    0    0  0.90772286277E+00  0.75980128605E-01  0.75044425224E+00  0.11802119942E+01  0.00000000000E+00 0. -1.
         11    1    3    3    0    0 -0.91824480190E+01 -0.42908536243E+01  0.37242780332E+00  0.10142360631E+02  0.51100000000E-03 0. -1.
        -11    1    3    3    0    0 -0.14404500636E+02 -0.27113232326E+02  0.19163947451E+02  0.36192179927E+02  0.51100000000E-03 0.  1.
         12    1    3    3    0    0  0.22679225792E+02  0.31328105822E+02 -0.20286819506E+02  0.43673247447E+02  0.00000000000E+00 0. -1.
</event>
<event>
 7    1  0.4096472E-015  0.9000772E+02  0.7816164E-02  0.1186339E+00
        -11   -1    0    0    0    0  0.00000000000E+00  0.00000000000E+00  0.45593999997E+02  0.45594000000E+02  0.51100000000E-03 0. -1.
         11   -1    0    0    0    0 -0.00000000000E+00 -0.00000000000E+00 -0.45593999997E+02  0.45594000000E+02  0.51100000000E-03 0.  1.
    9900012    2    1    2    0    0  0.26690776476E+00  0.80137691513E+00 -0.82438980749E+00  0.90007718987E+02  0.89999980078E+02 0.  0.
         12    1    1    2    0    0 -0.26690776476E+00 -0.80137691513E+00  0.82438980749E+00  0.11802810130E+01  0.00000000000E+00 0. -1.
         11    1    3    3    0    0  0.84588876615E+01 -0.10304350701E+02  0.38451051002E+02  0.40696630662E+02  0.51100000000E-03 0. -1.
        -11    1    3    3    0    0 -0.24565589207E+01 -0.52298050493E+00  0.36721300858E+01  0.44489021082E+01  0.51100000000E-03 0.  1.
        -12    1    3    3    0    0 -0.57354209760E+01  0.11628708121E+02 -0.42947570895E+02  0.44862186217E+02  0.00000000000E+00 0.  1.
</event>
<event>
 7    1  0.4096472E-015  0.9000769E+02  0.7816164E-02  0.1186339E+00
        -11   -1    0    0    0    0  0.00000000000E+00  0.00000000000E+00  0.45593999997E+02  0.45594000000E+02  0.51100000000E-03 0.  1.
         11   -1    0    0    0    0 -0.00000000000E+00 -0.00000000000E+00 -0.45593999997E+02  0.45594000000E+02  0.51100000000E-03 0. -1.
    9900012    2    1    2    0    0  0.65559848939E+00 -0.47665468942E-01  0.98033203761E+00  0.90007689753E+02  0.89999950457E+02 0.  0.
         12    1    1    2    0    0 -0.65559848939E+00  0.47665468942E-01 -0.98033203761E+00  0.11803102474E+01  0.00000000000E+00 0. -1.
         11    1    3    3    0    0  0.46927759636E+01  0.33523691075E+01 -0.82298643830E+01  0.10049437442E+02  0.51100000000E-03 0. -1.
        -11    1    3    3    0    0 -0.73936781471E+01  0.32691404372E+02 -0.14633017451E+02  0.36572115010E+02  0.51100000000E-03 0.  1.
         12    1    3    3    0    0  0.33565006730E+01 -0.36091438948E+02  0.23843213872E+02  0.43386137300E+02  0.00000000000E+00 0. -1.
</event>
<event>
 7    1  0.4096472E-015  0.9000772E+02  0.7816164E-02  0.1186339E+00
        -11   -1    0    0    0    0  0.00000000000E+00  0.00000000000E+00  0.45593999997E+02  0.45594000000E+02  0.51100000000E-03 0. -1.
         11   -1    0    0    0    0 -0.00000000000E+00 -0.00000000000E+00 -0.45593999997E+02  0.45594000000E+02  0.51100000000E-03 0.  1.
    9900012    2    1    2    0    0  0.11649419062E+01  0.17637665435E+00  0.69793394237E-01  0.90007716353E+02  0.89999977409E+02 0.  0.
         12    1    1    2    0    0 -0.11649419062E+01 -0.17637665435E+00 -0.69793394237E-01  0.11802836468E+01  0.00000000000E+00 0. -1.
         11    1    3    3    0    0 -0.34461529022E+02  0.79507350347E+01  0.16384374644E+02  0.38977671850E+02  0.51100000000E-03 0. -1.
        -11    1    3    3    0    0  0.39914800639E+01  0.26920969229E+01  0.83053192019E+01  0.95998763663E+01  0.51100000000E-03 0.  1.
        -12    1    3    3    0    0  0.31634990864E+02 -0.10466455303E+02 -0.24619900452E+02  0.41430168137E+02  0.00000000000E+00 0.  1.
</event>
<event>
 7    1  0.4096472E-015  0.9000762E+02  0.7816164E-02  0.1186339E+00
        -11   -1    0    0    0    0  0.00000000000E+00  0.00000000000E+00  0.45593999997E+02  0.45594000000E+02  0.51100000000E-03 0. -1.
         11   -1    0    0    0    0 -0.00000000000E+00 -0.00000000000E+00 -0.45593999997E+02  0.45594000000E+02  0.51100000000E-03 0.  1.
    9900012    2    1    2    0    0  0.93723269189E+00 -0.65966122733E+00 -0.28238096961E+00  0.90007619949E+02  0.89999879732E+02 0.  0.
         12    1    1    2    0    0 -0.93723269189E+00  0.65966122733E+00  0.28238096961E+00  0.11803800513E+01  0.00000000000E+00 0. -1.
         11    1    3    3    0    0 -0.38565932764E+00  0.88733733747E+01 -0.19286477351E+01  0.90887386645E+01  0.51100000000E-03 0. -1.
        -11    1    3    3    0    0 -0.32289928026E+02  0.13969575921E+02 -0.12794359672E+02  0.37436401310E+02  0.51100000000E-03 0.  1.
         12    1    3    3    0    0  0.33612820046E+02 -0.23502610523E+02  0.14440626437E+02  0.43482479974E+02  0.00000000000E+00 0. -1.
</event>
<event>
 7    1  0.5330267E-015  0.9000758E+02  0.7816164E-02  0.1186339E+00
        -11   -1    0    0    0    0  0.00000000000E+00  0.00000000000E+00  0.45593999997E+02  0.45594000000E+02  0.51100000000E-03 0. -1.
         11   -1    0    0    0    0 -0.00000000000E+00 -0.00000000000E+00 -0.45593999997E+02  0.45594000000E+02  0.51100000000E-03 0.  1.
    9900012    2    1    2    0    0 -0.51096116786E-01 -0.33231061797E+00 -0.11315256672E+01  0.90007579950E+02  0.89999839205E+02 0.  0.
         12    1    1    2    0    0  0.51096116786E-01  0.33231061797E+00  0.11315256672E+01  0.11804200505E+01  0.00000000000E+00 0. -1.
         11    1    3    3    0    0  0.64335546184E+01 -0.24114117240E+01 -0.67132644252E+01  0.96059070907E+01  0.51100000000E-03 0. -1.
        -11    1    3    3    0    0 -0.10007462789E+02 -0.93787536044E+01 -0.35261889977E+02  0.37835317042E+02  0.51100000000E-03 0.  1.
         12    1    3    3    0    0  0.35228120534E+01  0.11457854710E+02  0.40843628735E+02  0.42566355817E+02  0.00000000000E+00 0. -1.
</event>
<event>
 7    1  0.4096472E-015  0.9000771E+02  0.7816164E-02  0.1186339E+00
        -11   -1    0    0    0    0  0.00000000000E+00  0.00000000000E+00  0.45593999997E+02  0.45594000000E+02  0.51100000000E-03 0.  1.
         11   -1    0    0    0    0 -0.00000000000E+00 -0.00000000000E+00 -0.45593999997E+02  0.45594000000E+02  0.51100000000E-03 0. -1.
    9900012    2    1    2    0    0  0.68945358841E+00 -0.95767948738E+00 -0.24048278262E-01  0.90007714200E+02  0.89999975227E+02 0.  0.
         12    1    1    2    0    0 -0.68945358841E+00  0.95767948738E+00  0.24048278262E-01  0.11802858005E+01  0.00000000000E+00 0. -1.
         11    1    3    3    0    0  0.72353496748E+01  0.16775501051E+02 -0.25375569572E+02  0.31267990850E+02  0.51100000000E-03 0. -1.
        -11    1    3    3    0    0  0.10650552369E+02  0.10906423491E+02 -0.22461082058E+01  0.15408742372E+02  0.51100000000E-03 0.  1.
        -12    1    3    3    0    0 -0.17196448456E+02 -0.28639604030E+02  0.27597629499E+02  0.43330980978E+02  0.00000000000E+00 0.  1.
</event>
<event>
 7    1  0.4096472E-015  0.9000778E+02  0.7816164E-02  0.1186339E+00
        -11   -1    0    0    0    0  0.00000000000E+00  0.00000000000E+00  0.45593999997E+02  0.45594000000E+02  0.51100000000E-03 0.  1.
         11   -1    0    0    0    0 -0.00000000000E+00 -0.00000000000E+00 -0.45593999997E+02  0.45594000000E+02  0.51100000000E-03 0. -1.
    9900012    2    1    2    0    0 -0.80787453726E+00  0.79603999384E+00 -0.32647334632E+00  0.90007777231E+02  0.90000039090E+02 0.  0.
         12    1    1    2    0    0  0.80787453726E+00 -0.79603999384E+00  0.32647334632E+00  0.11802227695E+01  0.00000000000E+00 0. -1.
         11    1    3    3    0    0  0.14036728944E+01 -0.33742015171E+02 -0.19219691077E+00  0.33771745962E+02  0.51100000000E-03 0. -1.
        -11    1    3    3    0    0  0.78866739327E+01 -0.76424166856E+01 -0.59255065303E+01  0.12478693298E+02  0.51100000000E-03 0.  1.
        -12    1    3    3    0    0 -0.10098221364E+02  0.42180471851E+02  0.57912300948E+01  0.43757337971E+02  0.00000000000E+00 0.  1.
</event>
<event>
 7    1  0.4096472E-015  0.9000772E+02  0.7816164E-02  0.1186339E+00
        -11   -1    0    0    0    0  0.00000000000E+00  0.00000000000E+00  0.45593999997E+02  0.45594000000E+02  0.51100000000E-03 0.  1.
         11   -1    0    0    0    0 -0.00000000000E+00 -0.00000000000E+00 -0.45593999997E+02  0.45594000000E+02  0.51100000000E-03 0. -1.
    9900012    2    1    2    0    0 -0.11353003661E+01 -0.49477814146E-01  0.31893065427E+00  0.90007715400E+02  0.89999976443E+02 0.  0.
         12    1    1    2    0    0  0.11353003661E+01  0.49477814146E-01 -0.31893065427E+00  0.11802846002E+01  0.00000000000E+00 0. -1.
         11    1    3    3    0    0  0.55941188184E+01 -0.15511112332E+01 -0.56235666633E+01  0.80823643626E+01  0.51100000000E-03 0. -1.
        -11    1    3    3    0    0  0.72571401393E+01 -0.31401928013E+02 -0.19839202646E+02  0.37846282880E+02  0.51100000000E-03 0.  1.
         12    1    3    3    0    0 -0.13986559324E+02  0.32903561432E+02  0.25781699964E+02  0.44079068157E+02  0.00000000000E+00 0. -1.
</event>
<event>
 7    1  0.4096472E-015  0.9000786E+02  0.7816164E-02  0.1186339E+00
        -11   -1    0    0    0    0  0.00000000000E+00  0.00000000000E+00  0.45593999997E+02  0.45594000000E+02  0.51100000000E-03 0.  1.
         11   -1    0    0    0    0 -0.00000000000E+00 -0.00000000000E+00 -0.45593999997E+02  0.45594000000E+02  0.51100000000E-03 0. -1.
    9900012    2    1    2    0    0  0.94329399622E+00 -0.70913952785E+00 -0.64265581293E-02  0.90007862833E+02  0.90000125822E+02 0.  0.
         12    1    1    2    0    0 -0.94329399622E+00  0.70913952785E+00  0.64265581293E-02  0.11801371674E+01  0.00000000000E+00 0. -1.
         11    1    3    3    0    0 -0.20731390669E+02  0.23405459045E+02  0.68748276656E+01  0.32013580366E+02  0.51100000000E-03 0. -1.
        -11    1    3    3    0    0 -0.35574970845E+01  0.11363534246E+02 -0.81678868139E+01  0.14439531548E+02  0.51100000000E-03 0.  1.
        -12    1    3    3    0    0  0.25232181749E+02 -0.35478132819E+02  0.12866325902E+01  0.43554750918E+02  0.00000000000E+00 0.  1.
</event>
<event>
 7    1  0.4096472E-015  0.9000776E+02  0.7816164E-02  0.1186339E+00
        -11   -1    0    0    0    0  0.00000000000E+00  0.00000000000E+00  0.45593999997E+02  0.45594000000E+02  0.51100000000E-03 0.  1.
         11   -1    0    0    0    0 -0.00000000000E+00 -0.00000000000E+00 -0.45593999997E+02  0.45594000000E+02  0.51100000000E-03 0. -1.
    9900012    2    1    2    0    0  0.87504711586E+00 -0.44791069125E+00 -0.65317761109E+00  0.90007757468E+02  0.90000019067E+02 0.  0.
         12    1    1    2    0    0 -0.87504711586E+00  0.44791069125E+00  0.65317761109E+00  0.11802425318E+01  0.00000000000E+00 0. -1.
         11    1    3    3    0    0 -0.16902095743E+01  0.60355242698E+01 -0.52352271841E+01  0.81665148960E+01  0.51100000000E-03 0. -1.
        -11    1    3    3    0    0 -0.21745965750E+02  0.24412949749E+02 -0.17151373909E+02  0.36919490369E+02  0.51100000000E-03 0.  1.
         12    1    3    3    0    0  0.24311222441E+02 -0.30896384710E+02  0.21733423482E+02  0.44921752203E+02  0.00000000000E+00 0. -1.
</event>
<event>
 7    1  0.4541017E-015  0.9000776E+02  0.7816164E-02  0.1186339E+00
        -11   -1    0    0    0    0  0.00000000000E+00  0.00000000000E+00  0.45593999997E+02  0.45594000000E+02  0.51100000000E-03 0. -1.
         11   -1    0    0    0    0 -0.00000000000E+00 -0.00000000000E+00 -0.45593999997E+02  0.45594000000E+02  0.51100000000E-03 0.  1.
    9900012    2    1    2    0    0 -0.29266218624E+00  0.37965480893E+00 -0.10785112871E+01  0.90007756158E+02  0.90000017740E+02 0.  0.
         12    1    1    2    0    0  0.29266218624E+00 -0.37965480893E+00  0.10785112871E+01  0.11802438416E+01  0.00000000000E+00 0. -1.
         11    1    3    3    0    0  0.92737020552E+01 -0.24823978180E+01 -0.34596448780E+01  0.10204557397E+02  0.51100000000E-03 0. -1.
        -11    1    3    3    0    0  0.84081666703E+01  0.21494767831E+02 -0.30312994060E+02  0.38099867716E+02  0.51100000000E-03 0.  1.
         12    1    3    3    0    0 -0.17974530912E+02 -0.18632715204E+02  0.32694127651E+02  0.41703331045E+02  0.00000000000E+00 0. -1.
</event>
<event>
 7    1  0.4096472E-015  0.9000717E+02  0.7816164E-02  0.1186340E+00
        -11   -1    0    0    0    0  0.00000000000E+00  0.00000000000E+00  0.45593999997E+02  0.45594000000E+02  0.51100000000E-03 0. -1.
         11   -1    0    0    0    0 -0.00000000000E+00 -0.00000000000E+00 -0.45593999997E+02  0.45594000000E+02  0.51100000000E-03 0.  1.
    9900012    2    1    2    0    0  0.21948284894E-01 -0.69334438396E+00 -0.95559555675E+00  0.90007165113E+02  0.89999418891E+02 0.  0.
         12    1    1    2    0    0 -0.21948284894E-01  0.69334438396E+00  0.95559555675E+00  0.11808348869E+01  0.00000000000E+00 0. -1.
         11    1    3    3    0    0 -0.21581107995E+02 -0.54866723669E+01  0.34995098264E+02  0.41478966944E+02  0.51100000000E-03 0. -1.
        -11    1    3    3    0    0  0.11727568483E+02 -0.18703555170E+01 -0.13720033702E+01  0.11954768329E+02  0.51100000000E-03 0.  1.
        -12    1    3    3    0    0  0.98754877960E+01  0.66636834999E+01 -0.34578690451E+02  0.36573429840E+02  0.00000000000E+00 0.  1.
</event>
<event>
 7    1  0.4096472E-015  0.9000769E+02  0.7816164E-02  0.1186339E+00
        -11   -1    0    0    0    0  0.00000000000E+00  0.00000000000E+00  0.45593999997E+02  0.45594000000E+02  0.51100000000E-03 0.  1.
         11   -1    0    0    0    0 -0.00000000000E+00 -0.00000000000E+00 -0.45593999997E+02  0.45594000000E+02  0.51100000000E-03 0. -1.
    9900012    2    1    2    0    0  0.90042638554E-01  0.52741693831E-01  0.11756895033E+01  0.90007688528E+02  0.89999949216E+02 0.  0.
         12    1    1    2    0    0 -0.90042638554E-01 -0.52741693831E-01 -0.11756895033E+01  0.11803114721E+01  0.00000000000E+00 0. -1.
         11    1    3    3    0    0  0.27985538292E+02 -0.87131644859E+00 -0.30095742701E+02  0.41106000472E+02  0.51100000000E-03 0. -1.
        -11    1    3    3    0    0 -0.45558957254E+01  0.88175247672E+01  0.11564655836E+01  0.99921139799E+01  0.51100000000E-03 0.  1.
        -12    1    3    3    0    0 -0.23339599928E+02 -0.78934666248E+01  0.30114966621E+02  0.38909574075E+02  0.00000000000E+00 0.  1.
</event>
<event>
 7    1  0.4096472E-015  0.9000784E+02  0.7816164E-02  0.1186339E+00
        -11   -1    0    0    0    0  0.00000000000E+00  0.00000000000E+00  0.45593999997E+02  0.45594000000E+02  0.51100000000E-03 0. -1.
         11   -1    0    0    0    0 -0.00000000000E+00 -0.00000000000E+00 -0.45593999997E+02  0.45594000000E+02  0.51100000000E-03 0.  1.
    9900012    2    1    2    0    0  0.63566753825E+00  0.64438590971E+00  0.75727792880E+00  0.90007840570E+02  0.90000103265E+02 0.  0.
         12    1    1    2    0    0 -0.63566753825E+00 -0.64438590971E+00 -0.75727792880E+00  0.11801594304E+01  0.00000000000E+00 0. -1.
         11    1    3    3    0    0  0.87982451617E+01 -0.67450138289E+01  0.34680362871E+02  0.36409228206E+02  0.51100000000E-03 0. -1.
        -11    1    3    3    0    0  0.34989290395E+01 -0.32828084851E+01  0.77013299282E+01  0.90735780648E+01  0.51100000000E-03 0.  1.
        -12    1    3    3    0    0 -0.11661506663E+02  0.10672208224E+02 -0.41624414870E+02  0.44525034299E+02  0.00000000000E+00 0.  1.
</event>
<event>
 7    1  0.4096472E-015  0.9000788E+02  0.7816164E-02  0.1186339E+00
        -11   -1    0    0    0    0  0.00000000000E+00  0.00000000000E+00  0.45593999997E+02  0.45594000000E+02  0.51100000000E-03 0.  1.
         11   -1    0    0    0    0 -0.00000000000E+00 -0.00000000000E+00 -0.45593999997E+02  0.45594000000E+02  0.51100000000E-03 0. -1.
    9900012    2    1    2    0    0 -0.92120104772E+00 -0.73637904226E+00  0.42501288230E-01  0.90007884826E+02  0.90000148106E+02 0.  0.
         12    1    1    2    0    0  0.92120104772E+00  0.73637904226E+00 -0.42501288230E-01  0.11801151739E+01  0.00000000000E+00 0. -1.
         11    1    3    3    0    0 -0.12076639125E+02  0.87217464225E+01 -0.33183505310E+01  0.15261897776E+02  0.51100000000E-03 0. -1.
        -11    1    3    3    0    0  0.49533179800E+01 -0.35589112535E+01  0.38295408749E+02  0.38778080662E+02  0.51100000000E-03 0.  1.
         12    1    3    3    0    0  0.62021200972E+01 -0.58992142113E+01 -0.34934556930E+02  0.35967906388E+02  0.00000000000E+00 0. -1.
</event>
<event>
 7    1  0.4096472E-015  0.9000781E+02  0.7816164E-02  0.1186339E+00
        -11   -1    0    0    0    0  0.00000000000E+00  0.00000000000E+00  0.45593999997E+02  0.45594000000E+02  0.51100000000E-03 0. -1.
         11   -1    0    0    0    0 -0.00000000000E+00 -0.00000000000E+00 -0.45593999997E+02  0.45594000000E+02  0.51100000000E-03 0.  1.
    9900012    2    1    2    0    0 -0.22513048789E+00  0.62098499145E+00 -0.97802977411E+00  0.90007810043E+02  0.90000072335E+02 0.  0.
         12    1    1    2    0    0  0.22513048789E+00 -0.62098499145E+00  0.97802977411E+00  0.11801899573E+01  0.00000000000E+00 0. -1.
         11    1    3    3    0    0 -0.82361434847E+01 -0.87566701982E+01  0.11318591384E+01  0.12074536754E+02  0.51100000000E-03 0. -1.
        -11    1    3    3    0    0 -0.24718717741E+02 -0.95249436743E+01 -0.22705923180E+02  0.34889805194E+02  0.51100000000E-03 0.  1.
         12    1    3    3    0    0  0.32729730738E+02  0.18902598864E+02  0.20596034268E+02  0.43043468094E+02  0.00000000000E+00 0. -1.
</event>
<event>
 7    1  0.4096472E-015  0.9000777E+02  0.7816164E-02  0.1186339E+00
        -11   -1    0    0    0    0  0.00000000000E+00  0.00000000000E+00  0.45593999997E+02  0.45594000000E+02  0.51100000000E-03 0.  1.
         11   -1    0    0    0    0 -0.00000000000E+00 -0.00000000000E+00 -0.45593999997E+02  0.45594000000E+02  0.51100000000E-03 0. -1.
    9900012    2    1    2    0    0  0.92667838286E+00  0.85317636539E-01  0.72589828674E+00  0.90007771104E+02  0.90000032883E+02 0.  0.
         12    1    1    2    0    0 -0.92667838286E+00 -0.85317636539E-01 -0.72589828674E+00  0.11802288960E+01  0.00000000000E+00 0. -1.
         11    1    3    3    0    0 -0.34819357870E+01 -0.24457734785E+02  0.25127275690E+02  0.35237546048E+02  0.51100000000E-03 0. -1.
        -11    1    3    3    0    0 -0.36100211593E+01 -0.95149951391E+01  0.26812835497E+01  0.10524099344E+02  0.51100000000E-03 0.  1.
        -12    1    3    3    0    0  0.80186353291E+01  0.34058047561E+02 -0.27082660953E+02  0.44246125712E+02  0.00000000000E+00 0.  1.
</event>
<event>
 7    1  0.4096472E-015  0.9000773E+02  0.7816164E-02  0.1186339E+00
        -11   -1    0    0    0    0  0.00000000000E+00  0.00000000000E+00  0.45593999997E+02  0.45594000000E+02  0.51100000000E-03 0.  1.
         11   -1    0    0    0    0 -0.00000000000E+00 -0.00000000000E+00 -0.45593999997E+02  0.45594000000E+02  0.51100000000E-03 0. -1.
    9900012    2    1    2    0    0 -0.72632289304E+00 -0.92418813884E+00  0.10657788607E+00  0.90007734137E+02  0.89999995428E+02 0.  0.
         12    1    1    2    0    0  0.72632289304E+00  0.92418813884E+00 -0.10657788607E+00  0.11802658627E+01  0.00000000000E+00 0. -1.
         11    1    3    3    0    0  0.48174692701E+01  0.36362616964E+01  0.62819744200E+01  0.87116939895E+01  0.51100000000E-03 0. -1.
        -11    1    3    3    0    0 -0.33762736423E+02  0.46685742094E+01  0.21835295332E+02  0.40478365560E+02  0.51100000000E-03 0.  1.
         12    1    3    3    0    0  0.28218944259E+02 -0.92290240446E+01 -0.28010691866E+02  0.40817674588E+02  0.00000000000E+00 0. -1.
</event>
<event>
 7    1  0.4096472E-015  0.9000786E+02  0.7816164E-02  0.1186339E+00
        -11   -1    0    0    0    0  0.00000000000E+00  0.00000000000E+00  0.45593999997E+02  0.45594000000E+02  0.51100000000E-03 0. -1.
         11   -1    0    0    0    0 -0.00000000000E+00 -0.00000000000E+00 -0.45593999997E+02  0.45594000000E+02  0.51100000000E-03 0.  1.
    9900012    2    1    2    0    0  0.52251212678E+00 -0.19698352772E+00 -0.10396632861E+01  0.90007863914E+02  0.90000126918E+02 0.  0.
         12    1    1    2    0    0 -0.52251212678E+00  0.19698352772E+00  0.10396632861E+01  0.11801360859E+01  0.00000000000E+00 0. -1.
         11    1    3    3    0    0 -0.19198264553E+01  0.50800669679E+01  0.84755762497E+01  0.10066191288E+02  0.51100000000E-03 0. -1.
        -11    1    3    3    0    0 -0.27802085122E+02 -0.29560953792E+02 -0.53349861287E+01  0.40930037912E+02  0.51100000000E-03 0.  1.
         12    1    3    3    0    0  0.30244423704E+02  0.24283903296E+02 -0.41802534071E+01  0.39011634714E+02  0.00000000000E+00 0. -1.
</event>
<event>
 7    1  0.4096472E-015  0.9000788E+02  0.7816164E-02  0.1186339E+00
        -11   -1    0    0    0    0  0.00000000000E+00  0.00000000000E+00  0.45593999997E+02  0.45594000000E+02  0.51100000000E-03 0.  1.
         11   -1    0    0    0    0 -0.00000000000E+00 -0.00000000000E+00 -0.45593999997E+02  0.45594000000E+02  0.51100000000E-03 0. -1.
    9900012    2    1    2    0    0 -0.16364424293E+00 -0.10398531286E+01 -0.53349770909E+00  0.90007875527E+02  0.90000138683E+02 0.  0.
         12    1    1    2    0    0  0.16364424293E+00  0.10398531286E+01  0.53349770909E+00  0.11801244735E+01  0.00000000000E+00 0. -1.
         11    1    3    3    0    0 -0.21399273721E+02  0.28718279793E+02 -0.14884170004E+02  0.38784107918E+02  0.51100000000E-03 0. -1.
        -11    1    3    3    0    0  0.21796319984E+01  0.71418874435E+01  0.37811847312E+01  0.83698691828E+01  0.51100000000E-03 0.  1.
        -12    1    3    3    0    0  0.19055997480E+02 -0.36900020365E+02  0.10569487563E+02  0.42853898425E+02  0.00000000000E+00 0.  1.
</event>
<event>
 7    1  0.4096472E-015  0.9000776E+02  0.7816164E-02  0.1186339E+00
        -11   -1    0    0    0    0  0.00000000000E+00  0.00000000000E+00  0.45593999997E+02  0.45594000000E+02  0.51100000000E-03 0.  1.
         11   -1    0    0    0    0 -0.00000000000E+00 -0.00000000000E+00 -0.45593999997E+02  0.45594000000E+02  0.51100000000E-03 0. -1.
    9900012    2    1    2    0    0 -0.10278792595E+01  0.40005642094E+00  0.41996907723E+00  0.90007764880E+02  0.90000026577E+02 0.  0.
         12    1    1    2    0    0  0.10278792595E+01 -0.40005642094E+00 -0.41996907723E+00  0.11802351197E+01  0.00000000000E+00 0. -1.
         11    1    3    3    0    0 -0.14444204809E+01 -0.10194451390E+02  0.31898669593E+01  0.10779074225E+02  0.51100000000E-03 0. -1.
        -11    1    3    3    0    0  0.11597359196E+02 -0.20777523116E+02  0.25980804906E+02  0.35230759728E+02  0.51100000000E-03 0.  1.
         12    1    3    3    0    0 -0.11180817975E+02  0.31372030927E+02 -0.28750702788E+02  0.43997930927E+02  0.00000000000E+00 0. -1.
</event>
<event>
 7    1  0.4096472E-015  0.9000784E+02  0.7816164E-02  0.1186339E+00
        -11   -1    0    0    0    0  0.00000000000E+00  0.00000000000E+00  0.45593999997E+02  0.45594000000E+02  0.51100000000E-03 0. -1.
         11   -1    0    0    0    0 -0.00000000000E+00 -0.00000000000E+00 -0.45593999997E+02  0.45594000000E+02  0.51100000000E-03 0.  1.
    9900012    2    1    2    0    0 -0.57761656667E+00 -0.99758863746E+00  0.25290769750E+00  0.90007836329E+02  0.90000098968E+02 0.  0.
         12    1    1    2    0    0  0.57761656667E+00  0.99758863746E+00 -0.25290769750E+00  0.11801636713E+01  0.00000000000E+00 0. -1.
         11    1    3    3    0    0  0.21734375811E+02  0.21744139248E+02 -0.19014412971E+02  0.36148839323E+02  0.51100000000E-03 0. -1.
        -11    1    3    3    0    0 -0.29190528994E+01 -0.12217521478E+02 -0.10798961545E+02  0.16565212694E+02  0.51100000000E-03 0.  1.
        -12    1    3    3    0    0 -0.19392939478E+02 -0.10524206407E+02  0.30066282213E+02  0.37293784311E+02  0.00000000000E+00 0.  1.
</event>
<event>
 7    1  0.4096472E-015  0.9000775E+02  0.7816164E-02  0.1186339E+00
        -11   -1    0    0    0    0  0.00000000000E+00  0.00000000000E+00  0.45593999997E+02  0.45594000000E+02  0.51100000000E-03 0.  1.
         11   -1    0    0    0    0 -0.00000000000E+00 -0.00000000000E+00 -0.45593999997E+02  0.45594000000E+02  0.51100000000E-03 0. -1.
    9900012    2    1    2    0    0 -0.52696402338E+00  0.35929641070E+00  0.99307698231E+00  0.90007751346E+02  0.90000012864E+02 0.  0.
         12    1    1    2    0    0  0.52696402338E+00 -0.35929641070E+00 -0.99307698231E+00  0.11802486541E+01  0.00000000000E+00 0. -1.
         11    1    3    3    0    0  0.71853751992E+00  0.35640639424E+01  0.15722735510E+02  0.16137634899E+02  0.51100000000E-03 0. -1.
        -11    1    3    3    0    0  0.18717430878E+02  0.28982040089E+02 -0.63776538757E+01  0.35085258095E+02  0.51100000000E-03 0.  1.
         12    1    3    3    0    0 -0.19962932421E+02 -0.32186807621E+02 -0.83520046522E+01  0.38784858352E+02  0.00000000000E+00 0. -1.
</event>
<event>
 7    1  0.4096472E-015  0.9000775E+02  0.7816164E-02  0.1186339E+00
        -11   -1    0    0    0    0  0.00000000000E+00  0.00000000000E+00  0.45593999997E+02  0.45594000000E+02  0.51100000000E-03 0. -1.
         11   -1    0    0    0    0 -0.00000000000E+00 -0.00000000000E+00 -0.45593999997E+02  0.45594000000E+02  0.51100000000E-03 0.  1.
    9900012    2    1    2    0    0  0.10478142230E+01 -0.41592492357E+00 -0.34939922211E+00  0.90007750872E+02  0.90000012383E+02 0.  0.
         12    1    1    2    0    0 -0.10478142230E+01  0.41592492357E+00  0.34939922211E+00  0.11802491281E+01  0.00000000000E+00 0. -1.
         11    1    3    3    0    0  0.35683818695E+02  0.20120980183E+02 -0.62280050449E+01  0.41436418853E+02  0.51100000000E-03 0. -1.
        -11    1    3    3    0    0 -0.47570257567E+01  0.37319653391E+01  0.79904415076E+01  0.10020180392E+02  0.51100000000E-03 0.  1.
        -12    1    3    3    0    0 -0.29878978716E+02 -0.24268870446E+02 -0.21118356848E+01  0.38551151627E+02  0.00000000000E+00 0.  1.
</event>
<event>
 7    1  0.4096472E-015  0.9000764E+02  0.7816164E-02  0.1186339E+00
        -11   -1    0    0    0    0  0.00000000000E+00  0.00000000000E+00  0.45593999997E+02  0.45594000000E+02  0.51100000000E-03 0. -1.
         11   -1    0    0    0    0 -0.00000000000E+00 -0.00000000000E+00 -0.45593999997E+02  0.45594000000E+02  0.51100000000E-03 0.  1.
    9900012    2    1    2    0    0 -0.61217738206E+00 -0.85572342834E+00 -0.53499415228E+00  0.90007643073E+02  0.89999903161E+02 0.  0.
         12    1    1    2    0    0  0.61217738206E+00  0.85572342834E+00  0.53499415228E+00  0.11803569273E+01  0.00000000000E+00 0. -1.
         11    1    3    3    0    0  0.10015289563E+02  0.10532016226E+01 -0.14687479048E+01  0.10177056518E+02  0.51100000000E-03 0. -1.
        -11    1    3    3    0    0 -0.65476853648E+01 -0.87963110771E+01 -0.38274043969E+02  0.39813938692E+02  0.51100000000E-03 0.  1.
         12    1    3    3    0    0 -0.40797815805E+01  0.68873860261E+01  0.39207797721E+02  0.40016647863E+02  0.00000000000E+00 0. -1.
</event>
<event>
 7    1  0.4096472E-015  0.9000769E+02  0.7816164E-02  0.1186339E+00
        -11   -1    0    0    0    0  0.00000000000E+00  0.00000000000E+00  0.45593999997E+02  0.45594000000E+02  0.51100000000E-03 0. -1.
         11   -1    0    0    0    0 -0.00000000000E+00 -0.00000000000E+00 -0.45593999997E+02  0.45594000000E+02  0.51100000000E-03 0.  1.
    9900012    2    1    2    0    0 -0.21039959745E+00 -0.88354277372E+00 -0.75380870856E+00  0.90007685045E+02  0.89999945688E+02 0.  0.
         12    1    1    2    0    0  0.21039959745E+00  0.88354277372E+00  0.75380870856E+00  0.11803149549E+01  0.00000000000E+00 0. -1.
         11    1    3    3    0    0 -0.40678681058E+01  0.16732871508E+02  0.85285463823E+01  0.19216468028E+02  0.51100000000E-03 0. -1.
        -11    1    3    3    0    0  0.24018858901E+01  0.24097762760E+02  0.81582815260E+01  0.25554427866E+02  0.51100000000E-03 0.  1.
        -12    1    3    3    0    0  0.14555826183E+01 -0.41714177042E+02 -0.17440636617E+02  0.45236789150E+02  0.00000000000E+00 0.  1.
</event>
<event>
 7    1  0.4894122E-015  0.9000762E+02  0.7816164E-02  0.1186339E+00
        -11   -1    0    0    0    0  0.00000000000E+00  0.00000000000E+00  0.45593999997E+02  0.45594000000E+02  0.51100000000E-03 0. -1.
         11   -1    0    0    0    0 -0.00000000000E+00 -0.00000000000E+00 -0.45593999997E+02  0.45594000000E+02  0.51100000000E-03 0.  1.
    9900012    2    1    2    0    0  0.44399483443E+00 -0.16433886854E+00 -0.10812815828E+01  0.90007615089E+02  0.89999874808E+02 0.  0.
         12    1    1    2    0    0 -0.44399483443E+00  0.16433886854E+00  0.10812815828E+01  0.11803849110E+01  0.00000000000E+00 0. -1.
         11    1    3    3    0    0  0.24886675238E+01 -0.77003996227E+01 -0.40891499583E+01  0.90670153874E+01  0.51100000000E-03 0. -1.
        -11    1    3    3    0    0 -0.19538676161E+02  0.14188299444E+02 -0.32685703182E+02  0.40637702937E+02  0.51100000000E-03 0.  1.
         12    1    3    3    0    0  0.17494003472E+02 -0.66522386896E+01  0.35693571557E+02  0.40302896764E+02  0.00000000000E+00 0. -1.
</event>
<event>
 7    1  0.4096472E-015  0.9000777E+02  0.7816164E-02  0.1186339E+00
        -11   -1    0    0    0    0  0.00000000000E+00  0.00000000000E+00  0.45593999997E+02  0.45594000000E+02  0.51100000000E-03 0.  1.
         11   -1    0    0    0    0 -0.00000000000E+00 -0.00000000000E+00 -0.45593999997E+02  0.45594000000E+02  0.51100000000E-03 0. -1.
    9900012    2    1    2    0    0 -0.41988843181E+00  0.66746572732E+00  0.87813142449E+00  0.90007774771E+02  0.90000036598E+02 0.  0.
         12    1    1    2    0    0  0.41988843181E+00 -0.66746572732E+00 -0.87813142449E+00  0.11802252289E+01  0.00000000000E+00 0. -1.
         11    1    3    3    0    0 -0.35404782160E+02  0.60648610601E+01 -0.15608658838E+02  0.39165180588E+02  0.51100000000E-03 0. -1.
        -11    1    3    3    0    0 -0.63566597394E+01 -0.14199385782E+01  0.30377810310E+01  0.71868951893E+01  0.51100000000E-03 0.  1.
        -12    1    3    3    0    0  0.41341553468E+02 -0.39774567546E+01  0.13449009231E+02  0.43655698994E+02  0.00000000000E+00 0.  1.
</event>
<event>
 7    1  0.4096472E-015  0.9000778E+02  0.7816164E-02  0.1186339E+00
        -11   -1    0    0    0    0  0.00000000000E+00  0.00000000000E+00  0.45593999997E+02  0.45594000000E+02  0.51100000000E-03 0.  1.
         11   -1    0    0    0    0 -0.00000000000E+00 -0.00000000000E+00 -0.45593999997E+02  0.45594000000E+02  0.51100000000E-03 0. -1.
    9900012    2    1    2    0    0 -0.12457048999E+00  0.14061647581E+00  0.11651768673E+01  0.90007776321E+02  0.90000038168E+02 0.  0.
         12    1    1    2    0    0  0.12457048999E+00 -0.14061647581E+00 -0.11651768673E+01  0.11802236790E+01  0.00000000000E+00 0. -1.
         11    1    3    3    0    0 -0.92202500186E+01  0.28110705632E+01  0.43836024472E+01  0.10589197269E+02  0.51100000000E-03 0. -1.
        -11    1    3    3    0    0  0.73697086806E+01  0.28951553374E+02  0.23479651937E+02  0.37997356541E+02  0.51100000000E-03 0.  1.
         12    1    3    3    0    0  0.17259708481E+01 -0.31622007461E+02 -0.26698077517E+02  0.41421222511E+02  0.00000000000E+00 0. -1.
</event>
<event>
 7    1  0.4096472E-015  0.9000766E+02  0.7816164E-02  0.1186339E+00
        -11   -1    0    0    0    0  0.00000000000E+00  0.00000000000E+00  0.45593999997E+02  0.45594000000E+02  0.51100000000E-03 0.  1.
         11   -1    0    0    0    0 -0.00000000000E+00 -0.00000000000E+00 -0.45593999997E+02  0.45594000000E+02  0.51100000000E-03 0. -1.
    9900012    2    1    2    0    0 -0.89526774580E+00  0.50414612447E+00  0.58098142268E+00  0.90007658073E+02  0.89999918359E+02 0.  0.
         12    1    1    2    0    0  0.89526774580E+00 -0.50414612447E+00 -0.58098142268E+00  0.11803419271E+01  0.00000000000E+00 0. -1.
         11    1    3    3    0    0  0.18051695289E+02 -0.21044024161E+02 -0.17039646739E+02  0.32543266845E+02  0.51100000000E-03 0. -1.
        -11    1    3    3    0    0 -0.22358737460E+02 -0.78553728772E+01  0.14696932578E+01  0.23744052358E+02  0.51100000000E-03 0.  1.
        -12    1    3    3    0    0  0.34117744246E+01  0.29403543163E+02  0.16150934904E+02  0.33720338870E+02  0.00000000000E+00 0.  1.
</event>
<event>
 7    1  0.4096472E-015  0.9000777E+02  0.7816164E-02  0.1186339E+00
        -11   -1    0    0    0    0  0.00000000000E+00  0.00000000000E+00  0.45593999997E+02  0.45594000000E+02  0.51100000000E-03 0.  1.
         11   -1    0    0    0    0 -0.00000000000E+00 -0.00000000000E+00 -0.45593999997E+02  0.45594000000E+02  0.51100000000E-03 0. -1.
    9900012    2    1    2    0    0 -0.13765421170E+00 -0.11508520014E+00  0.11665163283E+01  0.90007765435E+02  0.90000027138E+02 0.  0.
         12    1    1    2    0    0  0.13765421170E+00  0.11508520014E+00 -0.11665163283E+01  0.11802345655E+01  0.00000000000E+00 0. -1.
         11    1    3    3    0    0  0.24736607288E+02  0.14252372328E+02 -0.29239461722E+02  0.40865339582E+02  0.51100000000E-03 0. -1.
        -11    1    3    3    0    0 -0.76432429684E+01 -0.56374695734E+01 -0.34986871468E+01  0.10121316035E+02  0.51100000000E-03 0.  1.
        -12    1    3    3    0    0 -0.17231018531E+02 -0.87299879551E+01  0.33904665197E+02  0.39021109818E+02  0.00000000000E+00 0.  1.
</event>
<event>
 7    1  0.4096472E-015  0.9000806E+02  0.7816164E-02  0.1186338E+00
        -11   -1    0    0    0    0  0.00000000000E+00  0.00000000000E+00  0.45593999997E+02  0.45594000000E+02  0.51100000000E-03 0. -1.
         11   -1    0    0    0    0 -0.00000000000E+00 -0.00000000000E+00 -0.45593999997E+02  0.45594000000E+02  0.51100000000E-03 0.  1.
    9900012    2    1    2    0    0  0.65511126763E-01 -0.64010967810E+00 -0.98904939412E+00  0.90008063217E+02  0.90000328851E+02 0.  0.
         12    1    1    2    0    0 -0.65511126763E-01  0.64010967810E+00  0.98904939412E+00  0.11799367829E+01  0.00000000000E+00 0. -1.
         11    1    3    3    0    0 -0.11207854508E+02 -0.30859604760E+00  0.49304256647E+01  0.12248278724E+02  0.51100000000E-03 0. -1.
        -11    1    3    3    0    0  0.25601574696E+02 -0.12217599995E+02  0.27497379010E+02  0.39507166808E+02  0.51100000000E-03 0.  1.
         12    1    3    3    0    0 -0.14328209061E+02  0.11886086364E+02 -0.33416854068E+02  0.38252617685E+02  0.00000000000E+00 0. -1.
</event>
<event>
 7    1  0.4096472E-015  0.9000772E+02  0.7816164E-02  0.1186339E+00
        -11   -1    0    0    0    0  0.00000000000E+00  0.00000000000E+00  0.45593999997E+02  0.45594000000E+02  0.51100000000E-03 0. -1.
         11   -1    0    0    0    0 -0.00000000000E+00 -0.00000000000E+00 -0.45593999997E+02  0.45594000000E+02  0.51100000000E-03 0.  1.
    9900012    2    1    2    0    0 -0.48091117177E+00 -0.52357075863E+00 -0.94215414157E+00  0.90007721931E+02  0.89999983060E+02 0.  0.
         12    1    1    2    0    0  0.48091117177E+00  0.52357075863E+00  0.94215414157E+00  0.11802780693E+01  0.00000000000E+00 0. -1.
         11    1    3    3    0    0  0.29206497108E+02  0.18975640195E+02 -0.61594894951E+01  0.35369954837E+02  0.51100000000E-03 0. -1.
        -11    1    3    3    0    0  0.33943673948E+01  0.94767975356E+01 -0.14071143797E+01  0.10164221204E+02  0.51100000000E-03 0.  1.
        -12    1    3    3    0    0 -0.33081775674E+02 -0.28976008489E+02  0.66244497332E+01  0.44473545889E+02  0.00000000000E+00 0.  1.
</event>
<event>
 7    1  0.4096472E-015  0.9000776E+02  0.7816164E-02  0.1186339E+00
        -11   -1    0    0    0    0  0.00000000000E+00  0.00000000000E+00  0.45593999997E+02  0.45594000000E+02  0.51100000000E-03 0.  1.
         11   -1    0    0    0    0 -0.00000000000E+00 -0.00000000000E+00 -0.45593999997E+02  0.45594000000E+02  0.51100000000E-03 0. -1.
    9900012    2    1    2    0    0 -0.26422438842E+00 -0.43000956905E-01  0.11494803518E+01  0.90007759055E+02  0.90000020674E+02 0.  0.
         12    1    1    2    0    0  0.26422438842E+00  0.43000956905E-01 -0.11494803518E+01  0.11802409452E+01  0.00000000000E+00 0. -1.
         11    1    3    3    0    0 -0.15650449915E+01 -0.89462156135E+01 -0.34470712819E+00  0.90886172158E+01  0.51100000000E-03 0. -1.
        -11    1    3    3    0    0 -0.39387104584E+02  0.68282682360E+01 -0.20306080993E+01  0.40026149254E+02  0.51100000000E-03 0.  1.
         12    1    3    3    0    0  0.40687925187E+02  0.20749464206E+01  0.35247955793E+01  0.40892992585E+02  0.00000000000E+00 0. -1.
</event>
<event>
 7    1  0.4096472E-015  0.9000775E+02  0.7816164E-02  0.1186339E+00
        -11   -1    0    0    0    0  0.00000000000E+00  0.00000000000E+00  0.45593999997E+02  0.45594000000E+02  0.51100000000E-03 0.  1.
         11   -1    0    0    0    0 -0.00000000000E+00 -0.00000000000E+00 -0.45593999997E+02  0.45594000000E+02  0.51100000000E-03 0. -1.
    9900012    2    1    2    0    0 -0.90953111043E+00  0.27013766764E+00  0.70197672114E+00  0.90007748960E+02  0.90000010446E+02 0.  0.
         12    1    1    2    0    0  0.90953111043E+00 -0.27013766764E+00 -0.70197672114E+00  0.11802510400E+01  0.00000000000E+00 0. -1.
         11    1    3    3    0    0 -0.65674920259E+01  0.49837139724E+01  0.45909548091E+01  0.94364306170E+01  0.51100000000E-03 0. -1.
        -11    1    3    3    0    0  0.11248898363E+02  0.34014446435E+02 -0.16522816821E+02  0.39452804167E+02  0.51100000000E-03 0.  1.
         12    1    3    3    0    0 -0.55909374479E+01 -0.38728022740E+02  0.12633838733E+02  0.41118514176E+02  0.00000000000E+00 0. -1.
</event>
<event>
 7    1  0.4096472E-015  0.9000776E+02  0.7816164E-02  0.1186339E+00
        -11   -1    0    0    0    0  0.00000000000E+00  0.00000000000E+00  0.45593999997E+02  0.45594000000E+02  0.51100000000E-03 0. -1.
         11   -1    0    0    0    0 -0.00000000000E+00 -0.00000000000E+00 -0.45593999997E+02  0.45594000000E+02  0.51100000000E-03 0.  1.
    9900012    2    1    2    0    0 -0.48896461420E+00 -0.32865883076E+00 -0.10226753122E+01  0.90007759425E+02  0.90000021049E+02 0.  0.
         12    1    1    2    0    0  0.48896461420E+00  0.32865883076E+00  0.10226753122E+01  0.11802405751E+01  0.00000000000E+00 0. -1.
         11    1    3    3    0    0 -0.28917566552E+01  0.27991894032E+01 -0.12523377845E+02  0.13154189856E+02  0.51100000000E-03 0. -1.
        -11    1    3    3    0    0 -0.26947519785E+02 -0.16303532998E+02  0.26683102184E+02  0.41279074035E+02  0.51100000000E-03 0.  1.
         12    1    3    3    0    0  0.29350311826E+02  0.13175684764E+02 -0.15182399651E+02  0.35574495534E+02  0.00000000000E+00 0. -1.
</event>
<event>
 7    1  0.4096472E-015  0.9000770E+02  0.7816164E-02  0.1186339E+00
        -11   -1    0    0    0    0  0.00000000000E+00  0.00000000000E+00  0.45593999997E+02  0.45594000000E+02  0.51100000000E-03 0. -1.
         11   -1    0    0    0    0 -0.00000000000E+00 -0.00000000000E+00 -0.45593999997E+02  0.45594000000E+02  0.51100000000E-03 0.  1.
    9900012    2    1    2    0    0 -0.16571134127E+00  0.70838576457E+00  0.92942465950E+00  0.90007703072E+02  0.89999963953E+02 0.  0.
         12    1    1    2    0    0  0.16571134127E+00 -0.70838576457E+00 -0.92942465950E+00  0.11802969278E+01  0.00000000000E+00 0. -1.
         11    1    3    3    0    0  0.37218544311E+01 -0.15014658698E+02  0.36465303902E+02  0.39610738003E+02  0.51100000000E-03 0. -1.
        -11    1    3    3    0    0 -0.75792230784E+01 -0.61281971021E+01 -0.16164470109E+01  0.98798949081E+01  0.51100000000E-03 0.  1.
        -12    1    3    3    0    0  0.36916573061E+01  0.21851241565E+02 -0.33919432231E+02  0.40517070161E+02  0.00000000000E+00 0.  1.
</event>
<event>
 7    1  0.4096472E-015  0.9000776E+02  0.7816164E-02  0.1186339E+00
        -11   -1    0    0    0    0  0.00000000000E+00  0.00000000000E+00  0.45593999997E+02  0.45594000000E+02  0.51100000000E-03 0. -1.
         11   -1    0    0    0    0 -0.00000000000E+00 -0.00000000000E+00 -0.45593999997E+02  0.45594000000E+02  0.51100000000E-03 0.  1.
    9900012    2    1    2    0    0  0.10927168253E+01  0.17023173896E+00 -0.41225630164E+00  0.90007760972E+02  0.90000022617E+02 0.  0.
         12    1    1    2    0    0 -0.10927168253E+01 -0.17023173896E+00  0.41225630164E+00  0.11802390281E+01  0.00000000000E+00 0. -1.
         11    1    3    3    0    0 -0.74781724938E+01 -0.22995926060E+01  0.47516871091E+01  0.91536725222E+01  0.51100000000E-03 0. -1.
        -11    1    3    3    0    0 -0.65633407816E+01  0.30275040659E+02 -0.28050061442E+02  0.41790686478E+02  0.51100000000E-03 0.  1.
         12    1    3    3    0    0  0.15134230101E+02 -0.27805216314E+02  0.22886118032E+02  0.39063401971E+02  0.00000000000E+00 0. -1.
</event>
<event>
 7    1  0.4096472E-015  0.9000772E+02  0.7816164E-02  0.1186339E+00
        -11   -1    0    0    0    0  0.00000000000E+00  0.00000000000E+00  0.45593999997E+02  0.45594000000E+02  0.51100000000E-03 0. -1.
         11   -1    0    0    0    0 -0.00000000000E+00 -0.00000000000E+00 -0.45593999997E+02  0.45594000000E+02  0.51100000000E-03 0.  1.
    9900012    2    1    2    0    0 -0.10014918565E+00 -0.82373066993E+00 -0.83934112217E+00  0.90007722238E+02  0.89999983372E+02 0.  0.
         12    1    1    2    0    0  0.10014918565E+00  0.82373066993E+00  0.83934112217E+00  0.11802777619E+01  0.00000000000E+00 0. -1.
         11    1    3    3    0    0 -0.10346634654E+02 -0.11764003834E+00 -0.17260767846E+01  0.10490282607E+02  0.51100000000E-03 0. -1.
        -11    1    3    3    0    0 -0.28525754767E+02 -0.20708834814E+02 -0.45874204077E+01  0.35547418340E+02  0.51100000000E-03 0.  1.
         12    1    3    3    0    0  0.38772240235E+02  0.20002744182E+02  0.54741560702E+01  0.43970021291E+02  0.00000000000E+00 0. -1.
</event>
<event>
 7    1  0.4096472E-015  0.9000767E+02  0.7816164E-02  0.1186339E+00
        -11   -1    0    0    0    0  0.00000000000E+00  0.00000000000E+00  0.45593999997E+02  0.45594000000E+02  0.51100000000E-03 0. -1.
         11   -1    0    0    0    0 -0.00000000000E+00 -0.00000000000E+00 -0.45593999997E+02  0.45594000000E+02  0.51100000000E-03 0.  1.
    9900012    2    1    2    0    0 -0.41576346682E+00  0.10933725054E+01 -0.15762378331E+00  0.90007674641E+02  0.89999935146E+02 0.  0.
         12    1    1    2    0    0  0.41576346682E+00 -0.10933725054E+01  0.15762378331E+00  0.11803253589E+01  0.00000000000E+00 0. -1.
         11    1    3    3    0    0  0.31518215094E+02 -0.16474606719E+02  0.64946861589E+01  0.36152337377E+02  0.51100000000E-03 0. -1.
        -11    1    3    3    0    0  0.65465823608E+01 -0.10709408189E+01  0.63317208572E+01  0.91703513629E+01  0.51100000000E-03 0.  1.
        -12    1    3    3    0    0 -0.38480560921E+02  0.18638920043E+02 -0.12984030799E+02  0.44684985901E+02  0.00000000000E+00 0.  1.
</event>
<event>
 7    1  0.4096472E-015  0.9000774E+02  0.7816164E-02  0.1186339E+00
        -11   -1    0    0    0    0  0.00000000000E+00  0.00000000000E+00  0.45593999997E+02  0.45594000000E+02  0.51100000000E-03 0.  1.
         11   -1    0    0    0    0 -0.00000000000E+00 -0.00000000000E+00 -0.45593999997E+02  0.45594000000E+02  0.51100000000E-03 0. -1.
    9900012    2    1    2    0    0 -0.45771023343E-01 -0.11709690694E+01  0.14052820538E+00  0.90007740823E+02  0.90000002202E+02 0.  0.
         12    1    1    2    0    0  0.45771023343E-01  0.11709690694E+01 -0.14052820538E+00  0.11802591769E+01  0.00000000000E+00 0. -1.
         11    1    3    3    0    0  0.10777209315E+02 -0.21588196499E+00 -0.23501728768E+01  0.11032595273E+02  0.51100000000E-03 0. -1.
        -11    1    3    3    0    0  0.13533391337E+02 -0.97960539517E-01  0.35472055361E+02  0.37966155838E+02  0.51100000000E-03 0.  1.
         12    1    3    3    0    0 -0.24356371675E+02 -0.85712656489E+00 -0.32981354279E+02  0.41008989712E+02  0.00000000000E+00 0. -1.
</event>
<event>
 7    1  0.4096472E-015  0.9000764E+02  0.7816164E-02  0.1186339E+00
        -11   -1    0    0    0    0  0.00000000000E+00  0.00000000000E+00  0.45593999997E+02  0.45594000000E+02  0.51100000000E-03 0.  1.
         11   -1    0    0    0    0 -0.00000000000E+00 -0.00000000000E+00 -0.45593999997E+02  0.45594000000E+02  0.51100000000E-03 0. -1.
    9900012    2    1    2    0    0  0.17900137790E+00 -0.24806940118E+00  0.11400314186E+01  0.90007639226E+02  0.89999899264E+02 0.  0.
         12    1    1    2    0    0 -0.17900137790E+00  0.24806940118E+00 -0.11400314186E+01  0.11803607738E+01  0.00000000000E+00 0. -1.
         11    1    3    3    0    0  0.88038481246E+01  0.23621772730E+01  0.12071984142E+01  0.91948328720E+01  0.51100000000E-03 0. -1.
        -11    1    3    3    0    0  0.23459587451E+02  0.19622060441E+02  0.20375172950E+02  0.36749492136E+02  0.51100000000E-03 0.  1.
         12    1    3    3    0    0 -0.32084434197E+02 -0.22232307115E+02 -0.20442339945E+02  0.44063314218E+02  0.00000000000E+00 0. -1.
</event>
<event>
 7    1  0.4096472E-015  0.9000776E+02  0.7816164E-02  0.1186339E+00
        -11   -1    0    0    0    0  0.00000000000E+00  0.00000000000E+00  0.45593999997E+02  0.45594000000E+02  0.51100000000E-03 0. -1.
         11   -1    0    0    0    0 -0.00000000000E+00 -0.00000000000E+00 -0.45593999997E+02  0.45594000000E+02  0.51100000000E-03 0.  1.
    9900012    2    1    2    0    0 -0.24035612782E+00  0.10984368269E+01 -0.35866242415E+00  0.90007757116E+02  0.90000018710E+02 0.  0.
         12    1    1    2    0    0  0.24035612782E+00 -0.10984368269E+01  0.35866242415E+00  0.11802428841E+01  0.00000000000E+00 0. -1.
         11    1    3    3    0    0  0.10258840668E+00  0.39437217145E+02 -0.11852741635E+02  0.41179996419E+02  0.51100000000E-03 0. -1.
        -11    1    3    3    0    0 -0.77469904264E+01  0.58026320205E+00  0.28775462866E+01  0.82844938857E+01  0.51100000000E-03 0.  1.
        -12    1    3    3    0    0  0.74040458919E+01 -0.38919043520E+02  0.86165329240E+01  0.40543266811E+02  0.00000000000E+00 0.  1.
</event>
<event>
 7    1  0.4096472E-015  0.9000767E+02  0.7816164E-02  0.1186339E+00
        -11   -1    0    0    0    0  0.00000000000E+00  0.00000000000E+00  0.45593999997E+02  0.45594000000E+02  0.51100000000E-03 0.  1.
         11   -1    0    0    0    0 -0.00000000000E+00 -0.00000000000E+00 -0.45593999997E+02  0.45594000000E+02  0.51100000000E-03 0. -1.
    9900012    2    1    2    0    0 -0.55329600087E+00  0.86099983708E+00  0.58798270520E+00  0.90007669180E+02  0.89999929613E+02 0.  0.
         12    1    1    2    0    0  0.55329600087E+00 -0.86099983708E+00 -0.58798270520E+00  0.11803308204E+01  0.00000000000E+00 0. -1.
         11    1    3    3    0    0  0.36111569426E+01 -0.32697090599E+02 -0.12154670221E+02  0.35069590767E+02  0.51100000000E-03 0. -1.
        -11    1    3    3    0    0  0.10746416507E+02 -0.37780902862E+01  0.90814277134E+01  0.14568176397E+02  0.51100000000E-03 0.  1.
        -12    1    3    3    0    0 -0.14910869451E+02  0.37336180723E+02  0.36612252124E+01  0.40369902016E+02  0.00000000000E+00 0.  1.
</event>
<event>
 7    1  0.4096472E-015  0.9000771E+02  0.7816164E-02  0.1186339E+00
        -11   -1    0    0    0    0  0.00000000000E+00  0.00000000000E+00  0.45593999997E+02  0.45594000000E+02  0.51100000000E-03 0.  1.
         11   -1    0    0    0    0 -0.00000000000E+00 -0.00000000000E+00 -0.45593999997E+02  0.45594000000E+02  0.51100000000E-03 0. -1.
    9900012    2    1    2    0    0  0.88059163288E+00  0.46721109272E+00  0.63195297456E+00  0.90007706650E+02  0.89999967578E+02 0.  0.
         12    1    1    2    0    0 -0.88059163288E+00 -0.46721109272E+00 -0.63195297456E+00  0.11802933496E+01  0.00000000000E+00 0. -1.
         11    1    3    3    0    0  0.30805189014E+02  0.21804594111E+02  0.15386711080E+02  0.40757218657E+02  0.51100000000E-03 0. -1.
        -11    1    3    3    0    0 -0.52053135912E+01  0.72140896435E+01 -0.51642969432E+01  0.10286318202E+02  0.51100000000E-03 0.  1.
        -12    1    3    3    0    0 -0.24719283790E+02 -0.28551472661E+02 -0.95904611622E+01  0.38964169792E+02  0.00000000000E+00 0.  1.
</event>
<event>
 7    1  0.4096472E-015  0.9000782E+02  0.7816164E-02  0.1186339E+00
        -11   -1    0    0    0    0  0.00000000000E+00  0.00000000000E+00  0.45593999997E+02  0.45594000000E+02  0.51100000000E-03 0. -1.
         11   -1    0    0    0    0 -0.00000000000E+00 -0.00000000000E+00 -0.45593999997E+02  0.45594000000E+02  0.51100000000E-03 0.  1.
    9900012    2    1    2    0    0  0.14665823971E+00 -0.77965088609E+00 -0.87376387726E+00  0.90007818888E+02  0.90000081297E+02 0.  0.
         12    1    1    2    0    0 -0.14665823971E+00  0.77965088609E+00  0.87376387726E+00  0.11801811118E+01  0.00000000000E+00 0. -1.
         11    1    3    3    0    0 -0.22064295303E+02  0.25322746583E+02  0.16453035670E+02  0.37400227336E+02  0.51100000000E-03 0. -1.
        -11    1    3    3    0    0  0.47856264080E+01  0.62843000110E+01  0.52213584654E+01  0.94687502465E+01  0.51100000000E-03 0.  1.
        -12    1    3    3    0    0  0.17425327135E+02 -0.32386697480E+02 -0.22548158012E+02  0.43138841306E+02  0.00000000000E+00 0.  1.
</event>
<event>
 7    1  0.4096472E-015  0.9000777E+02  0.7816164E-02  0.1186339E+00
        -11   -1    0    0    0    0  0.00000000000E+00  0.00000000000E+00  0.45593999997E+02  0.45594000000E+02  0.51100000000E-03 0.  1.
         11   -1    0    0    0    0 -0.00000000000E+00 -0.00000000000E+00 -0.45593999997E+02  0.45594000000E+02  0.51100000000E-03 0. -1.
    9900012    2    1    2    0    0 -0.17454189873E+00 -0.39127235305E-01  0.11665976984E+01  0.90007768665E+02  0.90000030411E+02 0.  0.
         12    1    1    2    0    0  0.17454189873E+00  0.39127235305E-01 -0.11665976984E+01  0.11802313353E+01  0.00000000000E+00 0. -1.
         11    1    3    3    0    0  0.60181531749E+01 -0.24678780685E+02 -0.25712044510E+02  0.36143735514E+02  0.51100000000E-03 0. -1.
        -11    1    3    3    0    0  0.48673607003E+01 -0.86869294241E+01  0.54460149031E+00  0.99724888594E+01  0.51100000000E-03 0.  1.
        -12    1    3    3    0    0 -0.11060055774E+02  0.33326582874E+02  0.26334040718E+02  0.43891544292E+02  0.00000000000E+00 0.  1.
</event>
<event>
 7    1  0.4096472E-015  0.9000790E+02  0.7816164E-02  0.1186339E+00
        -11   -1    0    0    0    0  0.00000000000E+00  0.00000000000E+00  0.45593999997E+02  0.45594000000E+02  0.51100000000E-03 0.  1.
         11   -1    0    0    0    0 -0.00000000000E+00 -0.00000000000E+00 -0.45593999997E+02  0.45594000000E+02  0.51100000000E-03 0. -1.
    9900012    2    1    2    0    0 -0.29039071129E+00  0.26977955601E+00  0.11115483640E+01  0.90007895115E+02  0.90000158530E+02 0.  0.
         12    1    1    2    0    0  0.29039071129E+00 -0.26977955601E+00 -0.11115483640E+01  0.11801048850E+01  0.00000000000E+00 0. -1.
         11    1    3    3    0    0  0.25223041750E+02 -0.78389912639E+01  0.21548679040E+02  0.34088079849E+02  0.51100000000E-03 0. -1.
        -11    1    3    3    0    0  0.26351924203E+01 -0.75268763488E+01  0.91872678591E+01  0.12165689361E+02  0.51100000000E-03 0.  1.
        -12    1    3    3    0    0 -0.28148624881E+02  0.15635647169E+02 -0.29624398535E+02  0.43754125905E+02  0.00000000000E+00 0.  1.
</event>
<event>
 7    1  0.4096472E-015  0.9000764E+02  0.7816164E-02  0.1186339E+00
        -11   -1    0    0    0    0  0.00000000000E+00  0.00000000000E+00  0.45593999997E+02  0.45594000000E+02  0.51100000000E-03 0.  1.
         11   -1    0    0    0    0 -0.00000000000E+00 -0.00000000000E+00 -0.45593999997E+02  0.45594000000E+02  0.51100000000E-03 0. -1.
    9900012    2    1    2    0    0 -0.63508828736E+00  0.50913850244E+00  0.85480838722E+00  0.90007637121E+02  0.89999897131E+02 0.  0.
         12    1    1    2    0    0  0.63508828736E+00 -0.50913850244E+00 -0.85480838722E+00  0.11803628791E+01  0.00000000000E+00 0. -1.
         11    1    3    3    0    0 -0.27873472970E+02 -0.22324543313E+02 -0.14074007289E+02  0.38384807033E+02  0.51100000000E-03 0. -1.
        -11    1    3    3    0    0 -0.82547419360E+01  0.32018774808E+01  0.28708901264E+01  0.93077813796E+01  0.51100000000E-03 0.  1.
        -12    1    3    3    0    0  0.35493126618E+02  0.19631804335E+02  0.12057925550E+02  0.42315048708E+02  0.00000000000E+00 0.  1.
</event>
<event>
 7    1  0.4096472E-015  0.9000776E+02  0.7816164E-02  0.1186339E+00
        -11   -1    0    0    0    0  0.00000000000E+00  0.00000000000E+00  0.45593999997E+02  0.45594000000E+02  0.51100000000E-03 0.  1.
         11   -1    0    0    0    0 -0.00000000000E+00 -0.00000000000E+00 -0.45593999997E+02  0.45594000000E+02  0.51100000000E-03 0. -1.
    9900012    2    1    2    0    0 -0.71997709852E-01  0.87954869931E+00  0.78369116625E+00  0.90007762130E+02  0.90000023791E+02 0.  0.
         12    1    1    2    0    0  0.71997709852E-01 -0.87954869931E+00 -0.78369116625E+00  0.11802378696E+01  0.00000000000E+00 0. -1.
         11    1    3    3    0    0 -0.29529885676E+01  0.15585680180E+02 -0.35232950368E+02  0.38639285190E+02  0.51100000000E-03 0. -1.
        -11    1    3    3    0    0  0.27445733736E+01  0.86905906721E+01  0.88194244466E+00  0.91562477015E+01  0.51100000000E-03 0.  1.
        -12    1    3    3    0    0  0.13641748412E+00 -0.23396722152E+02  0.35134699089E+02  0.42212229239E+02  0.00000000000E+00 0.  1.
</event>
<event>
 7    1  0.4096472E-015  0.9000791E+02  0.7816164E-02  0.1186339E+00
        -11   -1    0    0    0    0  0.00000000000E+00  0.00000000000E+00  0.45593999997E+02  0.45594000000E+02  0.51100000000E-03 0. -1.
         11   -1    0    0    0    0 -0.00000000000E+00 -0.00000000000E+00 -0.45593999997E+02  0.45594000000E+02  0.51100000000E-03 0.  1.
    9900012    2    1    2    0    0 -0.47269287059E+00  0.23106541204E+00 -0.10563096381E+01  0.90007906857E+02  0.90000170427E+02 0.  0.
         12    1    1    2    0    0  0.47269287059E+00 -0.23106541204E+00  0.10563096381E+01  0.11800931430E+01  0.00000000000E+00 0. -1.
         11    1    3    3    0    0 -0.31057457607E+02  0.22529339541E+02 -0.96317583360E+00  0.38380522679E+02  0.51100000000E-03 0. -1.
        -11    1    3    3    0    0  0.21473320184E+01  0.77453504510E+01  0.57031693359E+01  0.98553350598E+01  0.51100000000E-03 0.  1.
        -12    1    3    3    0    0  0.28437432718E+02 -0.30043624580E+02 -0.57963031404E+01  0.41772049119E+02  0.00000000000E+00 0.  1.
</event>
<event>
 7    1  0.4096472E-015  0.9000777E+02  0.7816164E-02  0.1186339E+00
        -11   -1    0    0    0    0  0.00000000000E+00  0.00000000000E+00  0.45593999997E+02  0.45594000000E+02  0.51100000000E-03 0.  1.
         11   -1    0    0    0    0 -0.00000000000E+00 -0.00000000000E+00 -0.45593999997E+02  0.45594000000E+02  0.51100000000E-03 0. -1.
    9900012    2    1    2    0    0 -0.26938199989E-01 -0.11609984016E+01  0.21044918109E+00  0.90007774677E+02  0.90000036503E+02 0.  0.
         12    1    1    2    0    0  0.26938199989E-01  0.11609984016E+01 -0.21044918109E+00  0.11802253229E+01  0.00000000000E+00 0. -1.
         11    1    3    3    0    0  0.68259409134E+01  0.28801570226E+02 -0.91117989002E+01  0.30970127482E+02  0.51100000000E-03 0. -1.
        -11    1    3    3    0    0  0.45797747560E+01  0.81334730549E+01 -0.10955200721E+02  0.14392503043E+02  0.51100000000E-03 0.  1.
        -12    1    3    3    0    0 -0.11432653869E+02 -0.38096041682E+02  0.20277448803E+02  0.44645144151E+02  0.00000000000E+00 0.  1.
</event>
<event>
 7    1  0.4096472E-015  0.9000768E+02  0.7816164E-02  0.1186339E+00
        -11   -1    0    0    0    0  0.00000000000E+00  0.00000000000E+00  0.45593999997E+02  0.45594000000E+02  0.51100000000E-03 0. -1.
         11   -1    0    0    0    0 -0.00000000000E+00 -0.00000000000E+00 -0.45593999997E+02  0.45594000000E+02  0.51100000000E-03 0.  1.
    9900012    2    1    2    0    0  0.72026932273E+00  0.29510799782E+00 -0.88728979714E+00  0.90007678090E+02  0.89999938641E+02 0.  0.
         12    1    1    2    0    0 -0.72026932273E+00 -0.29510799782E+00  0.88728979714E+00  0.11803219102E+01  0.00000000000E+00 0. -1.
         11    1    3    3    0    0 -0.62101622293E+01  0.34955200513E+02  0.47311978749E+01  0.35816426279E+02  0.51100000000E-03 0. -1.
        -11    1    3    3    0    0 -0.38822939340E+01  0.82890125127E+01 -0.36628158010E+01  0.98588110073E+01  0.51100000000E-03 0.  1.
        -12    1    3    3    0    0  0.10812725486E+02 -0.42949105028E+02 -0.19556718711E+01  0.44332440803E+02  0.00000000000E+00 0.  1.
</event>
<event>
 7    1  0.4096472E-015  0.9000775E+02  0.7816164E-02  0.1186339E+00
        -11   -1    0    0    0    0  0.00000000000E+00  0.00000000000E+00  0.45593999997E+02  0.45594000000E+02  0.51100000000E-03 0.  1.
         11   -1    0    0    0    0 -0.00000000000E+00 -0.00000000000E+00 -0.45593999997E+02  0.45594000000E+02  0.51100000000E-03 0. -1.
    9900012    2    1    2    0    0  0.46791662340E+00 -0.91277176336E+00  0.58385900348E+00  0.90007750198E+02  0.90000011701E+02 0.  0.
         12    1    1    2    0    0 -0.46791662340E+00  0.91277176336E+00 -0.58385900348E+00  0.11802498017E+01  0.00000000000E+00 0. -1.
         11    1    3    3    0    0  0.11614237682E+02  0.18407747487E+01 -0.31023693962E+01  0.12161565062E+02  0.51100000000E-03 0. -1.
        -11    1    3    3    0    0 -0.14397614361E+02 -0.30018979452E+02 -0.22275234303E+02  0.40057664562E+02  0.51100000000E-03 0.  1.
         12    1    3    3    0    0  0.32512933019E+01  0.27265432940E+02  0.25961462703E+02  0.37788520575E+02  0.00000000000E+00 0. -1.
</event>
<event>
 7    1  0.4096472E-015  0.9000775E+02  0.7816164E-02  0.1186339E+00
        -11   -1    0    0    0    0  0.00000000000E+00  0.00000000000E+00  0.45593999997E+02  0.45594000000E+02  0.51100000000E-03 0. -1.
         11   -1    0    0    0    0 -0.00000000000E+00 -0.00000000000E+00 -0.45593999997E+02  0.45594000000E+02  0.51100000000E-03 0.  1.
    9900012    2    1    2    0    0 -0.24483348328E+00  0.96836931927E+00 -0.62872901037E+00  0.90007753101E+02  0.90000014642E+02 0.  0.
         12    1    1    2    0    0  0.24483348328E+00 -0.96836931927E+00  0.62872901037E+00  0.11802468985E+01  0.00000000000E+00 0. -1.
         11    1    3    3    0    0 -0.13879418578E+02  0.29136774995E+02  0.23839061239E+02  0.40123443997E+02  0.51100000000E-03 0. -1.
        -11    1    3    3    0    0  0.74851022481E+01  0.44191091568E+01 -0.33844528585E-01  0.86923200078E+01  0.51100000000E-03 0.  1.
        -12    1    3    3    0    0  0.61494828466E+01 -0.32587514832E+02 -0.24433945721E+02  0.41191989097E+02  0.00000000000E+00 0.  1.
</event>
<event>
 7    1  0.4096472E-015  0.9000783E+02  0.7816164E-02  0.1186339E+00
        -11   -1    0    0    0    0  0.00000000000E+00  0.00000000000E+00  0.45593999997E+02  0.45594000000E+02  0.51100000000E-03 0.  1.
         11   -1    0    0    0    0 -0.00000000000E+00 -0.00000000000E+00 -0.45593999997E+02  0.45594000000E+02  0.51100000000E-03 0. -1.
    9900012    2    1    2    0    0 -0.15663341389E-01  0.29011539675E+00  0.11438471668E+01  0.90007831103E+02  0.90000093674E+02 0.  0.
         12    1    1    2    0    0  0.15663341389E-01 -0.29011539675E+00 -0.11438471668E+01  0.11801688966E+01  0.00000000000E+00 0. -1.
         11    1    3    3    0    0 -0.32341738482E+02  0.82843722997E+01 -0.26139330497E+02  0.42401456007E+02  0.51100000000E-03 0. -1.
        -11    1    3    3    0    0  0.90835509806E+01  0.34131113726E+01 -0.38789901406E+00  0.97113692940E+01  0.51100000000E-03 0.  1.
        -12    1    3    3    0    0  0.23242524160E+02 -0.11407368275E+02  0.27671076678E+02  0.37895005803E+02  0.00000000000E+00 0.  1.
</event>
<event>
 7    1  0.4096472E-015  0.9000777E+02  0.7816164E-02  0.1186339E+00
        -11   -1    0    0    0    0  0.00000000000E+00  0.00000000000E+00  0.45593999997E+02  0.45594000000E+02  0.51100000000E-03 0.  1.
         11   -1    0    0    0    0 -0.00000000000E+00 -0.00000000000E+00 -0.45593999997E+02  0.45594000000E+02  0.51100000000E-03 0. -1.
    9900012    2    1    2    0    0 -0.70963641244E+00 -0.45706236208E-01  0.94195249509E+00  0.90007768073E+02  0.90000029812E+02 0.  0.
         12    1    1    2    0    0  0.70963641244E+00  0.45706236208E-01 -0.94195249509E+00  0.11802319267E+01  0.00000000000E+00 0. -1.
         11    1    3    3    0    0  0.11153212146E+02 -0.22251084410E+02 -0.25806184714E+02  0.35853368996E+02  0.51100000000E-03 0. -1.
        -11    1    3    3    0    0  0.49534139145E+01  0.30703547938E+01 -0.87187089315E+01  0.10487100346E+02  0.51100000000E-03 0.  1.
        -12    1    3    3    0    0 -0.16816262473E+02  0.19135023380E+02  0.35466846141E+02  0.43667298731E+02  0.00000000000E+00 0.  1.
</event>
<event>
 7    1  0.4096472E-015  0.9000774E+02  0.7816164E-02  0.1186339E+00
        -11   -1    0    0    0    0  0.00000000000E+00  0.00000000000E+00  0.45593999997E+02  0.45594000000E+02  0.51100000000E-03 0.  1.
         11   -1    0    0    0    0 -0.00000000000E+00 -0.00000000000E+00 -0.45593999997E+02  0.45594000000E+02  0.51100000000E-03 0. -1.
    9900012    2    1    2    0    0  0.56703959187E-01 -0.19449091606E+00  0.11627481891E+01  0.90007735027E+02  0.89999996329E+02 0.  0.
         12    1    1    2    0    0 -0.56703959187E-01  0.19449091606E+00 -0.11627481891E+01  0.11802649731E+01  0.00000000000E+00 0. -1.
         11    1    3    3    0    0 -0.15581821958E+02  0.28653831979E+02  0.20080956296E+02  0.38302481233E+02  0.51100000000E-03 0. -1.
        -11    1    3    3    0    0 -0.49787083000E+01  0.45414409040E+01  0.22667265646E+01  0.71098714053E+01  0.51100000000E-03 0.  1.
        -12    1    3    3    0    0  0.20617234217E+02 -0.33389763799E+02 -0.21184934671E+02  0.44595382388E+02  0.00000000000E+00 0.  1.
</event>
<event>
 7    1  0.4096472E-015  0.9000774E+02  0.7816164E-02  0.1186339E+00
        -11   -1    0    0    0    0  0.00000000000E+00  0.00000000000E+00  0.45593999997E+02  0.45594000000E+02  0.51100000000E-03 0. -1.
         11   -1    0    0    0    0 -0.00000000000E+00 -0.00000000000E+00 -0.45593999997E+02  0.45594000000E+02  0.51100000000E-03 0.  1.
    9900012    2    1    2    0    0  0.19282382438E+00  0.53931256438E-01 -0.11631490593E+01  0.90007743527E+02  0.90000004942E+02 0.  0.
         12    1    1    2    0    0 -0.19282382438E+00 -0.53931256438E-01  0.11631490593E+01  0.11802564729E+01  0.00000000000E+00 0. -1.
         11    1    3    3    0    0  0.84780840783E+00  0.39446315710E+01 -0.26783976228E+01  0.48427999560E+01  0.51100000000E-03 0. -1.
        -11    1    3    3    0    0  0.12818068438E+02  0.32769579547E+02 -0.20101549882E+02  0.40524320230E+02  0.51100000000E-03 0.  1.
         12    1    3    3    0    0 -0.13473053022E+02 -0.36660279862E+02  0.21616798446E+02  0.44640623341E+02  0.00000000000E+00 0. -1.
</event>
<event>
 7    1  0.4096472E-015  0.9000793E+02  0.7816164E-02  0.1186339E+00
        -11   -1    0    0    0    0  0.00000000000E+00  0.00000000000E+00  0.45593999997E+02  0.45594000000E+02  0.51100000000E-03 0.  1.
         11   -1    0    0    0    0 -0.00000000000E+00 -0.00000000000E+00 -0.45593999997E+02  0.45594000000E+02  0.51100000000E-03 0. -1.
    9900012    2    1    2    0    0 -0.10750234853E+01 -0.15329246218E+00  0.46193506376E+00  0.90007933021E+02  0.90000196936E+02 0.  0.
         12    1    1    2    0    0  0.10750234853E+01  0.15329246218E+00 -0.46193506376E+00  0.11800669794E+01  0.00000000000E+00 0. -1.
         11    1    3    3    0    0  0.29301839229E+01  0.91842985157E+01  0.25885841232E+01  0.99818878511E+01  0.51100000000E-03 0. -1.
        -11    1    3    3    0    0 -0.20384193194E+02  0.25060930160E+02  0.17954899333E+02  0.36958679129E+02  0.51100000000E-03 0.  1.
         12    1    3    3    0    0  0.16378985786E+02 -0.34398521138E+02 -0.20081548392E+02  0.43067366040E+02  0.00000000000E+00 0. -1.
</event>
<event>
 7    1  0.4096472E-015  0.9000775E+02  0.7816164E-02  0.1186339E+00
        -11   -1    0    0    0    0  0.00000000000E+00  0.00000000000E+00  0.45593999997E+02  0.45594000000E+02  0.51100000000E-03 0. -1.
         11   -1    0    0    0    0 -0.00000000000E+00 -0.00000000000E+00 -0.45593999997E+02  0.45594000000E+02  0.51100000000E-03 0.  1.
    9900012    2    1    2    0    0 -0.18424744578E+00 -0.11654824510E+01  0.26329795863E-01  0.90007750144E+02  0.90000011646E+02 0.  0.
         12    1    1    2    0    0  0.18424744578E+00  0.11654824510E+01 -0.26329795863E-01  0.11802498562E+01  0.00000000000E+00 0. -1.
         11    1    3    3    0    0  0.25590217107E+02 -0.26506084526E+02 -0.15138805287E+02  0.39832338047E+02  0.51100000000E-03 0. -1.
        -11    1    3    3    0    0  0.70890319597E+01  0.65736452087E+01  0.81720370013E+00  0.97023197022E+01  0.51100000000E-03 0.  1.
        -12    1    3    3    0    0 -0.32863496513E+02  0.18766956866E+02  0.14347931383E+02  0.40473092395E+02  0.00000000000E+00 0.  1.
</event>
<event>
 7    1  0.4096472E-015  0.9000773E+02  0.7816164E-02  0.1186339E+00
        -11   -1    0    0    0    0  0.00000000000E+00  0.00000000000E+00  0.45593999997E+02  0.45594000000E+02  0.51100000000E-03 0. -1.
         11   -1    0    0    0    0 -0.00000000000E+00 -0.00000000000E+00 -0.45593999997E+02  0.45594000000E+02  0.51100000000E-03 0.  1.
    9900012    2    1    2    0    0 -0.72802420017E+00 -0.28569522739E-01 -0.92854909221E+00  0.90007729323E+02  0.89999990550E+02 0.  0.
         12    1    1    2    0    0  0.72802420017E+00  0.28569522739E-01  0.92854909221E+00  0.11802706767E+01  0.00000000000E+00 0. -1.
         11    1    3    3    0    0 -0.24566563277E+01  0.90566843228E+01 -0.27563858214E+01  0.97804066527E+01  0.51100000000E-03 0. -1.
        -11    1    3    3    0    0  0.17493947965E+02 -0.73726719426E+01 -0.35174235238E+02  0.39970255588E+02  0.51100000000E-03 0.  1.
         12    1    3    3    0    0 -0.15765315837E+02 -0.17125819030E+01  0.37002071967E+02  0.40257067082E+02  0.00000000000E+00 0. -1.
</event>
<event>
 7    1  0.4096472E-015  0.9000768E+02  0.7816164E-02  0.1186339E+00
        -11   -1    0    0    0    0  0.00000000000E+00  0.00000000000E+00  0.45593999997E+02  0.45594000000E+02  0.51100000000E-03 0.  1.
         11   -1    0    0    0    0 -0.00000000000E+00 -0.00000000000E+00 -0.45593999997E+02  0.45594000000E+02  0.51100000000E-03 0. -1.
    9900012    2    1    2    0    0  0.35649540109E+00  0.68468508266E+00  0.89289925193E+00  0.90007681523E+02  0.89999942119E+02 0.  0.
         12    1    1    2    0    0 -0.35649540109E+00 -0.68468508266E+00 -0.89289925193E+00  0.11803184772E+01  0.00000000000E+00 0. -1.
         11    1    3    3    0    0  0.16231058907E+02  0.33381897534E+02 -0.43627639725E+00  0.37121270096E+02  0.51100000000E-03 0. -1.
        -11    1    3    3    0    0 -0.26791215928E+01  0.87992729637E+01  0.16299577792E+01  0.93413949612E+01  0.51100000000E-03 0.  1.
        -12    1    3    3    0    0 -0.13195441913E+02 -0.41496485415E+02 -0.30078213006E+00  0.43545016465E+02  0.00000000000E+00 0.  1.
</event>
<event>
 7    1  0.4096472E-015  0.9000779E+02  0.7816164E-02  0.1186339E+00
        -11   -1    0    0    0    0  0.00000000000E+00  0.00000000000E+00  0.45593999997E+02  0.45594000000E+02  0.51100000000E-03 0. -1.
         11   -1    0    0    0    0 -0.00000000000E+00 -0.00000000000E+00 -0.45593999997E+02  0.45594000000E+02  0.51100000000E-03 0.  1.
    9900012    2    1    2    0    0 -0.97622944394E+00  0.25900778838E+00 -0.61056304580E+00  0.90007789767E+02  0.90000051792E+02 0.  0.
         12    1    1    2    0    0  0.97622944394E+00 -0.25900778838E+00  0.61056304580E+00  0.11802102332E+01  0.00000000000E+00 0. -1.
         11    1    3    3    0    0 -0.55879195946E+01  0.19218542294E+01  0.71876272321E+01  0.93048565042E+01  0.51100000000E-03 0. -1.
        -11    1    3    3    0    0 -0.73936462208E+01 -0.35238017772E+02  0.14313883760E+02  0.38746240715E+02  0.51100000000E-03 0.  1.
         12    1    3    3    0    0  0.12005336371E+02  0.33575171331E+02 -0.22112074038E+02  0.41956692548E+02  0.00000000000E+00 0. -1.
</event>
<event>
 7    1  0.4096472E-015  0.9000776E+02  0.7816164E-02  0.1186339E+00
        -11   -1    0    0    0    0  0.00000000000E+00  0.00000000000E+00  0.45593999997E+02  0.45594000000E+02  0.51100000000E-03 0.  1.
         11   -1    0    0    0    0 -0.00000000000E+00 -0.00000000000E+00 -0.45593999997E+02  0.45594000000E+02  0.51100000000E-03 0. -1.
    9900012    2    1    2    0    0 -0.94450259429E+00  0.44470254346E+00  0.55057214815E+00  0.90007756299E+02  0.90000017882E+02 0.  0.
         12    1    1    2    0    0  0.94450259429E+00 -0.44470254346E+00 -0.55057214815E+00  0.11802437007E+01  0.00000000000E+00 0. -1.
         11    1    3    3    0    0  0.20196452951E+01 -0.66458046500E+01  0.31887809304E+01  0.76429059033E+01  0.51100000000E-03 0. -1.
        -11    1    3    3    0    0  0.26714380691E+02 -0.26227824826E+02 -0.44961012961E+01  0.37706390147E+02  0.51100000000E-03 0.  1.
         12    1    3    3    0    0 -0.29678528580E+02  0.33318332019E+02  0.18578925139E+01  0.44658460249E+02  0.00000000000E+00 0. -1.
</event>
<event>
 7    1  0.4096472E-015  0.9000777E+02  0.7816164E-02  0.1186339E+00
        -11   -1    0    0    0    0  0.00000000000E+00  0.00000000000E+00  0.45593999997E+02  0.45594000000E+02  0.51100000000E-03 0. -1.
         11   -1    0    0    0    0 -0.00000000000E+00 -0.00000000000E+00 -0.45593999997E+02  0.45594000000E+02  0.51100000000E-03 0.  1.
    9900012    2    1    2    0    0  0.48125604144E+00 -0.73821551422E+00  0.78509254438E+00  0.90007771282E+02  0.90000033063E+02 0.  0.
         12    1    1    2    0    0 -0.48125604144E+00  0.73821551422E+00 -0.78509254438E+00  0.11802287177E+01  0.00000000000E+00 0. -1.
         11    1    3    3    0    0 -0.23070135213E+02 -0.31689525890E+02  0.36737246442E+01  0.39369448090E+02  0.51100000000E-03 0. -1.
        -11    1    3    3    0    0  0.28517302878E+01 -0.25218301491E+01 -0.99500642999E+01  0.10653439481E+02  0.51100000000E-03 0.  1.
        -12    1    3    3    0    0  0.20699660967E+02  0.33473140525E+02  0.70614322001E+01  0.39984883712E+02  0.00000000000E+00 0.  1.
</event>
<event>
 7    1  0.4096472E-015  0.9000867E+02  0.7816164E-02  0.1186337E+00
        -11   -1    0    0    0    0  0.00000000000E+00  0.00000000000E+00  0.45593999997E+02  0.45594000000E+02  0.51100000000E-03 0.  1.
         11   -1    0    0    0    0 -0.00000000000E+00 -0.00000000000E+00 -0.45593999997E+02  0.45594000000E+02  0.51100000000E-03 0. -1.
    9900012    2    1    2    0    0  0.48175607439E+00  0.10742050408E+01  0.69328678847E-01  0.90008673137E+02  0.90000946817E+02 0.  0.
         12    1    1    2    0    0 -0.48175607439E+00 -0.10742050408E+01 -0.69328678847E-01  0.11793268633E+01  0.00000000000E+00 0. -1.
         11    1    3    3    0    0  0.27787262432E+02  0.12571515167E+01 -0.89693987524E+01  0.29226058538E+02  0.51100000000E-03 0. -1.
        -11    1    3    3    0    0  0.85097591740E+01 -0.15166200141E+02 -0.70403674637E+01  0.18761567157E+02  0.51100000000E-03 0.  1.
        -12    1    3    3    0    0 -0.35815265532E+02  0.14983253665E+02  0.16079094895E+02  0.42021047442E+02  0.00000000000E+00 0.  1.
</event>
<event>
 7    1  0.4096472E-015  0.9000772E+02  0.7816164E-02  0.1186339E+00
        -11   -1    0    0    0    0  0.00000000000E+00  0.00000000000E+00  0.45593999997E+02  0.45594000000E+02  0.51100000000E-03 0.  1.
         11   -1    0    0    0    0 -0.00000000000E+00 -0.00000000000E+00 -0.45593999997E+02  0.45594000000E+02  0.51100000000E-03 0. -1.
    9900012    2    1    2    0    0 -0.40937578562E+00 -0.69693658817E+00  0.86008912953E+00  0.90007719333E+02  0.89999980428E+02 0.  0.
         12    1    1    2    0    0  0.40937578562E+00  0.69693658817E+00 -0.86008912953E+00  0.11802806668E+01  0.00000000000E+00 0. -1.
         11    1    3    3    0    0  0.36654366737E+01  0.12090872222E+02 -0.39733856458E+01  0.13244335048E+02  0.51100000000E-03 0. -1.
        -11    1    3    3    0    0 -0.28076635745E+01  0.30370352499E+02  0.12408125861E+02  0.32927236041E+02  0.51100000000E-03 0.  1.
         12    1    3    3    0    0 -0.12671488849E+01 -0.43158161309E+02 -0.75746510854E+01  0.43836148245E+02  0.00000000000E+00 0. -1.
</event>
<event>
 7    1  0.4096472E-015  0.9000770E+02  0.7816164E-02  0.1186339E+00
        -11   -1    0    0    0    0  0.00000000000E+00  0.00000000000E+00  0.45593999997E+02  0.45594000000E+02  0.51100000000E-03 0.  1.
         11   -1    0    0    0    0 -0.00000000000E+00 -0.00000000000E+00 -0.45593999997E+02  0.45594000000E+02  0.51100000000E-03 0. -1.
    9900012    2    1    2    0    0 -0.52294649860E+00 -0.51937778577E+00  0.92188531451E+00  0.90007703911E+02  0.89999964803E+02 0.  0.
         12    1    1    2    0    0  0.52294649860E+00  0.51937778577E+00 -0.92188531451E+00  0.11802960891E+01  0.00000000000E+00 0. -1.
         11    1    3    3    0    0  0.79990579024E+01  0.10371647506E+01 -0.65838240572E+01  0.10411886358E+02  0.51100000000E-03 0. -1.
        -11    1    3    3    0    0  0.22131216531E+02 -0.11130424301E+02  0.31089891135E+02  0.39752464343E+02  0.51100000000E-03 0.  1.
         12    1    3    3    0    0 -0.30653220932E+02  0.95738817649E+01 -0.23584181764E+02  0.39843353210E+02  0.00000000000E+00 0. -1.
</event>
<event>
 7    1  0.4096472E-015  0.9000775E+02  0.7816164E-02  0.1186339E+00
        -11   -1    0    0    0    0  0.00000000000E+00  0.00000000000E+00  0.45593999997E+02  0.45594000000E+02  0.51100000000E-03 0.  1.
         11   -1    0    0    0    0 -0.00000000000E+00 -0.00000000000E+00 -0.45593999997E+02  0.45594000000E+02  0.51100000000E-03 0. -1.
    9900012    2    1    2    0    0 -0.11584433988E+01 -0.22316368944E+00 -0.34726366044E-01  0.90007746188E+02  0.90000007638E+02 0.  0.
         12    1    1    2    0    0  0.11584433988E+01  0.22316368944E+00  0.34726366044E-01  0.11802538121E+01  0.00000000000E+00 0. -1.
         11    1    3    3    0    0  0.36153545194E+01  0.77965423094E+01  0.83431816714E+00  0.86344048636E+01  0.51100000000E-03 0. -1.
        -11    1    3    3    0    0  0.19112751086E+02 -0.70378500197E+01  0.33679959736E+02  0.39359475036E+02  0.51100000000E-03 0.  1.
         12    1    3    3    0    0 -0.23886549004E+02 -0.98185597906E+00 -0.34549004270E+02  0.42013866289E+02  0.00000000000E+00 0. -1.
</event>
<event>
 7    1  0.4096472E-015  0.9000765E+02  0.7816164E-02  0.1186339E+00
        -11   -1    0    0    0    0  0.00000000000E+00  0.00000000000E+00  0.45593999997E+02  0.45594000000E+02  0.51100000000E-03 0.  1.
         11   -1    0    0    0    0 -0.00000000000E+00 -0.00000000000E+00 -0.45593999997E+02  0.45594000000E+02  0.51100000000E-03 0. -1.
    9900012    2    1    2    0    0  0.10631213028E+01 -0.16377853577E+00  0.48597340661E+00  0.90007652396E+02  0.89999912608E+02 0.  0.
         12    1    1    2    0    0 -0.10631213028E+01  0.16377853577E+00 -0.48597340661E+00  0.11803476036E+01  0.00000000000E+00 0. -1.
         11    1    3    3    0    0  0.73842355679E+01 -0.31878396149E+01  0.44885705149E+01  0.92106743435E+01  0.51100000000E-03 0. -1.
        -11    1    3    3    0    0  0.28784285267E+02  0.25606396017E+02  0.22429367211E+01  0.38590845556E+02  0.51100000000E-03 0.  1.
         12    1    3    3    0    0 -0.35105399532E+02 -0.22582334938E+02 -0.62455338294E+01  0.42206132497E+02  0.00000000000E+00 0. -1.
</event>
<event>
 7    1  0.4096472E-015  0.9000781E+02  0.7816164E-02  0.1186339E+00
        -11   -1    0    0    0    0  0.00000000000E+00  0.00000000000E+00  0.45593999997E+02  0.45594000000E+02  0.51100000000E-03 0.  1.
         11   -1    0    0    0    0 -0.00000000000E+00 -0.00000000000E+00 -0.45593999997E+02  0.45594000000E+02  0.51100000000E-03 0. -1.
    9900012    2    1    2    0    0 -0.11127808508E+01 -0.29231329088E+00 -0.26291786687E+00  0.90007807606E+02  0.90000069866E+02 0.  0.
         12    1    1    2    0    0  0.11127808508E+01  0.29231329088E+00  0.26291786687E+00  0.11801923939E+01  0.00000000000E+00 0. -1.
         11    1    3    3    0    0  0.27885539006E+00  0.22426618736E+01 -0.10967674560E+02  0.11198088146E+02  0.51100000000E-03 0. -1.
        -11    1    3    3    0    0 -0.10582651823E+02 -0.37719248974E+02  0.15498860914E+02  0.42130143042E+02  0.51100000000E-03 0.  1.
         12    1    3    3    0    0  0.91910155822E+01  0.35184273810E+02 -0.47941042211E+01  0.36679576419E+02  0.00000000000E+00 0. -1.
</event>
<event>
 7    1  0.4096472E-015  0.9000762E+02  0.7816164E-02  0.1186339E+00
        -11   -1    0    0    0    0  0.00000000000E+00  0.00000000000E+00  0.45593999997E+02  0.45594000000E+02  0.51100000000E-03 0. -1.
         11   -1    0    0    0    0 -0.00000000000E+00 -0.00000000000E+00 -0.45593999997E+02  0.45594000000E+02  0.51100000000E-03 0.  1.
    9900012    2    1    2    0    0 -0.36034650937E+00  0.40204104992E+00 -0.10496765350E+01  0.90007615554E+02  0.89999875279E+02 0.  0.
         12    1    1    2    0    0  0.36034650937E+00 -0.40204104992E+00  0.10496765350E+01  0.11803844462E+01  0.00000000000E+00 0. -1.
         11    1    3    3    0    0 -0.55544257956E+01 -0.21917808177E+01  0.80811557843E+01  0.10047916607E+02  0.51100000000E-03 0. -1.
        -11    1    3    3    0    0 -0.36818625229E+02  0.37507491095E+01 -0.82716742493E+01  0.37922287349E+02  0.51100000000E-03 0.  1.
         12    1    3    3    0    0  0.42012704515E+02 -0.11569272419E+01 -0.85915806999E+00  0.42037411598E+02  0.00000000000E+00 0. -1.
</event>
<event>
 7    1  0.4096472E-015  0.9000768E+02  0.7816164E-02  0.1186339E+00
        -11   -1    0    0    0    0  0.00000000000E+00  0.00000000000E+00  0.45593999997E+02  0.45594000000E+02  0.51100000000E-03 0.  1.
         11   -1    0    0    0    0 -0.00000000000E+00 -0.00000000000E+00 -0.45593999997E+02  0.45594000000E+02  0.51100000000E-03 0. -1.
    9900012    2    1    2    0    0  0.49973853539E+00  0.67511382396E+00  0.82923595403E+00  0.90007682438E+02  0.89999943046E+02 0.  0.
         12    1    1    2    0    0 -0.49973853539E+00 -0.67511382396E+00 -0.82923595403E+00  0.11803175617E+01  0.00000000000E+00 0. -1.
         11    1    3    3    0    0 -0.37420771149E+02 -0.75631327224E+01 -0.55428948899E+01  0.38577697884E+02  0.51100000000E-03 0. -1.
        -11    1    3    3    0    0 -0.32135592227E+01  0.22966021576E+01  0.89564519751E+01  0.97887372317E+01  0.51100000000E-03 0.  1.
        -12    1    3    3    0    0  0.41134068907E+02  0.59416443888E+01 -0.25843211311E+01  0.41641247323E+02  0.00000000000E+00 0.  1.
</event>
<event>
 7    1  0.4096472E-015  0.9000773E+02  0.7816164E-02  0.1186339E+00
        -11   -1    0    0    0    0  0.00000000000E+00  0.00000000000E+00  0.45593999997E+02  0.45594000000E+02  0.51100000000E-03 0. -1.
         11   -1    0    0    0    0 -0.00000000000E+00 -0.00000000000E+00 -0.45593999997E+02  0.45594000000E+02  0.51100000000E-03 0.  1.
    9900012    2    1    2    0    0  0.43922222880E+00  0.33543567146E+00 -0.10428773564E+01  0.90007734591E+02  0.89999995887E+02 0.  0.
         12    1    1    2    0    0 -0.43922222880E+00 -0.33543567146E+00  0.10428773564E+01  0.11802654093E+01  0.00000000000E+00 0. -1.
         11    1    3    3    0    0  0.20460732127E+01  0.93592084105E+01  0.60747324996E+01  0.11343878211E+02  0.51100000000E-03 0. -1.
        -11    1    3    3    0    0 -0.22937255953E+02  0.10660079435E+02 -0.31751571408E+02  0.40594547557E+02  0.51100000000E-03 0.  1.
         12    1    3    3    0    0  0.21330404969E+02 -0.19683852174E+02  0.24633961552E+02  0.38069308823E+02  0.00000000000E+00 0. -1.
</event>
<event>
 7    1  0.4096472E-015  0.9000773E+02  0.7816164E-02  0.1186339E+00
        -11   -1    0    0    0    0  0.00000000000E+00  0.00000000000E+00  0.45593999997E+02  0.45594000000E+02  0.51100000000E-03 0. -1.
         11   -1    0    0    0    0 -0.00000000000E+00 -0.00000000000E+00 -0.45593999997E+02  0.45594000000E+02  0.51100000000E-03 0.  1.
    9900012    2    1    2    0    0  0.99684853907E+00  0.21644632250E+00 -0.59369914612E+00  0.90007731091E+02  0.89999992342E+02 0.  0.
         12    1    1    2    0    0 -0.99684853907E+00 -0.21644632250E+00  0.59369914612E+00  0.11802689085E+01  0.00000000000E+00 0. -1.
         11    1    3    3    0    0  0.90826647794E+01  0.38081931661E+02 -0.13259826908E+02  0.41334626265E+02  0.51100000000E-03 0. -1.
        -11    1    3    3    0    0 -0.88760095301E+01  0.13928756466E-02  0.49249096170E+00  0.88896622392E+01  0.51100000000E-03 0.  1.
        -12    1    3    3    0    0  0.79019328971E+00 -0.37866878215E+02  0.12173636800E+02  0.39783442587E+02  0.00000000000E+00 0.  1.
</event>
<event>
 7    1  0.4096472E-015  0.9000778E+02  0.7816164E-02  0.1186339E+00
        -11   -1    0    0    0    0  0.00000000000E+00  0.00000000000E+00  0.45593999997E+02  0.45594000000E+02  0.51100000000E-03 0.  1.
         11   -1    0    0    0    0 -0.00000000000E+00 -0.00000000000E+00 -0.45593999997E+02  0.45594000000E+02  0.51100000000E-03 0. -1.
    9900012    2    1    2    0    0  0.44293037783E+00 -0.29156059563E+00  0.10543787377E+01  0.90007784162E+02  0.90000046113E+02 0.  0.
         12    1    1    2    0    0 -0.44293037783E+00  0.29156059563E+00 -0.10543787377E+01  0.11802158375E+01  0.00000000000E+00 0. -1.
         11    1    3    3    0    0 -0.14762348188E+02 -0.26603495375E+02 -0.22370444741E+02  0.37763867498E+02  0.51100000000E-03 0. -1.
        -11    1    3    3    0    0  0.66184788637E+01 -0.16007313076E+01 -0.72117027320E+01  0.99184303065E+01  0.51100000000E-03 0.  1.
        -12    1    3    3    0    0  0.85867997018E+01  0.27912666087E+02  0.30636526211E+02  0.42325486358E+02  0.00000000000E+00 0.  1.
</event>
<event>
 7    1  0.4096472E-015  0.9000781E+02  0.7816164E-02  0.1186339E+00
        -11   -1    0    0    0    0  0.00000000000E+00  0.00000000000E+00  0.45593999997E+02  0.45594000000E+02  0.51100000000E-03 0. -1.
         11   -1    0    0    0    0 -0.00000000000E+00 -0.00000000000E+00 -0.45593999997E+02  0.45594000000E+02  0.51100000000E-03 0.  1.
    9900012    2    1    2    0    0 -0.48230081184E+00 -0.70856787188E+00  0.81127241505E+00  0.90007811272E+02  0.90000073581E+02 0.  0.
         12    1    1    2    0    0  0.48230081184E+00  0.70856787188E+00 -0.81127241505E+00  0.11801887279E+01  0.00000000000E+00 0. -1.
         11    1    3    3    0    0 -0.35136850058E+01  0.37307160274E+02  0.62624926903E+01  0.37991959741E+02  0.51100000000E-03 0. -1.
        -11    1    3    3    0    0  0.73784476322E+01  0.42686887493E+01 -0.41692395600E+01  0.94892440094E+01  0.51100000000E-03 0.  1.
        -12    1    3    3    0    0 -0.43470634382E+01 -0.42284416895E+02 -0.12819807152E+01  0.42526607521E+02  0.00000000000E+00 0.  1.
</event>
<event>
 7    1  0.4096472E-015  0.9000799E+02  0.7816164E-02  0.1186339E+00
        -11   -1    0    0    0    0  0.00000000000E+00  0.00000000000E+00  0.45593999997E+02  0.45594000000E+02  0.51100000000E-03 0.  1.
         11   -1    0    0    0    0 -0.00000000000E+00 -0.00000000000E+00 -0.45593999997E+02  0.45594000000E+02  0.51100000000E-03 0. -1.
    9900012    2    1    2    0    0 -0.44362454178E+00 -0.83502671840E+00  0.70594334357E+00  0.90007987984E+02  0.90000252625E+02 0.  0.
         12    1    1    2    0    0  0.44362454178E+00  0.83502671840E+00 -0.70594334357E+00  0.11800120164E+01  0.00000000000E+00 0. -1.
         11    1    3    3    0    0 -0.22023788187E+02 -0.31382982351E+02 -0.95475808247E+01  0.39510696364E+02  0.51100000000E-03 0. -1.
        -11    1    3    3    0    0  0.15785616734E+02 -0.13893655683E+01 -0.16330085134E+01  0.15930560236E+02  0.51100000000E-03 0.  1.
        -12    1    3    3    0    0  0.57945469104E+01  0.31937321200E+02  0.11886532682E+02  0.34566731384E+02  0.00000000000E+00 0.  1.
</event>
<event>
 7    1  0.4096472E-015  0.9000770E+02  0.7816164E-02  0.1186339E+00
        -11   -1    0    0    0    0  0.00000000000E+00  0.00000000000E+00  0.45593999997E+02  0.45594000000E+02  0.51100000000E-03 0.  1.
         11   -1    0    0    0    0 -0.00000000000E+00 -0.00000000000E+00 -0.45593999997E+02  0.45594000000E+02  0.51100000000E-03 0. -1.
    9900012    2    1    2    0    0 -0.84657019994E+00  0.27178088616E+00  0.77624980413E+00  0.90007699313E+02  0.89999960144E+02 0.  0.
         12    1    1    2    0    0  0.84657019994E+00 -0.27178088616E+00 -0.77624980413E+00  0.11803006871E+01  0.00000000000E+00 0. -1.
         11    1    3    3    0    0  0.19705608758E+02 -0.20301974300E+02 -0.27525011522E+02  0.39472869626E+02  0.51100000000E-03 0. -1.
        -11    1    3    3    0    0 -0.21825577050E+01 -0.77792319260E+01  0.52133590929E+01  0.96155665868E+01  0.51100000000E-03 0.  1.
        -12    1    3    3    0    0 -0.18369621253E+02  0.28352987112E+02  0.23087902233E+02  0.40919263100E+02  0.00000000000E+00 0.  1.
</event>
<event>
 7    1  0.4096472E-015  0.9000765E+02  0.7816164E-02  0.1186339E+00
        -11   -1    0    0    0    0  0.00000000000E+00  0.00000000000E+00  0.45593999997E+02  0.45594000000E+02  0.51100000000E-03 0. -1.
         11   -1    0    0    0    0 -0.00000000000E+00 -0.00000000000E+00 -0.45593999997E+02  0.45594000000E+02  0.51100000000E-03 0.  1.
    9900012    2    1    2    0    0 -0.37692134714E+00 -0.32856474519E+00 -0.10692067555E+01  0.90007649383E+02  0.89999909554E+02 0.  0.
         12    1    1    2    0    0  0.37692134714E+00  0.32856474519E+00  0.10692067555E+01  0.11803506173E+01  0.00000000000E+00 0. -1.
         11    1    3    3    0    0  0.32978305205E+01 -0.21707087431E+01 -0.35558952188E+01  0.53133843882E+01  0.51100000000E-03 0. -1.
        -11    1    3    3    0    0  0.11408161855E+02  0.40694336791E+02  0.67530613491E+01  0.42799287863E+02  0.51100000000E-03 0.  1.
         12    1    3    3    0    0 -0.15082913723E+02 -0.38852192793E+02 -0.42663728859E+01  0.41894977131E+02  0.00000000000E+00 0. -1.
</event>
<event>
 7    1  0.4096472E-015  0.9000773E+02  0.7816164E-02  0.1186339E+00
        -11   -1    0    0    0    0  0.00000000000E+00  0.00000000000E+00  0.45593999997E+02  0.45594000000E+02  0.51100000000E-03 0.  1.
         11   -1    0    0    0    0 -0.00000000000E+00 -0.00000000000E+00 -0.45593999997E+02  0.45594000000E+02  0.51100000000E-03 0. -1.
    9900012    2    1    2    0    0  0.31589850345E+00 -0.89505577517E+00  0.70150911914E+00  0.90007732340E+02  0.89999993607E+02 0.  0.
         12    1    1    2    0    0 -0.31589850345E+00  0.89505577517E+00 -0.70150911914E+00  0.11802676601E+01  0.00000000000E+00 0. -1.
         11    1    3    3    0    0 -0.15049451893E+02  0.41025099686E+01 -0.28548051150E+02  0.32531643289E+02  0.51100000000E-03 0. -1.
        -11    1    3    3    0    0 -0.73603246988E+01 -0.18162849343E+02  0.21125886355E+01  0.19711075742E+02  0.51100000000E-03 0.  1.
        -12    1    3    3    0    0  0.22725675095E+02  0.13165283599E+02  0.27136971634E+02  0.37765013309E+02  0.00000000000E+00 0.  1.
</event>
<event>
 7    1  0.4096472E-015  0.9000783E+02  0.7816164E-02  0.1186339E+00
        -11   -1    0    0    0    0  0.00000000000E+00  0.00000000000E+00  0.45593999997E+02  0.45594000000E+02  0.51100000000E-03 0.  1.
         11   -1    0    0    0    0 -0.00000000000E+00 -0.00000000000E+00 -0.45593999997E+02  0.45594000000E+02  0.51100000000E-03 0. -1.
    9900012    2    1    2    0    0  0.25197728076E+00 -0.39359293527E+00  0.10836979660E+01  0.90007826610E+02  0.90000089121E+02 0.  0.
         12    1    1    2    0    0 -0.25197728076E+00  0.39359293527E+00 -0.10836979660E+01  0.11801733899E+01  0.00000000000E+00 0. -1.
         11    1    3    3    0    0  0.16266768317E+02  0.18397356483E+02 -0.25458149052E+02  0.35372133530E+02  0.51100000000E-03 0. -1.
        -11    1    3    3    0    0  0.67655666819E+01  0.69651716122E+01 -0.20408044381E+01  0.99222674390E+01  0.51100000000E-03 0.  1.
        -12    1    3    3    0    0 -0.22780357718E+02 -0.25756121031E+02  0.28582651456E+02  0.44713425641E+02  0.00000000000E+00 0.  1.
</event>
<event>
 7    1  0.4802495E-015  0.9000777E+02  0.7816164E-02  0.1186339E+00
        -11   -1    0    0    0    0  0.00000000000E+00  0.00000000000E+00  0.45593999997E+02  0.45594000000E+02  0.51100000000E-03 0. -1.
         11   -1    0    0    0    0 -0.00000000000E+00 -0.00000000000E+00 -0.45593999997E+02  0.45594000000E+02  0.51100000000E-03 0.  1.
    9900012    2    1    2    0    0 -0.79173049885E+00 -0.57018093857E+00 -0.66406970336E+00  0.90007774574E+02  0.90000036398E+02 0.  0.
         12    1    1    2    0    0  0.79173049885E+00  0.57018093857E+00  0.66406970336E+00  0.11802254261E+01  0.00000000000E+00 0. -1.
         11    1    3    3    0    0  0.33680967774E+02  0.13200228304E+02  0.43193539624E+01  0.36432271908E+02  0.51100000000E-03 0. -1.
        -11    1    3    3    0    0  0.41171354390E+01  0.79320723231E+01 -0.22585056411E+01  0.92178860676E+01  0.51100000000E-03 0.  1.
        -12    1    3    3    0    0 -0.38589833712E+02 -0.21702481566E+02 -0.27249180247E+01  0.44357616598E+02  0.00000000000E+00 0.  1.
</event>
<event>
 7    1  0.4096472E-015  0.9000771E+02  0.7816164E-02  0.1186339E+00
        -11   -1    0    0    0    0  0.00000000000E+00  0.00000000000E+00  0.45593999997E+02  0.45594000000E+02  0.51100000000E-03 0.  1.
         11   -1    0    0    0    0 -0.00000000000E+00 -0.00000000000E+00 -0.45593999997E+02  0.45594000000E+02  0.51100000000E-03 0. -1.
    9900012    2    1    2    0    0  0.21957174921E+00 -0.10337489212E+01  0.52558407105E+00  0.90007708849E+02  0.89999969806E+02 0.  0.
         12    1    1    2    0    0 -0.21957174921E+00  0.10337489212E+01 -0.52558407105E+00  0.11802911509E+01  0.00000000000E+00 0. -1.
         11    1    3    3    0    0  0.61189689010E+01 -0.13662726638E+01 -0.36373724768E+02  0.36910111557E+02  0.51100000000E-03 0. -1.
        -11    1    3    3    0    0 -0.39986817576E+01 -0.52778682746E+01 -0.65101298664E+01  0.92858570128E+01  0.51100000000E-03 0.  1.
        -12    1    3    3    0    0 -0.19007153941E+01  0.56103920173E+01  0.43409438705E+02  0.43811740279E+02  0.00000000000E+00 0.  1.
</event>
<event>
 7    1  0.4096472E-015  0.9000774E+02  0.7816164E-02  0.1186339E+00
        -11   -1    0    0    0    0  0.00000000000E+00  0.00000000000E+00  0.45593999997E+02  0.45594000000E+02  0.51100000000E-03 0.  1.
         11   -1    0    0    0    0 -0.00000000000E+00 -0.00000000000E+00 -0.45593999997E+02  0.45594000000E+02  0.51100000000E-03 0. -1.
    9900012    2    1    2    0    0  0.73033687932E+00  0.86231901881E+00  0.34062366308E+00  0.90007741330E+02  0.90000002716E+02 0.  0.
         12    1    1    2    0    0 -0.73033687932E+00 -0.86231901881E+00 -0.34062366308E+00  0.11802586697E+01  0.00000000000E+00 0. -1.
         11    1    3    3    0    0  0.14395581745E+02 -0.17469776073E+02 -0.96593740957E+01  0.24611569596E+02  0.51100000000E-03 0. -1.
        -11    1    3    3    0    0  0.24004349453E+02  0.10172731358E+02  0.46790524099E+01  0.26487483604E+02  0.51100000000E-03 0.  1.
        -12    1    3    3    0    0 -0.37669594318E+02  0.81593637337E+01  0.53209453489E+01  0.38908688131E+02  0.00000000000E+00 0.  1.
</event>
<event>
 7    1  0.4096472E-015  0.9000777E+02  0.7816164E-02  0.1186339E+00
        -11   -1    0    0    0    0  0.00000000000E+00  0.00000000000E+00  0.45593999997E+02  0.45594000000E+02  0.51100000000E-03 0.  1.
         11   -1    0    0    0    0 -0.00000000000E+00 -0.00000000000E+00 -0.45593999997E+02  0.45594000000E+02  0.51100000000E-03 0. -1.
    9900012    2    1    2    0    0  0.97878666434E-01  0.11759617549E+01 -0.21938649959E-01  0.90007767995E+02  0.90000029732E+02 0.  0.
         12    1    1    2    0    0 -0.97878666434E-01 -0.11759617549E+01  0.21938649959E-01  0.11802320054E+01  0.00000000000E+00 0. -1.
         11    1    3    3    0    0  0.56475830198E+01  0.82574425712E+01  0.84656387133E+00  0.10039781991E+02  0.51100000000E-03 0. -1.
        -11    1    3    3    0    0 -0.42992979106E+01  0.10349716811E+02  0.36786200669E+02  0.38455495843E+02  0.51100000000E-03 0.  1.
         12    1    3    3    0    0 -0.12504064428E+01 -0.17431197627E+02 -0.37654703190E+02  0.41512490161E+02  0.00000000000E+00 0. -1.
</event>
<event>
 7    1  0.4096472E-015  0.9000770E+02  0.7816164E-02  0.1186339E+00
        -11   -1    0    0    0    0  0.00000000000E+00  0.00000000000E+00  0.45593999997E+02  0.45594000000E+02  0.51100000000E-03 0. -1.
         11   -1    0    0    0    0 -0.00000000000E+00 -0.00000000000E+00 -0.45593999997E+02  0.45594000000E+02  0.51100000000E-03 0.  1.
    9900012    2    1    2    0    0  0.34796476536E+00  0.62628936822E-01 -0.11261033730E+01  0.90007698908E+02  0.89999959733E+02 0.  0.
         12    1    1    2    0    0 -0.34796476536E+00 -0.62628936822E-01  0.11261033730E+01  0.11803010923E+01  0.00000000000E+00 0. -1.
         11    1    3    3    0    0 -0.30538945680E+02 -0.20534908423E+02 -0.15747359517E+02  0.40028602264E+02  0.51100000000E-03 0. -1.
        -11    1    3    3    0    0 -0.53709222592E+01 -0.92099473209E+00  0.31060802929E+01  0.62723817054E+01  0.51100000000E-03 0.  1.
        -12    1    3    3    0    0  0.36257832705E+02  0.21518532092E+02  0.11515175852E+02  0.43706714938E+02  0.00000000000E+00 0.  1.
</event>
<event>
 7    1  0.4096472E-015  0.9000774E+02  0.7816164E-02  0.1186339E+00
        -11   -1    0    0    0    0  0.00000000000E+00  0.00000000000E+00  0.45593999997E+02  0.45594000000E+02  0.51100000000E-03 0.  1.
         11   -1    0    0    0    0 -0.00000000000E+00 -0.00000000000E+00 -0.45593999997E+02  0.45594000000E+02  0.51100000000E-03 0. -1.
    9900012    2    1    2    0    0  0.12794706555E+00  0.64150580414E+00  0.98240626389E+00  0.90007736379E+02  0.89999997699E+02 0.  0.
         12    1    1    2    0    0 -0.12794706555E+00 -0.64150580414E+00 -0.98240626389E+00  0.11802636213E+01  0.00000000000E+00 0. -1.
         11    1    3    3    0    0 -0.94251808126E+00  0.79737839775E+00  0.10444528789E+02  0.10517239872E+02  0.51100000000E-03 0. -1.
        -11    1    3    3    0    0  0.13443657646E+02  0.21924236446E+02  0.25573609894E+02  0.36268631046E+02  0.51100000000E-03 0.  1.
         12    1    3    3    0    0 -0.12373192499E+02 -0.22080109040E+02 -0.35035732419E+02  0.43221865461E+02  0.00000000000E+00 0. -1.
</event>
<event>
 7    1  0.4096472E-015  0.9000777E+02  0.7816164E-02  0.1186339E+00
        -11   -1    0    0    0    0  0.00000000000E+00  0.00000000000E+00  0.45593999997E+02  0.45594000000E+02  0.51100000000E-03 0. -1.
         11   -1    0    0    0    0 -0.00000000000E+00 -0.00000000000E+00 -0.45593999997E+02  0.45594000000E+02  0.51100000000E-03 0.  1.
    9900012    2    1    2    0    0 -0.11763847451E+01  0.92608780383E-01  0.22170256870E-01  0.90007767406E+02  0.90000029136E+02 0.  0.
         12    1    1    2    0    0  0.11763847451E+01 -0.92608780383E-01 -0.22170256870E-01  0.11802325936E+01  0.00000000000E+00 0. -1.
         11    1    3    3    0    0 -0.26420432141E+01 -0.91794032347E+01 -0.20729015485E+01  0.97743929316E+01  0.51100000000E-03 0. -1.
        -11    1    3    3    0    0 -0.24429059969E+02 -0.21013884097E+02  0.18483028135E+02  0.37148144303E+02  0.51100000000E-03 0.  1.
         12    1    3    3    0    0  0.25894718438E+02  0.30285896113E+02 -0.16387956329E+02  0.43085230172E+02  0.00000000000E+00 0. -1.
</event>
<event>
 7    1  0.4096472E-015  0.9000792E+02  0.7816164E-02  0.1186339E+00
        -11   -1    0    0    0    0  0.00000000000E+00  0.00000000000E+00  0.45593999997E+02  0.45594000000E+02  0.51100000000E-03 0.  1.
         11   -1    0    0    0    0 -0.00000000000E+00 -0.00000000000E+00 -0.45593999997E+02  0.45594000000E+02  0.51100000000E-03 0. -1.
    9900012    2    1    2    0    0  0.20816789141E+00  0.77228636988E+00  0.86766033966E+00  0.90007917557E+02  0.90000181268E+02 0.  0.
         12    1    1    2    0    0 -0.20816789141E+00 -0.77228636988E+00 -0.86766033966E+00  0.11800824434E+01  0.00000000000E+00 0. -1.
         11    1    3    3    0    0  0.25039675868E+01  0.78171441745E+01  0.63853605524E+01  0.10399539719E+02  0.51100000000E-03 0. -1.
        -11    1    3    3    0    0  0.28725293466E+02  0.18196643594E+02  0.11846611025E+02  0.36008367303E+02  0.51100000000E-03 0.  1.
         12    1    3    3    0    0 -0.31021093162E+02 -0.25241501399E+02 -0.17364311238E+02  0.43600010534E+02  0.00000000000E+00 0. -1.
</event>
<event>
 7    1  0.4096472E-015  0.9000779E+02  0.7816164E-02  0.1186339E+00
        -11   -1    0    0    0    0  0.00000000000E+00  0.00000000000E+00  0.45593999997E+02  0.45594000000E+02  0.51100000000E-03 0.  1.
         11   -1    0    0    0    0 -0.00000000000E+00 -0.00000000000E+00 -0.45593999997E+02  0.45594000000E+02  0.51100000000E-03 0. -1.
    9900012    2    1    2    0    0  0.82127125014E+00  0.82648898533E+00 -0.18795616070E+00  0.90007788990E+02  0.90000051005E+02 0.  0.
         12    1    1    2    0    0 -0.82127125014E+00 -0.82648898533E+00  0.18795616070E+00  0.11802110097E+01  0.00000000000E+00 0. -1.
         11    1    3    3    0    0  0.68054872250E+01  0.51526789385E+01  0.47779811772E+01  0.97823239060E+01  0.51100000000E-03 0. -1.
        -11    1    3    3    0    0  0.32189505496E+02  0.99328468449E+01  0.12444234455E+02  0.35912180133E+02  0.51100000000E-03 0.  1.
         12    1    3    3    0    0 -0.38173721470E+02 -0.14259036798E+02 -0.17410171792E+02  0.44313284951E+02  0.00000000000E+00 0. -1.
</event>
<event>
 7    1  0.4096472E-015  0.9000769E+02  0.7816164E-02  0.1186339E+00
        -11   -1    0    0    0    0  0.00000000000E+00  0.00000000000E+00  0.45593999997E+02  0.45594000000E+02  0.51100000000E-03 0.  1.
         11   -1    0    0    0    0 -0.00000000000E+00 -0.00000000000E+00 -0.45593999997E+02  0.45594000000E+02  0.51100000000E-03 0. -1.
    9900012    2    1    2    0    0 -0.75913088216E+00  0.84990874715E+00 -0.30741599199E+00  0.90007691071E+02  0.89999951794E+02 0.  0.
         12    1    1    2    0    0  0.75913088216E+00 -0.84990874715E+00  0.30741599199E+00  0.11803089286E+01  0.00000000000E+00 0. -1.
         11    1    3    3    0    0 -0.25209351864E+02 -0.55871449113E+01 -0.26679836915E+02  0.37128712713E+02  0.51100000000E-03 0. -1.
        -11    1    3    3    0    0 -0.29040376179E+01  0.73462422685E+01 -0.64103021773E+01  0.10173135417E+02  0.51100000000E-03 0.  1.
        -12    1    3    3    0    0  0.27354258600E+02 -0.90918861005E+00  0.32782723100E+02  0.42705842941E+02  0.00000000000E+00 0.  1.
</event>
<event>
 7    1  0.4096472E-015  0.9000770E+02  0.7816164E-02  0.1186339E+00
        -11   -1    0    0    0    0  0.00000000000E+00  0.00000000000E+00  0.45593999997E+02  0.45594000000E+02  0.51100000000E-03 0.  1.
         11   -1    0    0    0    0 -0.00000000000E+00 -0.00000000000E+00 -0.45593999997E+02  0.45594000000E+02  0.51100000000E-03 0. -1.
    9900012    2    1    2    0    0  0.68509531207E+00 -0.18300992651E+00  0.94353555628E+00  0.90007700222E+02  0.89999961065E+02 0.  0.
         12    1    1    2    0    0 -0.68509531207E+00  0.18300992651E+00 -0.94353555628E+00  0.11802997779E+01  0.00000000000E+00 0. -1.
         11    1    3    3    0    0  0.11173240456E+02 -0.71216073747E+01 -0.33140861878E+02  0.35691390000E+02  0.51100000000E-03 0. -1.
        -11    1    3    3    0    0  0.10086121254E+02  0.91425591044E+00 -0.37753015546E+01  0.10808265722E+02  0.51100000000E-03 0.  1.
        -12    1    3    3    0    0 -0.20574266398E+02  0.60243415378E+01  0.37859698988E+02  0.43508044501E+02  0.00000000000E+00 0.  1.
</event>
<event>
 7    1  0.4096472E-015  0.9000771E+02  0.7816164E-02  0.1186339E+00
        -11   -1    0    0    0    0  0.00000000000E+00  0.00000000000E+00  0.45593999997E+02  0.45594000000E+02  0.51100000000E-03 0. -1.
         11   -1    0    0    0    0 -0.00000000000E+00 -0.00000000000E+00 -0.45593999997E+02  0.45594000000E+02  0.51100000000E-03 0.  1.
    9900012    2    1    2    0    0  0.70562181764E+00 -0.92512433488E+00  0.19831194744E+00  0.90007709861E+02  0.89999970831E+02 0.  0.
         12    1    1    2    0    0 -0.70562181764E+00  0.92512433488E+00 -0.19831194744E+00  0.11802901393E+01  0.00000000000E+00 0. -1.
         11    1    3    3    0    0  0.39947723397E+01  0.79840572352E+01  0.23856838367E+02  0.25472575707E+02  0.51100000000E-03 0. -1.
        -11    1    3    3    0    0 -0.31635522583E+00  0.37332852698E+01  0.19297965953E+02  0.19658305871E+02  0.51100000000E-03 0.  1.
        -12    1    3    3    0    0 -0.29727952963E+01 -0.12642466840E+02 -0.42956492373E+02  0.44876828283E+02  0.00000000000E+00 0.  1.
</event>
<event>
 7    1  0.4096472E-015  0.9000774E+02  0.7816164E-02  0.1186339E+00
        -11   -1    0    0    0    0  0.00000000000E+00  0.00000000000E+00  0.45593999997E+02  0.45594000000E+02  0.51100000000E-03 0.  1.
         11   -1    0    0    0    0 -0.00000000000E+00 -0.00000000000E+00 -0.45593999997E+02  0.45594000000E+02  0.51100000000E-03 0. -1.
    9900012    2    1    2    0    0 -0.63143650211E+00  0.11877255341E+00  0.99004268296E+00  0.90007744312E+02  0.90000005737E+02 0.  0.
         12    1    1    2    0    0  0.63143650211E+00 -0.11877255341E+00 -0.99004268296E+00  0.11802556883E+01  0.00000000000E+00 0. -1.
         11    1    3    3    0    0 -0.91238652880E+01 -0.21313925409E+02 -0.31905063210E+02  0.39439338139E+02  0.51100000000E-03 0. -1.
        -11    1    3    3    0    0 -0.82653452101E+00  0.95589251007E+01 -0.42349088494E+01  0.10487643282E+02  0.51100000000E-03 0.  1.
        -12    1    3    3    0    0  0.93189633069E+01  0.11873772862E+02  0.37130014743E+02  0.40080762890E+02  0.00000000000E+00 0.  1.
</event>
<event>
 7    1  0.4096472E-015  0.9000762E+02  0.7816164E-02  0.1186339E+00
        -11   -1    0    0    0    0  0.00000000000E+00  0.00000000000E+00  0.45593999997E+02  0.45594000000E+02  0.51100000000E-03 0.  1.
         11   -1    0    0    0    0 -0.00000000000E+00 -0.00000000000E+00 -0.45593999997E+02  0.45594000000E+02  0.51100000000E-03 0. -1.
    9900012    2    1    2    0    0  0.27505371945E+00  0.11167060938E+01 -0.26572256800E+00  0.90007620598E+02  0.89999880390E+02 0.  0.
         12    1    1    2    0    0 -0.27505371945E+00 -0.11167060938E+01  0.26572256800E+00  0.11803794016E+01  0.00000000000E+00 0. -1.
         11    1    3    3    0    0 -0.50147660080E+01  0.91179393966E+01  0.24788715127E+00  0.10408945444E+02  0.51100000000E-03 0. -1.
        -11    1    3    3    0    0  0.19300196276E+02  0.18678034954E+02  0.27510601756E+02  0.38447363698E+02  0.51100000000E-03 0.  1.
         12    1    3    3    0    0 -0.14010376549E+02 -0.26679268257E+02 -0.28024211476E+02  0.41151311457E+02  0.00000000000E+00 0. -1.
</event>
<event>
 7    1  0.4096472E-015  0.9000778E+02  0.7816164E-02  0.1186339E+00
        -11   -1    0    0    0    0  0.00000000000E+00  0.00000000000E+00  0.45593999997E+02  0.45594000000E+02  0.51100000000E-03 0. -1.
         11   -1    0    0    0    0 -0.00000000000E+00 -0.00000000000E+00 -0.45593999997E+02  0.45594000000E+02  0.51100000000E-03 0.  1.
    9900012    2    1    2    0    0  0.10148328532E+01 -0.55606893529E+00  0.23200223031E+00  0.90007778235E+02  0.90000040107E+02 0.  0.
         12    1    1    2    0    0 -0.10148328532E+01  0.55606893529E+00 -0.23200223031E+00  0.11802217654E+01  0.00000000000E+00 0. -1.
         11    1    3    3    0    0  0.14516545438E+02 -0.34806543576E+02  0.18951520889E+02  0.42206465280E+02  0.51100000000E-03 0. -1.
        -11    1    3    3    0    0  0.98750734924E+00 -0.14908811672E+00 -0.92347701216E+01  0.92886154776E+01  0.51100000000E-03 0.  1.
        -12    1    3    3    0    0 -0.14489219934E+02  0.34399562757E+02 -0.94847485369E+01  0.38512697477E+02  0.00000000000E+00 0.  1.
</event>
<event>
 7    1  0.4096472E-015  0.9000760E+02  0.7816164E-02  0.1186339E+00
        -11   -1    0    0    0    0  0.00000000000E+00  0.00000000000E+00  0.45593999997E+02  0.45594000000E+02  0.51100000000E-03 0.  1.
         11   -1    0    0    0    0 -0.00000000000E+00 -0.00000000000E+00 -0.45593999997E+02  0.45594000000E+02  0.51100000000E-03 0. -1.
    9900012    2    1    2    0    0 -0.12506826561E+00  0.11340394384E+01  0.30276753846E+00  0.90007595111E+02  0.89999854567E+02 0.  0.
         12    1    1    2    0    0  0.12506826561E+00 -0.11340394384E+01 -0.30276753846E+00  0.11804048887E+01  0.00000000000E+00 0. -1.
         11    1    3    3    0    0 -0.52764787956E+01  0.47824619711E+01 -0.71763234787E+01  0.10110034120E+02  0.51100000000E-03 0. -1.
        -11    1    3    3    0    0  0.33921827828E+02 -0.23452811699E+02  0.15507178282E+02  0.44059021304E+02  0.51100000000E-03 0.  1.
         12    1    3    3    0    0 -0.28770417298E+02  0.19804389166E+02 -0.80280872647E+01  0.35838539687E+02  0.00000000000E+00 0. -1.
</event>
<event>
 7    1  0.4096472E-015  0.9000817E+02  0.7816164E-02  0.1186338E+00
        -11   -1    0    0    0    0  0.00000000000E+00  0.00000000000E+00  0.45593999997E+02  0.45594000000E+02  0.51100000000E-03 0.  1.
         11   -1    0    0    0    0 -0.00000000000E+00 -0.00000000000E+00 -0.45593999997E+02  0.45594000000E+02  0.51100000000E-03 0. -1.
    9900012    2    1    2    0    0 -0.13013975891E+00  0.11432481661E+01  0.26087202863E+00  0.90008166562E+02  0.90000433560E+02 0.  0.
         12    1    1    2    0    0  0.13013975891E+00 -0.11432481661E+01 -0.26087202863E+00  0.11798334381E+01  0.00000000000E+00 0. -1.
         11    1    3    3    0    0  0.64370310323E+01 -0.16802149757E+01  0.89753825084E+01  0.11172107335E+02  0.51100000000E-03 0. -1.
        -11    1    3    3    0    0 -0.95958339703E+01  0.21275136729E+02  0.28710375091E+02  0.36999960953E+02  0.51100000000E-03 0.  1.
         12    1    3    3    0    0  0.30286631791E+01 -0.18451673587E+02 -0.37424885571E+02  0.41836098274E+02  0.00000000000E+00 0. -1.
</event>
<event>
 7    1  0.4096472E-015  0.9000781E+02  0.7816164E-02  0.1186339E+00
        -11   -1    0    0    0    0  0.00000000000E+00  0.00000000000E+00  0.45593999997E+02  0.45594000000E+02  0.51100000000E-03 0. -1.
         11   -1    0    0    0    0 -0.00000000000E+00 -0.00000000000E+00 -0.45593999997E+02  0.45594000000E+02  0.51100000000E-03 0.  1.
    9900012    2    1    2    0    0 -0.78937254437E+00  0.63995417149E+00  0.60016384038E+00  0.90007810612E+02  0.90000072912E+02 0.  0.
         12    1    1    2    0    0  0.78937254437E+00 -0.63995417149E+00 -0.60016384038E+00  0.11801893877E+01  0.00000000000E+00 0. -1.
         11    1    3    3    0    0 -0.78159723594E+01  0.11032044682E+02  0.53391823789E+01  0.14536241004E+02  0.51100000000E-03 0. -1.
        -11    1    3    3    0    0  0.21350630671E+02  0.25290972267E+02 -0.13974459217E+02  0.35927262892E+02  0.51100000000E-03 0.  1.
         12    1    3    3    0    0 -0.14324030856E+02 -0.35683062777E+02  0.92354406787E+01  0.39544306716E+02  0.00000000000E+00 0. -1.
</event>
<event>
 7    1  0.4096472E-015  0.9000769E+02  0.7816164E-02  0.1186339E+00
        -11   -1    0    0    0    0  0.00000000000E+00  0.00000000000E+00  0.45593999997E+02  0.45594000000E+02  0.51100000000E-03 0.  1.
         11   -1    0    0    0    0 -0.00000000000E+00 -0.00000000000E+00 -0.45593999997E+02  0.45594000000E+02  0.51100000000E-03 0. -1.
    9900012    2    1    2    0    0 -0.19450668281E+00 -0.11501916613E+01  0.17986559684E+00  0.90007692692E+02  0.89999953436E+02 0.  0.
         12    1    1    2    0    0  0.19450668281E+00  0.11501916613E+01 -0.17986559684E+00  0.11803073076E+01  0.00000000000E+00 0. -1.
         11    1    3    3    0    0  0.90753543260E+01 -0.19427817001E+01  0.23989915805E+01  0.95860115658E+01  0.51100000000E-03 0. -1.
        -11    1    3    3    0    0  0.26703708151E+02  0.15143470160E+02  0.19155210472E+02  0.36184731669E+02  0.51100000000E-03 0.  1.
         12    1    3    3    0    0 -0.35973569160E+02 -0.14350880121E+02 -0.21374336455E+02  0.44236949457E+02  0.00000000000E+00 0. -1.
</event>
<event>
 7    1  0.4096472E-015  0.9000759E+02  0.7816164E-02  0.1186339E+00
        -11   -1    0    0    0    0  0.00000000000E+00  0.00000000000E+00  0.45593999997E+02  0.45594000000E+02  0.51100000000E-03 0.  1.
         11   -1    0    0    0    0 -0.00000000000E+00 -0.00000000000E+00 -0.45593999997E+02  0.45594000000E+02  0.51100000000E-03 0. -1.
    9900012    2    1    2    0    0  0.32757278388E+00  0.36982505931E+00  0.10720561138E+01  0.90007585321E+02  0.89999844647E+02 0.  0.
         12    1    1    2    0    0 -0.32757278388E+00 -0.36982505931E+00 -0.10720561138E+01  0.11804146790E+01  0.00000000000E+00 0. -1.
         11    1    3    3    0    0  0.29833197510E+02 -0.16001059137E+02  0.15671970676E+02  0.37305016182E+02  0.51100000000E-03 0. -1.
        -11    1    3    3    0    0  0.51851059605E+01  0.42949926001E+01  0.73050385197E+01  0.99345796736E+01  0.51100000000E-03 0.  1.
        -12    1    3    3    0    0 -0.34690730686E+02  0.12075891596E+02 -0.21904953082E+02  0.42767989466E+02  0.00000000000E+00 0.  1.
</event>
<event>
 7    1  0.4096472E-015  0.9000777E+02  0.7816164E-02  0.1186339E+00
        -11   -1    0    0    0    0  0.00000000000E+00  0.00000000000E+00  0.45593999997E+02  0.45594000000E+02  0.51100000000E-03 0. -1.
         11   -1    0    0    0    0 -0.00000000000E+00 -0.00000000000E+00 -0.45593999997E+02  0.45594000000E+02  0.51100000000E-03 0.  1.
    9900012    2    1    2    0    0 -0.52862227189E+00 -0.90886898621E+00 -0.53615063293E+00  0.90007770428E+02  0.90000032198E+02 0.  0.
         12    1    1    2    0    0  0.52862227189E+00  0.90886898621E+00  0.53615063293E+00  0.11802295716E+01  0.00000000000E+00 0. -1.
         11    1    3    3    0    0 -0.85368874736E+01 -0.15464468621E+01  0.57339939047E+01  0.10399453447E+02  0.51100000000E-03 0. -1.
        -11    1    3    3    0    0 -0.24957731603E+02 -0.25322868122E+02  0.56185767004E+01  0.35995894503E+02  0.51100000000E-03 0.  1.
         12    1    3    3    0    0  0.32965996805E+02  0.25960445998E+02 -0.11888721238E+02  0.43612422478E+02  0.00000000000E+00 0. -1.
</event>
<event>
 7    1  0.4096472E-015  0.9000772E+02  0.7816164E-02  0.1186339E+00
        -11   -1    0    0    0    0  0.00000000000E+00  0.00000000000E+00  0.45593999997E+02  0.45594000000E+02  0.51100000000E-03 0.  1.
         11   -1    0    0    0    0 -0.00000000000E+00 -0.00000000000E+00 -0.45593999997E+02  0.45594000000E+02  0.51100000000E-03 0. -1.
    9900012    2    1    2    0    0 -0.78901422035E-01  0.10828586016E+01 -0.46286932017E+00  0.90007721985E+02  0.89999983115E+02 0.  0.
         12    1    1    2    0    0  0.78901422035E-01 -0.10828586016E+01  0.46286932017E+00  0.11802780151E+01  0.00000000000E+00 0. -1.
         11    1    3    3    0    0 -0.18855756302E+01  0.36110393300E+01  0.84126116030E+01  0.93470334729E+01  0.51100000000E-03 0. -1.
        -11    1    3    3    0    0 -0.34805540047E+02 -0.13117702082E+02  0.94410532760E+01  0.38374903427E+02  0.51100000000E-03 0.  1.
         12    1    3    3    0    0  0.36612214255E+02  0.10589521353E+02 -0.18316534199E+02  0.42285785084E+02  0.00000000000E+00 0. -1.
</event>
<event>
 7    1  0.4096472E-015  0.9000776E+02  0.7816164E-02  0.1186339E+00
        -11   -1    0    0    0    0  0.00000000000E+00  0.00000000000E+00  0.45593999997E+02  0.45594000000E+02  0.51100000000E-03 0.  1.
         11   -1    0    0    0    0 -0.00000000000E+00 -0.00000000000E+00 -0.45593999997E+02  0.45594000000E+02  0.51100000000E-03 0. -1.
    9900012    2    1    2    0    0  0.46208139218E+00  0.88714652122E+00  0.62643067488E+00  0.90007761230E+02  0.90000022879E+02 0.  0.
         12    1    1    2    0    0 -0.46208139218E+00 -0.88714652122E+00 -0.62643067488E+00  0.11802387697E+01  0.00000000000E+00 0. -1.
         11    1    3    3    0    0 -0.19936819695E+02 -0.23640686113E+02  0.38674039368E+00  0.30927469794E+02  0.51100000000E-03 0. -1.
        -11    1    3    3    0    0 -0.11809462795E+02 -0.63234616889E+01  0.48400151749E+01  0.14243430991E+02  0.51100000000E-03 0.  1.
        -12    1    3    3    0    0  0.32208363883E+02  0.30851294323E+02 -0.46003248937E+01  0.44836860445E+02  0.00000000000E+00 0.  1.
</event>
<event>
 7    1  0.4096472E-015  0.9000789E+02  0.7816164E-02  0.1186339E+00
        -11   -1    0    0    0    0  0.00000000000E+00  0.00000000000E+00  0.45593999997E+02  0.45594000000E+02  0.51100000000E-03 0.  1.
         11   -1    0    0    0    0 -0.00000000000E+00 -0.00000000000E+00 -0.45593999997E+02  0.45594000000E+02  0.51100000000E-03 0. -1.
    9900012    2    1    2    0    0 -0.62500998905E+00  0.84372236824E+00  0.53866597634E+00  0.90007887313E+02  0.90000150625E+02 0.  0.
         12    1    1    2    0    0  0.62500998905E+00 -0.84372236824E+00 -0.53866597634E+00  0.11801126875E+01  0.00000000000E+00 0. -1.
         11    1    3    3    0    0  0.27593066511E+02  0.29013299727E+02  0.40011774119E+01  0.40238766152E+02  0.51100000000E-03 0. -1.
        -11    1    3    3    0    0  0.52952889417E+01 -0.81377889865E+01 -0.45232749677E+01  0.10710915519E+02  0.51100000000E-03 0.  1.
        -12    1    3    3    0    0 -0.33513365442E+02 -0.20031788372E+02  0.10607635321E+01  0.39058205641E+02  0.00000000000E+00 0.  1.
</event>
<event>
 7    1  0.4096472E-015  0.9000774E+02  0.7816164E-02  0.1186339E+00
        -11   -1    0    0    0    0  0.00000000000E+00  0.00000000000E+00  0.45593999997E+02  0.45594000000E+02  0.51100000000E-03 0.  1.
         11   -1    0    0    0    0 -0.00000000000E+00 -0.00000000000E+00 -0.45593999997E+02  0.45594000000E+02  0.51100000000E-03 0. -1.
    9900012    2    1    2    0    0  0.43146433820E+00  0.82397049296E+00  0.72658280555E+00  0.90007740951E+02  0.90000002332E+02 0.  0.
         12    1    1    2    0    0 -0.43146433820E+00 -0.82397049296E+00 -0.72658280555E+00  0.11802590486E+01  0.00000000000E+00 0. -1.
         11    1    3    3    0    0 -0.25660751610E+02 -0.82780040897E+01 -0.23297529799E+02  0.35633894257E+02  0.51100000000E-03 0. -1.
        -11    1    3    3    0    0 -0.58489018789E+00  0.11450151347E+02 -0.69662349110E+01  0.13415531726E+02  0.51100000000E-03 0.  1.
        -12    1    3    3    0    0  0.26677106136E+02 -0.23481767642E+01  0.30990347516E+02  0.40958314969E+02  0.00000000000E+00 0.  1.
</event>
<event>
 7    1  0.4096472E-015  0.9000780E+02  0.7816164E-02  0.1186339E+00
        -11   -1    0    0    0    0  0.00000000000E+00  0.00000000000E+00  0.45593999997E+02  0.45594000000E+02  0.51100000000E-03 0. -1.
         11   -1    0    0    0    0 -0.00000000000E+00 -0.00000000000E+00 -0.45593999997E+02  0.45594000000E+02  0.51100000000E-03 0.  1.
    9900012    2    1    2    0    0 -0.77561516727E+00  0.84827326594E+00 -0.26781152263E+00  0.90007801104E+02  0.90000063279E+02 0.  0.
         12    1    1    2    0    0  0.77561516727E+00 -0.84827326594E+00  0.26781152263E+00  0.11801988956E+01  0.00000000000E+00 0. -1.
         11    1    3    3    0    0  0.34938477521E+00  0.14567593297E+02 -0.16446726905E+01  0.14664303349E+02  0.51100000000E-03 0. -1.
        -11    1    3    3    0    0  0.16109732916E+02  0.16172413941E+02 -0.23534366526E+02  0.32786229965E+02  0.51100000000E-03 0.  1.
         12    1    3    3    0    0 -0.17234732859E+02 -0.29891733972E+02  0.24911227694E+02  0.42557267790E+02  0.00000000000E+00 0. -1.
</event>
<event>
 7    1  0.4096472E-015  0.9000774E+02  0.7816164E-02  0.1186339E+00
        -11   -1    0    0    0    0  0.00000000000E+00  0.00000000000E+00  0.45593999997E+02  0.45594000000E+02  0.51100000000E-03 0.  1.
         11   -1    0    0    0    0 -0.00000000000E+00 -0.00000000000E+00 -0.45593999997E+02  0.45594000000E+02  0.51100000000E-03 0. -1.
    9900012    2    1    2    0    0 -0.86681797196E+00 -0.80101349126E+00  0.29587848265E-02  0.90007743772E+02  0.90000005190E+02 0.  0.
         12    1    1    2    0    0  0.86681797196E+00  0.80101349126E+00 -0.29587848266E-02  0.11802562281E+01  0.00000000000E+00 0. -1.
         11    1    3    3    0    0  0.59157468195E+01 -0.26930266959E+01 -0.63071935753E+01  0.90569942185E+01  0.51100000000E-03 0. -1.
        -11    1    3    3    0    0  0.49371960717E+01 -0.26163807265E+02  0.31657583022E+02  0.41365725894E+02  0.51100000000E-03 0.  1.
         12    1    3    3    0    0 -0.11719760863E+02  0.28055820470E+02 -0.25347430662E+02  0.39585023659E+02  0.00000000000E+00 0. -1.
</event>
<event>
 7    1  0.4096472E-015  0.9000775E+02  0.7816164E-02  0.1186339E+00
        -11   -1    0    0    0    0  0.00000000000E+00  0.00000000000E+00  0.45593999997E+02  0.45594000000E+02  0.51100000000E-03 0.  1.
         11   -1    0    0    0    0 -0.00000000000E+00 -0.00000000000E+00 -0.45593999997E+02  0.45594000000E+02  0.51100000000E-03 0. -1.
    9900012    2    1    2    0    0  0.85466022531E+00  0.69107615633E+00  0.43007683294E+00  0.90007747300E+02  0.90000008764E+02 0.  0.
         12    1    1    2    0    0 -0.85466022531E+00 -0.69107615633E+00 -0.43007683294E+00  0.11802527004E+01  0.00000000000E+00 0. -1.
         11    1    3    3    0    0  0.10230584084E+02  0.31811988929E+02 -0.27187949876E+02  0.43079602007E+02  0.51100000000E-03 0. -1.
        -11    1    3    3    0    0 -0.19270437113E+01 -0.10524940535E+00  0.10600898756E+02  0.10775139424E+02  0.51100000000E-03 0.  1.
        -12    1    3    3    0    0 -0.74488801478E+01 -0.31015663368E+02  0.17017127953E+02  0.36153005869E+02  0.00000000000E+00 0.  1.
</event>
<event>
 7    1  0.4096472E-015  0.9000780E+02  0.7816164E-02  0.1186339E+00
        -11   -1    0    0    0    0  0.00000000000E+00  0.00000000000E+00  0.45593999997E+02  0.45594000000E+02  0.51100000000E-03 0.  1.
         11   -1    0    0    0    0 -0.00000000000E+00 -0.00000000000E+00 -0.45593999997E+02  0.45594000000E+02  0.51100000000E-03 0. -1.
    9900012    2    1    2    0    0  0.85948815690E+00 -0.78926584316E+00 -0.17669296634E+00  0.90007796260E+02  0.90000058371E+02 0.  0.
         12    1    1    2    0    0 -0.85948815690E+00  0.78926584316E+00  0.17669296634E+00  0.11802037398E+01  0.00000000000E+00 0. -1.
         11    1    3    3    0    0  0.25765400815E+02  0.14673337594E+02 -0.26524790165E+02  0.39783504231E+02  0.51100000000E-03 0. -1.
        -11    1    3    3    0    0 -0.46646049328E+01 -0.37435605981E+01 -0.71796420231E+01  0.93445195153E+01  0.51100000000E-03 0.  1.
        -12    1    3    3    0    0 -0.20241307725E+02 -0.11719042839E+02  0.33527739222E+02  0.40879772514E+02  0.00000000000E+00 0.  1.
</event>
<event>
 7    1  0.4096472E-015  0.9000764E+02  0.7816164E-02  0.1186339E+00
        -11   -1    0    0    0    0  0.00000000000E+00  0.00000000000E+00  0.45593999997E+02  0.45594000000E+02  0.51100000000E-03 0. -1.
         11   -1    0    0    0    0 -0.00000000000E+00 -0.00000000000E+00 -0.45593999997E+02  0.45594000000E+02  0.51100000000E-03 0.  1.
    9900012    2    1    2    0    0  0.15492971293E-01 -0.10875834389E+01 -0.45844694436E+00  0.90007639305E+02  0.89999899344E+02 0.  0.
         12    1    1    2    0    0 -0.15492971293E-01  0.10875834389E+01  0.45844694436E+00  0.11803606947E+01  0.00000000000E+00 0. -1.
         11    1    3    3    0    0  0.23822442964E+01  0.56136020139E+01  0.86637909134E+01  0.10594757605E+02  0.51100000000E-03 0. -1.
        -11    1    3    3    0    0 -0.35661501829E+02 -0.17527343164E+02  0.78520215949E+01  0.40504378955E+02  0.51100000000E-03 0.  1.
         12    1    3    3    0    0  0.33294750504E+02  0.10826157712E+02 -0.16974259453E+02  0.38908502746E+02  0.00000000000E+00 0. -1.
</event>
<event>
 7    1  0.4096472E-015  0.9000774E+02  0.7816164E-02  0.1186339E+00
        -11   -1    0    0    0    0  0.00000000000E+00  0.00000000000E+00  0.45593999997E+02  0.45594000000E+02  0.51100000000E-03 0. -1.
         11   -1    0    0    0    0 -0.00000000000E+00 -0.00000000000E+00 -0.45593999997E+02  0.45594000000E+02  0.51100000000E-03 0.  1.
    9900012    2    1    2    0    0 -0.89990970123E+00  0.95514128277E-01  0.75765920307E+00  0.90007742449E+02  0.90000003849E+02 0.  0.
         12    1    1    2    0    0  0.89990970123E+00 -0.95514128277E-01 -0.75765920307E+00  0.11802575512E+01  0.00000000000E+00 0. -1.
         11    1    3    3    0    0 -0.19497791589E+02  0.19397918260E+02  0.23712176855E+02  0.36314052943E+02  0.51100000000E-03 0. -1.
        -11    1    3    3    0    0 -0.51022746211E+01  0.71230115370E+01  0.34881440447E+01  0.94306759462E+01  0.51100000000E-03 0.  1.
        -12    1    3    3    0    0  0.23700156509E+02 -0.26425415669E+02 -0.26442661696E+02  0.44263013560E+02  0.00000000000E+00 0.  1.
</event>
<event>
 7    1  0.4096472E-015  0.9000776E+02  0.7816164E-02  0.1186339E+00
        -11   -1    0    0    0    0  0.00000000000E+00  0.00000000000E+00  0.45593999997E+02  0.45594000000E+02  0.51100000000E-03 0.  1.
         11   -1    0    0    0    0 -0.00000000000E+00 -0.00000000000E+00 -0.45593999997E+02  0.45594000000E+02  0.51100000000E-03 0. -1.
    9900012    2    1    2    0    0  0.86733897748E-01 -0.11294088995E+01  0.33147187747E+00  0.90007762381E+02  0.90000024045E+02 0.  0.
         12    1    1    2    0    0 -0.86733897748E-01  0.11294088995E+01 -0.33147187747E+00  0.11802376188E+01  0.00000000000E+00 0. -1.
         11    1    3    3    0    0  0.10136110858E+01  0.85448907848E+01 -0.53722679525E+01  0.10144152462E+02  0.51100000000E-03 0. -1.
        -11    1    3    3    0    0 -0.12340366285E+02  0.32928049997E+02  0.64572110333E+01  0.35752436158E+02  0.51100000000E-03 0.  1.
         12    1    3    3    0    0  0.11413489097E+02 -0.42602349681E+02 -0.75347120328E+00  0.44111173761E+02  0.00000000000E+00 0. -1.
</event>
<event>
 7    1  0.4096472E-015  0.9000769E+02  0.7816164E-02  0.1186339E+00
        -11   -1    0    0    0    0  0.00000000000E+00  0.00000000000E+00  0.45593999997E+02  0.45594000000E+02  0.51100000000E-03 0. -1.
         11   -1    0    0    0    0 -0.00000000000E+00 -0.00000000000E+00 -0.45593999997E+02  0.45594000000E+02  0.51100000000E-03 0.  1.
    9900012    2    1    2    0    0  0.27093288629E+00 -0.90777479314E+00 -0.70404055017E+00  0.90007689532E+02  0.89999950234E+02 0.  0.
         12    1    1    2    0    0 -0.27093288629E+00  0.90777479314E+00  0.70404055017E+00  0.11803104677E+01  0.00000000000E+00 0. -1.
         11    1    3    3    0    0 -0.10140194780E+02 -0.20296195971E+02  0.25201147524E+02  0.33909540808E+02  0.51100000000E-03 0. -1.
        -11    1    3    3    0    0 -0.24373999463E+01 -0.13330777847E+02 -0.12625818279E+02  0.18521928733E+02  0.51100000000E-03 0.  1.
        -12    1    3    3    0    0  0.12848527612E+02  0.32719199025E+02 -0.13279369795E+02  0.37576219991E+02  0.00000000000E+00 0.  1.
</event>
<event>
 7    1  0.4096472E-015  0.9000774E+02  0.7816164E-02  0.1186339E+00
        -11   -1    0    0    0    0  0.00000000000E+00  0.00000000000E+00  0.45593999997E+02  0.45594000000E+02  0.51100000000E-03 0.  1.
         11   -1    0    0    0    0 -0.00000000000E+00 -0.00000000000E+00 -0.45593999997E+02  0.45594000000E+02  0.51100000000E-03 0. -1.
    9900012    2    1    2    0    0 -0.33277594151E+00 -0.90635597726E+00 -0.67881014997E+00  0.90007744009E+02  0.90000005430E+02 0.  0.
         12    1    1    2    0    0  0.33277594151E+00  0.90635597726E+00  0.67881014997E+00  0.11802559911E+01  0.00000000000E+00 0. -1.
         11    1    3    3    0    0  0.35057159983E+01 -0.27865329844E+01  0.14586910212E+02  0.15258858428E+02  0.51100000000E-03 0. -1.
        -11    1    3    3    0    0 -0.21842719476E+02 -0.96874986827E+01  0.21542431447E+02  0.32171856920E+02  0.51100000000E-03 0.  1.
         12    1    3    3    0    0  0.18004227536E+02  0.11567675690E+02 -0.36808151808E+02  0.42577028661E+02  0.00000000000E+00 0. -1.
</event>
<event>
 7    1  0.4096472E-015  0.9000761E+02  0.7816164E-02  0.1186339E+00
        -11   -1    0    0    0    0  0.00000000000E+00  0.00000000000E+00  0.45593999997E+02  0.45594000000E+02  0.51100000000E-03 0.  1.
         11   -1    0    0    0    0 -0.00000000000E+00 -0.00000000000E+00 -0.45593999997E+02  0.45594000000E+02  0.51100000000E-03 0. -1.
    9900012    2    1    2    0    0 -0.36715040820E+00  0.60496319278E+00  0.94474599288E+00  0.90007608168E+02  0.89999867795E+02 0.  0.
         12    1    1    2    0    0  0.36715040820E+00 -0.60496319278E+00 -0.94474599288E+00  0.11803918324E+01  0.00000000000E+00 0. -1.
         11    1    3    3    0    0 -0.55856591505E+01 -0.30832130739E+01  0.53340651117E+01  0.83161314252E+01  0.51100000000E-03 0. -1.
        -11    1    3    3    0    0  0.40903631836E+02  0.72765288604E+01  0.10510215257E+02  0.42854633292E+02  0.51100000000E-03 0.  1.
         12    1    3    3    0    0 -0.35685123094E+02 -0.35883525937E+01 -0.14899534376E+02  0.38836843450E+02  0.00000000000E+00 0. -1.
</event>
<event>
 7    1  0.4096472E-015  0.9000769E+02  0.7816164E-02  0.1186339E+00
        -11   -1    0    0    0    0  0.00000000000E+00  0.00000000000E+00  0.45593999997E+02  0.45594000000E+02  0.51100000000E-03 0.  1.
         11   -1    0    0    0    0 -0.00000000000E+00 -0.00000000000E+00 -0.45593999997E+02  0.45594000000E+02  0.51100000000E-03 0. -1.
    9900012    2    1    2    0    0 -0.47250186876E+00  0.54935645822E+00  0.93170891505E+00  0.90007689856E+02  0.89999950562E+02 0.  0.
         12    1    1    2    0    0  0.47250186876E+00 -0.54935645822E+00 -0.93170891505E+00  0.11803101442E+01  0.00000000000E+00 0. -1.
         11    1    3    3    0    0 -0.66805605583E+01  0.30793905957E+02 -0.22928094725E+02  0.38969116765E+02  0.51100000000E-03 0. -1.
        -11    1    3    3    0    0  0.11841572023E+02 -0.23975923392E+01 -0.24372186735E+01  0.12325230713E+02  0.51100000000E-03 0.  1.
        -12    1    3    3    0    0 -0.56335133339E+01 -0.27846957160E+02  0.26297022313E+02  0.38713342378E+02  0.00000000000E+00 0.  1.
</event>
<event>
 7    1  0.4096472E-015  0.9000784E+02  0.7816164E-02  0.1186339E+00
        -11   -1    0    0    0    0  0.00000000000E+00  0.00000000000E+00  0.45593999997E+02  0.45594000000E+02  0.51100000000E-03 0.  1.
         11   -1    0    0    0    0 -0.00000000000E+00 -0.00000000000E+00 -0.45593999997E+02  0.45594000000E+02  0.51100000000E-03 0. -1.
    9900012    2    1    2    0    0 -0.60166353595E-01 -0.11016619245E+01 -0.41893838760E+00  0.90007835453E+02  0.90000098081E+02 0.  0.
         12    1    1    2    0    0  0.60166353595E-01  0.11016619245E+01  0.41893838760E+00  0.11801645473E+01  0.00000000000E+00 0. -1.
         11    1    3    3    0    0 -0.25530375653E+02 -0.14149221309E+02 -0.31493249430E+02  0.42939786965E+02  0.51100000000E-03 0. -1.
        -11    1    3    3    0    0 -0.25805156022E+01  0.45474288559E+01  0.88715891653E+01  0.10297731039E+02  0.51100000000E-03 0.  1.
        -12    1    3    3    0    0  0.28050724902E+02  0.85001305289E+01  0.22202721878E+02  0.36770317449E+02  0.00000000000E+00 0.  1.
</event>
<event>
 7    1  0.4096472E-015  0.9000773E+02  0.7816164E-02  0.1186339E+00
        -11   -1    0    0    0    0  0.00000000000E+00  0.00000000000E+00  0.45593999997E+02  0.45594000000E+02  0.51100000000E-03 0.  1.
         11   -1    0    0    0    0 -0.00000000000E+00 -0.00000000000E+00 -0.45593999997E+02  0.45594000000E+02  0.51100000000E-03 0. -1.
    9900012    2    1    2    0    0  0.42883114767E+00 -0.99180924765E+00  0.47482782017E+00  0.90007727491E+02  0.89999988694E+02 0.  0.
         12    1    1    2    0    0 -0.42883114767E+00  0.99180924765E+00 -0.47482782017E+00  0.11802725091E+01  0.00000000000E+00 0. -1.
         11    1    3    3    0    0  0.31309536603E+01 -0.39961048622E+01  0.72310623873E+01  0.88351563881E+01  0.51100000000E-03 0. -1.
        -11    1    3    3    0    0 -0.40161164156E-01 -0.33746513242E+02  0.16536736244E+02  0.37580479171E+02  0.51100000000E-03 0.  1.
         12    1    3    3    0    0 -0.26619613485E+01  0.36750808856E+02 -0.23292970811E+02  0.43592091932E+02  0.00000000000E+00 0. -1.
</event>
<event>
 7    1  0.4096472E-015  0.9000768E+02  0.7816164E-02  0.1186339E+00
        -11   -1    0    0    0    0  0.00000000000E+00  0.00000000000E+00  0.45593999997E+02  0.45594000000E+02  0.51100000000E-03 0. -1.
         11   -1    0    0    0    0 -0.00000000000E+00 -0.00000000000E+00 -0.45593999997E+02  0.45594000000E+02  0.51100000000E-03 0.  1.
    9900012    2    1    2    0    0  0.12331962993E+00  0.85595380900E+00 -0.80329885052E+00  0.90007680680E+02  0.89999941265E+02 0.  0.
         12    1    1    2    0    0 -0.12331962993E+00 -0.85595380900E+00  0.80329885052E+00  0.11803193201E+01  0.00000000000E+00 0. -1.
         11    1    3    3    0    0  0.23117442260E+02  0.12863928461E+02 -0.25359025466E+02  0.36646650119E+02  0.51100000000E-03 0. -1.
        -11    1    3    3    0    0  0.10395002632E+02  0.97203958340E+00  0.10026050382E+01  0.10488382039E+02  0.51100000000E-03 0.  1.
        -12    1    3    3    0    0 -0.33389125262E+02 -0.12980014235E+02  0.23553121577E+02  0.42872648522E+02  0.00000000000E+00 0.  1.
</event>
<event>
 7    1  0.4096472E-015  0.9000775E+02  0.7816164E-02  0.1186339E+00
        -11   -1    0    0    0    0  0.00000000000E+00  0.00000000000E+00  0.45593999997E+02  0.45594000000E+02  0.51100000000E-03 0. -1.
         11   -1    0    0    0    0 -0.00000000000E+00 -0.00000000000E+00 -0.45593999997E+02  0.45594000000E+02  0.51100000000E-03 0.  1.
    9900012    2    1    2    0    0  0.32859274846E+00  0.11331228552E+01 -0.32218613436E-01  0.90007754840E+02  0.90000016404E+02 0.  0.
         12    1    1    2    0    0 -0.32859274846E+00 -0.11331228552E+01  0.32218613436E-01  0.11802451602E+01  0.00000000000E+00 0. -1.
         11    1    3    3    0    0  0.29219713023E+01 -0.28819720973E+02  0.23956290715E+02  0.37590132992E+02  0.51100000000E-03 0. -1.
        -11    1    3    3    0    0 -0.73051479984E+01 -0.57745206691E+01 -0.34733193672E+00  0.93183107896E+01  0.51100000000E-03 0.  1.
        -12    1    3    3    0    0  0.47117694447E+01  0.35727364497E+02 -0.23641177392E+02  0.43099311058E+02  0.00000000000E+00 0.  1.
</event>
<event>
 7    1  0.5759426E-015  0.9000771E+02  0.7816164E-02  0.1186339E+00
        -11   -1    0    0    0    0  0.00000000000E+00  0.00000000000E+00  0.45593999997E+02  0.45594000000E+02  0.51100000000E-03 0.  1.
         11   -1    0    0    0    0 -0.00000000000E+00 -0.00000000000E+00 -0.45593999997E+02  0.45594000000E+02  0.51100000000E-03 0. -1.
    9900012    2    1    2    0    0 -0.51285056580E+00  0.10319081580E+01  0.25539740869E+00  0.90007712753E+02  0.89999973761E+02 0.  0.
         12    1    1    2    0    0  0.51285056580E+00 -0.10319081580E+01 -0.25539740869E+00  0.11802872471E+01  0.00000000000E+00 0. -1.
         11    1    3    3    0    0 -0.38883531970E+02  0.14031451523E+02 -0.11062057455E+02  0.42792286755E+02  0.51100000000E-03 0. -1.
        -11    1    3    3    0    0  0.18128994792E+01 -0.86350920725E+01  0.39545889284E+01  0.96690327063E+01  0.51100000000E-03 0.  1.
        -12    1    3    3    0    0  0.36557781925E+02 -0.43644512926E+01  0.73628659357E+01  0.37546393291E+02  0.00000000000E+00 0.  1.
</event>
<event>
 7    1  0.4096472E-015  0.9000777E+02  0.7816164E-02  0.1186339E+00
        -11   -1    0    0    0    0  0.00000000000E+00  0.00000000000E+00  0.45593999997E+02  0.45594000000E+02  0.51100000000E-03 0. -1.
         11   -1    0    0    0    0 -0.00000000000E+00 -0.00000000000E+00 -0.45593999997E+02  0.45594000000E+02  0.51100000000E-03 0.  1.
    9900012    2    1    2    0    0  0.81012996817E+00 -0.19637843567E+00 -0.83550827628E+00  0.90007767339E+02  0.90000029067E+02 0.  0.
         12    1    1    2    0    0 -0.81012996817E+00  0.19637843567E+00  0.83550827628E+00  0.11802326614E+01  0.00000000000E+00 0. -1.
         11    1    3    3    0    0  0.52160103020E+01 -0.34440143093E+02 -0.27436068582E+02  0.44340366251E+02  0.51100000000E-03 0.  1.
        -11    1    3    3    0    0 -0.81086050593E+01  0.11802462911E+02  0.11508928184E+02  0.18371255673E+02  0.51100000000E-03 0. -1.
        -12    1    3    3    0    0  0.37027247254E+01  0.22441301746E+02  0.15091632122E+02  0.27296145416E+02  0.00000000000E+00 0.  1.
</event>
<event>
 7    1  0.4096472E-015  0.9000769E+02  0.7816164E-02  0.1186339E+00
        -11   -1    0    0    0    0  0.00000000000E+00  0.00000000000E+00  0.45593999997E+02  0.45594000000E+02  0.51100000000E-03 0. -1.
         11   -1    0    0    0    0 -0.00000000000E+00 -0.00000000000E+00 -0.45593999997E+02  0.45594000000E+02  0.51100000000E-03 0.  1.
    9900012    2    1    2    0    0 -0.13444730161E+00 -0.27946335640E+00 -0.11388375677E+01  0.90007692053E+02  0.89999952788E+02 0.  0.
         12    1    1    2    0    0  0.13444730161E+00  0.27946335640E+00  0.11388375677E+01  0.11803079471E+01  0.00000000000E+00 0. -1.
         11    1    3    3    0    0  0.26351465181E+02 -0.30361842401E+02  0.13488748908E+02  0.42405041429E+02  0.51100000000E-03 0. -1.
        -11    1    3    3    0    0 -0.81787732344E+01  0.73377900083E+00  0.30465057147E+01  0.87585364401E+01  0.51100000000E-03 0.  1.
        -12    1    3    3    0    0 -0.18307139249E+02  0.29348600044E+02 -0.17674092190E+02  0.38844114184E+02  0.00000000000E+00 0.  1.
</event>
<event>
 7    1  0.4096472E-015  0.9000766E+02  0.7816164E-02  0.1186339E+00
        -11   -1    0    0    0    0  0.00000000000E+00  0.00000000000E+00  0.45593999997E+02  0.45594000000E+02  0.51100000000E-03 0. -1.
         11   -1    0    0    0    0 -0.00000000000E+00 -0.00000000000E+00 -0.45593999997E+02  0.45594000000E+02  0.51100000000E-03 0.  1.
    9900012    2    1    2    0    0 -0.83034173714E+00 -0.80493381762E+00 -0.23627246684E+00  0.90007656605E+02  0.89999916872E+02 0.  0.
         12    1    1    2    0    0  0.83034173714E+00  0.80493381762E+00  0.23627246684E+00  0.11803433949E+01  0.00000000000E+00 0. -1.
         11    1    3    3    0    0 -0.13809522921E+00 -0.65816403361E+01 -0.81746853500E+01  0.10495834442E+02  0.51100000000E-03 0. -1.
        -11    1    3    3    0    0 -0.20438739591E+02 -0.30297243952E+02 -0.38019040628E+01  0.36743972865E+02  0.51100000000E-03 0.  1.
         12    1    3    3    0    0  0.19746493083E+02  0.36073950470E+02  0.11740316946E+02  0.42767849298E+02  0.00000000000E+00 0. -1.
</event>
<event>
 7    1  0.4096472E-015  0.9000759E+02  0.7816164E-02  0.1186339E+00
        -11   -1    0    0    0    0  0.00000000000E+00  0.00000000000E+00  0.45593999997E+02  0.45594000000E+02  0.51100000000E-03 0. -1.
         11   -1    0    0    0    0 -0.00000000000E+00 -0.00000000000E+00 -0.45593999997E+02  0.45594000000E+02  0.51100000000E-03 0.  1.
    9900012    2    1    2    0    0  0.29212636690E+00  0.71084917107E+00 -0.89594974438E+00  0.90007588926E+02  0.89999848300E+02 0.  0.
         12    1    1    2    0    0 -0.29212636690E+00 -0.71084917107E+00  0.89594974438E+00  0.11804110736E+01  0.00000000000E+00 0. -1.
         11    1    3    3    0    0  0.12080549519E+02  0.61763812085E+00 -0.37599639927E+01  0.12667220809E+02  0.51100000000E-03 0. -1.
        -11    1    3    3    0    0 -0.84399416184E+01 -0.22816927050E+01 -0.36617106067E+02  0.37646396815E+02  0.51100000000E-03 0.  1.
         12    1    3    3    0    0 -0.33484815338E+01  0.23749037552E+01  0.39481120316E+02  0.39693971303E+02  0.00000000000E+00 0. -1.
</event>
<event>
 7    1  0.4096472E-015  0.9000778E+02  0.7816164E-02  0.1186339E+00
        -11   -1    0    0    0    0  0.00000000000E+00  0.00000000000E+00  0.45593999997E+02  0.45594000000E+02  0.51100000000E-03 0.  1.
         11   -1    0    0    0    0 -0.00000000000E+00 -0.00000000000E+00 -0.45593999997E+02  0.45594000000E+02  0.51100000000E-03 0. -1.
    9900012    2    1    2    0    0 -0.11185472150E+01  0.20626760033E-01  0.37597174138E+00  0.90007776256E+02  0.90000038103E+02 0.  0.
         12    1    1    2    0    0  0.11185472150E+01 -0.20626760033E-01 -0.37597174138E+00  0.11802237440E+01  0.00000000000E+00 0. -1.
         11    1    3    3    0    0 -0.25419270362E+01  0.64947969425E+01  0.37940397931E+01  0.79396800058E+01  0.51100000000E-03 0. -1.
        -11    1    3    3    0    0 -0.10836312603E+02  0.89296216734E+01  0.35652437145E+02  0.38317882100E+02  0.51100000000E-03 0.  1.
         12    1    3    3    0    0  0.12259692424E+02 -0.15403791856E+02 -0.39070505196E+02  0.43750214150E+02  0.00000000000E+00 0. -1.
</event>
<event>
 7    1  0.4096472E-015  0.9000775E+02  0.7816164E-02  0.1186339E+00
        -11   -1    0    0    0    0  0.00000000000E+00  0.00000000000E+00  0.45593999997E+02  0.45594000000E+02  0.51100000000E-03 0.  1.
         11   -1    0    0    0    0 -0.00000000000E+00 -0.00000000000E+00 -0.45593999997E+02  0.45594000000E+02  0.51100000000E-03 0. -1.
    9900012    2    1    2    0    0 -0.62382229013E+00 -0.42875034194E+00 -0.90553895716E+00  0.90007753454E+02  0.90000015000E+02 0.  0.
         12    1    1    2    0    0  0.62382229013E+00  0.42875034194E+00  0.90553895716E+00  0.11802465456E+01  0.00000000000E+00 0. -1.
         11    1    3    3    0    0  0.49210998612E+01 -0.26197403646E+01  0.34797152527E+01  0.65718096383E+01  0.51100000000E-03 0. -1.
        -11    1    3    3    0    0 -0.28941567164E+02  0.32912153347E+02  0.36983215439E+01  0.43982970914E+02  0.51100000000E-03 0.  1.
         12    1    3    3    0    0  0.23396645013E+02 -0.30721163325E+02 -0.80835757537E+01  0.39452972903E+02  0.00000000000E+00 0. -1.
</event>
<event>
 7    1  0.4096472E-015  0.9000772E+02  0.7816164E-02  0.1186339E+00
        -11   -1    0    0    0    0  0.00000000000E+00  0.00000000000E+00  0.45593999997E+02  0.45594000000E+02  0.51100000000E-03 0. -1.
         11   -1    0    0    0    0 -0.00000000000E+00 -0.00000000000E+00 -0.45593999997E+02  0.45594000000E+02  0.51100000000E-03 0.  1.
    9900012    2    1    2    0    0  0.61160567943E+00  0.80606920214E+00 -0.60767061899E+00  0.90007715015E+02  0.89999976053E+02 0.  0.
         12    1    1    2    0    0 -0.61160567943E+00 -0.80606920214E+00  0.60767061899E+00  0.11802849855E+01  0.00000000000E+00 0. -1.
         11    1    3    3    0    0 -0.43291263908E+01 -0.35915282508E+02  0.13337018934E+02  0.38555478563E+02  0.51100000000E-03 0. -1.
        -11    1    3    3    0    0  0.58190437568E+01 -0.14622515312E+01  0.58964732499E+01  0.84123627378E+01  0.51100000000E-03 0.  1.
        -12    1    3    3    0    0 -0.87831168658E+00  0.38183603241E+02 -0.19841162803E+02  0.43039873714E+02  0.00000000000E+00 0.  1.
</event>
<event>
 7    1  0.4096472E-015  0.9000777E+02  0.7816164E-02  0.1186339E+00
        -11   -1    0    0    0    0  0.00000000000E+00  0.00000000000E+00  0.45593999997E+02  0.45594000000E+02  0.51100000000E-03 0.  1.
         11   -1    0    0    0    0 -0.00000000000E+00 -0.00000000000E+00 -0.45593999997E+02  0.45594000000E+02  0.51100000000E-03 0. -1.
    9900012    2    1    2    0    0 -0.19826784193E+00  0.11619596309E+01  0.59028351404E-01  0.90007769231E+02  0.90000030985E+02 0.  0.
         12    1    1    2    0    0  0.19826784193E+00 -0.11619596309E+01 -0.59028351404E-01  0.11802307687E+01  0.00000000000E+00 0. -1.
         11    1    3    3    0    0  0.18204817610E+01 -0.22489158948E+01  0.63059555178E+01  0.69380726285E+01  0.51100000000E-03 0. -1.
        -11    1    3    3    0    0  0.25222431325E+02 -0.25938221531E+02  0.13253512750E+02  0.38530740696E+02  0.51100000000E-03 0.  1.
         12    1    3    3    0    0 -0.27241180928E+02  0.29349097056E+02 -0.19500439916E+02  0.44538955907E+02  0.00000000000E+00 0. -1.
</event>
<event>
 7    1  0.4096472E-015  0.9000772E+02  0.7816164E-02  0.1186339E+00
        -11   -1    0    0    0    0  0.00000000000E+00  0.00000000000E+00  0.45593999997E+02  0.45594000000E+02  0.51100000000E-03 0.  1.
         11   -1    0    0    0    0 -0.00000000000E+00 -0.00000000000E+00 -0.45593999997E+02  0.45594000000E+02  0.51100000000E-03 0. -1.
    9900012    2    1    2    0    0  0.82424288375E+00 -0.84363966464E+00 -0.44151977753E-01  0.90007723078E+02  0.89999984223E+02 0.  0.
         12    1    1    2    0    0 -0.82424288375E+00  0.84363966464E+00  0.44151977753E-01  0.11802769219E+01  0.00000000000E+00 0. -1.
         11    1    3    3    0    0 -0.16211562996E+02  0.26405135938E+01  0.24413591842E+02  0.29424658940E+02  0.51100000000E-03 0. -1.
        -11    1    3    3    0    0 -0.14689791599E+01  0.22890943128E+02 -0.72491996552E+01  0.24056268891E+02  0.51100000000E-03 0.  1.
         12    1    3    3    0    0  0.18504785039E+02 -0.26375096387E+02 -0.17208544165E+02  0.36526795247E+02  0.00000000000E+00 0. -1.
</event>
<event>
 7    1  0.4096472E-015  0.9000773E+02  0.7816164E-02  0.1186339E+00
        -11   -1    0    0    0    0  0.00000000000E+00  0.00000000000E+00  0.45593999997E+02  0.45594000000E+02  0.51100000000E-03 0.  1.
         11   -1    0    0    0    0 -0.00000000000E+00 -0.00000000000E+00 -0.45593999997E+02  0.45594000000E+02  0.51100000000E-03 0. -1.
    9900012    2    1    2    0    0  0.34660539741E+00  0.10647196487E+01  0.37320478716E+00  0.90007726707E+02  0.89999987900E+02 0.  0.
         12    1    1    2    0    0 -0.34660539741E+00 -0.10647196487E+01 -0.37320478716E+00  0.11802732925E+01  0.00000000000E+00 0. -1.
         11    1    3    3    0    0 -0.57214904438E+01 -0.64846980793E+01 -0.51824355439E+01  0.10081884769E+02  0.51100000000E-03 0. -1.
        -11    1    3    3    0    0 -0.33903407722E+02 -0.19310259220E+01  0.15999425978E+02  0.37538667374E+02  0.51100000000E-03 0.  1.
         12    1    3    3    0    0  0.39971503563E+02  0.94804436500E+01 -0.10443785647E+02  0.42387174564E+02  0.00000000000E+00 0. -1.
</event>
<event>
 7    1  0.4096472E-015  0.9000747E+02  0.7816164E-02  0.1186340E+00
        -11   -1    0    0    0    0  0.00000000000E+00  0.00000000000E+00  0.45593999997E+02  0.45594000000E+02  0.51100000000E-03 0.  1.
         11   -1    0    0    0    0 -0.00000000000E+00 -0.00000000000E+00 -0.45593999997E+02  0.45594000000E+02  0.51100000000E-03 0. -1.
    9900012    2    1    2    0    0 -0.10604230524E+01 -0.92390052446E-01 -0.51051442046E+00  0.90007467093E+02  0.89999724858E+02 0.  0.
         12    1    1    2    0    0  0.10604230524E+01  0.92390052446E-01  0.51051442046E+00  0.11805329074E+01  0.00000000000E+00 0. -1.
         11    1    3    3    0    0 -0.13568776582E+00  0.31209174773E+01  0.84326620165E+01  0.89926818033E+01  0.51100000000E-03 0. -1.
        -11    1    3    3    0    0 -0.34365770176E+02 -0.22392955044E+02  0.15980691805E+01  0.41048805351E+02  0.51100000000E-03 0.  1.
         12    1    3    3    0    0  0.33441034890E+02  0.19179647514E+02 -0.10541245618E+02  0.39965979938E+02  0.00000000000E+00 0. -1.
</event>
<event>
 7    1  0.4096472E-015  0.9000768E+02  0.7816164E-02  0.1186339E+00
        -11   -1    0    0    0    0  0.00000000000E+00  0.00000000000E+00  0.45593999997E+02  0.45594000000E+02  0.51100000000E-03 0. -1.
         11   -1    0    0    0    0 -0.00000000000E+00 -0.00000000000E+00 -0.45593999997E+02  0.45594000000E+02  0.51100000000E-03 0.  1.
    9900012    2    1    2    0    0 -0.39567001132E+00  0.39581334948E+00 -0.10391970779E+01  0.90007680750E+02  0.89999941336E+02 0.  0.
         12    1    1    2    0    0  0.39567001132E+00 -0.39581334948E+00  0.10391970779E+01  0.11803192502E+01  0.00000000000E+00 0. -1.
         11    1    3    3    0    0 -0.98346056300E+01  0.38465574142E+01  0.25358665425E+00  0.10563132977E+02  0.51100000000E-03 0. -1.
        -11    1    3    3    0    0 -0.28615680409E+02 -0.12110055927E+02  0.17999137208E+02  0.35909324142E+02  0.51100000000E-03 0.  1.
         12    1    3    3    0    0  0.38054616028E+02  0.86593118627E+01 -0.19291920940E+02  0.43535223630E+02  0.00000000000E+00 0. -1.
</event>
<event>
 7    1  0.4096472E-015  0.9000768E+02  0.7816164E-02  0.1186339E+00
        -11   -1    0    0    0    0  0.00000000000E+00  0.00000000000E+00  0.45593999997E+02  0.45594000000E+02  0.51100000000E-03 0.  1.
         11   -1    0    0    0    0 -0.00000000000E+00 -0.00000000000E+00 -0.45593999997E+02  0.45594000000E+02  0.51100000000E-03 0. -1.
    9900012    2    1    2    0    0 -0.10230329945E+01  0.57542387810E+00  0.12431946915E+00  0.90007676113E+02  0.89999936638E+02 0.  0.
         12    1    1    2    0    0  0.10230329945E+01 -0.57542387810E+00 -0.12431946915E+00  0.11803238868E+01  0.00000000000E+00 0. -1.
         11    1    3    3    0    0  0.37293988013E+02 -0.25171896004E+01  0.38287272170E+00  0.37380802254E+02  0.51100000000E-03 0. -1.
        -11    1    3    3    0    0  0.55226887340E+01 -0.32158005598E+01  0.48767266175E+01  0.80389008487E+01  0.51100000000E-03 0.  1.
        -12    1    3    3    0    0 -0.43839709741E+02  0.63084140383E+01 -0.51352798700E+01  0.44587973011E+02  0.00000000000E+00 0.  1.
</event>
<event>
 7    1  0.4096472E-015  0.9000782E+02  0.7816164E-02  0.1186339E+00
        -11   -1    0    0    0    0  0.00000000000E+00  0.00000000000E+00  0.45593999997E+02  0.45594000000E+02  0.51100000000E-03 0.  1.
         11   -1    0    0    0    0 -0.00000000000E+00 -0.00000000000E+00 -0.45593999997E+02  0.45594000000E+02  0.51100000000E-03 0. -1.
    9900012    2    1    2    0    0 -0.76240497975E+00 -0.58529964241E+00 -0.68481917540E+00  0.90007824451E+02  0.90000086933E+02 0.  0.
         12    1    1    2    0    0  0.76240497975E+00  0.58529964241E+00  0.68481917540E+00  0.11801755495E+01  0.00000000000E+00 0. -1.
         11    1    3    3    0    0 -0.29617224152E+02  0.20394779796E+02 -0.15882907648E+02  0.39311496601E+02  0.51100000000E-03 0. -1.
        -11    1    3    3    0    0 -0.58168826034E+01 -0.67732537207E+01 -0.24795704669E+01  0.92661404667E+01  0.51100000000E-03 0.  1.
        -12    1    3    3    0    0  0.34671701776E+02 -0.14206825717E+02  0.17677658939E+02  0.41430187383E+02  0.00000000000E+00 0.  1.
</event>
<event>
 7    1  0.4096664E-015  0.9000757E+02  0.7816164E-02  0.1186339E+00
        -11   -1    0    0    0    0  0.00000000000E+00  0.00000000000E+00  0.45593999997E+02  0.45594000000E+02  0.51100000000E-03 0. -1.
         11   -1    0    0    0    0 -0.00000000000E+00 -0.00000000000E+00 -0.45593999997E+02  0.45594000000E+02  0.51100000000E-03 0.  1.
    9900012    2    1    2    0    0  0.72493763420E+00 -0.89703822483E+00 -0.25139814596E+00  0.90007570765E+02  0.89999829899E+02 0.  0.
         12    1    1    2    0    0 -0.72493763420E+00  0.89703822483E+00  0.25139814596E+00  0.11804292347E+01  0.00000000000E+00 0. -1.
         11    1    3    3    0    0  0.16936684987E+02 -0.29269979406E+02  0.20432074433E+02  0.39510158930E+02  0.51100000000E-03 0. -1.
        -11    1    3    3    0    0  0.44555827413E+01 -0.44686061812E+01 -0.68206321480E+01  0.92920224885E+01  0.51100000000E-03 0.  1.
        -12    1    3    3    0    0 -0.20667330095E+02  0.32841547362E+02 -0.13862840431E+02  0.41205389347E+02  0.00000000000E+00 0.  1.
</event>
<event>
 7    1  0.4981942E-015  0.9000766E+02  0.7816164E-02  0.1186339E+00
        -11   -1    0    0    0    0  0.00000000000E+00  0.00000000000E+00  0.45593999997E+02  0.45594000000E+02  0.51100000000E-03 0. -1.
         11   -1    0    0    0    0 -0.00000000000E+00 -0.00000000000E+00 -0.45593999997E+02  0.45594000000E+02  0.51100000000E-03 0.  1.
    9900012    2    1    2    0    0 -0.67269352004E+00 -0.63307808430E+00 -0.73477805317E+00  0.90007659702E+02  0.89999920010E+02 0.  0.
         12    1    1    2    0    0  0.67269352004E+00  0.63307808430E+00  0.73477805317E+00  0.11803402984E+01  0.00000000000E+00 0. -1.
         11    1    3    3    0    0 -0.23536342134E+02 -0.61305139544E+01  0.26133717800E+02  0.35700333454E+02  0.51100000000E-03 0. -1.
        -11    1    3    3    0    0 -0.35683497456E+01 -0.62843959469E+01  0.67916891803E+01  0.99173481590E+01  0.51100000000E-03 0.  1.
        -12    1    3    3    0    0  0.26431998360E+02  0.11781831817E+02 -0.33660185033E+02  0.44389978089E+02  0.00000000000E+00 0.  1.
</event>
<event>
 7    1  0.4096472E-015  0.9000779E+02  0.7816164E-02  0.1186339E+00
        -11   -1    0    0    0    0  0.00000000000E+00  0.00000000000E+00  0.45593999997E+02  0.45594000000E+02  0.51100000000E-03 0.  1.
         11   -1    0    0    0    0 -0.00000000000E+00 -0.00000000000E+00 -0.45593999997E+02  0.45594000000E+02  0.51100000000E-03 0. -1.
    9900012    2    1    2    0    0 -0.10501701385E+00 -0.76341549541E+00  0.89390413617E+00  0.90007789681E+02  0.90000051705E+02 0.  0.
         12    1    1    2    0    0  0.10501701385E+00  0.76341549541E+00 -0.89390413617E+00  0.11802103188E+01  0.00000000000E+00 0. -1.
         11    1    3    3    0    0  0.48675454735E+01 -0.76194719251E+01 -0.34851167562E+02  0.36004905667E+02  0.51100000000E-03 0. -1.
        -11    1    3    3    0    0  0.14327936281E+01  0.20231472476E+01 -0.85935734830E+01  0.89440219049E+01  0.51100000000E-03 0.  1.
        -12    1    3    3    0    0 -0.64053561154E+01  0.48329091822E+01  0.44338645181E+02  0.45058862110E+02  0.00000000000E+00 0.  1.
</event>
<event>
 7    1  0.4096472E-015  0.9000717E+02  0.7816164E-02  0.1186340E+00
        -11   -1    0    0    0    0  0.00000000000E+00  0.00000000000E+00  0.45593999997E+02  0.45594000000E+02  0.51100000000E-03 0. -1.
         11   -1    0    0    0    0 -0.00000000000E+00 -0.00000000000E+00 -0.45593999997E+02  0.45594000000E+02  0.51100000000E-03 0.  1.
    9900012    2    1    2    0    0 -0.57445974375E+00  0.19103353531E+00  0.10138311083E+01  0.90007173457E+02  0.89999427345E+02 0.  0.
         12    1    1    2    0    0  0.57445974375E+00 -0.19103353531E+00 -0.10138311083E+01  0.11808265431E+01  0.00000000000E+00 0. -1.
         11    1    3    3    0    0 -0.54204740986E+01 -0.40752854424E+01  0.37456855594E+02  0.38065805155E+02  0.51100000000E-03 0. -1.
        -11    1    3    3    0    0 -0.43981867804E+01  0.62390029998E+01  0.52017870629E+01  0.92373044930E+01  0.51100000000E-03 0.  1.
        -12    1    3    3    0    0  0.92442011353E+01 -0.19726840220E+01 -0.41644811548E+02  0.42704063809E+02  0.00000000000E+00 0.  1.
</event>
<event>
 7    1  0.4708582E-015  0.9000768E+02  0.7816164E-02  0.1186339E+00
        -11   -1    0    0    0    0  0.00000000000E+00  0.00000000000E+00  0.45593999997E+02  0.45594000000E+02  0.51100000000E-03 0. -1.
         11   -1    0    0    0    0 -0.00000000000E+00 -0.00000000000E+00 -0.45593999997E+02  0.45594000000E+02  0.51100000000E-03 0.  1.
    9900012    2    1    2    0    0  0.84359312848E+00  0.26635238538E+00 -0.78138987999E+00  0.90007676695E+02  0.89999937227E+02 0.  0.
         12    1    1    2    0    0 -0.84359312848E+00 -0.26635238538E+00  0.78138987999E+00  0.11803233049E+01  0.00000000000E+00 0. -1.
         11    1    3    3    0    0 -0.36033127456E+02  0.57405212360E+01  0.64895671094E+01  0.37060144897E+02  0.51100000000E-03 0. -1.
        -11    1    3    3    0    0 -0.42613804829E+01 -0.37116425942E+01  0.73336025683E+01  0.92583681747E+01  0.51100000000E-03 0.  1.
        -12    1    3    3    0    0  0.41138101067E+02 -0.17625262564E+01 -0.14604559558E+02  0.43689163623E+02  0.00000000000E+00 0.  1.
</event>
<event>
 7    1  0.4096472E-015  0.9000774E+02  0.7816164E-02  0.1186339E+00
        -11   -1    0    0    0    0  0.00000000000E+00  0.00000000000E+00  0.45593999997E+02  0.45594000000E+02  0.51100000000E-03 0.  1.
         11   -1    0    0    0    0 -0.00000000000E+00 -0.00000000000E+00 -0.45593999997E+02  0.45594000000E+02  0.51100000000E-03 0. -1.
    9900012    2    1    2    0    0  0.32025257865E+00  0.97467177642E+00 -0.58348947614E+00  0.90007742929E+02  0.90000004335E+02 0.  0.
         12    1    1    2    0    0 -0.32025257865E+00 -0.97467177642E+00  0.58348947614E+00  0.11802570714E+01  0.00000000000E+00 0. -1.
         11    1    3    3    0    0  0.12915962714E+02 -0.17272158503E+02  0.13281358642E+01  0.21608181259E+02  0.51100000000E-03 0. -1.
        -11    1    3    3    0    0  0.61285147639E+01 -0.12904970749E+02 -0.22481356395E+02  0.26636597922E+02  0.51100000000E-03 0.  1.
         12    1    3    3    0    0 -0.18724224899E+02  0.31151801028E+02  0.20569731054E+02  0.41762963748E+02  0.00000000000E+00 0. -1.
</event>
<event>
 7    1  0.4096472E-015  0.9000774E+02  0.7816164E-02  0.1186339E+00
        -11   -1    0    0    0    0  0.00000000000E+00  0.00000000000E+00  0.45593999997E+02  0.45594000000E+02  0.51100000000E-03 0. -1.
         11   -1    0    0    0    0 -0.00000000000E+00 -0.00000000000E+00 -0.45593999997E+02  0.45594000000E+02  0.51100000000E-03 0.  1.
    9900012    2    1    2    0    0 -0.74088525618E+00  0.11771894058E-02 -0.91874554550E+00  0.90007743364E+02  0.90000004777E+02 0.  0.
         12    1    1    2    0    0  0.74088525618E+00 -0.11771894058E-02  0.91874554550E+00  0.11802566356E+01  0.00000000000E+00 0. -1.
         11    1    3    3    0    0 -0.31795725593E+01  0.62345905157E+01  0.36914231415E+02  0.37571801684E+02  0.51100000000E-03 0. -1.
        -11    1    3    3    0    0  0.23164173493E+01  0.70530976745E+01  0.40773792546E+01  0.84697696539E+01  0.51100000000E-03 0.  1.
        -12    1    3    3    0    0  0.12226995380E+00 -0.13286511001E+02 -0.41910356216E+02  0.43966172026E+02  0.00000000000E+00 0.  1.
</event>
<event>
 7    1  0.4096472E-015  0.9000772E+02  0.7816164E-02  0.1186339E+00
        -11   -1    0    0    0    0  0.00000000000E+00  0.00000000000E+00  0.45593999997E+02  0.45594000000E+02  0.51100000000E-03 0.  1.
         11   -1    0    0    0    0 -0.00000000000E+00 -0.00000000000E+00 -0.45593999997E+02  0.45594000000E+02  0.51100000000E-03 0. -1.
    9900012    2    1    2    0    0 -0.97697593691E-01 -0.74819822234E+00 -0.90758773612E+00  0.90007719991E+02  0.89999981095E+02 0.  0.
         12    1    1    2    0    0  0.97697593691E-01  0.74819822234E+00  0.90758773612E+00  0.11802800085E+01  0.00000000000E+00 0. -1.
         11    1    3    3    0    0  0.13439130268E+02  0.12239978752E+02  0.26241989407E+02  0.31922865011E+02  0.51100000000E-03 0. -1.
        -11    1    3    3    0    0 -0.26852626127E+01 -0.19727704723E+02  0.74070229275E+01  0.21242809557E+02  0.51100000000E-03 0.  1.
         12    1    3    3    0    0 -0.10851565249E+02  0.67395277492E+01 -0.34556600070E+02  0.36842045424E+02  0.00000000000E+00 0. -1.
</event>
<event>
 7    1  0.4096472E-015  0.9000773E+02  0.7816164E-02  0.1186339E+00
        -11   -1    0    0    0    0  0.00000000000E+00  0.00000000000E+00  0.45593999997E+02  0.45594000000E+02  0.51100000000E-03 0. -1.
         11   -1    0    0    0    0 -0.00000000000E+00 -0.00000000000E+00 -0.45593999997E+02  0.45594000000E+02  0.51100000000E-03 0.  1.
    9900012    2    1    2    0    0  0.75974608494E+00 -0.77263748571E+00 -0.46781688648E+00  0.90007730778E+02  0.89999992024E+02 0.  0.
         12    1    1    2    0    0 -0.75974608494E+00  0.77263748571E+00  0.46781688648E+00  0.11802692223E+01  0.00000000000E+00 0. -1.
         11    1    3    3    0    0  0.10675829489E+02 -0.51004319037E+00  0.21345590398E+01  0.10899074359E+02  0.51100000000E-03 0. -1.
        -11    1    3    3    0    0  0.29989061476E+02 -0.78712501437E+01 -0.17780943363E+02  0.35741605087E+02  0.51100000000E-03 0.  1.
         12    1    3    3    0    0 -0.39905144880E+02  0.76086558484E+01  0.15178567437E+02  0.43367051331E+02  0.00000000000E+00 0. -1.
</event>
<event>
 7    1  0.4096472E-015  0.9000769E+02  0.7816164E-02  0.1186339E+00
        -11   -1    0    0    0    0  0.00000000000E+00  0.00000000000E+00  0.45593999997E+02  0.45594000000E+02  0.51100000000E-03 0.  1.
         11   -1    0    0    0    0 -0.00000000000E+00 -0.00000000000E+00 -0.45593999997E+02  0.45594000000E+02  0.51100000000E-03 0. -1.
    9900012    2    1    2    0    0 -0.14793086629E+00 -0.30685526599E+00  0.11300830008E+01  0.90007690175E+02  0.89999950885E+02 0.  0.
         12    1    1    2    0    0  0.14793086629E+00  0.30685526599E+00 -0.11300830008E+01  0.11803098255E+01  0.00000000000E+00 0. -1.
         11    1    3    3    0    0 -0.87895593549E+01  0.50544280208E+01  0.14938128470E+01  0.10248662027E+02  0.51100000000E-03 0. -1.
        -11    1    3    3    0    0 -0.17897978194E+02  0.27292864351E+02  0.13693298400E+02  0.35394130718E+02  0.51100000000E-03 0.  1.
         12    1    3    3    0    0  0.26539606682E+02 -0.32654147638E+02 -0.14057028246E+02  0.44364897430E+02  0.00000000000E+00 0. -1.
</event>
<event>
 7    1  0.4096472E-015  0.9000775E+02  0.7816164E-02  0.1186339E+00
        -11   -1    0    0    0    0  0.00000000000E+00  0.00000000000E+00  0.45593999997E+02  0.45594000000E+02  0.51100000000E-03 0. -1.
         11   -1    0    0    0    0 -0.00000000000E+00 -0.00000000000E+00 -0.45593999997E+02  0.45594000000E+02  0.51100000000E-03 0.  1.
    9900012    2    1    2    0    0  0.93710954380E+00 -0.23713528159E+00 -0.67718271524E+00  0.90007752624E+02  0.90000014159E+02 0.  0.
         12    1    1    2    0    0 -0.93710954380E+00  0.23713528159E+00  0.67718271524E+00  0.11802473761E+01  0.00000000000E+00 0. -1.
         11    1    3    3    0    0 -0.63334622037E+01 -0.18771654087E+01 -0.54553705232E+01  0.85672376682E+01  0.51100000000E-03 0. -1.
        -11    1    3    3    0    0 -0.12777179746E+02  0.15792968235E+02 -0.31595549421E+02  0.37562653146E+02  0.51100000000E-03 0.  1.
         12    1    3    3    0    0  0.20047751493E+02 -0.14152938108E+02  0.36373737228E+02  0.43877861810E+02  0.00000000000E+00 0. -1.
</event>
<event>
 7    1  0.4096472E-015  0.9000784E+02  0.7816164E-02  0.1186339E+00
        -11   -1    0    0    0    0  0.00000000000E+00  0.00000000000E+00  0.45593999997E+02  0.45594000000E+02  0.51100000000E-03 0.  1.
         11   -1    0    0    0    0 -0.00000000000E+00 -0.00000000000E+00 -0.45593999997E+02  0.45594000000E+02  0.51100000000E-03 0. -1.
    9900012    2    1    2    0    0 -0.42072935847E-01  0.67008800991E-01  0.11774997630E+01  0.90007844924E+02  0.90000107677E+02 0.  0.
         12    1    1    2    0    0  0.42072935847E-01 -0.67008800991E-01 -0.11774997630E+01  0.11801550759E+01  0.00000000000E+00 0. -1.
         11    1    3    3    0    0 -0.35333587489E+00 -0.79177128431E+01 -0.48946048684E+01  0.93151586130E+01  0.51100000000E-03 0. -1.
        -11    1    3    3    0    0 -0.66236507154E+01 -0.35030359286E+02  0.97699344929E+01  0.36965530441E+02  0.51100000000E-03 0.  1.
         12    1    3    3    0    0  0.69349136544E+01  0.43015080930E+02 -0.36978298615E+01  0.43727155870E+02  0.00000000000E+00 0. -1.
</event>
<event>
 7    1  0.4096472E-015  0.9000772E+02  0.7816164E-02  0.1186339E+00
        -11   -1    0    0    0    0  0.00000000000E+00  0.00000000000E+00  0.45593999997E+02  0.45594000000E+02  0.51100000000E-03 0.  1.
         11   -1    0    0    0    0 -0.00000000000E+00 -0.00000000000E+00 -0.45593999997E+02  0.45594000000E+02  0.51100000000E-03 0. -1.
    9900012    2    1    2    0    0  0.13688138618E+00  0.44890790959E+00  0.10829639504E+01  0.90007717939E+02  0.89999979016E+02 0.  0.
         12    1    1    2    0    0 -0.13688138618E+00 -0.44890790959E+00 -0.10829639504E+01  0.11802820608E+01  0.00000000000E+00 0. -1.
         11    1    3    3    0    0 -0.16366553198E+02 -0.11375803435E+02 -0.34973189921E+02  0.40254154828E+02  0.51100000000E-03 0. -1.
        -11    1    3    3    0    0  0.33230225634E+01  0.80524307839E+01 -0.23093997856E+01  0.90120723542E+01  0.51100000000E-03 0.  1.
        -12    1    3    3    0    0  0.13180412021E+02  0.37722805605E+01  0.38365553657E+02  0.40741490757E+02  0.00000000000E+00 0.  1.
</event>
<event>
 7    1  0.4096472E-015  0.9000776E+02  0.7816164E-02  0.1186339E+00
        -11   -1    0    0    0    0  0.00000000000E+00  0.00000000000E+00  0.45593999997E+02  0.45594000000E+02  0.51100000000E-03 0.  1.
         11   -1    0    0    0    0 -0.00000000000E+00 -0.00000000000E+00 -0.45593999997E+02  0.45594000000E+02  0.51100000000E-03 0. -1.
    9900012    2    1    2    0    0  0.62730343798E+00  0.18992597577E+00  0.98152660852E+00  0.90007755973E+02  0.90000017552E+02 0.  0.
         12    1    1    2    0    0 -0.62730343798E+00 -0.18992597577E+00 -0.98152660852E+00  0.11802440268E+01  0.00000000000E+00 0. -1.
         11    1    3    3    0    0 -0.25243431265E+02  0.54967735096E+01 -0.18973051931E+02  0.32053424792E+02  0.51100000000E-03 0. -1.
        -11    1    3    3    0    0 -0.48984269449E+01  0.15412843363E+01 -0.12009782536E+02  0.13061585691E+02  0.51100000000E-03 0.  1.
        -12    1    3    3    0    0  0.30769161648E+02 -0.68481318702E+01  0.31964361076E+02  0.44892745490E+02  0.00000000000E+00 0.  1.
</event>
<event>
 7    1  0.4096472E-015  0.9000797E+02  0.7816164E-02  0.1186339E+00
        -11   -1    0    0    0    0  0.00000000000E+00  0.00000000000E+00  0.45593999997E+02  0.45594000000E+02  0.51100000000E-03 0. -1.
         11   -1    0    0    0    0 -0.00000000000E+00 -0.00000000000E+00 -0.45593999997E+02  0.45594000000E+02  0.51100000000E-03 0.  1.
    9900012    2    1    2    0    0 -0.37429879967E+00  0.10926051634E+01  0.24202626042E+00  0.90007973583E+02  0.90000238034E+02 0.  0.
         12    1    1    2    0    0  0.37429879967E+00 -0.10926051634E+01 -0.24202626042E+00  0.11800264171E+01  0.00000000000E+00 0. -1.
         11    1    3    3    0    0  0.13674837052E+02 -0.55788036952E+01 -0.34896642499E+01  0.15175703473E+02  0.51100000000E-03 0. -1.
        -11    1    3    3    0    0  0.53260991525E+01  0.30307273979E+02  0.23251295015E+02  0.38568392608E+02  0.51100000000E-03 0.  1.
         12    1    3    3    0    0 -0.19375235004E+02 -0.23635865120E+02 -0.19519604505E+02  0.36263877502E+02  0.00000000000E+00 0. -1.
</event>
<event>
 7    1  0.4096472E-015  0.9000778E+02  0.7816164E-02  0.1186339E+00
        -11   -1    0    0    0    0  0.00000000000E+00  0.00000000000E+00  0.45593999997E+02  0.45594000000E+02  0.51100000000E-03 0.  1.
         11   -1    0    0    0    0 -0.00000000000E+00 -0.00000000000E+00 -0.45593999997E+02  0.45594000000E+02  0.51100000000E-03 0. -1.
    9900012    2    1    2    0    0  0.50767656058E+00  0.89160478986E+00  0.58328473074E+00  0.90007781517E+02  0.90000043433E+02 0.  0.
         12    1    1    2    0    0 -0.50767656058E+00 -0.89160478986E+00 -0.58328473074E+00  0.11802184834E+01  0.00000000000E+00 0. -1.
         11    1    3    3    0    0  0.71505900641E+01 -0.38430405100E+01  0.39213629215E+01  0.90153749811E+01  0.51100000000E-03 0. -1.
        -11    1    3    3    0    0  0.32819504404E+02  0.94031313070E+01  0.14923905703E+02  0.37259384179E+02  0.51100000000E-03 0.  1.
         12    1    3    3    0    0 -0.39462417908E+02 -0.46684860071E+01 -0.18261983893E+02  0.43733022357E+02  0.00000000000E+00 0. -1.
</event>
<event>
 7    1  0.4096472E-015  0.9000785E+02  0.7816164E-02  0.1186339E+00
        -11   -1    0    0    0    0  0.00000000000E+00  0.00000000000E+00  0.45593999997E+02  0.45594000000E+02  0.51100000000E-03 0. -1.
         11   -1    0    0    0    0 -0.00000000000E+00 -0.00000000000E+00 -0.45593999997E+02  0.45594000000E+02  0.51100000000E-03 0.  1.
    9900012    2    1    2    0    0 -0.10136710609E+01  0.60430341114E+00 -0.56814206197E-02  0.90007854284E+02  0.90000117160E+02 0.  0.
         12    1    1    2    0    0  0.10136710609E+01 -0.60430341114E+00  0.56814206197E-02  0.11801457160E+01  0.00000000000E+00 0. -1.
         11    1    3    3    0    0  0.39086952015E+01  0.23643972335E+01 -0.83030202594E+01  0.94767303509E+01  0.51100000000E-03 0. -1.
        -11    1    3    3    0    0 -0.24338642131E+01 -0.28771264099E+02 -0.24572050534E+02  0.37914311290E+02  0.51100000000E-03 0.  1.
         12    1    3    3    0    0 -0.24885020493E+01  0.27011170277E+02  0.32869389373E+02  0.42616812644E+02  0.00000000000E+00 0. -1.
</event>
<event>
 7    1  0.4096472E-015  0.9000745E+02  0.7816164E-02  0.1186340E+00
        -11   -1    0    0    0    0  0.00000000000E+00  0.00000000000E+00  0.45593999997E+02  0.45594000000E+02  0.51100000000E-03 0. -1.
         11   -1    0    0    0    0 -0.00000000000E+00 -0.00000000000E+00 -0.45593999997E+02  0.45594000000E+02  0.51100000000E-03 0.  1.
    9900012    2    1    2    0    0 -0.60309288413E+00 -0.39892152049E+00 -0.93319113600E+00  0.90007447120E+02  0.89999704621E+02 0.  0.
         12    1    1    2    0    0  0.60309288413E+00  0.39892152049E+00  0.93319113600E+00  0.11805528801E+01  0.00000000000E+00 0. -1.
         11    1    3    3    0    0  0.16313930304E+02 -0.29837543859E+02  0.13170454660E+02  0.36467577678E+02  0.51100000000E-03 0. -1.
        -11    1    3    3    0    0 -0.41946388299E+00 -0.95269703342E+00  0.10847682441E+02  0.10897513303E+02  0.51100000000E-03 0.  1.
        -12    1    3    3    0    0 -0.16497559305E+02  0.30391319372E+02 -0.24951328237E+02  0.42642356138E+02  0.00000000000E+00 0.  1.
</event>
<event>
 7    1  0.4096472E-015  0.9000777E+02  0.7816164E-02  0.1186339E+00
        -11   -1    0    0    0    0  0.00000000000E+00  0.00000000000E+00  0.45593999997E+02  0.45594000000E+02  0.51100000000E-03 0.  1.
         11   -1    0    0    0    0 -0.00000000000E+00 -0.00000000000E+00 -0.45593999997E+02  0.45594000000E+02  0.51100000000E-03 0. -1.
    9900012    2    1    2    0    0  0.23339450068E+00  0.11414015864E+01 -0.18887783134E+00  0.90007768917E+02  0.90000030667E+02 0.  0.
         12    1    1    2    0    0 -0.23339450068E+00 -0.11414015864E+01  0.18887783134E+00  0.11802310831E+01  0.00000000000E+00 0. -1.
         11    1    3    3    0    0  0.24600540730E+01  0.91760318687E+01  0.25518002662E+00  0.95035016707E+01  0.51100000000E-03 0. -1.
        -11    1    3    3    0    0  0.37779072077E+02 -0.13513127632E+02 -0.40475911187E+00  0.40125138449E+02  0.51100000000E-03 0.  1.
         12    1    3    3    0    0 -0.40005731649E+02  0.54784973502E+01 -0.39298746099E-01  0.40379128797E+02  0.00000000000E+00 0. -1.
</event>
<event>
 7    1  0.4096472E-015  0.9000766E+02  0.7816164E-02  0.1186339E+00
        -11   -1    0    0    0    0  0.00000000000E+00  0.00000000000E+00  0.45593999997E+02  0.45594000000E+02  0.51100000000E-03 0.  1.
         11   -1    0    0    0    0 -0.00000000000E+00 -0.00000000000E+00 -0.45593999997E+02  0.45594000000E+02  0.51100000000E-03 0. -1.
    9900012    2    1    2    0    0  0.54635631411E-01 -0.11392196513E+01 -0.30395734345E+00  0.90007662534E+02  0.89999922880E+02 0.  0.
         12    1    1    2    0    0 -0.54635631411E-01  0.11392196513E+01  0.30395734345E+00  0.11803374656E+01  0.00000000000E+00 0. -1.
         11    1    3    3    0    0  0.34071102522E+02 -0.49871711673E+01 -0.16165144579E+02  0.38039766072E+02  0.51100000000E-03 0. -1.
        -11    1    3    3    0    0  0.49711821446E+01 -0.39024467609E+01  0.99396387909E+01  0.11778716492E+02  0.51100000000E-03 0.  1.
        -12    1    3    3    0    0 -0.38987649035E+02  0.77503982768E+01  0.59215484444E+01  0.40189179971E+02  0.00000000000E+00 0.  1.
</event>
<event>
 7    1  0.4096472E-015  0.9000768E+02  0.7816164E-02  0.1186339E+00
        -11   -1    0    0    0    0  0.00000000000E+00  0.00000000000E+00  0.45593999997E+02  0.45594000000E+02  0.51100000000E-03 0. -1.
         11   -1    0    0    0    0 -0.00000000000E+00 -0.00000000000E+00 -0.45593999997E+02  0.45594000000E+02  0.51100000000E-03 0.  1.
    9900012    2    1    2    0    0 -0.41842806336E+00  0.99505733833E+00  0.47742770456E+00  0.90007678703E+02  0.89999939262E+02 0.  0.
         12    1    1    2    0    0  0.41842806336E+00 -0.99505733833E+00 -0.47742770456E+00  0.11803212969E+01  0.00000000000E+00 0. -1.
         11    1    3    3    0    0  0.41640656830E+02 -0.42094501368E+01  0.62384125064E+01  0.42315263943E+02  0.51100000000E-03 0. -1.
        -11    1    3    3    0    0 -0.58297238423E+01 -0.69165899343E+01  0.74782123747E-01  0.90460206182E+01  0.51100000000E-03 0.  1.
        -12    1    3    3    0    0 -0.36229361051E+02  0.12121097409E+02 -0.58357669255E+01  0.38646394142E+02  0.00000000000E+00 0.  1.
</event>
<event>
 7    1  0.4096472E-015  0.9000779E+02  0.7816164E-02  0.1186339E+00
        -11   -1    0    0    0    0  0.00000000000E+00  0.00000000000E+00  0.45593999997E+02  0.45594000000E+02  0.51100000000E-03 0. -1.
         11   -1    0    0    0    0 -0.00000000000E+00 -0.00000000000E+00 -0.45593999997E+02  0.45594000000E+02  0.51100000000E-03 0.  1.
    9900012    2    1    2    0    0  0.56425387868E+00 -0.10350253264E+01  0.56912040262E-01  0.90007788643E+02  0.90000050653E+02 0.  0.
         12    1    1    2    0    0 -0.56425387868E+00  0.10350253264E+01 -0.56912040262E-01  0.11802113566E+01  0.00000000000E+00 0. -1.
         11    1    3    3    0    0  0.14667740817E+02  0.92719630847E+01  0.32397321299E+02  0.36751848222E+02  0.51100000000E-03 0. -1.
        -11    1    3    3    0    0 -0.49842485460E+00  0.82062924581E+01  0.48470350263E+01  0.95438677721E+01  0.51100000000E-03 0.  1.
        -12    1    3    3    0    0 -0.13605062084E+02 -0.18513280869E+02 -0.37187444285E+02  0.43712072649E+02  0.00000000000E+00 0.  1.
</event>
<event>
 7    1  0.4096472E-015  0.9000772E+02  0.7816164E-02  0.1186339E+00
        -11   -1    0    0    0    0  0.00000000000E+00  0.00000000000E+00  0.45593999997E+02  0.45594000000E+02  0.51100000000E-03 0.  1.
         11   -1    0    0    0    0 -0.00000000000E+00 -0.00000000000E+00 -0.45593999997E+02  0.45594000000E+02  0.51100000000E-03 0. -1.
    9900012    2    1    2    0    0 -0.64184841358E+00  0.90768478363E+00  0.39648298037E+00  0.90007720454E+02  0.89999981564E+02 0.  0.
         12    1    1    2    0    0  0.64184841358E+00 -0.90768478363E+00 -0.39648298037E+00  0.11802795458E+01  0.00000000000E+00 0. -1.
         11    1    3    3    0    0  0.12078030013E+02  0.53106154264E+01  0.12573060504E+02  0.18225347621E+02  0.51100000000E-03 0. -1.
        -11    1    3    3    0    0 -0.14415527051E+01  0.30296919395E+02 -0.17330911265E+02  0.34933392114E+02  0.51100000000E-03 0.  1.
         12    1    3    3    0    0 -0.11278325721E+02 -0.34699850038E+02  0.51543337416E+01  0.36848980719E+02  0.00000000000E+00 0. -1.
</event>
<event>
 7    1  0.4096472E-015  0.9000769E+02  0.7816164E-02  0.1186339E+00
        -11   -1    0    0    0    0  0.00000000000E+00  0.00000000000E+00  0.45593999997E+02  0.45594000000E+02  0.51100000000E-03 0. -1.
         11   -1    0    0    0    0 -0.00000000000E+00 -0.00000000000E+00 -0.45593999997E+02  0.45594000000E+02  0.51100000000E-03 0.  1.
    9900012    2    1    2    0    0  0.54575768106E+00  0.94589126064E+00 -0.44785979808E+00  0.90007686431E+02  0.89999947091E+02 0.  0.
         12    1    1    2    0    0 -0.54575768106E+00 -0.94589126064E+00  0.44785979808E+00  0.11803135694E+01  0.00000000000E+00 0. -1.
         11    1    3    3    0    0 -0.26990481857E+02  0.20414805569E+01  0.32531053784E+02  0.42319300730E+02  0.51100000000E-03 0. -1.
        -11    1    3    3    0    0 -0.25668159828E+01  0.28448390565E+01 -0.57324556889E+01  0.68951216112E+01  0.51100000000E-03 0.  1.
        -12    1    3    3    0    0  0.30103055521E+02 -0.39404283528E+01 -0.27246457893E+02  0.40793264089E+02  0.00000000000E+00 0.  1.
</event>
<event>
 7    1  0.4096472E-015  0.9000779E+02  0.7816164E-02  0.1186339E+00
        -11   -1    0    0    0    0  0.00000000000E+00  0.00000000000E+00  0.45593999997E+02  0.45594000000E+02  0.51100000000E-03 0.  1.
         11   -1    0    0    0    0 -0.00000000000E+00 -0.00000000000E+00 -0.45593999997E+02  0.45594000000E+02  0.51100000000E-03 0. -1.
    9900012    2    1    2    0    0 -0.10135298122E+01  0.50890804645E+00  0.32658618259E+00  0.90007792978E+02  0.90000055045E+02 0.  0.
         12    1    1    2    0    0  0.10135298122E+01 -0.50890804645E+00 -0.32658618259E+00  0.11802070219E+01  0.00000000000E+00 0. -1.
         11    1    3    3    0    0 -0.39838195065E+02  0.11216718018E+02  0.74817944173E+01  0.42057981372E+02  0.51100000000E-03 0. -1.
        -11    1    3    3    0    0  0.22241133088E+01 -0.10340240775E+02  0.36428838777E+00  0.10583003618E+02  0.51100000000E-03 0.  1.
        -12    1    3    3    0    0  0.36600551944E+02 -0.36756919685E+00 -0.75194966225E+01  0.37366807988E+02  0.00000000000E+00 0.  1.
</event>
<event>
 7    1  0.4096472E-015  0.9000776E+02  0.7816164E-02  0.1186339E+00
        -11   -1    0    0    0    0  0.00000000000E+00  0.00000000000E+00  0.45593999997E+02  0.45594000000E+02  0.51100000000E-03 0. -1.
         11   -1    0    0    0    0 -0.00000000000E+00 -0.00000000000E+00 -0.45593999997E+02  0.45594000000E+02  0.51100000000E-03 0.  1.
    9900012    2    1    2    0    0 -0.10211287705E+01  0.40893831818E+00 -0.42782300490E+00  0.90007759754E+02  0.90000021383E+02 0.  0.
         12    1    1    2    0    0  0.10211287705E+01 -0.40893831818E+00  0.42782300490E+00  0.11802402456E+01  0.00000000000E+00 0. -1.
         11    1    3    3    0    0 -0.10655634558E+02 -0.10708885349E+01  0.20640555183E+01  0.10906405253E+02  0.51100000000E-03 0. -1.
        -11    1    3    3    0    0  0.87278757425E+01 -0.37127485292E+02  0.82408609566E+01  0.39019710002E+02  0.51100000000E-03 0.  1.
         12    1    3    3    0    0  0.90663004519E+00  0.38607312145E+02 -0.10732739480E+02  0.40081644500E+02  0.00000000000E+00 0. -1.
</event>
<event>
 7    1  0.4096472E-015  0.9000771E+02  0.7816164E-02  0.1186339E+00
        -11   -1    0    0    0    0  0.00000000000E+00  0.00000000000E+00  0.45593999997E+02  0.45594000000E+02  0.51100000000E-03 0.  1.
         11   -1    0    0    0    0 -0.00000000000E+00 -0.00000000000E+00 -0.45593999997E+02  0.45594000000E+02  0.51100000000E-03 0. -1.
    9900012    2    1    2    0    0 -0.18866881726E+00 -0.35261270034E-01  0.11645767790E+01  0.90007712597E+02  0.89999973603E+02 0.  0.
         12    1    1    2    0    0  0.18866881726E+00  0.35261270034E-01 -0.11645767790E+01  0.11802874031E+01  0.00000000000E+00 0. -1.
         11    1    3    3    0    0 -0.20363154722E+02 -0.11540986289E+02 -0.73103155631E+01  0.24521279507E+02  0.51100000000E-03 0. -1.
        -11    1    3    3    0    0 -0.17894806218E+02 -0.24564407060E+00 -0.11137498523E+02  0.21079096380E+02  0.51100000000E-03 0.  1.
        -12    1    3    3    0    0  0.38069292123E+02  0.11751369090E+02  0.19612390865E+02  0.44407336710E+02  0.00000000000E+00 0.  1.
</event>
<event>
 7    1  0.4096472E-015  0.9000770E+02  0.7816164E-02  0.1186339E+00
        -11   -1    0    0    0    0  0.00000000000E+00  0.00000000000E+00  0.45593999997E+02  0.45594000000E+02  0.51100000000E-03 0. -1.
         11   -1    0    0    0    0 -0.00000000000E+00 -0.00000000000E+00 -0.45593999997E+02  0.45594000000E+02  0.51100000000E-03 0.  1.
    9900012    2    1    2    0    0 -0.12451499372E+00 -0.52136041919E+00 -0.10515694882E+01  0.90007695353E+02  0.89999956132E+02 0.  0.
         12    1    1    2    0    0  0.12451499372E+00  0.52136041919E+00  0.10515694882E+01  0.11803046466E+01  0.00000000000E+00 0. -1.
         11    1    3    3    0    0 -0.53980816530E+01  0.74764502811E+01  0.20089426760E+02  0.22104788217E+02  0.51100000000E-03 0. -1.
        -11    1    3    3    0    0 -0.17724455344E+02  0.17287608648E+02  0.45123529281E+01  0.25167023249E+02  0.51100000000E-03 0.  1.
        -12    1    3    3    0    0  0.22998022003E+02 -0.25285419349E+02 -0.25653349176E+02  0.42735883887E+02  0.00000000000E+00 0.  1.
</event>
<event>
 7    1  0.4096472E-015  0.9000773E+02  0.7816164E-02  0.1186339E+00
        -11   -1    0    0    0    0  0.00000000000E+00  0.00000000000E+00  0.45593999997E+02  0.45594000000E+02  0.51100000000E-03 0.  1.
         11   -1    0    0    0    0 -0.00000000000E+00 -0.00000000000E+00 -0.45593999997E+02  0.45594000000E+02  0.51100000000E-03 0. -1.
    9900012    2    1    2    0    0 -0.37747566868E+00 -0.54354295454E-01  0.11169580066E+01  0.90007729921E+02  0.89999991156E+02 0.  0.
         12    1    1    2    0    0  0.37747566868E+00  0.54354295454E-01 -0.11169580066E+01  0.11802700786E+01  0.00000000000E+00 0. -1.
         11    1    3    3    0    0  0.83824666935E+01  0.51988281374E+01 -0.75916554574E+00  0.98929214318E+01  0.51100000000E-03 0. -1.
        -11    1    3    3    0    0  0.25655122305E+02 -0.10250549984E+02  0.25882823870E+02  0.37857359221E+02  0.51100000000E-03 0.  1.
         12    1    3    3    0    0 -0.34415064667E+02  0.49973675516E+01 -0.24006700318E+02  0.42257449268E+02  0.00000000000E+00 0. -1.
</event>
<event>
 7    1  0.4096472E-015  0.9000780E+02  0.7816164E-02  0.1186339E+00
        -11   -1    0    0    0    0  0.00000000000E+00  0.00000000000E+00  0.45593999997E+02  0.45594000000E+02  0.51100000000E-03 0. -1.
         11   -1    0    0    0    0 -0.00000000000E+00 -0.00000000000E+00 -0.45593999997E+02  0.45594000000E+02  0.51100000000E-03 0.  1.
    9900012    2    1    2    0    0 -0.39736159515E+00 -0.14352721784E+00 -0.11019824003E+01  0.90007804461E+02  0.90000066680E+02 0.  0.
         12    1    1    2    0    0  0.39736159515E+00  0.14352721784E+00  0.11019824003E+01  0.11801955389E+01  0.00000000000E+00 0. -1.
         11    1    3    3    0    0  0.24655663576E+02  0.18912571719E+02 -0.17966072449E+02  0.35893827811E+02  0.51100000000E-03 0. -1.
        -11    1    3    3    0    0  0.36236346184E+01  0.11401310940E+01 -0.95028363971E+01  0.10233988793E+02  0.51100000000E-03 0.  1.
        -12    1    3    3    0    0 -0.28676659789E+02 -0.20196230031E+02  0.26366926446E+02  0.43879987857E+02  0.00000000000E+00 0.  1.
</event>
<event>
 7    1  0.4096472E-015  0.9000777E+02  0.7816164E-02  0.1186339E+00
        -11   -1    0    0    0    0  0.00000000000E+00  0.00000000000E+00  0.45593999997E+02  0.45594000000E+02  0.51100000000E-03 0.  1.
         11   -1    0    0    0    0 -0.00000000000E+00 -0.00000000000E+00 -0.45593999997E+02  0.45594000000E+02  0.51100000000E-03 0. -1.
    9900012    2    1    2    0    0  0.18624466338E-01 -0.24149686232E+00  0.11551032688E+01  0.90007774951E+02  0.90000036780E+02 0.  0.
         12    1    1    2    0    0 -0.18624466338E-01  0.24149686232E+00 -0.11551032688E+01  0.11802250493E+01  0.00000000000E+00 0. -1.
         11    1    3    3    0    0  0.97395068553E+01  0.11038649706E+01 -0.80366424769E+00  0.98347540967E+01  0.51100000000E-03 0. -1.
        -11    1    3    3    0    0  0.11470594956E+02  0.21811378031E+02  0.29482298464E+02  0.38425469201E+02  0.51100000000E-03 0.  1.
         12    1    3    3    0    0 -0.21191477345E+02 -0.23156739864E+02 -0.27523530948E+02  0.41747551653E+02  0.00000000000E+00 0. -1.
</event>
<event>
 7    1  0.4096472E-015  0.9000770E+02  0.7816164E-02  0.1186339E+00
        -11   -1    0    0    0    0  0.00000000000E+00  0.00000000000E+00  0.45593999997E+02  0.45594000000E+02  0.51100000000E-03 0.  1.
         11   -1    0    0    0    0 -0.00000000000E+00 -0.00000000000E+00 -0.45593999997E+02  0.45594000000E+02  0.51100000000E-03 0. -1.
    9900012    2    1    2    0    0 -0.93913760554E+00  0.58724653293E+00  0.40775190308E+00  0.90007703619E+02  0.89999964507E+02 0.  0.
         12    1    1    2    0    0  0.93913760554E+00 -0.58724653293E+00 -0.40775190308E+00  0.11802963810E+01  0.00000000000E+00 0. -1.
         11    1    3    3    0    0  0.15024574762E+02  0.32337681086E+02 -0.10030955271E+02  0.37041645869E+02  0.51100000000E-03 0. -1.
        -11    1    3    3    0    0  0.83250211466E+01 -0.46235693549E+01 -0.77373549659E+01  0.12269883162E+02  0.51100000000E-03 0.  1.
        -12    1    3    3    0    0 -0.24288733514E+02 -0.27126865198E+02  0.18176062140E+02  0.40696174588E+02  0.00000000000E+00 0.  1.
</event>
<event>
 7    1  0.4096472E-015  0.9000803E+02  0.7816164E-02  0.1186338E+00
        -11   -1    0    0    0    0  0.00000000000E+00  0.00000000000E+00  0.45593999997E+02  0.45594000000E+02  0.51100000000E-03 0.  1.
         11   -1    0    0    0    0 -0.00000000000E+00 -0.00000000000E+00 -0.45593999997E+02  0.45594000000E+02  0.51100000000E-03 0. -1.
    9900012    2    1    2    0    0  0.65870127367E+00  0.57343733344E+00 -0.79348547496E+00  0.90008026720E+02  0.90000291872E+02 0.  0.
         12    1    1    2    0    0 -0.65870127367E+00 -0.57343733344E+00  0.79348547496E+00  0.11799732803E+01  0.00000000000E+00 0. -1.
         11    1    3    3    0    0 -0.31958714351E+02  0.19365302781E+02 -0.14061468687E+02  0.39926172828E+02  0.51100000000E-03 0. -1.
        -11    1    3    3    0    0 -0.92719931183E+00 -0.51855673450E+01 -0.68708769492E+01  0.86578725773E+01  0.51100000000E-03 0.  1.
        -12    1    3    3    0    0  0.33544614937E+02 -0.13606298103E+02  0.20138860161E+02  0.41423981314E+02  0.00000000000E+00 0.  1.
</event>
<event>
 7    1  0.4096472E-015  0.9000795E+02  0.7816164E-02  0.1186339E+00
        -11   -1    0    0    0    0  0.00000000000E+00  0.00000000000E+00  0.45593999997E+02  0.45594000000E+02  0.51100000000E-03 0.  1.
         11   -1    0    0    0    0 -0.00000000000E+00 -0.00000000000E+00 -0.45593999997E+02  0.45594000000E+02  0.51100000000E-03 0. -1.
    9900012    2    1    2    0    0 -0.37976347167E-01  0.82268038267E+00 -0.84514920888E+00  0.90007948137E+02  0.90000212252E+02 0.  0.
         12    1    1    2    0    0  0.37976347167E-01 -0.82268038267E+00  0.84514920888E+00  0.11800518634E+01  0.00000000000E+00 0. -1.
         11    1    3    3    0    0 -0.43045793639E+01 -0.10470115321E+02 -0.38699385655E+02  0.40321150388E+02  0.51100000000E-03 0. -1.
        -11    1    3    3    0    0  0.55266118015E+00  0.99427479662E+01 -0.15560059875E+01  0.10078929824E+02  0.51100000000E-03 0.  1.
        -12    1    3    3    0    0  0.37139418365E+01  0.13500477371E+01  0.39410242433E+02  0.39607867924E+02  0.00000000000E+00 0.  1.
</event>
<event>
 7    1  0.4096472E-015  0.9000776E+02  0.7816164E-02  0.1186339E+00
        -11   -1    0    0    0    0  0.00000000000E+00  0.00000000000E+00  0.45593999997E+02  0.45594000000E+02  0.51100000000E-03 0. -1.
         11   -1    0    0    0    0 -0.00000000000E+00 -0.00000000000E+00 -0.45593999997E+02  0.45594000000E+02  0.51100000000E-03 0.  1.
    9900012    2    1    2    0    0  0.67551537749E+00 -0.50774371316E+00 -0.82392312520E+00  0.90007756796E+02  0.90000018386E+02 0.  0.
         12    1    1    2    0    0 -0.67551537749E+00  0.50774371316E+00  0.82392312520E+00  0.11802432036E+01  0.00000000000E+00 0. -1.
         11    1    3    3    0    0  0.48017901107E+01 -0.73221802441E+01 -0.52158585225E+01  0.10191991571E+02  0.51100000000E-03 0. -1.
        -11    1    3    3    0    0 -0.31758445276E+02 -0.22856066047E+02  0.30971169545E+01  0.39250359682E+02  0.51100000000E-03 0.  1.
         12    1    3    3    0    0  0.27632170543E+02  0.29670502578E+02  0.12948184428E+01  0.40565405543E+02  0.00000000000E+00 0. -1.
</event>
<event>
 7    1  0.4096472E-015  0.9000773E+02  0.7816164E-02  0.1186339E+00
        -11   -1    0    0    0    0  0.00000000000E+00  0.00000000000E+00  0.45593999997E+02  0.45594000000E+02  0.51100000000E-03 0.  1.
         11   -1    0    0    0    0 -0.00000000000E+00 -0.00000000000E+00 -0.45593999997E+02  0.45594000000E+02  0.51100000000E-03 0. -1.
    9900012    2    1    2    0    0 -0.19269179830E+00 -0.93579718639E+00  0.69296524746E+00  0.90007725736E+02  0.89999986916E+02 0.  0.
         12    1    1    2    0    0  0.19269179830E+00  0.93579718639E+00 -0.69296524746E+00  0.11802742636E+01  0.00000000000E+00 0. -1.
         11    1    3    3    0    0  0.41038124770E+01  0.37679158197E+02  0.16940356721E+01  0.37939820722E+02  0.51100000000E-03 0. -1.
        -11    1    3    3    0    0 -0.10330219965E+01  0.28590568217E+01  0.88140322950E+01  0.93235457801E+01  0.51100000000E-03 0.  1.
        -12    1    3    3    0    0 -0.32634822788E+01 -0.41474012205E+02 -0.98151027197E+01  0.42744359234E+02  0.00000000000E+00 0.  1.
</event>
<event>
 7    1  0.4096472E-015  0.9000732E+02  0.7816164E-02  0.1186340E+00
        -11   -1    0    0    0    0  0.00000000000E+00  0.00000000000E+00  0.45593999997E+02  0.45594000000E+02  0.51100000000E-03 0.  1.
         11   -1    0    0    0    0 -0.00000000000E+00 -0.00000000000E+00 -0.45593999997E+02  0.45594000000E+02  0.51100000000E-03 0. -1.
    9900012    2    1    2    0    0 -0.66983536731E+00  0.11769261895E+00  0.96512817909E+00  0.90007320800E+02  0.89999576633E+02 0.  0.
         12    1    1    2    0    0  0.66983536731E+00 -0.11769261895E+00 -0.96512817909E+00  0.11806792003E+01  0.00000000000E+00 0. -1.
         11    1    3    3    0    0  0.30266224774E+01  0.17724757195E+01  0.88304846244E+01  0.95015563335E+01  0.51100000000E-03 0. -1.
        -11    1    3    3    0    0 -0.12195631234E+02  0.25664371955E+02  0.24349279752E+02  0.37420326478E+02  0.51100000000E-03 0.  1.
         12    1    3    3    0    0  0.84991733891E+01 -0.27319155056E+02 -0.32214636197E+02  0.43085437988E+02  0.00000000000E+00 0. -1.
</event>
<event>
 7    1  0.4096472E-015  0.9000786E+02  0.7816164E-02  0.1186339E+00
        -11   -1    0    0    0    0  0.00000000000E+00  0.00000000000E+00  0.45593999997E+02  0.45594000000E+02  0.51100000000E-03 0. -1.
         11   -1    0    0    0    0 -0.00000000000E+00 -0.00000000000E+00 -0.45593999997E+02  0.45594000000E+02  0.51100000000E-03 0.  1.
    9900012    2    1    2    0    0  0.10141781714E+01  0.60010102653E+00  0.63563787993E-01  0.90007864855E+02  0.90000127871E+02 0.  0.
         12    1    1    2    0    0 -0.10141781714E+01 -0.60010102653E+00 -0.63563787993E-01  0.11801351450E+01  0.00000000000E+00 0. -1.
         11    1    3    3    0    0  0.33768391399E+01 -0.37638708842E+02  0.85071077381E+01  0.38735595105E+02  0.51100000000E-03 0. -1.
        -11    1    3    3    0    0  0.88428638565E+01 -0.17664750383E+01 -0.11229168302E+01  0.90872227724E+01  0.51100000000E-03 0.  1.
        -12    1    3    3    0    0 -0.11205524825E+02  0.40005284906E+02 -0.73206271199E+01  0.42185046977E+02  0.00000000000E+00 0.  1.
</event>
<event>
 7    1  0.4096472E-015  0.9000774E+02  0.7816164E-02  0.1186339E+00
        -11   -1    0    0    0    0  0.00000000000E+00  0.00000000000E+00  0.45593999997E+02  0.45594000000E+02  0.51100000000E-03 0.  1.
         11   -1    0    0    0    0 -0.00000000000E+00 -0.00000000000E+00 -0.45593999997E+02  0.45594000000E+02  0.51100000000E-03 0. -1.
    9900012    2    1    2    0    0 -0.10726735729E+00 -0.11544684052E+01  0.22068631455E+00  0.90007743234E+02  0.90000004645E+02 0.  0.
         12    1    1    2    0    0  0.10726735729E+00  0.11544684052E+01 -0.22068631455E+00  0.11802567661E+01  0.00000000000E+00 0. -1.
         11    1    3    3    0    0  0.92384930593E+01 -0.33402976204E+02  0.16029293911E+02  0.38184379488E+02  0.51100000000E-03 0. -1.
        -11    1    3    3    0    0  0.23050333590E+01 -0.70892039268E+01 -0.61769682356E+01  0.96811635637E+01  0.51100000000E-03 0.  1.
        -12    1    3    3    0    0 -0.11650793776E+02  0.39337711726E+02 -0.96316393612E+01  0.42142200182E+02  0.00000000000E+00 0.  1.
</event>
<event>
 7    1  0.4096472E-015  0.9000776E+02  0.7816164E-02  0.1186339E+00
        -11   -1    0    0    0    0  0.00000000000E+00  0.00000000000E+00  0.45593999997E+02  0.45594000000E+02  0.51100000000E-03 0. -1.
         11   -1    0    0    0    0 -0.00000000000E+00 -0.00000000000E+00 -0.45593999997E+02  0.45594000000E+02  0.51100000000E-03 0.  1.
    9900012    2    1    2    0    0 -0.63695686467E+00 -0.40537046621E+00 -0.90715076693E+00  0.90007761983E+02  0.90000023641E+02 0.  0.
         12    1    1    2    0    0  0.63695686467E+00  0.40537046621E+00  0.90715076693E+00  0.11802380168E+01  0.00000000000E+00 0. -1.
         11    1    3    3    0    0  0.10032039177E+02 -0.65553513644E+01 -0.27450803842E+01  0.12294303890E+02  0.51100000000E-03 0. -1.
        -11    1    3    3    0    0  0.28053726593E+02  0.19026822505E+02 -0.97876514262E+01  0.35282143800E+02  0.51100000000E-03 0.  1.
         12    1    3    3    0    0 -0.38722722635E+02 -0.12876841607E+02  0.11625581044E+02  0.42431314293E+02  0.00000000000E+00 0. -1.
</event>
<event>
 7    1  0.4096472E-015  0.9000796E+02  0.7816164E-02  0.1186339E+00
        -11   -1    0    0    0    0  0.00000000000E+00  0.00000000000E+00  0.45593999997E+02  0.45594000000E+02  0.51100000000E-03 0.  1.
         11   -1    0    0    0    0 -0.00000000000E+00 -0.00000000000E+00 -0.45593999997E+02  0.45594000000E+02  0.51100000000E-03 0. -1.
    9900012    2    1    2    0    0 -0.86103287488E+00  0.76356378971E+00  0.26092803414E+00  0.90007961564E+02  0.90000225856E+02 0.  0.
         12    1    1    2    0    0  0.86103287488E+00 -0.76356378971E+00 -0.26092803414E+00  0.11800384365E+01  0.00000000000E+00 0. -1.
         11    1    3    3    0    0 -0.11467927429E+02  0.32088206500E+02 -0.16387988855E+02  0.37811804174E+02  0.51100000000E-03 0. -1.
        -11    1    3    3    0    0  0.19786138749E+01  0.33158383186E+01 -0.79531710255E+01  0.88409629704E+01  0.51100000000E-03 0.  1.
        -12    1    3    3    0    0  0.86282806796E+01 -0.34640481029E+02  0.24602087915E+02  0.43355194419E+02  0.00000000000E+00 0.  1.
</event>
<event>
 7    1  0.4096472E-015  0.9000775E+02  0.7816164E-02  0.1186339E+00
        -11   -1    0    0    0    0  0.00000000000E+00  0.00000000000E+00  0.45593999997E+02  0.45594000000E+02  0.51100000000E-03 0. -1.
         11   -1    0    0    0    0 -0.00000000000E+00 -0.00000000000E+00 -0.45593999997E+02  0.45594000000E+02  0.51100000000E-03 0.  1.
    9900012    2    1    2    0    0  0.49122250996E+00  0.10535834996E+01  0.20406335678E+00  0.90007754433E+02  0.90000015992E+02 0.  0.
         12    1    1    2    0    0 -0.49122250996E+00 -0.10535834996E+01 -0.20406335678E+00  0.11802455670E+01  0.00000000000E+00 0. -1.
         11    1    3    3    0    0 -0.78009332667E+01  0.72269964207E+01  0.82473563211E+01  0.13457448631E+02  0.51100000000E-03 0. -1.
        -11    1    3    3    0    0  0.17576678549E+02  0.26200237510E+02 -0.23651345489E+02  0.39430676104E+02  0.51100000000E-03 0.  1.
         12    1    3    3    0    0 -0.92845227723E+01 -0.32373650431E+02  0.15608052524E+02  0.37119629698E+02  0.00000000000E+00 0. -1.
</event>
<event>
 7    1  0.4096472E-015  0.9000771E+02  0.7816164E-02  0.1186339E+00
        -11   -1    0    0    0    0  0.00000000000E+00  0.00000000000E+00  0.45593999997E+02  0.45594000000E+02  0.51100000000E-03 0.  1.
         11   -1    0    0    0    0 -0.00000000000E+00 -0.00000000000E+00 -0.45593999997E+02  0.45594000000E+02  0.51100000000E-03 0. -1.
    9900012    2    1    2    0    0  0.56120593095E+00  0.98543749131E+00  0.32717874307E+00  0.90007709749E+02  0.89999970718E+02 0.  0.
         12    1    1    2    0    0 -0.56120593095E+00 -0.98543749131E+00 -0.32717874307E+00  0.11802902508E+01  0.00000000000E+00 0. -1.
         11    1    3    3    0    0  0.92475727315E+01 -0.14891777475E+01 -0.10882879461E+01  0.94297201816E+01  0.51100000000E-03 0. -1.
        -11    1    3    3    0    0  0.26059224547E+02 -0.17244145296E+02  0.19384086234E+02  0.36772089013E+02  0.51100000000E-03 0.  1.
         12    1    3    3    0    0 -0.34745591347E+02  0.19718760535E+02 -0.17968619545E+02  0.43805900555E+02  0.00000000000E+00 0. -1.
</event>
<event>
 7    1  0.4096472E-015  0.9000678E+02  0.7816164E-02  0.1186341E+00
        -11   -1    0    0    0    0  0.00000000000E+00  0.00000000000E+00  0.45593999997E+02  0.45594000000E+02  0.51100000000E-03 0. -1.
         11   -1    0    0    0    0 -0.00000000000E+00 -0.00000000000E+00 -0.45593999997E+02  0.45594000000E+02  0.51100000000E-03 0.  1.
    9900012    2    1    2    0    0  0.47560134751E+00  0.86130655319E+00  0.65362459758E+00  0.90006784213E+02  0.89999032960E+02 0.  0.
         12    1    1    2    0    0 -0.47560134751E+00 -0.86130655319E+00 -0.65362459758E+00  0.11812157868E+01  0.00000000000E+00 0. -1.
         11    1    3    3    0    0 -0.80757577988E+01  0.58591997831E+01  0.62946025965E+01  0.11797038113E+02  0.51100000000E-03 0. -1.
        -11    1    3    3    0    0 -0.22794300711E+02  0.19233574575E+02 -0.20175996076E+02  0.36008073452E+02  0.51100000000E-03 0.  1.
         12    1    3    3    0    0  0.31345659857E+02 -0.24231467805E+02  0.14535018077E+02  0.42201672649E+02  0.00000000000E+00 0. -1.
</event>
<event>
 7    1  0.4096472E-015  0.9000780E+02  0.7816164E-02  0.1186339E+00
        -11   -1    0    0    0    0  0.00000000000E+00  0.00000000000E+00  0.45593999997E+02  0.45594000000E+02  0.51100000000E-03 0. -1.
         11   -1    0    0    0    0 -0.00000000000E+00 -0.00000000000E+00 -0.45593999997E+02  0.45594000000E+02  0.51100000000E-03 0.  1.
    9900012    2    1    2    0    0  0.99092537674E+00  0.21758910458E+00 -0.60299089649E+00  0.90007798262E+02  0.90000060399E+02 0.  0.
         12    1    1    2    0    0 -0.99092537674E+00 -0.21758910458E+00  0.60299089649E+00  0.11802017378E+01  0.00000000000E+00 0. -1.
         11    1    3    3    0    0 -0.25196501521E+02 -0.24925382178E+02  0.20265273656E+02  0.40826703054E+02  0.51100000000E-03 0. -1.
        -11    1    3    3    0    0  0.78157353840E+01 -0.56026983689E+00  0.41630272947E+01  0.88730163079E+01  0.51100000000E-03 0.  1.
        -12    1    3    3    0    0  0.18371691514E+02  0.25703241119E+02 -0.25031291847E+02  0.40308078901E+02  0.00000000000E+00 0.  1.
</event>
<event>
 7    1  0.4096472E-015  0.9000777E+02  0.7816164E-02  0.1186339E+00
        -11   -1    0    0    0    0  0.00000000000E+00  0.00000000000E+00  0.45593999997E+02  0.45594000000E+02  0.51100000000E-03 0. -1.
         11   -1    0    0    0    0 -0.00000000000E+00 -0.00000000000E+00 -0.45593999997E+02  0.45594000000E+02  0.51100000000E-03 0.  1.
    9900012    2    1    2    0    0  0.71706093338E+00  0.89485098358E+00  0.27931996625E+00  0.90007765147E+02  0.90000026847E+02 0.  0.
         12    1    1    2    0    0 -0.71706093338E+00 -0.89485098358E+00 -0.27931996625E+00  0.11802348531E+01  0.00000000000E+00 0. -1.
         11    1    3    3    0    0  0.76655503511E+01 -0.32584604157E+02  0.18667709212E+02  0.38327541765E+02  0.51100000000E-03 0. -1.
        -11    1    3    3    0    0  0.88105325939E+01 -0.23356831192E+01 -0.25265478598E+01  0.94585593285E+01  0.51100000000E-03 0.  1.
        -12    1    3    3    0    0 -0.15759022012E+02  0.35815138260E+02 -0.15861841386E+02  0.42221664054E+02  0.00000000000E+00 0.  1.
</event>
<event>
 7    1  0.4096472E-015  0.9000763E+02  0.7816164E-02  0.1186339E+00
        -11   -1    0    0    0    0  0.00000000000E+00  0.00000000000E+00  0.45593999997E+02  0.45594000000E+02  0.51100000000E-03 0.  1.
         11   -1    0    0    0    0 -0.00000000000E+00 -0.00000000000E+00 -0.45593999997E+02  0.45594000000E+02  0.51100000000E-03 0. -1.
    9900012    2    1    2    0    0  0.34481901195E+00  0.18007821539E-01  0.11287353702E+01  0.90007632274E+02  0.89999892220E+02 0.  0.
         12    1    1    2    0    0 -0.34481901195E+00 -0.18007821539E-01 -0.11287353702E+01  0.11803677260E+01  0.00000000000E+00 0. -1.
         11    1    3    3    0    0 -0.54213407600E+01 -0.85472315090E+01 -0.16168408518E+00  0.10122857507E+02  0.51100000000E-03 0. -1.
        -11    1    3    3    0    0  0.21857289272E+01 -0.28812593070E+02  0.22624009793E+02  0.36698620543E+02  0.51100000000E-03 0.  1.
         12    1    3    3    0    0  0.35804308448E+01  0.37377832400E+02 -0.21333590338E+02  0.43186154224E+02  0.00000000000E+00 0. -1.
</event>
<event>
 7    1  0.4096472E-015  0.9000791E+02  0.7816164E-02  0.1186339E+00
        -11   -1    0    0    0    0  0.00000000000E+00  0.00000000000E+00  0.45593999997E+02  0.45594000000E+02  0.51100000000E-03 0.  1.
         11   -1    0    0    0    0 -0.00000000000E+00 -0.00000000000E+00 -0.45593999997E+02  0.45594000000E+02  0.51100000000E-03 0. -1.
    9900012    2    1    2    0    0  0.92288122440E-01  0.58553695566E+00  0.10204085403E+01  0.90007913472E+02  0.90000177130E+02 0.  0.
         12    1    1    2    0    0 -0.92288122440E-01 -0.58553695566E+00 -0.10204085403E+01  0.11800865278E+01  0.00000000000E+00 0. -1.
         11    1    3    3    0    0  0.25666135759E+02  0.29903610780E+02  0.60395764964E+01  0.39867943852E+02  0.51100000000E-03 0. -1.
        -11    1    3    3    0    0  0.12430691164E+01 -0.62264793224E+01  0.98786568213E+01  0.11743173610E+02  0.51100000000E-03 0.  1.
        -12    1    3    3    0    0 -0.26816916753E+02 -0.23091594502E+02 -0.14897824777E+02  0.38396796010E+02  0.00000000000E+00 0.  1.
</event>
<event>
 7    1  0.4096472E-015  0.9000774E+02  0.7816164E-02  0.1186339E+00
        -11   -1    0    0    0    0  0.00000000000E+00  0.00000000000E+00  0.45593999997E+02  0.45594000000E+02  0.51100000000E-03 0.  1.
         11   -1    0    0    0    0 -0.00000000000E+00 -0.00000000000E+00 -0.45593999997E+02  0.45594000000E+02  0.51100000000E-03 0. -1.
    9900012    2    1    2    0    0 -0.32036557297E+00 -0.90302200392E+00  0.68915664176E+00  0.90007737437E+02  0.89999998772E+02 0.  0.
         12    1    1    2    0    0  0.32036557297E+00  0.90302200392E+00 -0.68915664176E+00  0.11802625626E+01  0.00000000000E+00 0. -1.
         11    1    3    3    0    0  0.23894937201E+01  0.24951448552E+01 -0.15159774047E+02  0.15548446144E+02  0.51100000000E-03 0. -1.
        -11    1    3    3    0    0 -0.30327774484E+02 -0.23653705246E+02  0.71191036951E+01  0.39114617661E+02  0.51100000000E-03 0.  1.
         12    1    3    3    0    0  0.27617915191E+02  0.20255538387E+02  0.87298269935E+01  0.35344673633E+02  0.00000000000E+00 0. -1.
</event>
<event>
 7    1  0.4096472E-015  0.9000805E+02  0.7816164E-02  0.1186338E+00
        -11   -1    0    0    0    0  0.00000000000E+00  0.00000000000E+00  0.45593999997E+02  0.45594000000E+02  0.51100000000E-03 0.  1.
         11   -1    0    0    0    0 -0.00000000000E+00 -0.00000000000E+00 -0.45593999997E+02  0.45594000000E+02  0.51100000000E-03 0. -1.
    9900012    2    1    2    0    0  0.60399629908E+00  0.78375377416E+00  0.64280591873E+00  0.90008050443E+02  0.90000315908E+02 0.  0.
         12    1    1    2    0    0 -0.60399629908E+00 -0.78375377416E+00 -0.64280591873E+00  0.11799495570E+01  0.00000000000E+00 0. -1.
         11    1    3    3    0    0 -0.53622204948E+01  0.48827806747E+01  0.26578235676E+01  0.77239227164E+01  0.51100000000E-03 0. -1.
        -11    1    3    3    0    0  0.16609547697E+02 -0.17000517163E+02  0.34630705040E+02  0.42002147449E+02  0.51100000000E-03 0.  1.
         12    1    3    3    0    0 -0.10643330903E+02  0.12901490262E+02 -0.36645722689E+02  0.40281980278E+02  0.00000000000E+00 0. -1.
</event>
<event>
 7    1  0.4096472E-015  0.9000769E+02  0.7816164E-02  0.1186339E+00
        -11   -1    0    0    0    0  0.00000000000E+00  0.00000000000E+00  0.45593999997E+02  0.45594000000E+02  0.51100000000E-03 0.  1.
         11   -1    0    0    0    0 -0.00000000000E+00 -0.00000000000E+00 -0.45593999997E+02  0.45594000000E+02  0.51100000000E-03 0. -1.
    9900012    2    1    2    0    0 -0.19795438906E+00  0.83315476616E+00  0.81227571109E+00  0.90007692991E+02  0.89999953739E+02 0.  0.
         12    1    1    2    0    0  0.19795438906E+00 -0.83315476616E+00 -0.81227571109E+00  0.11803070089E+01  0.00000000000E+00 0. -1.
         11    1    3    3    0    0 -0.40395325743E+01  0.91113504264E+01  0.12111762052E+01  0.10039993928E+02  0.51100000000E-03 0. -1.
        -11    1    3    3    0    0 -0.12439136500E+02 -0.30744850048E+01  0.36833991496E+02  0.38999070562E+02  0.51100000000E-03 0.  1.
         12    1    3    3    0    0  0.16280714685E+02 -0.52037106555E+01 -0.37232891991E+02  0.40968628501E+02  0.00000000000E+00 0. -1.
</event>
<event>
 7    1  0.4096472E-015  0.9000771E+02  0.7816164E-02  0.1186339E+00
        -11   -1    0    0    0    0  0.00000000000E+00  0.00000000000E+00  0.45593999997E+02  0.45594000000E+02  0.51100000000E-03 0. -1.
         11   -1    0    0    0    0 -0.00000000000E+00 -0.00000000000E+00 -0.45593999997E+02  0.45594000000E+02  0.51100000000E-03 0.  1.
    9900012    2    1    2    0    0 -0.28304413793E+00 -0.90116996893E+00  0.70772145812E+00  0.90007707257E+02  0.89999968193E+02 0.  0.
         12    1    1    2    0    0  0.28304413793E+00  0.90116996893E+00 -0.70772145812E+00  0.11802927430E+01  0.00000000000E+00 0. -1.
         11    1    3    3    0    0  0.76293197631E+01 -0.36912339043E+01 -0.58722872811E+01  0.10310940110E+02  0.51100000000E-03 0. -1.
        -11    1    3    3    0    0  0.25749589227E+02 -0.45027709020E+01 -0.22599631848E+02  0.34555168226E+02  0.51100000000E-03 0.  1.
         12    1    3    3    0    0 -0.33661953128E+02  0.72928348374E+01  0.29179640587E+02  0.45141598921E+02  0.00000000000E+00 0. -1.
</event>
<event>
 7    1  0.4096472E-015  0.9000759E+02  0.7816164E-02  0.1186339E+00
        -11   -1    0    0    0    0  0.00000000000E+00  0.00000000000E+00  0.45593999997E+02  0.45594000000E+02  0.51100000000E-03 0.  1.
         11   -1    0    0    0    0 -0.00000000000E+00 -0.00000000000E+00 -0.45593999997E+02  0.45594000000E+02  0.51100000000E-03 0. -1.
    9900012    2    1    2    0    0 -0.23997421649E+00  0.15614425965E+00  0.11451684063E+01  0.90007585101E+02  0.89999844424E+02 0.  0.
         12    1    1    2    0    0  0.23997421649E+00 -0.15614425965E+00 -0.11451684063E+01  0.11804148988E+01  0.00000000000E+00 0. -1.
         11    1    3    3    0    0  0.25208765186E+01 -0.81068792148E+01 -0.51796526705E+01  0.99451048800E+01  0.51100000000E-03 0. -1.
        -11    1    3    3    0    0  0.33598483782E+02  0.24751967677E+01 -0.15691613861E+02  0.37164653332E+02  0.51100000000E-03 0.  1.
         12    1    3    3    0    0 -0.36359334517E+02  0.57878267067E+01  0.22016434937E+02  0.42897826889E+02  0.00000000000E+00 0. -1.
</event>
<event>
 7    1  0.4096472E-015  0.9000768E+02  0.7816164E-02  0.1186339E+00
        -11   -1    0    0    0    0  0.00000000000E+00  0.00000000000E+00  0.45593999997E+02  0.45594000000E+02  0.51100000000E-03 0. -1.
         11   -1    0    0    0    0 -0.00000000000E+00 -0.00000000000E+00 -0.45593999997E+02  0.45594000000E+02  0.51100000000E-03 0.  1.
    9900012    2    1    2    0    0 -0.16046653488E+00  0.69312813800E+00 -0.94179073007E+00  0.90007683981E+02  0.89999944610E+02 0.  0.
         12    1    1    2    0    0  0.16046653488E+00 -0.69312813800E+00  0.94179073007E+00  0.11803160186E+01  0.00000000000E+00 0. -1.
         11    1    3    3    0    0 -0.87605180595E+01  0.25133447603E+01  0.72235031464E+01  0.11629384185E+02  0.51100000000E-03 0. -1.
        -11    1    3    3    0    0  0.43229763423E+02 -0.26599595534E+01 -0.46623250329E+01  0.43561739008E+02  0.51100000000E-03 0.  1.
         12    1    3    3    0    0 -0.34629711899E+02  0.83974293110E+00 -0.35029688436E+01  0.34816560788E+02  0.00000000000E+00 0. -1.
</event>
<event>
 7    1  0.4096472E-015  0.9000769E+02  0.7816164E-02  0.1186339E+00
        -11   -1    0    0    0    0  0.00000000000E+00  0.00000000000E+00  0.45593999997E+02  0.45594000000E+02  0.51100000000E-03 0.  1.
         11   -1    0    0    0    0 -0.00000000000E+00 -0.00000000000E+00 -0.45593999997E+02  0.45594000000E+02  0.51100000000E-03 0. -1.
    9900012    2    1    2    0    0  0.55156295610E+00 -0.77959729315E+00  0.69363777027E+00  0.90007691993E+02  0.89999952728E+02 0.  0.
         12    1    1    2    0    0 -0.55156295610E+00  0.77959729315E+00 -0.69363777027E+00  0.11803080066E+01  0.00000000000E+00 0. -1.
         11    1    3    3    0    0  0.10239225803E+01 -0.40801789670E+01 -0.56041222315E+01  0.70073150422E+01  0.51100000000E-03 0. -1.
        -11    1    3    3    0    0 -0.14401591374E+02 -0.13302256374E+02  0.39068568102E+02  0.43711656026E+02  0.51100000000E-03 0.  1.
         12    1    3    3    0    0  0.13929231750E+02  0.16602838048E+02 -0.32770808100E+02  0.39288720925E+02  0.00000000000E+00 0. -1.
</event>
<event>
 7    1  0.4096472E-015  0.9000746E+02  0.7816164E-02  0.1186340E+00
        -11   -1    0    0    0    0  0.00000000000E+00  0.00000000000E+00  0.45593999997E+02  0.45594000000E+02  0.51100000000E-03 0.  1.
         11   -1    0    0    0    0 -0.00000000000E+00 -0.00000000000E+00 -0.45593999997E+02  0.45594000000E+02  0.51100000000E-03 0. -1.
    9900012    2    1    2    0    0 -0.27551388023E+00 -0.48279182054E+00  0.10414840440E+01  0.90007455696E+02  0.89999713311E+02 0.  0.
         12    1    1    2    0    0  0.27551388023E+00  0.48279182054E+00 -0.10414840440E+01  0.11805443041E+01  0.00000000000E+00 0. -1.
         11    1    3    3    0    0 -0.20957969608E+02 -0.18476120201E+02 -0.25019973865E+02  0.37504701042E+02  0.51100000000E-03 0. -1.
        -11    1    3    3    0    0  0.46109347070E+01 -0.27409168440E+01 -0.79247555018E+01  0.95694876583E+01  0.51100000000E-03 0.  1.
        -12    1    3    3    0    0  0.16071521021E+02  0.20734245224E+02  0.33986213410E+02  0.42933266996E+02  0.00000000000E+00 0.  1.
</event>
<event>
 7    1  0.4096472E-015  0.9000765E+02  0.7816164E-02  0.1186339E+00
        -11   -1    0    0    0    0  0.00000000000E+00  0.00000000000E+00  0.45593999997E+02  0.45594000000E+02  0.51100000000E-03 0. -1.
         11   -1    0    0    0    0 -0.00000000000E+00 -0.00000000000E+00 -0.45593999997E+02  0.45594000000E+02  0.51100000000E-03 0.  1.
    9900012    2    1    2    0    0 -0.70677337638E+00 -0.71957229765E+00 -0.61310842591E+00  0.90007654780E+02  0.89999915023E+02 0.  0.
         12    1    1    2    0    0  0.70677337638E+00  0.71957229765E+00  0.61310842591E+00  0.11803452203E+01  0.00000000000E+00 0. -1.
         11    1    3    3    0    0  0.33626153912E+01 -0.77738364389E+01 -0.13420239355E+00  0.84709931998E+01  0.51100000000E-03 0. -1.
        -11    1    3    3    0    0 -0.92938616286E+01 -0.36435255557E+02  0.20833082281E+01  0.37659578926E+02  0.51100000000E-03 0.  1.
         12    1    3    3    0    0  0.52244728610E+01  0.43489519698E+02 -0.25622142604E+01  0.43877082653E+02  0.00000000000E+00 0. -1.
</event>
<event>
 7    1  0.4096472E-015  0.9000890E+02  0.7816164E-02  0.1186337E+00
        -11   -1    0    0    0    0  0.00000000000E+00  0.00000000000E+00  0.45593999997E+02  0.45594000000E+02  0.51100000000E-03 0. -1.
         11   -1    0    0    0    0 -0.00000000000E+00 -0.00000000000E+00 -0.45593999997E+02  0.45594000000E+02  0.51100000000E-03 0.  1.
    9900012    2    1    2    0    0 -0.11403921010E+01 -0.25517639098E+00 -0.15705195527E+00  0.90008901000E+02  0.90001177686E+02 0.  0.
         12    1    1    2    0    0  0.11403921010E+01  0.25517639098E+00  0.15705195527E+00  0.11790989997E+01  0.00000000000E+00 0. -1.
         11    1    3    3    0    0 -0.13403908819E+02  0.23846575618E+01  0.88545008000E+01  0.16240491002E+02  0.51100000000E-03 0. -1.
        -11    1    3    3    0    0 -0.14379461278E+02 -0.31076515800E+02 -0.46864340054E+01  0.34561270301E+02  0.51100000000E-03 0.  1.
         12    1    3    3    0    0  0.26642977996E+02  0.28436681847E+02 -0.43251187500E+01  0.39207139696E+02  0.00000000000E+00 0. -1.
</event>
<event>
 7    1  0.4096472E-015  0.9000782E+02  0.7816164E-02  0.1186339E+00
        -11   -1    0    0    0    0  0.00000000000E+00  0.00000000000E+00  0.45593999997E+02  0.45594000000E+02  0.51100000000E-03 0. -1.
         11   -1    0    0    0    0 -0.00000000000E+00 -0.00000000000E+00 -0.45593999997E+02  0.45594000000E+02  0.51100000000E-03 0.  1.
    9900012    2    1    2    0    0 -0.14839378119E+00  0.89449286912E+00 -0.75544250898E+00  0.90007817136E+02  0.90000079523E+02 0.  0.
         12    1    1    2    0    0  0.14839378119E+00 -0.89449286912E+00  0.75544250898E+00  0.11801828636E+01  0.00000000000E+00 0. -1.
         11    1    3    3    0    0 -0.47708027460E+01 -0.67812327380E+01 -0.19982527887E+01  0.85286980693E+01  0.51100000000E-03 0. -1.
        -11    1    3    3    0    0 -0.29560056622E+02 -0.19585127604E+02  0.10098672034E+02  0.36869463623E+02  0.51100000000E-03 0.  1.
         12    1    3    3    0    0  0.34182465587E+02  0.27260853211E+02 -0.88558617540E+01  0.44609655444E+02  0.00000000000E+00 0. -1.
</event>
<event>
 7    1  0.4096472E-015  0.9000775E+02  0.7816164E-02  0.1186339E+00
        -11   -1    0    0    0    0  0.00000000000E+00  0.00000000000E+00  0.45593999997E+02  0.45594000000E+02  0.51100000000E-03 0.  1.
         11   -1    0    0    0    0 -0.00000000000E+00 -0.00000000000E+00 -0.45593999997E+02  0.45594000000E+02  0.51100000000E-03 0. -1.
    9900012    2    1    2    0    0 -0.29966915571E+00  0.11413797642E+01  0.21244156760E-01  0.90007745501E+02  0.90000006941E+02 0.  0.
         12    1    1    2    0    0  0.29966915571E+00 -0.11413797642E+01 -0.21244156760E-01  0.11802544993E+01  0.00000000000E+00 0. -1.
         11    1    3    3    0    0 -0.38291470186E+01  0.86443897766E+01 -0.37203952507E+01  0.10160176307E+02  0.51100000000E-03 0. -1.
        -11    1    3    3    0    0 -0.15443007572E+02 -0.34225468144E+02 -0.16836273971E+02  0.41150082309E+02  0.51100000000E-03 0.  1.
         12    1    3    3    0    0  0.18972485435E+02  0.26722458132E+02  0.20577913379E+02  0.38697486885E+02  0.00000000000E+00 0. -1.
</event>
<event>
 7    1  0.4096472E-015  0.9000773E+02  0.7816164E-02  0.1186339E+00
        -11   -1    0    0    0    0  0.00000000000E+00  0.00000000000E+00  0.45593999997E+02  0.45594000000E+02  0.51100000000E-03 0. -1.
         11   -1    0    0    0    0 -0.00000000000E+00 -0.00000000000E+00 -0.45593999997E+02  0.45594000000E+02  0.51100000000E-03 0.  1.
    9900012    2    1    2    0    0  0.30674050476E+00 -0.76841611798E+00 -0.84170838055E+00  0.90007734748E+02  0.89999996046E+02 0.  0.
         12    1    1    2    0    0 -0.30674050476E+00  0.76841611798E+00  0.84170838055E+00  0.11802652522E+01  0.00000000000E+00 0. -1.
         11    1    3    3    0    0  0.24383982469E+02  0.29991001377E+02  0.67930184634E+01  0.39245176324E+02  0.51100000000E-03 0. -1.
        -11    1    3    3    0    0  0.52986533253E+01 -0.55016335387E+01  0.59776153310E+01  0.96992568769E+01  0.51100000000E-03 0.  1.
        -12    1    3    3    0    0 -0.29375895290E+02 -0.25257783956E+02 -0.13612342175E+02  0.41063301547E+02  0.00000000000E+00 0.  1.
</event>
<event>
 7    1  0.4096472E-015  0.9000774E+02  0.7816164E-02  0.1186339E+00
        -11   -1    0    0    0    0  0.00000000000E+00  0.00000000000E+00  0.45593999997E+02  0.45594000000E+02  0.51100000000E-03 0. -1.
         11   -1    0    0    0    0 -0.00000000000E+00 -0.00000000000E+00 -0.45593999997E+02  0.45594000000E+02  0.51100000000E-03 0.  1.
    9900012    2    1    2    0    0 -0.39408973188E+00  0.66159515610E+00 -0.89442688704E+00  0.90007739722E+02  0.90000001086E+02 0.  0.
         12    1    1    2    0    0  0.39408973188E+00 -0.66159515610E+00  0.89442688704E+00  0.11802602779E+01  0.00000000000E+00 0. -1.
         11    1    3    3    0    0 -0.22546684434E+02 -0.36139572360E+02 -0.13483517494E+01  0.42617364090E+02  0.51100000000E-03 0. -1.
        -11    1    3    3    0    0 -0.38304096496E+01  0.55184551790E+01  0.29586687043E+00  0.67240555554E+01  0.51100000000E-03 0.  1.
        -12    1    3    3    0    0  0.25983004351E+02  0.31282712337E+02  0.15805799191E+00  0.40666320077E+02  0.00000000000E+00 0.  1.
</event>
<event>
 7    1  0.4096472E-015  0.9000778E+02  0.7816164E-02  0.1186339E+00
        -11   -1    0    0    0    0  0.00000000000E+00  0.00000000000E+00  0.45593999997E+02  0.45594000000E+02  0.51100000000E-03 0.  1.
         11   -1    0    0    0    0 -0.00000000000E+00 -0.00000000000E+00 -0.45593999997E+02  0.45594000000E+02  0.51100000000E-03 0. -1.
    9900012    2    1    2    0    0 -0.82484083294E+00  0.32098227631E+00 -0.78072928651E+00  0.90007775343E+02  0.90000037178E+02 0.  0.
         12    1    1    2    0    0  0.82484083294E+00 -0.32098227631E+00  0.78072928651E+00  0.11802246567E+01  0.00000000000E+00 0. -1.
         11    1    3    3    0    0  0.27468042298E+01 -0.33001085302E+02 -0.21735355458E+02  0.39611137849E+02  0.51100000000E-03 0. -1.
        -11    1    3    3    0    0 -0.86250698181E+01 -0.30222482691E+01  0.40881312768E+01  0.10011924469E+02  0.51100000000E-03 0.  1.
        -12    1    3    3    0    0  0.50534247553E+01  0.36344315847E+02  0.16866494894E+02  0.40384713026E+02  0.00000000000E+00 0.  1.
</event>
<event>
 7    1  0.4096472E-015  0.9000773E+02  0.7816164E-02  0.1186339E+00
        -11   -1    0    0    0    0  0.00000000000E+00  0.00000000000E+00  0.45593999997E+02  0.45594000000E+02  0.51100000000E-03 0. -1.
         11   -1    0    0    0    0 -0.00000000000E+00 -0.00000000000E+00 -0.45593999997E+02  0.45594000000E+02  0.51100000000E-03 0.  1.
    9900012    2    1    2    0    0 -0.65360344119E+00  0.45824949348E-01 -0.98170111102E+00  0.90007731193E+02  0.89999992445E+02 0.  0.
         12    1    1    2    0    0  0.65360344119E+00 -0.45824949348E-01  0.98170111102E+00  0.11802688065E+01  0.00000000000E+00 0. -1.
         11    1    3    3    0    0 -0.70055597806E+00  0.36939045315E+02  0.14474052810E+02  0.39679743604E+02  0.51100000000E-03 0. -1.
        -11    1    3    3    0    0 -0.87208300524E+01 -0.12267867904E+01  0.28952096482E+01  0.92703895172E+01  0.51100000000E-03 0.  1.
        -12    1    3    3    0    0  0.87677825893E+01 -0.35666433576E+02 -0.18350963569E+02  0.41057598072E+02  0.00000000000E+00 0.  1.
</event>
<event>
 7    1  0.4096472E-015  0.9000775E+02  0.7816164E-02  0.1186339E+00
        -11   -1    0    0    0    0  0.00000000000E+00  0.00000000000E+00  0.45593999997E+02  0.45594000000E+02  0.51100000000E-03 0.  1.
         11   -1    0    0    0    0 -0.00000000000E+00 -0.00000000000E+00 -0.45593999997E+02  0.45594000000E+02  0.51100000000E-03 0. -1.
    9900012    2    1    2    0    0  0.25786957103E+00 -0.11479722925E+01  0.92994821132E-01  0.90007752087E+02  0.90000013614E+02 0.  0.
         12    1    1    2    0    0 -0.25786957103E+00  0.11479722925E+01 -0.92994821132E-01  0.11802479133E+01  0.00000000000E+00 0. -1.
         11    1    3    3    0    0 -0.14958940304E+01  0.21820160923E+02 -0.73782108273E+01  0.23082355099E+02  0.51100000000E-03 0. -1.
        -11    1    3    3    0    0  0.19907674711E+02  0.14002836913E+02  0.83407261053E+01  0.25728635141E+02  0.51100000000E-03 0.  1.
        -12    1    3    3    0    0 -0.18153911110E+02 -0.36970970128E+02 -0.86952045685E+00  0.41196761846E+02  0.00000000000E+00 0.  1.
</event>
<event>
 7    1  0.4096472E-015  0.9000776E+02  0.7816164E-02  0.1186339E+00
        -11   -1    0    0    0    0  0.00000000000E+00  0.00000000000E+00  0.45593999997E+02  0.45594000000E+02  0.51100000000E-03 0. -1.
         11   -1    0    0    0    0 -0.00000000000E+00 -0.00000000000E+00 -0.45593999997E+02  0.45594000000E+02  0.51100000000E-03 0.  1.
    9900012    2    1    2    0    0 -0.31150130468E+00 -0.38376885046E+00 -0.10717507400E+01  0.90007762210E+02  0.90000023871E+02 0.  0.
         12    1    1    2    0    0  0.31150130468E+00  0.38376885046E+00  0.10717507400E+01  0.11802377905E+01  0.00000000000E+00 0. -1.
         11    1    3    3    0    0  0.15101972854E+01 -0.11850981171E+02  0.28489221589E+01  0.12281808022E+02  0.51100000000E-03 0. -1.
        -11    1    3    3    0    0  0.32447581969E+02  0.15515145041E+02 -0.18285938801E+02  0.40347749124E+02  0.51100000000E-03 0.  1.
         12    1    3    3    0    0 -0.34269280559E+02 -0.40479327202E+01  0.14365265902E+02  0.37378205064E+02  0.00000000000E+00 0. -1.
</event>
<event>
 7    1  0.4096472E-015  0.9000777E+02  0.7816164E-02  0.1186339E+00
        -11   -1    0    0    0    0  0.00000000000E+00  0.00000000000E+00  0.45593999997E+02  0.45594000000E+02  0.51100000000E-03 0. -1.
         11   -1    0    0    0    0 -0.00000000000E+00 -0.00000000000E+00 -0.45593999997E+02  0.45594000000E+02  0.51100000000E-03 0.  1.
    9900012    2    1    2    0    0 -0.35718109686E+00  0.53859265887E+00 -0.98756495472E+00  0.90007769121E+02  0.90000030873E+02 0.  0.
         12    1    1    2    0    0  0.35718109686E+00 -0.53859265887E+00  0.98756495472E+00  0.11802308791E+01  0.00000000000E+00 0. -1.
         11    1    3    3    0    0 -0.51365673843E+01  0.62522288722E+01 -0.98414378304E+01  0.12740823725E+02  0.51100000000E-03 0. -1.
        -11    1    3    3    0    0 -0.21164638654E+02  0.14320787053E+02 -0.20888545703E+02  0.33005427023E+02  0.51100000000E-03 0.  1.
         12    1    3    3    0    0  0.25944024941E+02 -0.20034423266E+02  0.29742418578E+02  0.44261518373E+02  0.00000000000E+00 0. -1.
</event>
<event>
 7    1  0.4096472E-015  0.9000752E+02  0.7816164E-02  0.1186339E+00
        -11   -1    0    0    0    0  0.00000000000E+00  0.00000000000E+00  0.45593999997E+02  0.45594000000E+02  0.51100000000E-03 0.  1.
         11   -1    0    0    0    0 -0.00000000000E+00 -0.00000000000E+00 -0.45593999997E+02  0.45594000000E+02  0.51100000000E-03 0. -1.
    9900012    2    1    2    0    0  0.28656030577E+00  0.67915888825E+00  0.92203651350E+00  0.90007523428E+02  0.89999781937E+02 0.  0.
         12    1    1    2    0    0 -0.28656030577E+00 -0.67915888825E+00 -0.92203651350E+00  0.11804765718E+01  0.00000000000E+00 0. -1.
         11    1    3    3    0    0  0.67573058420E+01  0.74508828016E+01 -0.35863852492E+02  0.37247721442E+02  0.51100000000E-03 0. -1.
        -11    1    3    3    0    0  0.10744444683E+02  0.18989576519E+01 -0.35308970560E+00  0.10916675516E+02  0.51100000000E-03 0.  1.
        -12    1    3    3    0    0 -0.17215190219E+02 -0.86706815652E+01  0.37138978711E+02  0.41843126471E+02  0.00000000000E+00 0.  1.
</event>
<event>
 7    1  0.4096472E-015  0.9000774E+02  0.7816164E-02  0.1186339E+00
        -11   -1    0    0    0    0  0.00000000000E+00  0.00000000000E+00  0.45593999997E+02  0.45594000000E+02  0.51100000000E-03 0. -1.
         11   -1    0    0    0    0 -0.00000000000E+00 -0.00000000000E+00 -0.45593999997E+02  0.45594000000E+02  0.51100000000E-03 0.  1.
    9900012    2    1    2    0    0 -0.84925465795E+00 -0.44615060278E+00 -0.68755919099E+00  0.90007736692E+02  0.89999998017E+02 0.  0.
         12    1    1    2    0    0  0.84925465795E+00  0.44615060278E+00  0.68755919099E+00  0.11802633077E+01  0.00000000000E+00 0. -1.
         11    1    3    3    0    0  0.70926242630E+01 -0.37505104475E+01  0.38638144152E+01  0.89050945896E+01  0.51100000000E-03 0. -1.
        -11    1    3    3    0    0  0.98048538719E+01 -0.16248308841E+02  0.31283620850E+02  0.36589720324E+02  0.51100000000E-03 0.  1.
         12    1    3    3    0    0 -0.17746732793E+02  0.19552668686E+02 -0.35834994456E+02  0.44512921778E+02  0.00000000000E+00 0. -1.
</event>
<event>
 7    1  0.4096472E-015  0.9000774E+02  0.7816164E-02  0.1186339E+00
        -11   -1    0    0    0    0  0.00000000000E+00  0.00000000000E+00  0.45593999997E+02  0.45594000000E+02  0.51100000000E-03 0.  1.
         11   -1    0    0    0    0 -0.00000000000E+00 -0.00000000000E+00 -0.45593999997E+02  0.45594000000E+02  0.51100000000E-03 0. -1.
    9900012    2    1    2    0    0  0.56075360780E+00 -0.96423745528E+00  0.38575714898E+00  0.90007742801E+02  0.90000004206E+02 0.  0.
         12    1    1    2    0    0 -0.56075360780E+00  0.96423745528E+00 -0.38575714898E+00  0.11802571994E+01  0.00000000000E+00 0. -1.
         11    1    3    3    0    0  0.31595298167E+02  0.10415745199E+02  0.14175976417E+02  0.36162258253E+02  0.51100000000E-03 0. -1.
        -11    1    3    3    0    0  0.64877160939E+01  0.19994257956E+01  0.62719371464E+01  0.92425840248E+01  0.51100000000E-03 0.  1.
        -12    1    3    3    0    0 -0.37522260653E+02 -0.13379408450E+02 -0.20062156415E+02  0.44602900522E+02  0.00000000000E+00 0.  1.
</event>
<event>
 7    1  0.4096472E-015  0.9000782E+02  0.7816164E-02  0.1186339E+00
        -11   -1    0    0    0    0  0.00000000000E+00  0.00000000000E+00  0.45593999997E+02  0.45594000000E+02  0.51100000000E-03 0.  1.
         11   -1    0    0    0    0 -0.00000000000E+00 -0.00000000000E+00 -0.45593999997E+02  0.45594000000E+02  0.51100000000E-03 0. -1.
    9900012    2    1    2    0    0  0.24642183022E+00 -0.86428482388E+00  0.76491992184E+00  0.90007824394E+02  0.90000086876E+02 0.  0.
         12    1    1    2    0    0 -0.24642183022E+00  0.86428482388E+00 -0.76491992184E+00  0.11801756064E+01  0.00000000000E+00 0. -1.
         11    1    3    3    0    0  0.83438508819E+00 -0.87428561275E+01 -0.10623541351E+01  0.88465998163E+01  0.51100000000E-03 0. -1.
        -11    1    3    3    0    0 -0.19307612958E+01 -0.36320714143E+02  0.55163268134E+01  0.36787932489E+02  0.51100000000E-03 0.  1.
         12    1    3    3    0    0  0.13427980379E+01  0.44199285446E+02 -0.36890527565E+01  0.44373292089E+02  0.00000000000E+00 0. -1.
</event>
<event>
 7    1  0.4096472E-015  0.9000789E+02  0.7816164E-02  0.1186339E+00
        -11   -1    0    0    0    0  0.00000000000E+00  0.00000000000E+00  0.45593999997E+02  0.45594000000E+02  0.51100000000E-03 0.  1.
         11   -1    0    0    0    0 -0.00000000000E+00 -0.00000000000E+00 -0.45593999997E+02  0.45594000000E+02  0.51100000000E-03 0. -1.
    9900012    2    1    2    0    0  0.79229516050E+00  0.62533125968E-01  0.87236575234E+00  0.90007888133E+02  0.90000151456E+02 0.  0.
         12    1    1    2    0    0 -0.79229516050E+00 -0.62533125968E-01 -0.87236575234E+00  0.11801118672E+01  0.00000000000E+00 0. -1.
         11    1    3    3    0    0 -0.32328788934E+02 -0.91072967331E+01  0.14755381956E+02  0.36685347820E+02  0.51100000000E-03 0. -1.
        -11    1    3    3    0    0 -0.15549523004E+01 -0.10290133527E+02  0.18311136017E+01  0.10566820806E+02  0.51100000000E-03 0.  1.
        -12    1    3    3    0    0  0.34676036395E+02  0.19459963386E+02 -0.15714129805E+02  0.42755719507E+02  0.00000000000E+00 0.  1.
</event>
<event>
 7    1  0.8662037E-015  0.9000771E+02  0.7816164E-02  0.1186339E+00
        -11   -1    0    0    0    0  0.00000000000E+00  0.00000000000E+00  0.45593999997E+02  0.45594000000E+02  0.51100000000E-03 0. -1.
         11   -1    0    0    0    0 -0.00000000000E+00 -0.00000000000E+00 -0.45593999997E+02  0.45594000000E+02  0.51100000000E-03 0.  1.
    9900012    2    1    2    0    0  0.56661051939E+00 -0.21966956181E+00 -0.10118181865E+01  0.90007712645E+02  0.89999973652E+02 0.  0.
         12    1    1    2    0    0 -0.56661051939E+00  0.21966956181E+00  0.10118181865E+01  0.11802873547E+01  0.00000000000E+00 0. -1.
         11    1    3    3    0    0 -0.16711186356E+02 -0.13749344511E+02  0.32762316273E+02  0.39264202420E+02  0.51100000000E-03 0. -1.
        -11    1    3    3    0    0  0.71908755814E+01  0.32994051864E+01  0.50231634913E+01  0.93716027408E+01  0.51100000000E-03 0.  1.
        -12    1    3    3    0    0  0.10086921294E+02  0.10230269763E+02 -0.38797297950E+02  0.41371907484E+02  0.00000000000E+00 0.  1.
</event>
<event>
 7    1  0.4096472E-015  0.9000778E+02  0.7816164E-02  0.1186339E+00
        -11   -1    0    0    0    0  0.00000000000E+00  0.00000000000E+00  0.45593999997E+02  0.45594000000E+02  0.51100000000E-03 0.  1.
         11   -1    0    0    0    0 -0.00000000000E+00 -0.00000000000E+00 -0.45593999997E+02  0.45594000000E+02  0.51100000000E-03 0. -1.
    9900012    2    1    2    0    0  0.57984313412E+00  0.24736674637E+00  0.99775740241E+00  0.90007776207E+02  0.90000038053E+02 0.  0.
         12    1    1    2    0    0 -0.57984313412E+00 -0.24736674637E+00 -0.99775740241E+00  0.11802237930E+01  0.00000000000E+00 0. -1.
         11    1    3    3    0    0  0.33434999327E+01 -0.59722663697E+01  0.75764430575E+01  0.10210261850E+02  0.51100000000E-03 0. -1.
        -11    1    3    3    0    0 -0.37501281945E+02 -0.83046286844E+01  0.83279699724E+01  0.39302265701E+02  0.51100000000E-03 0.  1.
         12    1    3    3    0    0  0.34737625147E+02  0.14524261800E+02 -0.14906655627E+02  0.40495248656E+02  0.00000000000E+00 0. -1.
</event>
<event>
 7    1  0.4096472E-015  0.9000785E+02  0.7816164E-02  0.1186339E+00
        -11   -1    0    0    0    0  0.00000000000E+00  0.00000000000E+00  0.45593999997E+02  0.45594000000E+02  0.51100000000E-03 0. -1.
         11   -1    0    0    0    0 -0.00000000000E+00 -0.00000000000E+00 -0.45593999997E+02  0.45594000000E+02  0.51100000000E-03 0.  1.
    9900012    2    1    2    0    0  0.15164681532E+00 -0.10362537479E+01 -0.54399612319E+00  0.90007851548E+02  0.90000114388E+02 0.  0.
         12    1    1    2    0    0 -0.15164681532E+00  0.10362537479E+01  0.54399612319E+00  0.11801484520E+01  0.00000000000E+00 0. -1.
         11    1    3    3    0    0  0.14594482955E+02  0.48784967449E+00  0.36191521650E+02  0.39026441928E+02  0.51100000000E-03 0. -1.
        -11    1    3    3    0    0  0.38689705182E+01 -0.11892838476E+02 -0.63652775086E+01  0.14033007443E+02  0.51100000000E-03 0.  1.
        -12    1    3    3    0    0 -0.18311806657E+02  0.10368735054E+02 -0.30370240264E+02  0.36948402176E+02  0.00000000000E+00 0.  1.
</event>
<event>
 7    1  0.4096472E-015  0.9000756E+02  0.7816164E-02  0.1186339E+00
        -11   -1    0    0    0    0  0.00000000000E+00  0.00000000000E+00  0.45593999997E+02  0.45594000000E+02  0.51100000000E-03 0.  1.
         11   -1    0    0    0    0 -0.00000000000E+00 -0.00000000000E+00 -0.45593999997E+02  0.45594000000E+02  0.51100000000E-03 0. -1.
    9900012    2    1    2    0    0 -0.30637460714E+00 -0.96179540504E+00  0.61197862388E+00  0.90007562099E+02  0.89999821119E+02 0.  0.
         12    1    1    2    0    0  0.30637460714E+00  0.96179540504E+00 -0.61197862388E+00  0.11804379006E+01  0.00000000000E+00 0. -1.
         11    1    3    3    0    0  0.36530435629E+02  0.12554366270E+02 -0.69028924513E+01  0.39239454177E+02  0.51100000000E-03 0. -1.
        -11    1    3    3    0    0  0.24399099245E+01  0.58257753851E+01  0.20871582537E+01  0.66519958745E+01  0.51100000000E-03 0.  1.
        -12    1    3    3    0    0 -0.39276720160E+02 -0.19341937060E+02  0.54277128215E+01  0.44116112048E+02  0.00000000000E+00 0.  1.
</event>
<event>
 7    1  0.4096472E-015  0.9000783E+02  0.7816164E-02  0.1186339E+00
        -11   -1    0    0    0    0  0.00000000000E+00  0.00000000000E+00  0.45593999997E+02  0.45594000000E+02  0.51100000000E-03 0.  1.
         11   -1    0    0    0    0 -0.00000000000E+00 -0.00000000000E+00 -0.45593999997E+02  0.45594000000E+02  0.51100000000E-03 0. -1.
    9900012    2    1    2    0    0 -0.38214084704E-01 -0.11328501386E+01  0.32862895893E+00  0.90007827663E+02  0.90000090188E+02 0.  0.
         12    1    1    2    0    0  0.38214084704E-01  0.11328501386E+01 -0.32862895893E+00  0.11801723372E+01  0.00000000000E+00 0. -1.
         11    1    3    3    0    0  0.22079787396E+02 -0.24247577348E+02 -0.15173889924E+02  0.36134594981E+02  0.51100000000E-03 0. -1.
        -11    1    3    3    0    0  0.76613665711E+01 -0.40846018401E+01 -0.34099193564E+01  0.93278111155E+01  0.51100000000E-03 0.  1.
        -12    1    3    3    0    0 -0.29779368052E+02  0.27199329050E+02  0.18912438240E+02  0.44545421566E+02  0.00000000000E+00 0.  1.
</event>
<event>
 7    1  0.4096472E-015  0.9000771E+02  0.7816164E-02  0.1186339E+00
        -11   -1    0    0    0    0  0.00000000000E+00  0.00000000000E+00  0.45593999997E+02  0.45594000000E+02  0.51100000000E-03 0.  1.
         11   -1    0    0    0    0 -0.00000000000E+00 -0.00000000000E+00 -0.45593999997E+02  0.45594000000E+02  0.51100000000E-03 0. -1.
    9900012    2    1    2    0    0  0.12877859471E+00 -0.10415597970E+01 -0.54004370000E+00  0.90007712774E+02  0.89999973783E+02 0.  0.
         12    1    1    2    0    0 -0.12877859471E+00  0.10415597970E+01  0.54004370000E+00  0.11802872256E+01  0.00000000000E+00 0. -1.
         11    1    3    3    0    0  0.47301183566E+01 -0.23806712168E+02 -0.33811137672E+02  0.41621227695E+02  0.51100000000E-03 0. -1.
        -11    1    3    3    0    0  0.62491435468E+01 -0.31613230467E+01  0.59396333658E+01  0.91828646541E+01  0.51100000000E-03 0.  1.
        -12    1    3    3    0    0 -0.10850483309E+02  0.25926475418E+02  0.27331460606E+02  0.39203620425E+02  0.00000000000E+00 0.  1.
</event>
<event>
 7    1  0.4096472E-015  0.9000785E+02  0.7816164E-02  0.1186339E+00
        -11   -1    0    0    0    0  0.00000000000E+00  0.00000000000E+00  0.45593999997E+02  0.45594000000E+02  0.51100000000E-03 0. -1.
         11   -1    0    0    0    0 -0.00000000000E+00 -0.00000000000E+00 -0.45593999997E+02  0.45594000000E+02  0.51100000000E-03 0.  1.
    9900012    2    1    2    0    0  0.37771730631E+00  0.11099946893E+01 -0.13411724125E+00  0.90007853396E+02  0.90000116260E+02 0.  0.
         12    1    1    2    0    0 -0.37771730631E+00 -0.11099946893E+01  0.13411724125E+00  0.11801466045E+01  0.00000000000E+00 0. -1.
         11    1    3    3    0    0  0.76107131490E+01 -0.88782794777E+00 -0.49604566571E+01  0.91278323609E+01  0.51100000000E-03 0. -1.
        -11    1    3    3    0    0  0.30103445366E+02 -0.20362931171E+02 -0.37027855734E+01  0.36531862943E+02  0.51100000000E-03 0.  1.
         12    1    3    3    0    0 -0.37336441209E+02  0.22360753809E+02  0.85291249892E+01  0.44348158092E+02  0.00000000000E+00 0. -1.
</event>
<event>
 7    1  0.4096472E-015  0.9000784E+02  0.7816164E-02  0.1186339E+00
        -11   -1    0    0    0    0  0.00000000000E+00  0.00000000000E+00  0.45593999997E+02  0.45594000000E+02  0.51100000000E-03 0.  1.
         11   -1    0    0    0    0 -0.00000000000E+00 -0.00000000000E+00 -0.45593999997E+02  0.45594000000E+02  0.51100000000E-03 0. -1.
    9900012    2    1    2    0    0 -0.58828226945E+00  0.97023299428E+00 -0.32456505581E+00  0.90007842990E+02  0.90000105718E+02 0.  0.
         12    1    1    2    0    0  0.58828226945E+00 -0.97023299428E+00  0.32456505581E+00  0.11801570096E+01  0.00000000000E+00 0. -1.
         11    1    3    3    0    0 -0.29646820031E+01  0.91866573453E+01  0.12987042357E+01  0.97401563393E+01  0.51100000000E-03 0. -1.
        -11    1    3    3    0    0 -0.15627450010E+02 -0.21271098248E+02  0.31044677059E+02  0.40748604742E+02  0.51100000000E-03 0.  1.
         12    1    3    3    0    0  0.18003849744E+02  0.13054673897E+02 -0.32667946351E+02  0.39519081909E+02  0.00000000000E+00 0. -1.
</event>
<event>
 7    1  0.4096472E-015  0.9000772E+02  0.7816164E-02  0.1186339E+00
        -11   -1    0    0    0    0  0.00000000000E+00  0.00000000000E+00  0.45593999997E+02  0.45594000000E+02  0.51100000000E-03 0. -1.
         11   -1    0    0    0    0 -0.00000000000E+00 -0.00000000000E+00 -0.45593999997E+02  0.45594000000E+02  0.51100000000E-03 0.  1.
    9900012    2    1    2    0    0 -0.15923500011E+00 -0.87741225589E+00 -0.77320181825E+00  0.90007724988E+02  0.89999986158E+02 0.  0.
         12    1    1    2    0    0  0.15923500011E+00  0.87741225589E+00  0.77320181825E+00  0.11802750119E+01  0.00000000000E+00 0. -1.
         11    1    3    3    0    0 -0.12702382497E+02  0.84292425641E+01  0.33073544036E+02  0.36417879767E+02  0.51100000000E-03 0. -1.
        -11    1    3    3    0    0  0.51301108237E+01 -0.53919153217E+01  0.79912640315E+01  0.10920214695E+02  0.51100000000E-03 0.  1.
        -12    1    3    3    0    0  0.74130366736E+01 -0.39147394982E+01 -0.41838009886E+02  0.42669630527E+02  0.00000000000E+00 0.  1.
</event>
<event>
 7    1  0.4096472E-015  0.9000773E+02  0.7816164E-02  0.1186339E+00
        -11   -1    0    0    0    0  0.00000000000E+00  0.00000000000E+00  0.45593999997E+02  0.45594000000E+02  0.51100000000E-03 0. -1.
         11   -1    0    0    0    0 -0.00000000000E+00 -0.00000000000E+00 -0.45593999997E+02  0.45594000000E+02  0.51100000000E-03 0.  1.
    9900012    2    1    2    0    0 -0.69122094379E+00  0.89251061724E+00 -0.34450578897E+00  0.90007726373E+02  0.89999987562E+02 0.  0.
         12    1    1    2    0    0  0.69122094379E+00 -0.89251061724E+00  0.34450578897E+00  0.11802736266E+01  0.00000000000E+00 0. -1.
         11    1    3    3    0    0  0.25484707384E+02 -0.24892527571E+02 -0.48902781358E+01  0.35958629838E+02  0.51100000000E-03 0. -1.
        -11    1    3    3    0    0  0.74654813020E+01 -0.43446671177E+01 -0.19310911126E+00  0.86398399768E+01  0.51100000000E-03 0.  1.
        -12    1    3    3    0    0 -0.33641409630E+02  0.30129705306E+02  0.47388814581E+01  0.45409256558E+02  0.00000000000E+00 0.  1.
</event>
<event>
 7    1  0.4096472E-015  0.9000764E+02  0.7816164E-02  0.1186339E+00
        -11   -1    0    0    0    0  0.00000000000E+00  0.00000000000E+00  0.45593999997E+02  0.45594000000E+02  0.51100000000E-03 0. -1.
         11   -1    0    0    0    0 -0.00000000000E+00 -0.00000000000E+00 -0.45593999997E+02  0.45594000000E+02  0.51100000000E-03 0.  1.
    9900012    2    1    2    0    0 -0.10123481424E+01 -0.58877390272E+00 -0.14745695108E+00  0.90007641147E+02  0.89999901210E+02 0.  0.
         12    1    1    2    0    0  0.10123481424E+01  0.58877390272E+00  0.14745695108E+00  0.11803588532E+01  0.00000000000E+00 0. -1.
         11    1    3    3    0    0  0.15732347069E+02  0.27754575834E+02 -0.26691118870E+02  0.41596142259E+02  0.51100000000E-03 0. -1.
        -11    1    3    3    0    0 -0.37166155081E+01 -0.64802256404E+01 -0.41445412516E+01  0.85430543503E+01  0.51100000000E-03 0.  1.
        -12    1    3    3    0    0 -0.13028079703E+02 -0.21863124096E+02  0.30688203171E+02  0.39868444538E+02  0.00000000000E+00 0.  1.
</event>
<event>
 7    1  0.4096472E-015  0.9000766E+02  0.7816164E-02  0.1186339E+00
        -11   -1    0    0    0    0  0.00000000000E+00  0.00000000000E+00  0.45593999997E+02  0.45594000000E+02  0.51100000000E-03 0. -1.
         11   -1    0    0    0    0 -0.00000000000E+00 -0.00000000000E+00 -0.45593999997E+02  0.45594000000E+02  0.51100000000E-03 0.  1.
    9900012    2    1    2    0    0  0.10241669618E+01  0.40609781444E+00 -0.42352343181E+00  0.90007658737E+02  0.89999919032E+02 0.  0.
         12    1    1    2    0    0 -0.10241669618E+01 -0.40609781444E+00  0.42352343181E+00  0.11803412633E+01  0.00000000000E+00 0. -1.
         11    1    3    3    0    0 -0.84765284810E+01 -0.36596087175E+01  0.66088815479E+01  0.11354364211E+02  0.51100000000E-03 0. -1.
        -11    1    3    3    0    0 -0.86447521026E+01  0.42745925629E+01 -0.39932477393E+02  0.41080489669E+02  0.51100000000E-03 0.  1.
         12    1    3    3    0    0  0.18145447545E+02 -0.20888603095E+00  0.32900072413E+02  0.37572804856E+02  0.00000000000E+00 0. -1.
</event>
<event>
 7    1  0.4096472E-015  0.9000775E+02  0.7816164E-02  0.1186339E+00
        -11   -1    0    0    0    0  0.00000000000E+00  0.00000000000E+00  0.45593999997E+02  0.45594000000E+02  0.51100000000E-03 0.  1.
         11   -1    0    0    0    0 -0.00000000000E+00 -0.00000000000E+00 -0.45593999997E+02  0.45594000000E+02  0.51100000000E-03 0. -1.
    9900012    2    1    2    0    0 -0.33280938696E+00  0.93879946620E+00  0.63316116768E+00  0.90007745964E+02  0.90000007410E+02 0.  0.
         12    1    1    2    0    0  0.33280938696E+00 -0.93879946620E+00 -0.63316116768E+00  0.11802540362E+01  0.00000000000E+00 0. -1.
         11    1    3    3    0    0 -0.14162855952E+02  0.55790614301E+01  0.89436679544E+01  0.17655073263E+02  0.51100000000E-03 0. -1.
        -11    1    3    3    0    0  0.33163212143E+02  0.21110080054E+02 -0.81709545903E+01  0.40152193200E+02  0.51100000000E-03 0.  1.
         12    1    3    3    0    0 -0.19333165578E+02 -0.25750342018E+02 -0.13955219632E+00  0.32200479502E+02  0.00000000000E+00 0. -1.
</event>
<event>
 7    1  0.4096472E-015  0.9000773E+02  0.7816164E-02  0.1186339E+00
        -11   -1    0    0    0    0  0.00000000000E+00  0.00000000000E+00  0.45593999997E+02  0.45594000000E+02  0.51100000000E-03 0.  1.
         11   -1    0    0    0    0 -0.00000000000E+00 -0.00000000000E+00 -0.45593999997E+02  0.45594000000E+02  0.51100000000E-03 0. -1.
    9900012    2    1    2    0    0 -0.10134107881E+01  0.17192307483E-01 -0.60476233641E+00  0.90007731181E+02  0.89999992433E+02 0.  0.
         12    1    1    2    0    0  0.10134107881E+01 -0.17192307483E-01  0.60476233641E+00  0.11802688187E+01  0.00000000000E+00 0. -1.
         11    1    3    3    0    0 -0.41412610851E+02  0.12945535393E+01 -0.25245268153E+01  0.41509678899E+02  0.51100000000E-03 0. -1.
        -11    1    3    3    0    0  0.48424764435E+00 -0.72861010658E+01  0.35101701943E+01  0.81020404576E+01  0.51100000000E-03 0.  1.
        -12    1    3    3    0    0  0.39914952419E+02  0.60087398340E+01 -0.15904057154E+01  0.40396011825E+02  0.00000000000E+00 0.  1.
</event>
<event>
 7    1  0.4096472E-015  0.9000774E+02  0.7816164E-02  0.1186339E+00
        -11   -1    0    0    0    0  0.00000000000E+00  0.00000000000E+00  0.45593999997E+02  0.45594000000E+02  0.51100000000E-03 0. -1.
         11   -1    0    0    0    0 -0.00000000000E+00 -0.00000000000E+00 -0.45593999997E+02  0.45594000000E+02  0.51100000000E-03 0.  1.
    9900012    2    1    2    0    0 -0.39724455531E+00  0.11100474175E+01 -0.54853684887E-01  0.90007738405E+02  0.89999999752E+02 0.  0.
         12    1    1    2    0    0  0.39724455531E+00 -0.11100474175E+01  0.54853684887E-01  0.11802615950E+01  0.00000000000E+00 0. -1.
         11    1    3    3    0    0 -0.26000325847E+02 -0.27308207460E+02 -0.14912872008E+02  0.40548105882E+02  0.51100000000E-03 0. -1.
        -11    1    3    3    0    0  0.16468729251E+01 -0.39313112181E+01  0.73717669547E+01  0.85153007358E+01  0.51100000000E-03 0.  1.
        -12    1    3    3    0    0  0.23956208367E+02  0.32349566096E+02  0.74862513683E+01  0.40944331787E+02  0.00000000000E+00 0.  1.
</event>
<event>
 7    1  0.4096472E-015  0.9000784E+02  0.7816164E-02  0.1186339E+00
        -11   -1    0    0    0    0  0.00000000000E+00  0.00000000000E+00  0.45593999997E+02  0.45594000000E+02  0.51100000000E-03 0.  1.
         11   -1    0    0    0    0 -0.00000000000E+00 -0.00000000000E+00 -0.45593999997E+02  0.45594000000E+02  0.51100000000E-03 0. -1.
    9900012    2    1    2    0    0  0.57157024076E+00  0.89190493458E+00 -0.52019127280E+00  0.90007836489E+02  0.90000099131E+02 0.  0.
         12    1    1    2    0    0 -0.57157024076E+00 -0.89190493458E+00  0.52019127280E+00  0.11801635110E+01  0.00000000000E+00 0. -1.
         11    1    3    3    0    0  0.20303154758E+02  0.11812919776E+02  0.26178441162E+02  0.35172062048E+02  0.51100000000E-03 0. -1.
        -11    1    3    3    0    0  0.15724302528E+01  0.10950264193E+02  0.37839211569E+01  0.11691829728E+02  0.51100000000E-03 0.  1.
        -12    1    3    3    0    0 -0.21304014770E+02 -0.21871279035E+02 -0.30482553591E+02  0.43143944713E+02  0.00000000000E+00 0.  1.
</event>
<event>
 7    1  0.4096472E-015  0.9000774E+02  0.7816164E-02  0.1186339E+00
        -11   -1    0    0    0    0  0.00000000000E+00  0.00000000000E+00  0.45593999997E+02  0.45594000000E+02  0.51100000000E-03 0. -1.
         11   -1    0    0    0    0 -0.00000000000E+00 -0.00000000000E+00 -0.45593999997E+02  0.45594000000E+02  0.51100000000E-03 0.  1.
    9900012    2    1    2    0    0  0.96969557916E+00 -0.58403083153E+00  0.33406710344E+00  0.90007744791E+02  0.90000006222E+02 0.  0.
         12    1    1    2    0    0 -0.96969557916E+00  0.58403083153E+00 -0.33406710344E+00  0.11802552089E+01  0.00000000000E+00 0. -1.
         11    1    3    3    0    0  0.47512176724E+01 -0.74306697523E+01  0.31828523974E+01  0.93765383795E+01  0.51100000000E-03 0. -1.
        -11    1    3    3    0    0  0.26491641851E+02  0.59282362647E+01 -0.29641483665E+02  0.40194136728E+02  0.51100000000E-03 0.  1.
         12    1    3    3    0    0 -0.30273163944E+02  0.91840265603E+00  0.26792698371E+02  0.40437069684E+02  0.00000000000E+00 0. -1.
</event>
<event>
 7    1  0.4096472E-015  0.9000773E+02  0.7816164E-02  0.1186339E+00
        -11   -1    0    0    0    0  0.00000000000E+00  0.00000000000E+00  0.45593999997E+02  0.45594000000E+02  0.51100000000E-03 0.  1.
         11   -1    0    0    0    0 -0.00000000000E+00 -0.00000000000E+00 -0.45593999997E+02  0.45594000000E+02  0.51100000000E-03 0. -1.
    9900012    2    1    2    0    0 -0.10816295437E+01  0.25222636454E+00 -0.39936208114E+00  0.90007732793E+02  0.89999994066E+02 0.  0.
         12    1    1    2    0    0  0.10816295437E+01 -0.25222636454E+00  0.39936208114E+00  0.11802672073E+01  0.00000000000E+00 0. -1.
         11    1    3    3    0    0  0.12861075524E+01  0.39059689080E+02  0.41437179447E+00  0.39083053718E+02  0.51100000000E-03 0. -1.
        -11    1    3    3    0    0 -0.87221318931E+01  0.20316885258E+01  0.29353971300E+01  0.94244309960E+01  0.51100000000E-03 0.  1.
        -12    1    3    3    0    0  0.63543947970E+01 -0.40839151241E+02 -0.37491310056E+01  0.41500248079E+02  0.00000000000E+00 0.  1.
</event>
<event>
 7    1  0.4096472E-015  0.9000776E+02  0.7816164E-02  0.1186339E+00
        -11   -1    0    0    0    0  0.00000000000E+00  0.00000000000E+00  0.45593999997E+02  0.45594000000E+02  0.51100000000E-03 0. -1.
         11   -1    0    0    0    0 -0.00000000000E+00 -0.00000000000E+00 -0.45593999997E+02  0.45594000000E+02  0.51100000000E-03 0.  1.
    9900012    2    1    2    0    0  0.56475971877E+00  0.10295939838E+01  0.11812179476E+00  0.90007758470E+02  0.90000020082E+02 0.  0.
         12    1    1    2    0    0 -0.56475971877E+00 -0.10295939838E+01 -0.11812179476E+00  0.11802415303E+01  0.00000000000E+00 0. -1.
         11    1    3    3    0    0  0.60911967589E+01 -0.25001555949E+01 -0.74482934785E+01  0.99413546339E+01  0.51100000000E-03 0. -1.
        -11    1    3    3    0    0 -0.15049329825E+02 -0.18687769174E+02 -0.28118996591E+02  0.36964753677E+02  0.51100000000E-03 0.  1.
         12    1    3    3    0    0  0.95228927847E+01  0.22217518752E+02  0.35685411864E+02  0.43101650159E+02  0.00000000000E+00 0. -1.
</event>
<event>
 7    1  0.4096472E-015  0.9000775E+02  0.7816164E-02  0.1186339E+00
        -11   -1    0    0    0    0  0.00000000000E+00  0.00000000000E+00  0.45593999997E+02  0.45594000000E+02  0.51100000000E-03 0.  1.
         11   -1    0    0    0    0 -0.00000000000E+00 -0.00000000000E+00 -0.45593999997E+02  0.45594000000E+02  0.51100000000E-03 0. -1.
    9900012    2    1    2    0    0  0.27573527733E+00 -0.10123993782E+01  0.54037152248E+00  0.90007752642E+02  0.90000014177E+02 0.  0.
         12    1    1    2    0    0 -0.27573527733E+00  0.10123993782E+01 -0.54037152248E+00  0.11802473581E+01  0.00000000000E+00 0. -1.
         11    1    3    3    0    0 -0.16389126191E+01 -0.42785999481E+00 -0.95686686318E+01  0.97174337351E+01  0.51100000000E-03 0. -1.
        -11    1    3    3    0    0  0.11367624836E+02  0.38115591108E+02  0.37968956452E+01  0.39955445145E+02  0.51100000000E-03 0.  1.
         12    1    3    3    0    0 -0.94529769393E+01 -0.38700130492E+02  0.63121445092E+01  0.40334873762E+02  0.00000000000E+00 0. -1.
</event>
<event>
 7    1  0.4096472E-015  0.9000768E+02  0.7816164E-02  0.1186339E+00
        -11   -1    0    0    0    0  0.00000000000E+00  0.00000000000E+00  0.45593999997E+02  0.45594000000E+02  0.51100000000E-03 0. -1.
         11   -1    0    0    0    0 -0.00000000000E+00 -0.00000000000E+00 -0.45593999997E+02  0.45594000000E+02  0.51100000000E-03 0.  1.
    9900012    2    1    2    0    0 -0.76872980207E+00 -0.44383793442E+00  0.77795393129E+00  0.90007682272E+02  0.89999942878E+02 0.  0.
         12    1    1    2    0    0  0.76872980207E+00  0.44383793442E+00 -0.77795393129E+00  0.11803177283E+01  0.00000000000E+00 0. -1.
         11    1    3    3    0    0 -0.50854633412E+01  0.52558267761E+01 -0.84178713168E+01  0.11151063190E+02  0.51100000000E-03 0. -1.
        -11    1    3    3    0    0 -0.33486972406E+02 -0.15209237610E+02  0.14463720307E+02  0.39520848106E+02  0.51100000000E-03 0.  1.
         12    1    3    3    0    0  0.37803705945E+02  0.95095728997E+01 -0.52678950593E+01  0.39335770976E+02  0.00000000000E+00 0. -1.
</event>
<event>
 7    1  0.4096472E-015  0.9000778E+02  0.7816164E-02  0.1186339E+00
        -11   -1    0    0    0    0  0.00000000000E+00  0.00000000000E+00  0.45593999997E+02  0.45594000000E+02  0.51100000000E-03 0.  1.
         11   -1    0    0    0    0 -0.00000000000E+00 -0.00000000000E+00 -0.45593999997E+02  0.45594000000E+02  0.51100000000E-03 0. -1.
    9900012    2    1    2    0    0 -0.58794183319E+00  0.71634304819E+00  0.73081968465E+00  0.90007779523E+02  0.90000041413E+02 0.  0.
         12    1    1    2    0    0  0.58794183319E+00 -0.71634304819E+00 -0.73081968465E+00  0.11802204766E+01  0.00000000000E+00 0. -1.
         11    1    3    3    0    0 -0.35033627638E+02  0.56082188106E+01 -0.74024156361E+01  0.36243660703E+02  0.51100000000E-03 0. -1.
        -11    1    3    3    0    0 -0.87574886238E+01 -0.43415974458E+01 -0.12447253454E+00  0.97754063368E+01  0.51100000000E-03 0.  1.
        -12    1    3    3    0    0  0.43203174428E+02 -0.55027831664E+00  0.82577078553E+01  0.43988712483E+02  0.00000000000E+00 0.  1.
</event>
<event>
 7    1  0.6740548E-015  0.9000772E+02  0.7816164E-02  0.1186339E+00
        -11   -1    0    0    0    0  0.00000000000E+00  0.00000000000E+00  0.45593999997E+02  0.45594000000E+02  0.51100000000E-03 0. -1.
         11   -1    0    0    0    0 -0.00000000000E+00 -0.00000000000E+00 -0.45593999997E+02  0.45594000000E+02  0.51100000000E-03 0.  1.
    9900012    2    1    2    0    0  0.10064056543E+01  0.65034802520E-02 -0.61657912845E+00  0.90007718484E+02  0.89999979568E+02 0.  0.
         12    1    1    2    0    0 -0.10064056543E+01 -0.65034802520E-02  0.61657912845E+00  0.11802815164E+01  0.00000000000E+00 0. -1.
         11    1    3    3    0    0 -0.44902694725E+01 -0.81869505444E+01  0.20745627626E+01  0.95651706765E+01  0.51100000000E-03 0. -1.
        -11    1    3    3    0    0 -0.31034375920E+02 -0.16590202249E+02 -0.76744172307E+01  0.36017550992E+02  0.51100000000E-03 0.  1.
         12    1    3    3    0    0  0.36531051047E+02  0.24783656274E+02  0.49832753396E+01  0.44424996815E+02  0.00000000000E+00 0. -1.
</event>
<event>
 7    1  0.4096472E-015  0.9000774E+02  0.7816164E-02  0.1186339E+00
        -11   -1    0    0    0    0  0.00000000000E+00  0.00000000000E+00  0.45593999997E+02  0.45594000000E+02  0.51100000000E-03 0. -1.
         11   -1    0    0    0    0 -0.00000000000E+00 -0.00000000000E+00 -0.45593999997E+02  0.45594000000E+02  0.51100000000E-03 0.  1.
    9900012    2    1    2    0    0 -0.11044043664E+01  0.14378871672E+00 -0.39068243878E+00  0.90007738602E+02  0.89999999952E+02 0.  0.
         12    1    1    2    0    0  0.11044043664E+01 -0.14378871672E+00  0.39068243878E+00  0.11802613980E+01  0.00000000000E+00 0. -1.
         11    1    3    3    0    0  0.17178152063E+02 -0.22503375907E+02  0.22414767096E+02  0.36109730263E+02  0.51100000000E-03 0. -1.
        -11    1    3    3    0    0 -0.57238336470E+00 -0.98497757163E+01  0.96328492314E+00  0.99133053257E+01  0.51100000000E-03 0.  1.
        -12    1    3    3    0    0 -0.17710173064E+02  0.32496940340E+02 -0.23768734458E+02  0.43984703013E+02  0.00000000000E+00 0.  1.
</event>
<event>
 7    1  0.4096472E-015  0.9000759E+02  0.7816164E-02  0.1186339E+00
        -11   -1    0    0    0    0  0.00000000000E+00  0.00000000000E+00  0.45593999997E+02  0.45594000000E+02  0.51100000000E-03 0.  1.
         11   -1    0    0    0    0 -0.00000000000E+00 -0.00000000000E+00 -0.45593999997E+02  0.45594000000E+02  0.51100000000E-03 0. -1.
    9900012    2    1    2    0    0  0.43656574757E+00 -0.95246373459E+00  0.54369343905E+00  0.90007585084E+02  0.89999844407E+02 0.  0.
         12    1    1    2    0    0 -0.43656574757E+00  0.95246373459E+00 -0.54369343905E+00  0.11804149158E+01  0.00000000000E+00 0. -1.
         11    1    3    3    0    0 -0.74103653342E+01 -0.10278642081E+02 -0.65271676746E+01  0.14253698311E+02  0.51100000000E-03 0. -1.
        -11    1    3    3    0    0  0.16092012476E+02 -0.25807997344E+00  0.38580335150E+02  0.41802652205E+02  0.51100000000E-03 0.  1.
         12    1    3    3    0    0 -0.82450813943E+01  0.95842583198E+01 -0.31509474036E+02  0.33951234569E+02  0.00000000000E+00 0. -1.
</event>
<event>
 7    1  0.4096472E-015  0.9000800E+02  0.7816164E-02  0.1186339E+00
        -11   -1    0    0    0    0  0.00000000000E+00  0.00000000000E+00  0.45593999997E+02  0.45594000000E+02  0.51100000000E-03 0. -1.
         11   -1    0    0    0    0 -0.00000000000E+00 -0.00000000000E+00 -0.45593999997E+02  0.45594000000E+02  0.51100000000E-03 0.  1.
    9900012    2    1    2    0    0  0.10439577165E+01  0.50449298139E+00  0.21915564295E+00  0.90008004204E+02  0.90000269059E+02 0.  0.
         12    1    1    2    0    0 -0.10439577165E+01 -0.50449298139E+00 -0.21915564295E+00  0.11799957957E+01  0.00000000000E+00 0. -1.
         11    1    3    3    0    0 -0.34925813866E+02 -0.41304414302E+01  0.85987666993E+01  0.36205135127E+02  0.51100000000E-03 0. -1.
        -11    1    3    3    0    0 -0.55343269028E+01 -0.24062568866E+01  0.67639750740E+01  0.90647782948E+01  0.51100000000E-03 0.  1.
        -12    1    3    3    0    0  0.41504098485E+02  0.70411912982E+01 -0.15143586130E+02  0.44738090782E+02  0.00000000000E+00 0.  1.
</event>
<event>
 7    1  0.4096472E-015  0.9000774E+02  0.7816164E-02  0.1186339E+00
        -11   -1    0    0    0    0  0.00000000000E+00  0.00000000000E+00  0.45593999997E+02  0.45594000000E+02  0.51100000000E-03 0. -1.
         11   -1    0    0    0    0 -0.00000000000E+00 -0.00000000000E+00 -0.45593999997E+02  0.45594000000E+02  0.51100000000E-03 0.  1.
    9900012    2    1    2    0    0  0.11148935931E+01  0.66713490616E-01 -0.38153163889E+00  0.90007743754E+02  0.90000005172E+02 0.  0.
         12    1    1    2    0    0 -0.11148935931E+01 -0.66713490616E-01  0.38153163889E+00  0.11802562456E+01  0.00000000000E+00 0. -1.
         11    1    3    3    0    0 -0.38638217532E+01 -0.80352837807E+01  0.67054256448E+01  0.11156058324E+02  0.51100000000E-03 0. -1.
        -11    1    3    3    0    0  0.29475152189E+02  0.23440110061E+02  0.16914104693E+02  0.41283293159E+02  0.51100000000E-03 0.  1.
         12    1    3    3    0    0 -0.24496436842E+02 -0.15338112789E+02 -0.24001061976E+02  0.37568392272E+02  0.00000000000E+00 0. -1.
</event>
<event>
 7    1  0.4096472E-015  0.9000775E+02  0.7816164E-02  0.1186339E+00
        -11   -1    0    0    0    0  0.00000000000E+00  0.00000000000E+00  0.45593999997E+02  0.45594000000E+02  0.51100000000E-03 0. -1.
         11   -1    0    0    0    0 -0.00000000000E+00 -0.00000000000E+00 -0.45593999997E+02  0.45594000000E+02  0.51100000000E-03 0.  1.
    9900012    2    1    2    0    0  0.11359395458E+01 -0.30208766107E+00 -0.10659811929E+00  0.90007754786E+02  0.90000016349E+02 0.  0.
         12    1    1    2    0    0 -0.11359395458E+01  0.30208766107E+00  0.10659811929E+00  0.11802452143E+01  0.00000000000E+00 0. -1.
         11    1    3    3    0    0 -0.90952388979E+00  0.10305232016E+02 -0.40150417862E+01  0.11097098784E+02  0.51100000000E-03 0. -1.
        -11    1    3    3    0    0  0.18295117676E+02  0.16294274241E+02 -0.25859731675E+02  0.35622190084E+02  0.51100000000E-03 0.  1.
         12    1    3    3    0    0 -0.16249654241E+02 -0.26901593919E+02  0.29768175342E+02  0.43288465918E+02  0.00000000000E+00 0. -1.
</event>
<event>
 7    1  0.4096472E-015  0.9000841E+02  0.7816164E-02  0.1186338E+00
        -11   -1    0    0    0    0  0.00000000000E+00  0.00000000000E+00  0.45593999997E+02  0.45594000000E+02  0.51100000000E-03 0.  1.
         11   -1    0    0    0    0 -0.00000000000E+00 -0.00000000000E+00 -0.45593999997E+02  0.45594000000E+02  0.51100000000E-03 0. -1.
    9900012    2    1    2    0    0 -0.95732858772E+00 -0.14425119101E+00  0.67390901969E+00  0.90008406936E+02  0.90000677105E+02 0.  0.
         12    1    1    2    0    0  0.95732858772E+00  0.14425119101E+00 -0.67390901969E+00  0.11795930645E+01  0.00000000000E+00 0. -1.
         11    1    3    3    0    0 -0.12634942792E+02  0.13572077223E+01 -0.14379062341E+02  0.19189612456E+02  0.51100000000E-03 0. -1.
        -11    1    3    3    0    0  0.23995371487E+02  0.27965175174E+02  0.41988552441E+01  0.37087184592E+02  0.51100000000E-03 0.  1.
         12    1    3    3    0    0 -0.12317757282E+02 -0.29466634088E+02  0.10854116116E+02  0.33731609887E+02  0.00000000000E+00 0. -1.
</event>
<event>
 7    1  0.4096472E-015  0.9000775E+02  0.7816164E-02  0.1186339E+00
        -11   -1    0    0    0    0  0.00000000000E+00  0.00000000000E+00  0.45593999997E+02  0.45594000000E+02  0.51100000000E-03 0. -1.
         11   -1    0    0    0    0 -0.00000000000E+00 -0.00000000000E+00 -0.45593999997E+02  0.45594000000E+02  0.51100000000E-03 0.  1.
    9900012    2    1    2    0    0 -0.82162209629E+00  0.84618134296E+00 -0.43730173719E-01  0.90007746611E+02  0.90000008066E+02 0.  0.
         12    1    1    2    0    0  0.82162209629E+00 -0.84618134296E+00  0.43730173719E-01  0.11802533891E+01  0.00000000000E+00 0. -1.
         11    1    3    3    0    0  0.49844416575E+01  0.10384437046E+02 -0.15322126103E+01  0.11620192216E+02  0.51100000000E-03 0. -1.
        -11    1    3    3    0    0  0.35818617392E+02 -0.61125920213E+01 -0.25592615321E+01  0.36426459517E+02  0.51100000000E-03 0.  1.
         12    1    3    3    0    0 -0.41624681145E+02 -0.34256636819E+01  0.40477439687E+01  0.41961094878E+02  0.00000000000E+00 0. -1.
</event>
<event>
 7    1  0.4096472E-015  0.9000768E+02  0.7816164E-02  0.1186339E+00
        -11   -1    0    0    0    0  0.00000000000E+00  0.00000000000E+00  0.45593999997E+02  0.45594000000E+02  0.51100000000E-03 0. -1.
         11   -1    0    0    0    0 -0.00000000000E+00 -0.00000000000E+00 -0.45593999997E+02  0.45594000000E+02  0.51100000000E-03 0.  1.
    9900012    2    1    2    0    0  0.25466145435E+00  0.10300561461E+01 -0.51699196122E+00  0.90007682751E+02  0.89999943363E+02 0.  0.
         12    1    1    2    0    0 -0.25466145435E+00 -0.10300561461E+01  0.51699196122E+00  0.11803172491E+01  0.00000000000E+00 0. -1.
         11    1    3    3    0    0  0.32409806072E+02  0.11169139920E+02 -0.17222040487E+02  0.38363314442E+02  0.51100000000E-03 0. -1.
        -11    1    3    3    0    0  0.23702165142E+01  0.33118364103E+01 -0.66838825908E+01  0.78269070188E+01  0.51100000000E-03 0.  1.
        -12    1    3    3    0    0 -0.34525361132E+02 -0.13450920184E+02  0.23388931116E+02  0.43817461290E+02  0.00000000000E+00 0.  1.
</event>
<event>
 7    1  0.4096472E-015  0.9000783E+02  0.7816164E-02  0.1186339E+00
        -11   -1    0    0    0    0  0.00000000000E+00  0.00000000000E+00  0.45593999997E+02  0.45594000000E+02  0.51100000000E-03 0.  1.
         11   -1    0    0    0    0 -0.00000000000E+00 -0.00000000000E+00 -0.45593999997E+02  0.45594000000E+02  0.51100000000E-03 0. -1.
    9900012    2    1    2    0    0 -0.72773724682E-01 -0.18673480658E+00  0.11630282550E+01  0.90007830256E+02  0.90000092815E+02 0.  0.
         12    1    1    2    0    0  0.72773724682E-01  0.18673480658E+00 -0.11630282550E+01  0.11801697441E+01  0.00000000000E+00 0. -1.
         11    1    3    3    0    0  0.12300227022E+01 -0.24699025427E+01 -0.10475004688E+02  0.10832317291E+02  0.51100000000E-03 0. -1.
        -11    1    3    3    0    0  0.25553751547E+01 -0.34023142027E+02  0.22753713056E+02  0.41010188901E+02  0.51100000000E-03 0.  1.
         12    1    3    3    0    0 -0.38581715815E+01  0.36306309763E+02 -0.11115680113E+02  0.38165324065E+02  0.00000000000E+00 0. -1.
</event>
<event>
 7    1  0.4096472E-015  0.9000759E+02  0.7816164E-02  0.1186339E+00
        -11   -1    0    0    0    0  0.00000000000E+00  0.00000000000E+00  0.45593999997E+02  0.45594000000E+02  0.51100000000E-03 0. -1.
         11   -1    0    0    0    0 -0.00000000000E+00 -0.00000000000E+00 -0.45593999997E+02  0.45594000000E+02  0.51100000000E-03 0.  1.
    9900012    2    1    2    0    0 -0.60675774753E+00 -0.98443394414E+00 -0.23684004130E+00  0.90007593985E+02  0.89999853426E+02 0.  0.
         12    1    1    2    0    0  0.60675774753E+00  0.98443394414E+00  0.23684004130E+00  0.11804060148E+01  0.00000000000E+00 0. -1.
         11    1    3    3    0    0  0.62805994085E+01  0.15936591222E+01  0.78128244622E+01  0.10150167716E+02  0.51100000000E-03 0. -1.
        -11    1    3    3    0    0  0.34995381762E+02 -0.91344573880E+01 -0.96544649716E+01  0.37434259050E+02  0.51100000000E-03 0.  1.
         12    1    3    3    0    0 -0.41882738918E+02  0.65563643217E+01  0.16048004681E+01  0.42423167220E+02  0.00000000000E+00 0. -1.
</event>
<event>
 7    1  0.4096472E-015  0.9000764E+02  0.7816164E-02  0.1186339E+00
        -11   -1    0    0    0    0  0.00000000000E+00  0.00000000000E+00  0.45593999997E+02  0.45594000000E+02  0.51100000000E-03 0.  1.
         11   -1    0    0    0    0 -0.00000000000E+00 -0.00000000000E+00 -0.45593999997E+02  0.45594000000E+02  0.51100000000E-03 0. -1.
    9900012    2    1    2    0    0 -0.10230990716E+01 -0.46756145874E+00 -0.35763114655E+00  0.90007641806E+02  0.89999901878E+02 0.  0.
         12    1    1    2    0    0  0.10230990716E+01  0.46756145874E+00  0.35763114655E+00  0.11803581935E+01  0.00000000000E+00 0. -1.
         11    1    3    3    0    0 -0.57453921999E+01  0.18998413265E+02 -0.27186539509E+02  0.33660914558E+02  0.51100000000E-03 0. -1.
        -11    1    3    3    0    0  0.28864790185E+01 -0.46972451982E+01 -0.12842379655E+02  0.13975785811E+02  0.51100000000E-03 0.  1.
        -12    1    3    3    0    0  0.18358141098E+01 -0.14768729526E+02  0.39671288018E+02  0.42370941437E+02  0.00000000000E+00 0.  1.
</event>
<event>
 7    1  0.4096472E-015  0.9000782E+02  0.7816164E-02  0.1186339E+00
        -11   -1    0    0    0    0  0.00000000000E+00  0.00000000000E+00  0.45593999997E+02  0.45594000000E+02  0.51100000000E-03 0.  1.
         11   -1    0    0    0    0 -0.00000000000E+00 -0.00000000000E+00 -0.45593999997E+02  0.45594000000E+02  0.51100000000E-03 0. -1.
    9900012    2    1    2    0    0 -0.56399171017E+00  0.37668148507E+00  0.96584212728E+00  0.90007819249E+02  0.90000081663E+02 0.  0.
         12    1    1    2    0    0  0.56399171017E+00 -0.37668148507E+00 -0.96584212728E+00  0.11801807511E+01  0.00000000000E+00 0. -1.
         11    1    3    3    0    0  0.14633119889E+02 -0.45289882948E+01 -0.31442004972E+02  0.34974842524E+02  0.51100000000E-03 0. -1.
        -11    1    3    3    0    0  0.36613186077E+01 -0.72727473055E+01 -0.62941748017E+01  0.10291488911E+02  0.51100000000E-03 0.  1.
        -12    1    3    3    0    0 -0.18858430207E+02  0.12178417085E+02  0.38702021901E+02  0.44741487814E+02  0.00000000000E+00 0.  1.
</event>
<event>
 7    1  0.4096472E-015  0.9000780E+02  0.7816164E-02  0.1186339E+00
        -11   -1    0    0    0    0  0.00000000000E+00  0.00000000000E+00  0.45593999997E+02  0.45594000000E+02  0.51100000000E-03 0.  1.
         11   -1    0    0    0    0 -0.00000000000E+00 -0.00000000000E+00 -0.45593999997E+02  0.45594000000E+02  0.51100000000E-03 0. -1.
    9900012    2    1    2    0    0 -0.72841544396E+00  0.16511215905E+00 -0.91380102505E+00  0.90007795188E+02  0.90000057285E+02 0.  0.
         12    1    1    2    0    0  0.72841544396E+00 -0.16511215905E+00  0.91380102505E+00  0.11802048117E+01  0.00000000000E+00 0. -1.
         11    1    3    3    0    0 -0.22450070643E+02  0.25344793792E+02 -0.15480754672E+02  0.37229262815E+02  0.51100000000E-03 0. -1.
        -11    1    3    3    0    0  0.70015256765E+01 -0.34160625197E+01 -0.12708673998E+02  0.14906416068E+02  0.51100000000E-03 0.  1.
        -12    1    3    3    0    0  0.14720129522E+02 -0.21763619114E+02  0.27275627645E+02  0.37872116306E+02  0.00000000000E+00 0.  1.
</event>
<event>
 7    1  0.4096472E-015  0.9000775E+02  0.7816164E-02  0.1186339E+00
        -11   -1    0    0    0    0  0.00000000000E+00  0.00000000000E+00  0.45593999997E+02  0.45594000000E+02  0.51100000000E-03 0. -1.
         11   -1    0    0    0    0 -0.00000000000E+00 -0.00000000000E+00 -0.45593999997E+02  0.45594000000E+02  0.51100000000E-03 0.  1.
    9900012    2    1    2    0    0 -0.11167688053E+01  0.34461508069E+00 -0.16451935454E+00  0.90007746325E+02  0.90000007777E+02 0.  0.
         12    1    1    2    0    0  0.11167688053E+01 -0.34461508069E+00  0.16451935454E+00  0.11802536746E+01  0.00000000000E+00 0. -1.
         11    1    3    3    0    0 -0.30556842295E+01  0.37345276324E+00 -0.10701058627E+02  0.11135049577E+02  0.51100000000E-03 0. -1.
        -11    1    3    3    0    0  0.31062899672E+02 -0.15853397241E+02 -0.14055623778E+02  0.37600458776E+02  0.51100000000E-03 0.  1.
         12    1    3    3    0    0 -0.29123984248E+02  0.15824559559E+02  0.24592163051E+02  0.41272237972E+02  0.00000000000E+00 0. -1.
</event>
<event>
 7    1  0.4096472E-015  0.9000717E+02  0.7816164E-02  0.1186340E+00
        -11   -1    0    0    0    0  0.00000000000E+00  0.00000000000E+00  0.45593999997E+02  0.45594000000E+02  0.51100000000E-03 0.  1.
         11   -1    0    0    0    0 -0.00000000000E+00 -0.00000000000E+00 -0.45593999997E+02  0.45594000000E+02  0.51100000000E-03 0. -1.
    9900012    2    1    2    0    0 -0.10025734574E+01 -0.16383024275E+00  0.60196497820E+00  0.90007171595E+02  0.89999425459E+02 0.  0.
         12    1    1    2    0    0  0.10025734574E+01  0.16383024275E+00 -0.60196497820E+00  0.11808284045E+01  0.00000000000E+00 0. -1.
         11    1    3    3    0    0  0.21122010882E+01 -0.83121481943E+01  0.32466387113E+01  0.91702706734E+01  0.51100000000E-03 0. -1.
        -11    1    3    3    0    0 -0.22975578262E+02 -0.10995600572E+02  0.29171967931E+02  0.38727046642E+02  0.51100000000E-03 0.  1.
         12    1    3    3    0    0  0.19860803716E+02  0.19143918524E+02 -0.31816641664E+02  0.42109854280E+02  0.00000000000E+00 0. -1.
</event>
<event>
 7    1  0.4096472E-015  0.9000831E+02  0.7816164E-02  0.1186338E+00
        -11   -1    0    0    0    0  0.00000000000E+00  0.00000000000E+00  0.45593999997E+02  0.45594000000E+02  0.51100000000E-03 0.  1.
         11   -1    0    0    0    0 -0.00000000000E+00 -0.00000000000E+00 -0.45593999997E+02  0.45594000000E+02  0.51100000000E-03 0. -1.
    9900012    2    1    2    0    0 -0.53274713395E+00 -0.21484896690E+00  0.10303812108E+01  0.90008311470E+02  0.90000580380E+02 0.  0.
         12    1    1    2    0    0  0.53274713395E+00  0.21484896690E+00 -0.10303812108E+01  0.11796885296E+01  0.00000000000E+00 0. -1.
         11    1    3    3    0    0 -0.41826360875E+01 -0.67164335038E+01 -0.57138776699E+01  0.97597808346E+01  0.51100000000E-03 0. -1.
        -11    1    3    3    0    0 -0.93834347538E+01 -0.10980949585E+02  0.38844020696E+02  0.41442587343E+02  0.51100000000E-03 0.  1.
         12    1    3    3    0    0  0.13033323707E+02  0.17482534122E+02 -0.32099761816E+02  0.38805943293E+02  0.00000000000E+00 0. -1.
</event>
<event>
 7    1  0.4096472E-015  0.9000789E+02  0.7816164E-02  0.1186339E+00
        -11   -1    0    0    0    0  0.00000000000E+00  0.00000000000E+00  0.45593999997E+02  0.45594000000E+02  0.51100000000E-03 0.  1.
         11   -1    0    0    0    0 -0.00000000000E+00 -0.00000000000E+00 -0.45593999997E+02  0.45594000000E+02  0.51100000000E-03 0. -1.
    9900012    2    1    2    0    0 -0.97165726118E+00 -0.56130733777E+00  0.36533276232E+00  0.90007893315E+02  0.90000156707E+02 0.  0.
         12    1    1    2    0    0  0.97165726118E+00  0.56130733777E+00 -0.36533276232E+00  0.11801066850E+01  0.00000000000E+00 0. -1.
         11    1    3    3    0    0 -0.29659721176E+01  0.92310664271E+00  0.88848439088E+01  0.94122031438E+01  0.51100000000E-03 0. -1.
        -11    1    3    3    0    0  0.10701935131E+02 -0.15940056525E+02  0.31654061590E+02  0.37021567132E+02  0.51100000000E-03 0.  1.
         12    1    3    3    0    0 -0.87076202745E+01  0.14455642544E+02 -0.40173572736E+02  0.43574123039E+02  0.00000000000E+00 0. -1.
</event>
<event>
 7    1  0.4096472E-015  0.9000771E+02  0.7816164E-02  0.1186339E+00
        -11   -1    0    0    0    0  0.00000000000E+00  0.00000000000E+00  0.45593999997E+02  0.45594000000E+02  0.51100000000E-03 0.  1.
         11   -1    0    0    0    0 -0.00000000000E+00 -0.00000000000E+00 -0.45593999997E+02  0.45594000000E+02  0.51100000000E-03 0. -1.
    9900012    2    1    2    0    0 -0.91044325132E+00  0.61863429720E+00 -0.42599354187E+00  0.90007709440E+02  0.89999970405E+02 0.  0.
         12    1    1    2    0    0  0.91044325132E+00 -0.61863429720E+00  0.42599354187E+00  0.11802905597E+01  0.00000000000E+00 0. -1.
         11    1    3    3    0    0 -0.16096012690E+01 -0.34182174403E+01 -0.31587074270E+01  0.49246786276E+01  0.51100000000E-03 0. -1.
        -11    1    3    3    0    0  0.19342332383E+02  0.62133787627E+00  0.39349988450E+02  0.43851265365E+02  0.51100000000E-03 0.  1.
         12    1    3    3    0    0 -0.18643174366E+02  0.34155138613E+01 -0.36617274565E+02  0.41231765448E+02  0.00000000000E+00 0. -1.
</event>
<event>
 7    1  0.4096472E-015  0.9000772E+02  0.7816164E-02  0.1186339E+00
        -11   -1    0    0    0    0  0.00000000000E+00  0.00000000000E+00  0.45593999997E+02  0.45594000000E+02  0.51100000000E-03 0. -1.
         11   -1    0    0    0    0 -0.00000000000E+00 -0.00000000000E+00 -0.45593999997E+02  0.45594000000E+02  0.51100000000E-03 0.  1.
    9900012    2    1    2    0    0  0.40077034433E+00 -0.20274336636E+00 -0.10914883647E+01  0.90007716732E+02  0.89999977793E+02 0.  0.
         12    1    1    2    0    0 -0.40077034433E+00  0.20274336636E+00  0.10914883647E+01  0.11802832676E+01  0.00000000000E+00 0. -1.
         11    1    3    3    0    0 -0.33934616778E+01  0.65904450554E+01  0.77660213625E+01  0.10735950645E+02  0.51100000000E-03 0. -1.
        -11    1    3    3    0    0 -0.23608565550E+02  0.10501521799E+01 -0.33904196407E+02  0.41327493526E+02  0.51100000000E-03 0.  1.
         12    1    3    3    0    0  0.27402797572E+02 -0.78433406016E+01  0.25046686680E+02  0.37944272561E+02  0.00000000000E+00 0. -1.
</event>
<event>
 7    1  0.4096472E-015  0.9000759E+02  0.7816164E-02  0.1186339E+00
        -11   -1    0    0    0    0  0.00000000000E+00  0.00000000000E+00  0.45593999997E+02  0.45594000000E+02  0.51100000000E-03 0. -1.
         11   -1    0    0    0    0 -0.00000000000E+00 -0.00000000000E+00 -0.45593999997E+02  0.45594000000E+02  0.51100000000E-03 0.  1.
    9900012    2    1    2    0    0  0.94039791766E+00  0.51071979510E+00 -0.49818691143E+00  0.90007587720E+02  0.89999847078E+02 0.  0.
         12    1    1    2    0    0 -0.94039791766E+00 -0.51071979510E+00  0.49818691143E+00  0.11804122803E+01  0.00000000000E+00 0. -1.
         11    1    3    3    0    0 -0.63218374312E+01 -0.54989224525E+01 -0.11719200935E+01  0.84603294033E+01  0.51100000000E-03 0. -1.
        -11    1    3    3    0    0 -0.50090541000E+01  0.28007173190E+02 -0.30339884223E+02  0.41593280082E+02  0.51100000000E-03 0.  1.
         12    1    3    3    0    0  0.12271289449E+02 -0.21997530942E+02  0.31013617405E+02  0.39953978235E+02  0.00000000000E+00 0. -1.
</event>
<event>
 7    1  0.4096472E-015  0.9000774E+02  0.7816164E-02  0.1186339E+00
        -11   -1    0    0    0    0  0.00000000000E+00  0.00000000000E+00  0.45593999997E+02  0.45594000000E+02  0.51100000000E-03 0. -1.
         11   -1    0    0    0    0 -0.00000000000E+00 -0.00000000000E+00 -0.45593999997E+02  0.45594000000E+02  0.51100000000E-03 0.  1.
    9900012    2    1    2    0    0 -0.63993764839E+00  0.96905661398E+00 -0.21077692100E+00  0.90007738239E+02  0.89999999583E+02 0.  0.
         12    1    1    2    0    0  0.63993764839E+00 -0.96905661398E+00  0.21077692100E+00  0.11802617614E+01  0.00000000000E+00 0. -1.
         11    1    3    3    0    0  0.43624757493E+01  0.29294949958E+01  0.60709409925E+01  0.80292876639E+01  0.51100000000E-03 0. -1.
        -11    1    3    3    0    0 -0.15766359940E+02 -0.39367056091E+02  0.80281063771E+00  0.42414475314E+02  0.51100000000E-03 0.  1.
         12    1    3    3    0    0  0.10763946542E+02  0.37406617709E+02 -0.70845285512E+01  0.39563975260E+02  0.00000000000E+00 0. -1.
</event>
<event>
 7    1  0.4096472E-015  0.9000769E+02  0.7816164E-02  0.1186339E+00
        -11   -1    0    0    0    0  0.00000000000E+00  0.00000000000E+00  0.45593999997E+02  0.45594000000E+02  0.51100000000E-03 0. -1.
         11   -1    0    0    0    0 -0.00000000000E+00 -0.00000000000E+00 -0.45593999997E+02  0.45594000000E+02  0.51100000000E-03 0.  1.
    9900012    2    1    2    0    0 -0.85772882672E+00  0.30762258895E+00  0.75019901933E+00  0.90007691157E+02  0.89999951880E+02 0.  0.
         12    1    1    2    0    0  0.85772882672E+00 -0.30762258895E+00 -0.75019901933E+00  0.11803088435E+01  0.00000000000E+00 0. -1.
         11    1    3    3    0    0 -0.58136098393E+00 -0.66803398473E+01 -0.29829927557E+01  0.73391530241E+01  0.51100000000E-03 0. -1.
        -11    1    3    3    0    0  0.40967858942E+02  0.18797621633E+01  0.26121517406E+01  0.41094066592E+02  0.51100000000E-03 0.  1.
         12    1    3    3    0    0 -0.41244226785E+02  0.51082002730E+01  0.11210400344E+01  0.41574471540E+02  0.00000000000E+00 0. -1.
</event>
<event>
 7    1  0.4096472E-015  0.9000761E+02  0.7816164E-02  0.1186339E+00
        -11   -1    0    0    0    0  0.00000000000E+00  0.00000000000E+00  0.45593999997E+02  0.45594000000E+02  0.51100000000E-03 0. -1.
         11   -1    0    0    0    0 -0.00000000000E+00 -0.00000000000E+00 -0.45593999997E+02  0.45594000000E+02  0.51100000000E-03 0.  1.
    9900012    2    1    2    0    0 -0.93755111729E+00 -0.21044148251E+00 -0.68558240056E+00  0.90007614070E+02  0.89999873776E+02 0.  0.
         12    1    1    2    0    0  0.93755111729E+00  0.21044148251E+00  0.68558240056E+00  0.11803859297E+01  0.00000000000E+00 0. -1.
         11    1    3    3    0    0  0.75079274931E+00  0.61598924753E+01  0.84329900311E+01  0.10470113953E+02  0.51100000000E-03 0. -1.
        -11    1    3    3    0    0  0.17842313827E+02  0.30683678942E+02  0.38185407331E+01  0.35698985556E+02  0.51100000000E-03 0.  1.
         12    1    3    3    0    0 -0.19530657694E+02 -0.37054012900E+02 -0.12937113165E+02  0.43838514562E+02  0.00000000000E+00 0. -1.
</event>
<event>
 7    1  0.4096472E-015  0.9000776E+02  0.7816164E-02  0.1186339E+00
        -11   -1    0    0    0    0  0.00000000000E+00  0.00000000000E+00  0.45593999997E+02  0.45594000000E+02  0.51100000000E-03 0. -1.
         11   -1    0    0    0    0 -0.00000000000E+00 -0.00000000000E+00 -0.45593999997E+02  0.45594000000E+02  0.51100000000E-03 0.  1.
    9900012    2    1    2    0    0 -0.27477457331E+00 -0.38334736243E+00 -0.10819020331E+01  0.90007759230E+02  0.90000020852E+02 0.  0.
         12    1    1    2    0    0  0.27477457331E+00  0.38334736243E+00  0.10819020331E+01  0.11802407702E+01  0.00000000000E+00 0. -1.
         11    1    3    3    0    0 -0.58115795556E+01 -0.16978612344E+01 -0.76581694814E+01  0.97624151607E+01  0.51100000000E-03 0. -1.
        -11    1    3    3    0    0 -0.32721025397E+02 -0.15824938286E+02  0.11289056003E+02  0.38059650030E+02  0.51100000000E-03 0.  1.
         12    1    3    3    0    0  0.38257830379E+02  0.17139452158E+02 -0.47127885544E+01  0.42185694039E+02  0.00000000000E+00 0. -1.
</event>
<event>
 7    1  0.4096472E-015  0.9000799E+02  0.7816164E-02  0.1186339E+00
        -11   -1    0    0    0    0  0.00000000000E+00  0.00000000000E+00  0.45593999997E+02  0.45594000000E+02  0.51100000000E-03 0.  1.
         11   -1    0    0    0    0 -0.00000000000E+00 -0.00000000000E+00 -0.45593999997E+02  0.45594000000E+02  0.51100000000E-03 0. -1.
    9900012    2    1    2    0    0  0.27140607350E+00 -0.10696903650E+01 -0.41777046369E+00  0.90007986909E+02  0.90000251536E+02 0.  0.
         12    1    1    2    0    0 -0.27140607350E+00  0.10696903650E+01  0.41777046369E+00  0.11800130906E+01  0.00000000000E+00 0. -1.
         11    1    3    3    0    0 -0.19261452839E+02 -0.30798302423E+02 -0.17098894100E+02  0.40148613641E+02  0.51100000000E-03 0. -1.
        -11    1    3    3    0    0  0.10840999810E+01  0.16911887528E+01 -0.79682087246E+01  0.82175265564E+01  0.51100000000E-03 0.  1.
        -12    1    3    3    0    0  0.18448758932E+02  0.28037423305E+02  0.24649332361E+02  0.41641846712E+02  0.00000000000E+00 0.  1.
</event>
<event>
 7    1  0.4096472E-015  0.9000775E+02  0.7816164E-02  0.1186339E+00
        -11   -1    0    0    0    0  0.00000000000E+00  0.00000000000E+00  0.45593999997E+02  0.45594000000E+02  0.51100000000E-03 0.  1.
         11   -1    0    0    0    0 -0.00000000000E+00 -0.00000000000E+00 -0.45593999997E+02  0.45594000000E+02  0.51100000000E-03 0. -1.
    9900012    2    1    2    0    0  0.73011848400E+00 -0.18705092455E+00  0.90825467342E+00  0.90007751043E+02  0.90000012557E+02 0.  0.
         12    1    1    2    0    0 -0.73011848400E+00  0.18705092455E+00 -0.90825467342E+00  0.11802489571E+01  0.00000000000E+00 0. -1.
         11    1    3    3    0    0 -0.27257536228E+01  0.35764610396E+01  0.88511920339E+01  0.99279608714E+01  0.51100000000E-03 0. -1.
        -11    1    3    3    0    0 -0.11373199977E+02 -0.21650449946E+02  0.28065563297E+02  0.37225898297E+02  0.51100000000E-03 0.  1.
         12    1    3    3    0    0  0.14829072084E+02  0.17886937982E+02 -0.36008500657E+02  0.42853891875E+02  0.00000000000E+00 0. -1.
</event>
<event>
 7    1  0.9389860E-015  0.9000777E+02  0.7816164E-02  0.1186339E+00
        -11   -1    0    0    0    0  0.00000000000E+00  0.00000000000E+00  0.45593999997E+02  0.45594000000E+02  0.51100000000E-03 0. -1.
         11   -1    0    0    0    0 -0.00000000000E+00 -0.00000000000E+00 -0.45593999997E+02  0.45594000000E+02  0.51100000000E-03 0.  1.
    9900012    2    1    2    0    0  0.68285264411E-01  0.18063655513E+00 -0.11643208151E+01  0.90007773156E+02  0.90000034962E+02 0.  0.
         12    1    1    2    0    0 -0.68285264411E-01 -0.18063655513E+00  0.11643208151E+01  0.11802268438E+01  0.00000000000E+00 0. -1.
         11    1    3    3    0    0 -0.85095179910E+01 -0.45894310960E+01  0.10089291000E+01  0.97207362075E+01  0.51100000000E-03 0. -1.
        -11    1    3    3    0    0 -0.20036698401E+02 -0.45283662486E+01 -0.31932010418E+02  0.37968785512E+02  0.51100000000E-03 0.  1.
         12    1    3    3    0    0  0.28614501656E+02  0.92984338997E+01  0.29758760503E+02  0.42318251437E+02  0.00000000000E+00 0. -1.
</event>
<event>
 7    1  0.4096472E-015  0.9000768E+02  0.7816164E-02  0.1186339E+00
        -11   -1    0    0    0    0  0.00000000000E+00  0.00000000000E+00  0.45593999997E+02  0.45594000000E+02  0.51100000000E-03 0.  1.
         11   -1    0    0    0    0 -0.00000000000E+00 -0.00000000000E+00 -0.45593999997E+02  0.45594000000E+02  0.51100000000E-03 0. -1.
    9900012    2    1    2    0    0  0.38299482181E+00  0.21974761951E+00  0.10946155552E+01  0.90007679169E+02  0.89999939734E+02 0.  0.
         12    1    1    2    0    0 -0.38299482181E+00 -0.21974761951E+00 -0.10946155552E+01  0.11803208307E+01  0.00000000000E+00 0. -1.
         11    1    3    3    0    0  0.47344022295E+01 -0.57530387399E+01  0.57269610743E+01  0.93973455093E+01  0.51100000000E-03 0. -1.
        -11    1    3    3    0    0  0.19657827505E+02 -0.11691521611E+02 -0.32542408636E+02  0.39776000552E+02  0.51100000000E-03 0.  1.
         12    1    3    3    0    0 -0.24009234913E+02  0.17664307971E+02  0.27910063117E+02  0.40834333108E+02  0.00000000000E+00 0. -1.
</event>
<event>
 7    1  0.4096472E-015  0.9000771E+02  0.7816164E-02  0.1186339E+00
        -11   -1    0    0    0    0  0.00000000000E+00  0.00000000000E+00  0.45593999997E+02  0.45594000000E+02  0.51100000000E-03 0. -1.
         11   -1    0    0    0    0 -0.00000000000E+00 -0.00000000000E+00 -0.45593999997E+02  0.45594000000E+02  0.51100000000E-03 0.  1.
    9900012    2    1    2    0    0  0.68327024480E+00  0.83355833277E+00  0.48104804099E+00  0.90007709807E+02  0.89999970777E+02 0.  0.
         12    1    1    2    0    0 -0.68327024480E+00 -0.83355833277E+00 -0.48104804099E+00  0.11802901928E+01  0.00000000000E+00 0. -1.
         11    1    3    3    0    0  0.18354231455E+02 -0.29441630652E+02  0.93848171208E+01  0.35941093756E+02  0.51100000000E-03 0. -1.
        -11    1    3    3    0    0  0.26498899660E+01 -0.36302190917E+01  0.94654310728E+01  0.10478301062E+02  0.51100000000E-03 0.  1.
        -12    1    3    3    0    0 -0.20320851176E+02  0.33905408077E+02 -0.18369200153E+02  0.43588314989E+02  0.00000000000E+00 0.  1.
</event>
<event>
 7    1  0.4096472E-015  0.9000777E+02  0.7816164E-02  0.1186339E+00
        -11   -1    0    0    0    0  0.00000000000E+00  0.00000000000E+00  0.45593999997E+02  0.45594000000E+02  0.51100000000E-03 0.  1.
         11   -1    0    0    0    0 -0.00000000000E+00 -0.00000000000E+00 -0.45593999997E+02  0.45594000000E+02  0.51100000000E-03 0. -1.
    9900012    2    1    2    0    0 -0.87737174236E+00  0.13591693711E+00  0.77761660709E+00  0.90007770287E+02  0.90000032055E+02 0.  0.
         12    1    1    2    0    0  0.87737174236E+00 -0.13591693711E+00 -0.77761660709E+00  0.11802297131E+01  0.00000000000E+00 0. -1.
         11    1    3    3    0    0 -0.21149617229E+02 -0.23812609898E+02  0.73982969172E+00  0.31857401767E+02  0.51100000000E-03 0. -1.
        -11    1    3    3    0    0 -0.88046851038E+01  0.46480678829E+01 -0.16701576498E+02  0.19444013799E+02  0.51100000000E-03 0.  1.
        -12    1    3    3    0    0  0.29076930591E+02  0.19300458952E+02  0.16739363414E+02  0.38706354721E+02  0.00000000000E+00 0.  1.
</event>
<event>
 7    1  0.4096472E-015  0.9000738E+02  0.7816164E-02  0.1186340E+00
        -11   -1    0    0    0    0  0.00000000000E+00  0.00000000000E+00  0.45593999997E+02  0.45594000000E+02  0.51100000000E-03 0. -1.
         11   -1    0    0    0    0 -0.00000000000E+00 -0.00000000000E+00 -0.45593999997E+02  0.45594000000E+02  0.51100000000E-03 0.  1.
    9900012    2    1    2    0    0  0.50542288130E-01  0.29669302218E+00 -0.11416143354E+01  0.90007379585E+02  0.89999636195E+02 0.  0.
         12    1    1    2    0    0 -0.50542288130E-01 -0.29669302218E+00  0.11416143354E+01  0.11806204145E+01  0.00000000000E+00 0. -1.
         11    1    3    3    0    0 -0.22888477567E+00 -0.13703133903E+02  0.50609658028E+01  0.14609642094E+02  0.51100000000E-03 0. -1.
        -11    1    3    3    0    0 -0.24187967196E+02  0.13384386296E+02 -0.30324290625E+02  0.41033671000E+02  0.51100000000E-03 0.  1.
         12    1    3    3    0    0  0.24467394260E+02  0.61544062907E+00  0.24121710486E+02  0.34364066491E+02  0.00000000000E+00 0. -1.
</event>
<event>
 7    1  0.4096472E-015  0.9000772E+02  0.7816164E-02  0.1186339E+00
        -11   -1    0    0    0    0  0.00000000000E+00  0.00000000000E+00  0.45593999997E+02  0.45594000000E+02  0.51100000000E-03 0.  1.
         11   -1    0    0    0    0 -0.00000000000E+00 -0.00000000000E+00 -0.45593999997E+02  0.45594000000E+02  0.51100000000E-03 0. -1.
    9900012    2    1    2    0    0 -0.60208287440E+00  0.69061151391E+00  0.74404748818E+00  0.90007722611E+02  0.89999983749E+02 0.  0.
         12    1    1    2    0    0  0.60208287440E+00 -0.69061151391E+00 -0.74404748818E+00  0.11802773892E+01  0.00000000000E+00 0. -1.
         11    1    3    3    0    0  0.81719082281E+01  0.83288662190E+00  0.50205201314E+01  0.96270144315E+01  0.51100000000E-03 0. -1.
        -11    1    3    3    0    0 -0.21931583586E+02 -0.66891926212E+01  0.33073031095E+02  0.40243819930E+02  0.51100000000E-03 0.  1.
         12    1    3    3    0    0  0.13157592483E+02  0.65469175132E+01 -0.37349503738E+02  0.40136888249E+02  0.00000000000E+00 0. -1.
</event>
<event>
 7    1  0.4096472E-015  0.9000763E+02  0.7816164E-02  0.1186339E+00
        -11   -1    0    0    0    0  0.00000000000E+00  0.00000000000E+00  0.45593999997E+02  0.45594000000E+02  0.51100000000E-03 0.  1.
         11   -1    0    0    0    0 -0.00000000000E+00 -0.00000000000E+00 -0.45593999997E+02  0.45594000000E+02  0.51100000000E-03 0. -1.
    9900012    2    1    2    0    0  0.59013838760E+00  0.10110539423E+01 -0.15092999155E+00  0.90007630036E+02  0.89999889952E+02 0.  0.
         12    1    1    2    0    0 -0.59013838760E+00 -0.10110539423E+01  0.15092999155E+00  0.11803699645E+01  0.00000000000E+00 0. -1.
         11    1    3    3    0    0  0.26665285869E+02  0.24813417237E+02  0.47603497746E+01  0.36734235743E+02  0.51100000000E-03 0. -1.
        -11    1    3    3    0    0  0.74584251393E+01 -0.10791540870E+02  0.76357941544E+01  0.15178630127E+02  0.51100000000E-03 0.  1.
        -12    1    3    3    0    0 -0.33533572620E+02 -0.13010822424E+02 -0.12547073920E+02  0.38094764165E+02  0.00000000000E+00 0.  1.
</event>
<event>
 7    1  0.4096472E-015  0.9000774E+02  0.7816164E-02  0.1186339E+00
        -11   -1    0    0    0    0  0.00000000000E+00  0.00000000000E+00  0.45593999997E+02  0.45594000000E+02  0.51100000000E-03 0.  1.
         11   -1    0    0    0    0 -0.00000000000E+00 -0.00000000000E+00 -0.45593999997E+02  0.45594000000E+02  0.51100000000E-03 0. -1.
    9900012    2    1    2    0    0 -0.48788670354E+00 -0.53935157303E+00  0.92956185815E+00  0.90007737824E+02  0.89999999164E+02 0.  0.
         12    1    1    2    0    0  0.48788670354E+00  0.53935157303E+00 -0.92956185815E+00  0.11802621755E+01  0.00000000000E+00 0. -1.
         11    1    3    3    0    0 -0.20666587207E+02  0.27266647467E+02  0.24084587530E+01  0.34298375540E+02  0.51100000000E-03 0. -1.
        -11    1    3    3    0    0 -0.89763959230E+01  0.56625676171E+01 -0.37721229072E+01  0.11263625849E+02  0.51100000000E-03 0.  1.
        -12    1    3    3    0    0  0.29155096426E+02 -0.33468566657E+02  0.22932260123E+01  0.44445736435E+02  0.00000000000E+00 0.  1.
</event>
<event>
 7    1  0.4096472E-015  0.9000774E+02  0.7816164E-02  0.1186339E+00
        -11   -1    0    0    0    0  0.00000000000E+00  0.00000000000E+00  0.45593999997E+02  0.45594000000E+02  0.51100000000E-03 0. -1.
         11   -1    0    0    0    0 -0.00000000000E+00 -0.00000000000E+00 -0.45593999997E+02  0.45594000000E+02  0.51100000000E-03 0.  1.
    9900012    2    1    2    0    0 -0.75842318635E+00  0.18705991134E+00 -0.88477300934E+00  0.90007737140E+02  0.89999998471E+02 0.  0.
         12    1    1    2    0    0  0.75842318635E+00 -0.18705991134E+00  0.88477300934E+00  0.11802628597E+01  0.00000000000E+00 0. -1.
         11    1    3    3    0    0  0.38757443864E+02  0.10382490645E+02  0.46340022855E+01  0.40390711114E+02  0.51100000000E-03 0. -1.
        -11    1    3    3    0    0 -0.11462893454E+01 -0.82326041050E+01 -0.74314195793E+01  0.11149697163E+02  0.51100000000E-03 0.  1.
        -12    1    3    3    0    0 -0.38369577705E+02 -0.19628266285E+01  0.19126442845E+01  0.38467328862E+02  0.00000000000E+00 0.  1.
</event>
<event>
 7    1  0.4096472E-015  0.9000777E+02  0.7816164E-02  0.1186339E+00
        -11   -1    0    0    0    0  0.00000000000E+00  0.00000000000E+00  0.45593999997E+02  0.45594000000E+02  0.51100000000E-03 0.  1.
         11   -1    0    0    0    0 -0.00000000000E+00 -0.00000000000E+00 -0.45593999997E+02  0.45594000000E+02  0.51100000000E-03 0. -1.
    9900012    2    1    2    0    0 -0.64391363021E+00  0.34237118029E+00  0.92796076017E+00  0.90007765294E+02  0.90000026996E+02 0.  0.
         12    1    1    2    0    0  0.64391363021E+00 -0.34237118029E+00 -0.92796076017E+00  0.11802347058E+01  0.00000000000E+00 0. -1.
         11    1    3    3    0    0  0.42820200973E+01 -0.13247262714E+02  0.18560014329E+00  0.13923365729E+02  0.51100000000E-03 0. -1.
        -11    1    3    3    0    0  0.31363808428E+02  0.22320259392E+02  0.35211035769E+01  0.38655926183E+02  0.51100000000E-03 0.  1.
         12    1    3    3    0    0 -0.36289742156E+02 -0.87306254973E+01 -0.27787429601E+01  0.37428473382E+02  0.00000000000E+00 0. -1.
</event>
<event>
 7    1  0.4096472E-015  0.9000777E+02  0.7816164E-02  0.1186339E+00
        -11   -1    0    0    0    0  0.00000000000E+00  0.00000000000E+00  0.45593999997E+02  0.45594000000E+02  0.51100000000E-03 0.  1.
         11   -1    0    0    0    0 -0.00000000000E+00 -0.00000000000E+00 -0.45593999997E+02  0.45594000000E+02  0.51100000000E-03 0. -1.
    9900012    2    1    2    0    0  0.11523695331E+01 -0.23525846277E+00  0.98193355581E-01  0.90007769505E+02  0.90000031263E+02 0.  0.
         12    1    1    2    0    0 -0.11523695331E+01  0.23525846277E+00 -0.98193355581E-01  0.11802304945E+01  0.00000000000E+00 0. -1.
         11    1    3    3    0    0  0.35672441182E+02  0.11843957071E+02  0.27053808943E+01  0.37684499002E+02  0.51100000000E-03 0. -1.
        -11    1    3    3    0    0  0.69314238527E+01 -0.54812358482E+00 -0.59729891889E+01  0.91663338474E+01  0.51100000000E-03 0.  1.
        -12    1    3    3    0    0 -0.41451495501E+02 -0.11531091949E+02  0.33658016502E+01  0.43156936656E+02  0.00000000000E+00 0.  1.
</event>
<event>
 7    1  0.4096472E-015  0.9000772E+02  0.7816164E-02  0.1186339E+00
        -11   -1    0    0    0    0  0.00000000000E+00  0.00000000000E+00  0.45593999997E+02  0.45594000000E+02  0.51100000000E-03 0. -1.
         11   -1    0    0    0    0 -0.00000000000E+00 -0.00000000000E+00 -0.45593999997E+02  0.45594000000E+02  0.51100000000E-03 0.  1.
    9900012    2    1    2    0    0  0.24478876310E+00  0.11534171771E+01 -0.52587557933E-01  0.90007721146E+02  0.89999982265E+02 0.  0.
         12    1    1    2    0    0 -0.24478876310E+00 -0.11534171771E+01  0.52587557933E-01  0.11802788545E+01  0.00000000000E+00 0. -1.
         11    1    3    3    0    0 -0.60875009290E+01  0.20776069866E+01 -0.93447360683E+01  0.11344523384E+02  0.51100000000E-03 0. -1.
        -11    1    3    3    0    0  0.12477852872E+01  0.20443195507E+02 -0.28414097156E+02  0.35026306230E+02  0.51100000000E-03 0.  1.
         12    1    3    3    0    0  0.50845044049E+01 -0.21367385317E+02  0.37706245666E+02  0.43636891532E+02  0.00000000000E+00 0. -1.
</event>
<event>
 7    1  0.4096472E-015  0.9000814E+02  0.7816164E-02  0.1186338E+00
        -11   -1    0    0    0    0  0.00000000000E+00  0.00000000000E+00  0.45593999997E+02  0.45594000000E+02  0.51100000000E-03 0.  1.
         11   -1    0    0    0    0 -0.00000000000E+00 -0.00000000000E+00 -0.45593999997E+02  0.45594000000E+02  0.51100000000E-03 0. -1.
    9900012    2    1    2    0    0  0.83194656043E+00  0.22774965782E+00  0.80502796928E+00  0.90008137713E+02  0.90000404329E+02 0.  0.
         12    1    1    2    0    0 -0.83194656043E+00 -0.22774965782E+00 -0.80502796928E+00  0.11798622875E+01  0.00000000000E+00 0. -1.
         11    1    3    3    0    0  0.37862192120E+02  0.20365542047E+01 -0.10345350934E+02  0.39302918866E+02  0.51100000000E-03 0. -1.
        -11    1    3    3    0    0  0.36848419593E+01  0.21874750082E+01  0.87275249874E+01  0.97227979432E+01  0.51100000000E-03 0.  1.
        -12    1    3    3    0    0 -0.40715087519E+02 -0.39962795551E+01  0.24228539156E+01  0.40982420903E+02  0.00000000000E+00 0.  1.
</event>
<event>
 7    1  0.4096472E-015  0.9000768E+02  0.7816164E-02  0.1186339E+00
        -11   -1    0    0    0    0  0.00000000000E+00  0.00000000000E+00  0.45593999997E+02  0.45594000000E+02  0.51100000000E-03 0.  1.
         11   -1    0    0    0    0 -0.00000000000E+00 -0.00000000000E+00 -0.45593999997E+02  0.45594000000E+02  0.51100000000E-03 0. -1.
    9900012    2    1    2    0    0  0.91000595872E+00  0.29581672156E+00 -0.69104101790E+00  0.90007679676E+02  0.89999940248E+02 0.  0.
         12    1    1    2    0    0 -0.91000595872E+00 -0.29581672156E+00  0.69104101790E+00  0.11803203235E+01  0.00000000000E+00 0. -1.
         11    1    3    3    0    0  0.32456425170E+02  0.79014334120E+01  0.13061948199E+02  0.35867348324E+02  0.51100000000E-03 0. -1.
        -11    1    3    3    0    0  0.29269926070E+01 -0.45231233151E+00  0.10811708322E+02  0.11210036096E+02  0.51100000000E-03 0.  1.
        -12    1    3    3    0    0 -0.34473411818E+02 -0.71533043589E+01 -0.24564697539E+02  0.42930295257E+02  0.00000000000E+00 0.  1.
</event>
<event>
 7    1  0.4096472E-015  0.9000774E+02  0.7816164E-02  0.1186339E+00
        -11   -1    0    0    0    0  0.00000000000E+00  0.00000000000E+00  0.45593999997E+02  0.45594000000E+02  0.51100000000E-03 0. -1.
         11   -1    0    0    0    0 -0.00000000000E+00 -0.00000000000E+00 -0.45593999997E+02  0.45594000000E+02  0.51100000000E-03 0.  1.
    9900012    2    1    2    0    0 -0.85257914211E+00 -0.81566528512E+00  0.28305144971E-01  0.90007744844E+02  0.90000006276E+02 0.  0.
         12    1    1    2    0    0  0.85257914211E+00  0.81566528512E+00 -0.28305144971E-01  0.11802551555E+01  0.00000000000E+00 0. -1.
         11    1    3    3    0    0  0.32651044692E+02  0.21383847800E+02 -0.62648955101E+01  0.39529844197E+02  0.51100000000E-03 0. -1.
        -11    1    3    3    0    0  0.35357150104E+01 -0.10702022758E+02  0.68547042183E+00  0.11291786471E+02  0.51100000000E-03 0.  1.
        -12    1    3    3    0    0 -0.37039338845E+02 -0.11497490327E+02  0.56077302332E+01  0.39186114176E+02  0.00000000000E+00 0.  1.
</event>
<event>
 7    1  0.4096472E-015  0.9000774E+02  0.7816164E-02  0.1186339E+00
        -11   -1    0    0    0    0  0.00000000000E+00  0.00000000000E+00  0.45593999997E+02  0.45594000000E+02  0.51100000000E-03 0.  1.
         11   -1    0    0    0    0 -0.00000000000E+00 -0.00000000000E+00 -0.45593999997E+02  0.45594000000E+02  0.51100000000E-03 0. -1.
    9900012    2    1    2    0    0  0.94832196156E+00 -0.53166395270E+00  0.45937722570E+00  0.90007742174E+02  0.90000003570E+02 0.  0.
         12    1    1    2    0    0 -0.94832196156E+00  0.53166395270E+00 -0.45937722570E+00  0.11802578264E+01  0.00000000000E+00 0. -1.
         11    1    3    3    0    0  0.78604720710E+01  0.27810159207E+01  0.32764656261E+01  0.89585879462E+01  0.51100000000E-03 0. -1.
        -11    1    3    3    0    0  0.31151861823E+02  0.18766222513E+02 -0.62929754151E+01  0.36908144661E+02  0.51100000000E-03 0.  1.
         12    1    3    3    0    0 -0.38064011933E+02 -0.22078902386E+02  0.34758870147E+01  0.44141009566E+02  0.00000000000E+00 0. -1.
</event>
<event>
 7    1  0.4096472E-015  0.9000772E+02  0.7816164E-02  0.1186339E+00
        -11   -1    0    0    0    0  0.00000000000E+00  0.00000000000E+00  0.45593999997E+02  0.45594000000E+02  0.51100000000E-03 0.  1.
         11   -1    0    0    0    0 -0.00000000000E+00 -0.00000000000E+00 -0.45593999997E+02  0.45594000000E+02  0.51100000000E-03 0. -1.
    9900012    2    1    2    0    0 -0.60414519270E-01 -0.11098459159E+01 -0.39706827678E+00  0.90007715675E+02  0.89999976722E+02 0.  0.
         12    1    1    2    0    0  0.60414519270E-01  0.11098459159E+01  0.39706827678E+00  0.11802843249E+01  0.00000000000E+00 0. -1.
         11    1    3    3    0    0  0.11271471775E+01 -0.80599739549E+01 -0.28941835726E+02  0.30064322649E+02  0.51100000000E-03 0. -1.
        -11    1    3    3    0    0  0.86076100291E+01  0.76376163390E+01 -0.12937490295E+02  0.17314814153E+02  0.51100000000E-03 0.  1.
        -12    1    3    3    0    0 -0.97951717258E+01 -0.68748830002E+00  0.41482257743E+02  0.42628578874E+02  0.00000000000E+00 0.  1.
</event>
<event>
 7    1  0.4096472E-015  0.9000786E+02  0.7816164E-02  0.1186339E+00
        -11   -1    0    0    0    0  0.00000000000E+00  0.00000000000E+00  0.45593999997E+02  0.45594000000E+02  0.51100000000E-03 0.  1.
         11   -1    0    0    0    0 -0.00000000000E+00 -0.00000000000E+00 -0.45593999997E+02  0.45594000000E+02  0.51100000000E-03 0. -1.
    9900012    2    1    2    0    0 -0.12297884881E+00  0.89856567456E+00 -0.75510742979E+00  0.90007859627E+02  0.90000122574E+02 0.  0.
         12    1    1    2    0    0  0.12297884881E+00 -0.89856567456E+00  0.75510742979E+00  0.11801403727E+01  0.00000000000E+00 0. -1.
         11    1    3    3    0    0 -0.53377538557E+01  0.27761926208E+00 -0.88913394089E+01  0.10374227944E+02  0.51100000000E-03 0. -1.
        -11    1    3    3    0    0  0.37966323443E+01  0.38662779403E+02  0.13631276170E+02  0.41170822419E+02  0.51100000000E-03 0.  1.
         12    1    3    3    0    0  0.14181426626E+01 -0.38041832991E+02 -0.54950441908E+01  0.38462809265E+02  0.00000000000E+00 0. -1.
</event>
<event>
 7    1  0.4096472E-015  0.9000767E+02  0.7816164E-02  0.1186339E+00
        -11   -1    0    0    0    0  0.00000000000E+00  0.00000000000E+00  0.45593999997E+02  0.45594000000E+02  0.51100000000E-03 0.  1.
         11   -1    0    0    0    0 -0.00000000000E+00 -0.00000000000E+00 -0.45593999997E+02  0.45594000000E+02  0.51100000000E-03 0. -1.
    9900012    2    1    2    0    0  0.27816452874E+00 -0.69899361415E+00  0.90951562839E+00  0.90007666888E+02  0.89999927291E+02 0.  0.
         12    1    1    2    0    0 -0.27816452874E+00  0.69899361415E+00 -0.90951562839E+00  0.11803331123E+01  0.00000000000E+00 0. -1.
         11    1    3    3    0    0 -0.11013111760E+01  0.64400455818E+01  0.47451587542E+01  0.80748749381E+01  0.51100000000E-03 0. -1.
        -11    1    3    3    0    0 -0.59644700843E+01  0.27781742328E+02 -0.27155361237E+02  0.39304118796E+02  0.51100000000E-03 0.  1.
         12    1    3    3    0    0  0.73439457890E+01 -0.34920781524E+02  0.23319718112E+02  0.42628673153E+02  0.00000000000E+00 0. -1.
</event>
<event>
 7    1  0.4096472E-015  0.9000778E+02  0.7816164E-02  0.1186339E+00
        -11   -1    0    0    0    0  0.00000000000E+00  0.00000000000E+00  0.45593999997E+02  0.45594000000E+02  0.51100000000E-03 0. -1.
         11   -1    0    0    0    0 -0.00000000000E+00 -0.00000000000E+00 -0.45593999997E+02  0.45594000000E+02  0.51100000000E-03 0.  1.
    9900012    2    1    2    0    0 -0.10298611618E+00 -0.52845302546E+00 -0.10502600080E+01  0.90007781874E+02  0.90000043795E+02 0.  0.
         12    1    1    2    0    0  0.10298611618E+00  0.52845302546E+00  0.10502600080E+01  0.11802181259E+01  0.00000000000E+00 0. -1.
         11    1    3    3    0    0 -0.35855747394E+02 -0.83878373193E+01  0.90913344126E-01  0.36823887649E+02  0.51100000000E-03 0. -1.
        -11    1    3    3    0    0 -0.67507965481E+01  0.51893687610E+01 -0.58592053422E+01  0.10336009369E+02  0.51100000000E-03 0.  1.
        -12    1    3    3    0    0  0.42503557826E+02  0.26700155328E+01  0.47180319901E+01  0.42847884856E+02  0.00000000000E+00 0.  1.
</event>
<event>
 7    1  0.4096472E-015  0.9000763E+02  0.7816164E-02  0.1186339E+00
        -11   -1    0    0    0    0  0.00000000000E+00  0.00000000000E+00  0.45593999997E+02  0.45594000000E+02  0.51100000000E-03 0.  1.
         11   -1    0    0    0    0 -0.00000000000E+00 -0.00000000000E+00 -0.45593999997E+02  0.45594000000E+02  0.51100000000E-03 0. -1.
    9900012    2    1    2    0    0  0.10872976224E+01  0.19998562197E+00  0.41360511492E+00  0.90007627364E+02  0.89999887245E+02 0.  0.
         12    1    1    2    0    0 -0.10872976224E+01 -0.19998562197E+00 -0.41360511492E+00  0.11803726359E+01  0.00000000000E+00 0. -1.
         11    1    3    3    0    0  0.12150014365E+02 -0.27772460441E+02  0.22451415119E+02  0.37722651671E+02  0.51100000000E-03 0. -1.
        -11    1    3    3    0    0  0.22820259277E+01 -0.83350553112E+01 -0.28079721521E+01  0.90865558516E+01  0.51100000000E-03 0.  1.
        -12    1    3    3    0    0 -0.13344742670E+02  0.36307501374E+02 -0.19229837852E+02  0.43198419841E+02  0.00000000000E+00 0.  1.
</event>
<event>
 7    1  0.4096472E-015  0.9000761E+02  0.7816164E-02  0.1186339E+00
        -11   -1    0    0    0    0  0.00000000000E+00  0.00000000000E+00  0.45593999997E+02  0.45594000000E+02  0.51100000000E-03 0. -1.
         11   -1    0    0    0    0 -0.00000000000E+00 -0.00000000000E+00 -0.45593999997E+02  0.45594000000E+02  0.51100000000E-03 0.  1.
    9900012    2    1    2    0    0 -0.28705871510E+00  0.11400211231E+01  0.10612362097E+00  0.90007613161E+02  0.89999872854E+02 0.  0.
         12    1    1    2    0    0  0.28705871510E+00 -0.11400211231E+01 -0.10612362097E+00  0.11803868391E+01  0.00000000000E+00 0. -1.
         11    1    3    3    0    0 -0.58750154535E+01  0.46306975388E+01  0.35063672420E+01  0.82615844589E+01  0.51100000000E-03 0. -1.
        -11    1    3    3    0    0 -0.24316448287E+02  0.22888140018E+02 -0.19581623831E+02  0.38711711444E+02  0.51100000000E-03 0.  1.
         12    1    3    3    0    0  0.29904405026E+02 -0.26378816434E+02  0.16181380209E+02  0.43034317258E+02  0.00000000000E+00 0. -1.
</event>
<event>
 7    1  0.4096472E-015  0.9000770E+02  0.7816164E-02  0.1186339E+00
        -11   -1    0    0    0    0  0.00000000000E+00  0.00000000000E+00  0.45593999997E+02  0.45594000000E+02  0.51100000000E-03 0. -1.
         11   -1    0    0    0    0 -0.00000000000E+00 -0.00000000000E+00 -0.45593999997E+02  0.45594000000E+02  0.51100000000E-03 0.  1.
    9900012    2    1    2    0    0  0.59390746282E+00  0.68707485983E+00 -0.75387092459E+00  0.90007695248E+02  0.89999956025E+02 0.  0.
         12    1    1    2    0    0 -0.59390746282E+00 -0.68707485983E+00  0.75387092459E+00  0.11803047523E+01  0.00000000000E+00 0. -1.
         11    1    3    3    0    0 -0.14232251860E+00 -0.34817906059E+01  0.92205169365E+01  0.98570307070E+01  0.51100000000E-03 0. -1.
        -11    1    3    3    0    0 -0.34508651732E+02  0.13407246618E+02 -0.20377247808E+02  0.42259123686E+02  0.51100000000E-03 0.  1.
         12    1    3    3    0    0  0.35244881713E+02 -0.92383811522E+01  0.10402859947E+02  0.37891540855E+02  0.00000000000E+00 0. -1.
</event>
<event>
 7    1  0.4096472E-015  0.9000723E+02  0.7816164E-02  0.1186340E+00
        -11   -1    0    0    0    0  0.00000000000E+00  0.00000000000E+00  0.45593999997E+02  0.45594000000E+02  0.51100000000E-03 0.  1.
         11   -1    0    0    0    0 -0.00000000000E+00 -0.00000000000E+00 -0.45593999997E+02  0.45594000000E+02  0.51100000000E-03 0. -1.
    9900012    2    1    2    0    0 -0.67825715379E+00  0.91287351972E+00  0.31755989533E+00  0.90007231133E+02  0.89999485783E+02 0.  0.
         12    1    1    2    0    0  0.67825715379E+00 -0.91287351972E+00 -0.31755989533E+00  0.11807688668E+01  0.00000000000E+00 0. -1.
         11    1    3    3    0    0  0.46880747224E+01  0.14448473814E+01  0.12024141715E+02  0.12986362570E+02  0.51100000000E-03 0. -1.
        -11    1    3    3    0    0  0.24695775551E+02  0.24331712664E+02 -0.15196804400E+02  0.37853090170E+02  0.51100000000E-03 0.  1.
         12    1    3    3    0    0 -0.30062107427E+02 -0.24863686525E+02  0.34902225812E+01  0.39167778393E+02  0.00000000000E+00 0. -1.
</event>
<event>
 7    1  0.4096472E-015  0.9000768E+02  0.7816164E-02  0.1186339E+00
        -11   -1    0    0    0    0  0.00000000000E+00  0.00000000000E+00  0.45593999997E+02  0.45594000000E+02  0.51100000000E-03 0.  1.
         11   -1    0    0    0    0 -0.00000000000E+00 -0.00000000000E+00 -0.45593999997E+02  0.45594000000E+02  0.51100000000E-03 0. -1.
    9900012    2    1    2    0    0 -0.11245862720E+00 -0.95482751425E+00  0.68469515288E+00  0.90007682256E+02  0.89999942862E+02 0.  0.
         12    1    1    2    0    0  0.11245862720E+00  0.95482751425E+00 -0.68469515288E+00  0.11803177442E+01  0.00000000000E+00 0. -1.
         11    1    3    3    0    0 -0.29334136145E+02  0.54278561512E+01 -0.20583156628E+02  0.36243889179E+02  0.51100000000E-03 0. -1.
        -11    1    3    3    0    0 -0.38130808954E+01 -0.14286133401E+01 -0.82411863780E+01  0.91922617004E+01  0.51100000000E-03 0.  1.
        -12    1    3    3    0    0  0.33034758413E+02 -0.49540703253E+01  0.29509038159E+02  0.44571531377E+02  0.00000000000E+00 0.  1.
</event>
<event>
 7    1  0.4096472E-015  0.9000791E+02  0.7816164E-02  0.1186339E+00
        -11   -1    0    0    0    0  0.00000000000E+00  0.00000000000E+00  0.45593999997E+02  0.45594000000E+02  0.51100000000E-03 0.  1.
         11   -1    0    0    0    0 -0.00000000000E+00 -0.00000000000E+00 -0.45593999997E+02  0.45594000000E+02  0.51100000000E-03 0. -1.
    9900012    2    1    2    0    0  0.90415312679E+00 -0.75328895404E+00  0.87573929367E-01  0.90007912580E+02  0.90000176226E+02 0.  0.
         12    1    1    2    0    0 -0.90415312679E+00  0.75328895404E+00 -0.87573929367E-01  0.11800874197E+01  0.00000000000E+00 0. -1.
         11    1    3    3    0    0 -0.26491643142E+02 -0.17538530848E+02  0.22971647646E+02  0.39205915580E+02  0.51100000000E-03 0. -1.
        -11    1    3    3    0    0 -0.70235066183E+01  0.40412552873E+01 -0.12538638418E+01  0.81996075705E+01  0.51100000000E-03 0.  1.
        -12    1    3    3    0    0  0.34419302887E+02  0.12743986606E+02 -0.21630209875E+02  0.42602389429E+02  0.00000000000E+00 0.  1.
</event>
<event>
 7    1  0.4096472E-015  0.9000769E+02  0.7816164E-02  0.1186339E+00
        -11   -1    0    0    0    0  0.00000000000E+00  0.00000000000E+00  0.45593999997E+02  0.45594000000E+02  0.51100000000E-03 0.  1.
         11   -1    0    0    0    0 -0.00000000000E+00 -0.00000000000E+00 -0.45593999997E+02  0.45594000000E+02  0.51100000000E-03 0. -1.
    9900012    2    1    2    0    0  0.36519072782E-01 -0.11763764137E+01  0.89077797645E-01  0.90007690734E+02  0.89999951452E+02 0.  0.
         12    1    1    2    0    0 -0.36519072782E-01  0.11763764137E+01 -0.89077797645E-01  0.11803092660E+01  0.00000000000E+00 0. -1.
         11    1    3    3    0    0  0.80015738280E+01 -0.59704605964E+01 -0.76763136045E+00  0.10013033588E+02  0.51100000000E-03 0. -1.
        -11    1    3    3    0    0 -0.19129479036E+02  0.69938998174E+01 -0.36032257146E+02  0.41390520149E+02  0.51100000000E-03 0.  1.
         12    1    3    3    0    0  0.11164424280E+02 -0.21998156347E+01  0.36888966305E+02  0.38604136998E+02  0.00000000000E+00 0. -1.
</event>
<event>
 7    1  0.4096472E-015  0.9000782E+02  0.7816164E-02  0.1186339E+00
        -11   -1    0    0    0    0  0.00000000000E+00  0.00000000000E+00  0.45593999997E+02  0.45594000000E+02  0.51100000000E-03 0. -1.
         11   -1    0    0    0    0 -0.00000000000E+00 -0.00000000000E+00 -0.45593999997E+02  0.45594000000E+02  0.51100000000E-03 0.  1.
    9900012    2    1    2    0    0 -0.10655895429E+01 -0.13342941933E+00 -0.48942741601E+00  0.90007820488E+02  0.90000082919E+02 0.  0.
         12    1    1    2    0    0  0.10655895429E+01  0.13342941933E+00  0.48942741601E+00  0.11801795115E+01  0.00000000000E+00 0. -1.
         11    1    3    3    0    0 -0.51994728374E+01 -0.15481634308E+02  0.30906698376E+02  0.34956251564E+02  0.51100000000E-03 0. -1.
        -11    1    3    3    0    0 -0.59556199951E+01 -0.10088113302E+02  0.19913531593E+01  0.11882967946E+02  0.51100000000E-03 0.  1.
        -12    1    3    3    0    0  0.10089503290E+02  0.25436318191E+02 -0.33387478951E+02  0.43168600979E+02  0.00000000000E+00 0.  1.
</event>
<event>
 7    1  0.4096472E-015  0.9000771E+02  0.7816164E-02  0.1186339E+00
        -11   -1    0    0    0    0  0.00000000000E+00  0.00000000000E+00  0.45593999997E+02  0.45594000000E+02  0.51100000000E-03 0.  1.
         11   -1    0    0    0    0 -0.00000000000E+00 -0.00000000000E+00 -0.45593999997E+02  0.45594000000E+02  0.51100000000E-03 0. -1.
    9900012    2    1    2    0    0 -0.38665310713E+00 -0.41654672868E+00  0.10344475073E+01  0.90007706203E+02  0.89999967125E+02 0.  0.
         12    1    1    2    0    0  0.38665310713E+00  0.41654672868E+00 -0.10344475073E+01  0.11802937972E+01  0.00000000000E+00 0. -1.
         11    1    3    3    0    0  0.75355294252E+01 -0.42562041227E+00  0.50661907497E+01  0.90901950159E+01  0.51100000000E-03 0. -1.
        -11    1    3    3    0    0  0.34310703008E+02 -0.11563897621E+02 -0.75526200993E+01  0.36986350722E+02  0.51100000000E-03 0.  1.
         12    1    3    3    0    0 -0.42232885541E+02  0.11572971305E+02  0.35208768569E+01  0.43931160465E+02  0.00000000000E+00 0. -1.
</event>
<event>
 7    1  0.4096472E-015  0.9000774E+02  0.7816164E-02  0.1186339E+00
        -11   -1    0    0    0    0  0.00000000000E+00  0.00000000000E+00  0.45593999997E+02  0.45594000000E+02  0.51100000000E-03 0.  1.
         11   -1    0    0    0    0 -0.00000000000E+00 -0.00000000000E+00 -0.45593999997E+02  0.45594000000E+02  0.51100000000E-03 0. -1.
    9900012    2    1    2    0    0 -0.17732424289E+00  0.30761483414E+00  0.11255839418E+01  0.90007741561E+02  0.90000002949E+02 0.  0.
         12    1    1    2    0    0  0.17732424289E+00 -0.30761483414E+00 -0.11255839418E+01  0.11802584392E+01  0.00000000000E+00 0. -1.
         11    1    3    3    0    0  0.89955760572E+01  0.79614249747E+01 -0.71094395570E+01  0.13958825427E+02  0.51100000000E-03 0. -1.
        -11    1    3    3    0    0 -0.20295785570E+02 -0.17189560351E+02  0.35938517465E+02  0.44709919871E+02  0.51100000000E-03 0.  1.
         12    1    3    3    0    0  0.11122885270E+02  0.95357502107E+01 -0.27703493967E+02  0.31338996263E+02  0.00000000000E+00 0. -1.
</event>
<event>
 7    1  0.4096472E-015  0.9000752E+02  0.7816164E-02  0.1186339E+00
        -11   -1    0    0    0    0  0.00000000000E+00  0.00000000000E+00  0.45593999997E+02  0.45594000000E+02  0.51100000000E-03 0.  1.
         11   -1    0    0    0    0 -0.00000000000E+00 -0.00000000000E+00 -0.45593999997E+02  0.45594000000E+02  0.51100000000E-03 0. -1.
    9900012    2    1    2    0    0  0.45339791354E-01  0.91208690705E+00  0.74805281233E+00  0.90007516526E+02  0.89999774944E+02 0.  0.
         12    1    1    2    0    0 -0.45339791354E-01 -0.91208690705E+00 -0.74805281233E+00  0.11804834741E+01  0.00000000000E+00 0. -1.
         11    1    3    3    0    0  0.34598884764E+01  0.86052596741E+01  0.12398967365E+01  0.93572787981E+01  0.51100000000E-03 0. -1.
        -11    1    3    3    0    0  0.63409005147E+01  0.12320453662E+02  0.35623485154E+02  0.38223465209E+02  0.51100000000E-03 0.  1.
         12    1    3    3    0    0 -0.97554491997E+01 -0.20013626429E+02 -0.36115329079E+02  0.42426772519E+02  0.00000000000E+00 0. -1.
</event>
<event>
 7    1  0.4096472E-015  0.9000747E+02  0.7816164E-02  0.1186340E+00
        -11   -1    0    0    0    0  0.00000000000E+00  0.00000000000E+00  0.45593999997E+02  0.45594000000E+02  0.51100000000E-03 0.  1.
         11   -1    0    0    0    0 -0.00000000000E+00 -0.00000000000E+00 -0.45593999997E+02  0.45594000000E+02  0.51100000000E-03 0. -1.
    9900012    2    1    2    0    0 -0.28138981791E+00  0.98373724797E+00  0.58883508133E+00  0.90007472171E+02  0.89999730003E+02 0.  0.
         12    1    1    2    0    0  0.28138981791E+00 -0.98373724797E+00 -0.58883508133E+00  0.11805278293E+01  0.00000000000E+00 0. -1.
         11    1    3    3    0    0 -0.92251907325E+01 -0.32842328482E+02 -0.16541651349E+02  0.37912384702E+02  0.51100000000E-03 0. -1.
        -11    1    3    3    0    0  0.82742592395E+01 -0.52826809634E+01  0.13163270514E+01  0.99046858250E+01  0.51100000000E-03 0.  1.
        -12    1    3    3    0    0  0.66954167510E+00  0.39108746694E+02  0.15814159379E+02  0.42190401644E+02  0.00000000000E+00 0.  1.
</event>
<event>
 7    1  0.4096472E-015  0.9000771E+02  0.7816164E-02  0.1186339E+00
        -11   -1    0    0    0    0  0.00000000000E+00  0.00000000000E+00  0.45593999997E+02  0.45594000000E+02  0.51100000000E-03 0. -1.
         11   -1    0    0    0    0 -0.00000000000E+00 -0.00000000000E+00 -0.45593999997E+02  0.45594000000E+02  0.51100000000E-03 0.  1.
    9900012    2    1    2    0    0  0.25597708479E+00  0.48677186712E+00 -0.10443213002E+01  0.90007712706E+02  0.89999973714E+02 0.  0.
         12    1    1    2    0    0 -0.25597708479E+00 -0.48677186712E+00  0.10443213002E+01  0.11802872941E+01  0.00000000000E+00 0. -1.
         11    1    3    3    0    0  0.40911297846E+02 -0.22198696630E+01  0.34724657269E+01  0.41118367322E+02  0.51100000000E-03 0. -1.
        -11    1    3    3    0    0 -0.30575712227E+01 -0.40689925386E+01  0.73008596216E+01  0.88998872766E+01  0.51100000000E-03 0.  1.
        -12    1    3    3    0    0 -0.37597749538E+02  0.67756340688E+01 -0.11817646649E+02  0.39989458107E+02  0.00000000000E+00 0.  1.
</event>
<event>
 7    1  0.4096472E-015  0.9000785E+02  0.7816164E-02  0.1186339E+00
        -11   -1    0    0    0    0  0.00000000000E+00  0.00000000000E+00  0.45593999997E+02  0.45594000000E+02  0.51100000000E-03 0. -1.
         11   -1    0    0    0    0 -0.00000000000E+00 -0.00000000000E+00 -0.45593999997E+02  0.45594000000E+02  0.51100000000E-03 0.  1.
    9900012    2    1    2    0    0  0.76121723426E+00 -0.63445035338E-01  0.89959639075E+00  0.90007851443E+02  0.90000114282E+02 0.  0.
         12    1    1    2    0    0 -0.76121723426E+00  0.63445035338E-01 -0.89959639075E+00  0.11801485570E+01  0.00000000000E+00 0. -1.
         11    1    3    3    0    0 -0.15319494797E+02  0.40221796302E+02  0.20229317256E+01  0.43087957386E+02  0.51100000000E-03 0. -1.
        -11    1    3    3    0    0  0.73188585816E+01 -0.60810209609E+01  0.55069644036E+01  0.10994142262E+02  0.51100000000E-03 0.  1.
        -12    1    3    3    0    0  0.87618534500E+01 -0.34204220377E+02 -0.66302997384E+01  0.35925751796E+02  0.00000000000E+00 0.  1.
</event>
<event>
 7    1  0.4096472E-015  0.9000771E+02  0.7816164E-02  0.1186339E+00
        -11   -1    0    0    0    0  0.00000000000E+00  0.00000000000E+00  0.45593999997E+02  0.45594000000E+02  0.51100000000E-03 0. -1.
         11   -1    0    0    0    0 -0.00000000000E+00 -0.00000000000E+00 -0.45593999997E+02  0.45594000000E+02  0.51100000000E-03 0.  1.
    9900012    2    1    2    0    0 -0.27048153827E+00  0.45157363992E+00 -0.10564093261E+01  0.90007712036E+02  0.89999973034E+02 0.  0.
         12    1    1    2    0    0  0.27048153827E+00 -0.45157363992E+00  0.10564093261E+01  0.11802879645E+01  0.00000000000E+00 0. -1.
         11    1    3    3    0    0  0.24154369422E+02 -0.20473070248E+02  0.18632242165E+02  0.36738816202E+02  0.51100000000E-03 0. -1.
        -11    1    3    3    0    0 -0.63822719109E+01 -0.36811026800E+01  0.88328018510E+01  0.11502273709E+02  0.51100000000E-03 0.  1.
        -12    1    3    3    0    0 -0.18042579049E+02  0.24605746568E+02 -0.28521453342E+02  0.41766622124E+02  0.00000000000E+00 0.  1.
</event>
<event>
 7    1  0.4096472E-015  0.9000778E+02  0.7816164E-02  0.1186339E+00
        -11   -1    0    0    0    0  0.00000000000E+00  0.00000000000E+00  0.45593999997E+02  0.45594000000E+02  0.51100000000E-03 0. -1.
         11   -1    0    0    0    0 -0.00000000000E+00 -0.00000000000E+00 -0.45593999997E+02  0.45594000000E+02  0.51100000000E-03 0.  1.
    9900012    2    1    2    0    0 -0.60347892193E+00 -0.10138888245E+01  0.27810514031E-01  0.90007775114E+02  0.90000036945E+02 0.  0.
         12    1    1    2    0    0  0.60347892193E+00  0.10138888245E+01 -0.27810514031E-01  0.11802248864E+01  0.00000000000E+00 0. -1.
         11    1    3    3    0    0  0.47388297774E+01 -0.56171334426E+01  0.72765761551E+01  0.10342014145E+02  0.51100000000E-03 0. -1.
        -11    1    3    3    0    0  0.29501768931E+02 -0.93649744802E+00 -0.26330876478E+02  0.39554348103E+02  0.51100000000E-03 0.  1.
         12    1    3    3    0    0 -0.34844077630E+02  0.55397420661E+01  0.19082110837E+02  0.40111412865E+02  0.00000000000E+00 0. -1.
</event>
<event>
 7    1  0.4096472E-015  0.9000772E+02  0.7816164E-02  0.1186339E+00
        -11   -1    0    0    0    0  0.00000000000E+00  0.00000000000E+00  0.45593999997E+02  0.45594000000E+02  0.51100000000E-03 0.  1.
         11   -1    0    0    0    0 -0.00000000000E+00 -0.00000000000E+00 -0.45593999997E+02  0.45594000000E+02  0.51100000000E-03 0. -1.
    9900012    2    1    2    0    0 -0.27958946471E+00 -0.81105343890E+00  0.81061360869E+00  0.90007715131E+02  0.89999976171E+02 0.  0.
         12    1    1    2    0    0  0.27958946471E+00  0.81105343890E+00 -0.81061360869E+00  0.11802848691E+01  0.00000000000E+00 0. -1.
         11    1    3    3    0    0 -0.39459601668E+01 -0.81760935783E+01  0.36038608178E+01  0.97676466406E+01  0.51100000000E-03 0. -1.
        -11    1    3    3    0    0  0.29240446953E+01 -0.42432816711E+01  0.37730056480E+02  0.38080344523E+02  0.51100000000E-03 0.  1.
         12    1    3    3    0    0  0.74232600674E+00  0.11608321810E+02 -0.40523303689E+02  0.42159723968E+02  0.00000000000E+00 0. -1.
</event>
<event>
 7    1  0.4096472E-015  0.9000770E+02  0.7816164E-02  0.1186339E+00
        -11   -1    0    0    0    0  0.00000000000E+00  0.00000000000E+00  0.45593999997E+02  0.45594000000E+02  0.51100000000E-03 0. -1.
         11   -1    0    0    0    0 -0.00000000000E+00 -0.00000000000E+00 -0.45593999997E+02  0.45594000000E+02  0.51100000000E-03 0.  1.
    9900012    2    1    2    0    0 -0.10589279728E+01  0.17701690669E+00 -0.49035161120E+00  0.90007699979E+02  0.89999960819E+02 0.  0.
         12    1    1    2    0    0  0.10589279728E+01 -0.17701690669E+00  0.49035161120E+00  0.11803000209E+01  0.00000000000E+00 0. -1.
         11    1    3    3    0    0 -0.38378409926E+01 -0.64222795448E+01  0.49841620931E+01  0.89898036724E+01  0.51100000000E-03 0. -1.
        -11    1    3    3    0    0 -0.19347127548E+02  0.26114693097E+02 -0.28786911802E+02  0.43416296839E+02  0.51100000000E-03 0.  1.
         12    1    3    3    0    0  0.22126040568E+02 -0.19515396645E+02  0.23312398098E+02  0.37601599467E+02  0.00000000000E+00 0. -1.
</event>
<event>
 7    1  0.4096472E-015  0.9000780E+02  0.7816164E-02  0.1186339E+00
        -11   -1    0    0    0    0  0.00000000000E+00  0.00000000000E+00  0.45593999997E+02  0.45594000000E+02  0.51100000000E-03 0. -1.
         11   -1    0    0    0    0 -0.00000000000E+00 -0.00000000000E+00 -0.45593999997E+02  0.45594000000E+02  0.51100000000E-03 0.  1.
    9900012    2    1    2    0    0 -0.44852706939E+00  0.10820598968E+01  0.14439957698E+00  0.90007796039E+02  0.90000058146E+02 0.  0.
         12    1    1    2    0    0  0.44852706939E+00 -0.10820598968E+01 -0.14439957698E+00  0.11802039613E+01  0.00000000000E+00 0. -1.
         11    1    3    3    0    0 -0.19575271991E+02 -0.47264118173E+01  0.30755231609E+02  0.36761590197E+02  0.51100000000E-03 0. -1.
        -11    1    3    3    0    0 -0.41408342646E+01  0.11661939911E+02  0.22302116859E+01  0.12574625057E+02  0.51100000000E-03 0.  1.
        -12    1    3    3    0    0  0.23267579186E+02 -0.58534681965E+01 -0.32841043718E+02  0.40671580786E+02  0.00000000000E+00 0.  1.
</event>
<event>
 7    1  0.4096472E-015  0.9000770E+02  0.7816164E-02  0.1186339E+00
        -11   -1    0    0    0    0  0.00000000000E+00  0.00000000000E+00  0.45593999997E+02  0.45594000000E+02  0.51100000000E-03 0. -1.
         11   -1    0    0    0    0 -0.00000000000E+00 -0.00000000000E+00 -0.45593999997E+02  0.45594000000E+02  0.51100000000E-03 0.  1.
    9900012    2    1    2    0    0 -0.70305339000E-01 -0.11541454474E+01 -0.23688973019E+00  0.90007698641E+02  0.89999959463E+02 0.  0.
         12    1    1    2    0    0  0.70305339000E-01  0.11541454474E+01  0.23688973019E+00  0.11803013592E+01  0.00000000000E+00 0. -1.
         11    1    3    3    0    0 -0.36055540497E+02 -0.10137601381E+02 -0.27213470882E+01  0.37552346032E+02  0.51100000000E-03 0. -1.
        -11    1    3    3    0    0 -0.51756659388E+01  0.55253555307E+01 -0.67350875041E+01  0.10133038814E+02  0.51100000000E-03 0.  1.
        -12    1    3    3    0    0  0.41160901097E+02  0.34581004026E+01  0.92195448621E+01  0.42322313795E+02  0.00000000000E+00 0.  1.
</event>
<event>
 7    1  0.4096472E-015  0.9000765E+02  0.7816164E-02  0.1186339E+00
        -11   -1    0    0    0    0  0.00000000000E+00  0.00000000000E+00  0.45593999997E+02  0.45594000000E+02  0.51100000000E-03 0. -1.
         11   -1    0    0    0    0 -0.00000000000E+00 -0.00000000000E+00 -0.45593999997E+02  0.45594000000E+02  0.51100000000E-03 0.  1.
    9900012    2    1    2    0    0 -0.96929357790E+00  0.51319034730E+00  0.43625717491E+00  0.90007654841E+02  0.89999915084E+02 0.  0.
         12    1    1    2    0    0  0.96929357790E+00 -0.51319034730E+00 -0.43625717491E+00  0.11803451594E+01  0.00000000000E+00 0. -1.
         11    1    3    3    0    0 -0.19326216797E+02 -0.41925011706E+01  0.27045373674E+02  0.33504208081E+02  0.51100000000E-03 0. -1.
        -11    1    3    3    0    0 -0.12425423879E+02  0.12978465099E+02 -0.92684153726E+01  0.20217201554E+02  0.51100000000E-03 0.  1.
        -12    1    3    3    0    0  0.30782347097E+02 -0.82727735814E+01 -0.17340701126E+02  0.36286245205E+02  0.00000000000E+00 0.  1.
</event>
<event>
 7    1  0.4096472E-015  0.9000775E+02  0.7816164E-02  0.1186339E+00
        -11   -1    0    0    0    0  0.00000000000E+00  0.00000000000E+00  0.45593999997E+02  0.45594000000E+02  0.51100000000E-03 0.  1.
         11   -1    0    0    0    0 -0.00000000000E+00 -0.00000000000E+00 -0.45593999997E+02  0.45594000000E+02  0.51100000000E-03 0. -1.
    9900012    2    1    2    0    0 -0.65163673260E+00 -0.92974589743E+00 -0.32239774124E+00  0.90007746566E+02  0.90000008021E+02 0.  0.
         12    1    1    2    0    0  0.65163673260E+00  0.92974589743E+00  0.32239774124E+00  0.11802534341E+01  0.00000000000E+00 0. -1.
         11    1    3    3    0    0 -0.46986401852E+01 -0.73158689190E+01  0.14561549222E+01  0.88158689333E+01  0.51100000000E-03 0. -1.
        -11    1    3    3    0    0 -0.31855754503E+02  0.20657733243E+02  0.12545818049E+02  0.39986605113E+02  0.51100000000E-03 0.  1.
         12    1    3    3    0    0  0.35902757956E+02 -0.14271610222E+02 -0.14324370712E+02  0.41205272520E+02  0.00000000000E+00 0. -1.
</event>
<event>
 7    1  0.4096472E-015  0.9000771E+02  0.7816164E-02  0.1186339E+00
        -11   -1    0    0    0    0  0.00000000000E+00  0.00000000000E+00  0.45593999997E+02  0.45594000000E+02  0.51100000000E-03 0.  1.
         11   -1    0    0    0    0 -0.00000000000E+00 -0.00000000000E+00 -0.45593999997E+02  0.45594000000E+02  0.51100000000E-03 0. -1.
    9900012    2    1    2    0    0  0.70210348699E-01  0.87962657755E+00  0.78384504570E+00  0.90007709585E+02  0.89999970551E+02 0.  0.
         12    1    1    2    0    0 -0.70210348699E-01 -0.87962657755E+00 -0.78384504570E+00  0.11802904154E+01  0.00000000000E+00 0. -1.
         11    1    3    3    0    0  0.32139070259E+02  0.12237341509E+02 -0.17733905654E+02  0.38693200621E+02  0.51100000000E-03 0. -1.
        -11    1    3    3    0    0  0.21002160256E+01  0.48198608450E+01 -0.46130006149E+01  0.69944078272E+01  0.51100000000E-03 0.  1.
        -12    1    3    3    0    0 -0.34169075936E+02 -0.16177575777E+02  0.23130751315E+02  0.44320101136E+02  0.00000000000E+00 0.  1.
</event>
<event>
 7    1  0.4096472E-015  0.9000776E+02  0.7816164E-02  0.1186339E+00
        -11   -1    0    0    0    0  0.00000000000E+00  0.00000000000E+00  0.45593999997E+02  0.45594000000E+02  0.51100000000E-03 0.  1.
         11   -1    0    0    0    0 -0.00000000000E+00 -0.00000000000E+00 -0.45593999997E+02  0.45594000000E+02  0.51100000000E-03 0. -1.
    9900012    2    1    2    0    0  0.25761842257E+00  0.91803484764E+00  0.69556159704E+00  0.90007762241E+02  0.90000023902E+02 0.  0.
         12    1    1    2    0    0 -0.25761842257E+00 -0.91803484764E+00 -0.69556159704E+00  0.11802377593E+01  0.00000000000E+00 0. -1.
         11    1    3    3    0    0 -0.12158820548E+02 -0.16520299489E+02 -0.31704101033E+02  0.37761186884E+02  0.51100000000E-03 0. -1.
        -11    1    3    3    0    0 -0.80083136289E+01  0.50544119028E+01 -0.26482434499E+01  0.98332782170E+01  0.51100000000E-03 0.  1.
        -12    1    3    3    0    0  0.20424752600E+02  0.12383922434E+02  0.35047906080E+02  0.42413297139E+02  0.00000000000E+00 0.  1.
</event>
<event>
 7    1  0.4096472E-015  0.9000770E+02  0.7816164E-02  0.1186339E+00
        -11   -1    0    0    0    0  0.00000000000E+00  0.00000000000E+00  0.45593999997E+02  0.45594000000E+02  0.51100000000E-03 0. -1.
         11   -1    0    0    0    0 -0.00000000000E+00 -0.00000000000E+00 -0.45593999997E+02  0.45594000000E+02  0.51100000000E-03 0.  1.
    9900012    2    1    2    0    0 -0.92460195104E+00  0.42698411139E+00 -0.59658356832E+00  0.90007696584E+02  0.89999957379E+02 0.  0.
         12    1    1    2    0    0  0.92460195104E+00 -0.42698411139E+00  0.59658356832E+00  0.11803034158E+01  0.00000000000E+00 0. -1.
         11    1    3    3    0    0  0.37466968501E+01  0.42294693945E+01 -0.68443614553E+01  0.88753271848E+01  0.51100000000E-03 0. -1.
        -11    1    3    3    0    0  0.35235600740E+02 -0.12129880517E+02 -0.76879152609E+01  0.38049777952E+02  0.51100000000E-03 0.  1.
         12    1    3    3    0    0 -0.39906899541E+02  0.83273952339E+01  0.13935693148E+02  0.43082591448E+02  0.00000000000E+00 0. -1.
</event>
<event>
 7    1  0.4096472E-015  0.9000764E+02  0.7816164E-02  0.1186339E+00
        -11   -1    0    0    0    0  0.00000000000E+00  0.00000000000E+00  0.45593999997E+02  0.45594000000E+02  0.51100000000E-03 0.  1.
         11   -1    0    0    0    0 -0.00000000000E+00 -0.00000000000E+00 -0.45593999997E+02  0.45594000000E+02  0.51100000000E-03 0. -1.
    9900012    2    1    2    0    0  0.12697937374E+00 -0.58122290421E+00  0.10194633983E+01  0.90007640120E+02  0.89999900170E+02 0.  0.
         12    1    1    2    0    0 -0.12697937374E+00  0.58122290421E+00 -0.10194633983E+01  0.11803598799E+01  0.00000000000E+00 0. -1.
         11    1    3    3    0    0  0.22437230802E+02  0.22161768760E+02 -0.17571884022E+02  0.36101861849E+02  0.51100000000E-03 0. -1.
        -11    1    3    3    0    0  0.63946537081E+01 -0.95101849310E-01 -0.68426719597E+01  0.93660450681E+01  0.51100000000E-03 0.  1.
        -12    1    3    3    0    0 -0.28704905137E+02 -0.22647889814E+02  0.25434019380E+02  0.44539733203E+02  0.00000000000E+00 0.  1.
</event>
<event>
 7    1  0.4096472E-015  0.9000773E+02  0.7816164E-02  0.1186339E+00
        -11   -1    0    0    0    0  0.00000000000E+00  0.00000000000E+00  0.45593999997E+02  0.45594000000E+02  0.51100000000E-03 0.  1.
         11   -1    0    0    0    0 -0.00000000000E+00 -0.00000000000E+00 -0.45593999997E+02  0.45594000000E+02  0.51100000000E-03 0. -1.
    9900012    2    1    2    0    0 -0.35942352632E-02 -0.41246412604E+00  0.11058428619E+01  0.90007733924E+02  0.89999995212E+02 0.  0.
         12    1    1    2    0    0  0.35942352632E-02  0.41246412604E+00 -0.11058428619E+01  0.11802660755E+01  0.00000000000E+00 0. -1.
         11    1    3    3    0    0 -0.74697515378E+01 -0.58107201019E+01  0.43288519858E+01  0.10406758185E+02  0.51100000000E-03 0. -1.
        -11    1    3    3    0    0  0.24552351134E+02 -0.29874314679E+02 -0.97228947846E+01  0.39872638576E+02  0.51100000000E-03 0.  1.
         12    1    3    3    0    0 -0.17086193831E+02  0.35272570655E+02  0.64998856607E+01  0.39728337164E+02  0.00000000000E+00 0. -1.
</event>
<event>
 7    1  0.4096472E-015  0.9000782E+02  0.7816164E-02  0.1186339E+00
        -11   -1    0    0    0    0  0.00000000000E+00  0.00000000000E+00  0.45593999997E+02  0.45594000000E+02  0.51100000000E-03 0.  1.
         11   -1    0    0    0    0 -0.00000000000E+00 -0.00000000000E+00 -0.45593999997E+02  0.45594000000E+02  0.51100000000E-03 0. -1.
    9900012    2    1    2    0    0 -0.91409156857E+00  0.71669405148E+00  0.20884623804E+00  0.90007817594E+02  0.90000079987E+02 0.  0.
         12    1    1    2    0    0  0.91409156857E+00 -0.71669405148E+00 -0.20884623804E+00  0.11801824055E+01  0.00000000000E+00 0. -1.
         11    1    3    3    0    0 -0.18909741947E+00  0.30210331299E+01 -0.13096535190E+02  0.13441786833E+02  0.51100000000E-03 0. -1.
        -11    1    3    3    0    0 -0.32805651947E+02 -0.99207775702E+01  0.24070206751E+02  0.41880872491E+02  0.51100000000E-03 0.  1.
         12    1    3    3    0    0  0.32080657798E+02  0.76164384918E+01 -0.10764825322E+02  0.34685158271E+02  0.00000000000E+00 0. -1.
</event>
<event>
 7    1  0.4096472E-015  0.9000764E+02  0.7816164E-02  0.1186339E+00
        -11   -1    0    0    0    0  0.00000000000E+00  0.00000000000E+00  0.45593999997E+02  0.45594000000E+02  0.51100000000E-03 0.  1.
         11   -1    0    0    0    0 -0.00000000000E+00 -0.00000000000E+00 -0.45593999997E+02  0.45594000000E+02  0.51100000000E-03 0. -1.
    9900012    2    1    2    0    0 -0.44836389709E+00 -0.87381778477E+00  0.65472867878E+00  0.90007636773E+02  0.89999896778E+02 0.  0.
         12    1    1    2    0    0  0.44836389709E+00  0.87381778477E+00 -0.65472867878E+00  0.11803632272E+01  0.00000000000E+00 0. -1.
         11    1    3    3    0    0 -0.25167842938E+02  0.28798707691E+02 -0.61634046248E+00  0.38251349763E+02  0.51100000000E-03 0. -1.
        -11    1    3    3    0    0 -0.22384956266E+01 -0.22683691570E+01  0.11536103263E+02  0.11968209559E+02  0.51100000000E-03 0.  1.
        -12    1    3    3    0    0  0.26957974668E+02 -0.27404156319E+02 -0.10265034122E+02  0.39788077451E+02  0.00000000000E+00 0.  1.
</event>
<event>
 7    1  0.4096472E-015  0.9000775E+02  0.7816164E-02  0.1186339E+00
        -11   -1    0    0    0    0  0.00000000000E+00  0.00000000000E+00  0.45593999997E+02  0.45594000000E+02  0.51100000000E-03 0.  1.
         11   -1    0    0    0    0 -0.00000000000E+00 -0.00000000000E+00 -0.45593999997E+02  0.45594000000E+02  0.51100000000E-03 0. -1.
    9900012    2    1    2    0    0  0.96571250595E-01  0.64626642293E+00  0.98286048162E+00  0.90007745357E+02  0.90000006796E+02 0.  0.
         12    1    1    2    0    0 -0.96571250595E-01 -0.64626642293E+00 -0.98286048162E+00  0.11802546429E+01  0.00000000000E+00 0. -1.
         11    1    3    3    0    0  0.20794469235E+02 -0.96604542593E+01  0.31983849715E+01  0.23150896181E+02  0.51100000000E-03 0. -1.
        -11    1    3    3    0    0  0.11710983388E+02  0.27554174237E+02  0.13609645217E+01  0.29970516754E+02  0.51100000000E-03 0.  1.
         12    1    3    3    0    0 -0.32408881372E+02 -0.17247453555E+02 -0.35764890116E+01  0.36886332423E+02  0.00000000000E+00 0. -1.
</event>
<event>
 7    1  0.4096472E-015  0.9000765E+02  0.7816164E-02  0.1186339E+00
        -11   -1    0    0    0    0  0.00000000000E+00  0.00000000000E+00  0.45593999997E+02  0.45594000000E+02  0.51100000000E-03 0.  1.
         11   -1    0    0    0    0 -0.00000000000E+00 -0.00000000000E+00 -0.45593999997E+02  0.45594000000E+02  0.51100000000E-03 0. -1.
    9900012    2    1    2    0    0 -0.77691793715E+00  0.13616216489E+00  0.87811389010E+00  0.90007650213E+02  0.89999910396E+02 0.  0.
         12    1    1    2    0    0  0.77691793715E+00 -0.13616216489E+00 -0.87811389010E+00  0.11803497872E+01  0.00000000000E+00 0. -1.
         11    1    3    3    0    0  0.10702891137E+02  0.66051010048E+00  0.91016459013E+00  0.10761809891E+02  0.51100000000E-03 0. -1.
        -11    1    3    3    0    0  0.28572944714E+02  0.19365057526E+02 -0.62712056578E+00  0.34522628856E+02  0.51100000000E-03 0.  1.
         12    1    3    3    0    0 -0.40052753789E+02 -0.19889405462E+02  0.59506986575E+00  0.44723211466E+02  0.00000000000E+00 0. -1.
</event>
<event>
 7    1  0.4281790E-015  0.9000775E+02  0.7816164E-02  0.1186339E+00
        -11   -1    0    0    0    0  0.00000000000E+00  0.00000000000E+00  0.45593999997E+02  0.45594000000E+02  0.51100000000E-03 0. -1.
         11   -1    0    0    0    0 -0.00000000000E+00 -0.00000000000E+00 -0.45593999997E+02  0.45594000000E+02  0.51100000000E-03 0.  1.
    9900012    2    1    2    0    0  0.35935181227E+00  0.82837758358E+00 -0.76002629023E+00  0.90007752946E+02  0.90000014485E+02 0.  0.
         12    1    1    2    0    0 -0.35935181227E+00 -0.82837758358E+00  0.76002629023E+00  0.11802470537E+01  0.00000000000E+00 0. -1.
         11    1    3    3    0    0 -0.23801554152E+02 -0.18220299020E+02  0.23093606364E+02  0.37839237989E+02  0.51100000000E-03 0. -1.
        -11    1    3    3    0    0 -0.13386004378E+01 -0.85788603104E+01 -0.30686085226E+01  0.92089659509E+01  0.51100000000E-03 0.  1.
        -12    1    3    3    0    0  0.25499506402E+02  0.27627536914E+02 -0.20785024132E+02  0.42959549006E+02  0.00000000000E+00 0.  1.
</event>
<event>
 7    1  0.4096472E-015  0.9000783E+02  0.7816164E-02  0.1186339E+00
        -11   -1    0    0    0    0  0.00000000000E+00  0.00000000000E+00  0.45593999997E+02  0.45594000000E+02  0.51100000000E-03 0. -1.
         11   -1    0    0    0    0 -0.00000000000E+00 -0.00000000000E+00 -0.45593999997E+02  0.45594000000E+02  0.51100000000E-03 0.  1.
    9900012    2    1    2    0    0  0.50044747640E+00  0.38188961525E+00 -0.99825265169E+00  0.90007832338E+02  0.90000094924E+02 0.  0.
         12    1    1    2    0    0 -0.50044747640E+00 -0.38188961525E+00  0.99825265169E+00  0.11801676624E+01  0.00000000000E+00 0. -1.
         11    1    3    3    0    0 -0.47399620336E+01  0.51485964657E+01 -0.56099824643E+01  0.89692357064E+01  0.51100000000E-03 0. -1.
        -11    1    3    3    0    0  0.79433131228E+01 -0.29978628119E+02 -0.26577015886E+02  0.40843018264E+02  0.51100000000E-03 0.  1.
         12    1    3    3    0    0 -0.27029036128E+01  0.25211921268E+02  0.31188745699E+02  0.40195578367E+02  0.00000000000E+00 0. -1.
</event>
<event>
 7    1  0.4096472E-015  0.9000788E+02  0.7816164E-02  0.1186339E+00
        -11   -1    0    0    0    0  0.00000000000E+00  0.00000000000E+00  0.45593999997E+02  0.45594000000E+02  0.51100000000E-03 0. -1.
         11   -1    0    0    0    0 -0.00000000000E+00 -0.00000000000E+00 -0.45593999997E+02  0.45594000000E+02  0.51100000000E-03 0.  1.
    9900012    2    1    2    0    0  0.70664681157E+00 -0.92600470858E+00 -0.18936721809E+00  0.90007875269E+02  0.90000138423E+02 0.  0.
         12    1    1    2    0    0 -0.70664681157E+00  0.92600470858E+00  0.18936721809E+00  0.11801247307E+01  0.00000000000E+00 0. -1.
         11    1    3    3    0    0 -0.12287104210E+02 -0.64424538289E+01 -0.39032938445E+02  0.41425214847E+02  0.51100000000E-03 0. -1.
        -11    1    3    3    0    0  0.10558311062E+02 -0.87921511142E+00  0.15993481533E+01  0.10714889942E+02  0.51100000000E-03 0.  1.
        -12    1    3    3    0    0  0.24354399594E+01  0.63956642317E+01  0.37244223074E+02  0.37867770480E+02  0.00000000000E+00 0.  1.
</event>
<event>
 7    1  0.4096472E-015  0.9000778E+02  0.7816164E-02  0.1186339E+00
        -11   -1    0    0    0    0  0.00000000000E+00  0.00000000000E+00  0.45593999997E+02  0.45594000000E+02  0.51100000000E-03 0. -1.
         11   -1    0    0    0    0 -0.00000000000E+00 -0.00000000000E+00 -0.45593999997E+02  0.45594000000E+02  0.51100000000E-03 0.  1.
    9900012    2    1    2    0    0  0.21947933291E+00 -0.21625487952E+00 -0.11392933227E+01  0.90007776875E+02  0.90000038729E+02 0.  0.
         12    1    1    2    0    0 -0.21947933291E+00  0.21625487952E+00  0.11392933227E+01  0.11802231253E+01  0.00000000000E+00 0. -1.
         11    1    3    3    0    0  0.19040386975E+02 -0.15072964993E+02  0.29595508624E+02  0.38283478693E+02  0.51100000000E-03 0. -1.
        -11    1    3    3    0    0 -0.38192060962E+01 -0.76719376473E+01  0.24383890123E+01  0.89101461102E+01  0.51100000000E-03 0.  1.
        -12    1    3    3    0    0 -0.15001701546E+02  0.22528647761E+02 -0.33173190959E+02  0.42814152072E+02  0.00000000000E+00 0.  1.
</event>
<event>
 7    1  0.4096472E-015  0.9000770E+02  0.7816164E-02  0.1186339E+00
        -11   -1    0    0    0    0  0.00000000000E+00  0.00000000000E+00  0.45593999997E+02  0.45594000000E+02  0.51100000000E-03 0. -1.
         11   -1    0    0    0    0 -0.00000000000E+00 -0.00000000000E+00 -0.45593999997E+02  0.45594000000E+02  0.51100000000E-03 0.  1.
    9900012    2    1    2    0    0  0.38552749540E+00  0.11060483079E+01  0.14537494668E+00  0.90007699960E+02  0.89999960800E+02 0.  0.
         12    1    1    2    0    0 -0.38552749540E+00 -0.11060483079E+01 -0.14537494668E+00  0.11803000399E+01  0.00000000000E+00 0. -1.
         11    1    3    3    0    0  0.18889250220E+01 -0.38276805764E+02 -0.73331440425E-01  0.38323455937E+02  0.51100000000E-03 0. -1.
        -11    1    3    3    0    0  0.32545309368E+01 -0.36123428546E+01  0.63462628845E+01  0.79947511142E+01  0.51100000000E-03 0.  1.
        -12    1    3    3    0    0 -0.47579284634E+01  0.42995196926E+02 -0.61275564974E+01  0.43689492909E+02  0.00000000000E+00 0.  1.
</event>
<event>
 7    1  0.4096472E-015  0.9000770E+02  0.7816164E-02  0.1186339E+00
        -11   -1    0    0    0    0  0.00000000000E+00  0.00000000000E+00  0.45593999997E+02  0.45594000000E+02  0.51100000000E-03 0.  1.
         11   -1    0    0    0    0 -0.00000000000E+00 -0.00000000000E+00 -0.45593999997E+02  0.45594000000E+02  0.51100000000E-03 0. -1.
    9900012    2    1    2    0    0 -0.17966630080E+00 -0.10921484337E+01 -0.40993589903E+00  0.90007696809E+02  0.89999957607E+02 0.  0.
         12    1    1    2    0    0  0.17966630080E+00  0.10921484337E+01  0.40993589903E+00  0.11803031908E+01  0.00000000000E+00 0. -1.
         11    1    3    3    0    0  0.13641938738E+02 -0.88785293953E+01  0.38807416469E+02  0.42082613393E+02  0.51100000000E-03 0.  1.
        -11    1    3    3    0    0  0.48514138438E+01  0.71488511866E+01 -0.96827377501E+01  0.12976813945E+02  0.51100000000E-03 0. -1.
        -12    1    3    3    0    0 -0.18673018882E+02  0.63752977501E+00 -0.29534614618E+02  0.34948269471E+02  0.00000000000E+00 0.  1.
</event>
<event>
 7    1  0.4096472E-015  0.9000773E+02  0.7816164E-02  0.1186339E+00
        -11   -1    0    0    0    0  0.00000000000E+00  0.00000000000E+00  0.45593999997E+02  0.45594000000E+02  0.51100000000E-03 0. -1.
         11   -1    0    0    0    0 -0.00000000000E+00 -0.00000000000E+00 -0.45593999997E+02  0.45594000000E+02  0.51100000000E-03 0.  1.
    9900012    2    1    2    0    0 -0.11601730051E+01 -0.28150768395E-01  0.21505421697E+00  0.90007727920E+02  0.89999989128E+02 0.  0.
         12    1    1    2    0    0  0.11601730051E+01  0.28150768395E-01 -0.21505421697E+00  0.11802720804E+01  0.00000000000E+00 0. -1.
         11    1    3    3    0    0  0.65712639630E+01 -0.39141086455E+01 -0.60726795764E+01  0.97662272173E+01  0.51100000000E-03 0. -1.
        -11    1    3    3    0    0  0.49323844390E+01  0.33541743859E+02 -0.19358381008E+02  0.39040029622E+02  0.51100000000E-03 0.  1.
         12    1    3    3    0    0 -0.12663821407E+02 -0.29655785982E+02  0.25646114801E+02  0.41201471081E+02  0.00000000000E+00 0. -1.
</event>
<event>
 7    1  0.4096472E-015  0.9000771E+02  0.7816164E-02  0.1186339E+00
        -11   -1    0    0    0    0  0.00000000000E+00  0.00000000000E+00  0.45593999997E+02  0.45594000000E+02  0.51100000000E-03 0.  1.
         11   -1    0    0    0    0 -0.00000000000E+00 -0.00000000000E+00 -0.45593999997E+02  0.45594000000E+02  0.51100000000E-03 0. -1.
    9900012    2    1    2    0    0  0.26703305844E-01 -0.11763843148E+01 -0.92158381266E-01  0.90007709235E+02  0.89999970197E+02 0.  0.
         12    1    1    2    0    0 -0.26703305844E-01  0.11763843148E+01  0.92158381266E-01  0.11802907650E+01  0.00000000000E+00 0. -1.
         11    1    3    3    0    0  0.25512336722E+01  0.10938975903E+02  0.61086292914E+00  0.11249139560E+02  0.51100000000E-03 0. -1.
        -11    1    3    3    0    0  0.93889678702E+00  0.16232578679E+02  0.31663217930E+02  0.35594065625E+02  0.51100000000E-03 0.  1.
         12    1    3    3    0    0 -0.34634271534E+01 -0.28347938896E+02 -0.32366239241E+02  0.43164504050E+02  0.00000000000E+00 0. -1.
</event>
<event>
 7    1  0.5071107E-015  0.9000769E+02  0.7816164E-02  0.1186339E+00
        -11   -1    0    0    0    0  0.00000000000E+00  0.00000000000E+00  0.45593999997E+02  0.45594000000E+02  0.51100000000E-03 0. -1.
         11   -1    0    0    0    0 -0.00000000000E+00 -0.00000000000E+00 -0.45593999997E+02  0.45594000000E+02  0.51100000000E-03 0.  1.
    9900012    2    1    2    0    0 -0.39133405327E+00 -0.86652075468E+00 -0.69938255478E+00  0.90007687958E+02  0.89999948639E+02 0.  0.
         12    1    1    2    0    0  0.39133405327E+00  0.86652075468E+00  0.69938255478E+00  0.11803120424E+01  0.00000000000E+00 0. -1.
         11    1    3    3    0    0  0.12200395456E+02 -0.31614715546E+02  0.17046513469E+02  0.37933145270E+02  0.51100000000E-03 0. -1.
        -11    1    3    3    0    0  0.41240366100E+01 -0.65465593708E+01 -0.52017671296E+01  0.93232772719E+01  0.51100000000E-03 0.  1.
        -12    1    3    3    0    0 -0.16715766120E+02  0.37294754162E+02 -0.12544128894E+02  0.42751265416E+02  0.00000000000E+00 0.  1.
</event>
<event>
 7    1  0.4096472E-015  0.9000762E+02  0.7816164E-02  0.1186339E+00
        -11   -1    0    0    0    0  0.00000000000E+00  0.00000000000E+00  0.45593999997E+02  0.45594000000E+02  0.51100000000E-03 0.  1.
         11   -1    0    0    0    0 -0.00000000000E+00 -0.00000000000E+00 -0.45593999997E+02  0.45594000000E+02  0.51100000000E-03 0. -1.
    9900012    2    1    2    0    0  0.24889319076E+00 -0.84674287661E-01  0.11507250675E+01  0.90007624748E+02  0.89999884594E+02 0.  0.
         12    1    1    2    0    0 -0.24889319076E+00  0.84674287661E-01 -0.11507250675E+01  0.11803752523E+01  0.00000000000E+00 0. -1.
         11    1    3    3    0    0 -0.25834182825E+02 -0.22571170317E+02  0.20670822103E+02  0.40051786707E+02  0.51100000000E-03 0. -1.
        -11    1    3    3    0    0  0.40685826635E+01  0.51278828651E+01  0.82256631280E+01  0.10512377549E+02  0.51100000000E-03 0.  1.
        -12    1    3    3    0    0  0.22014493353E+02  0.17358613164E+02 -0.27745760164E+02  0.39443460492E+02  0.00000000000E+00 0.  1.
</event>
<event>
 7    1  0.4096472E-015  0.9000776E+02  0.7816164E-02  0.1186339E+00
        -11   -1    0    0    0    0  0.00000000000E+00  0.00000000000E+00  0.45593999997E+02  0.45594000000E+02  0.51100000000E-03 0. -1.
         11   -1    0    0    0    0 -0.00000000000E+00 -0.00000000000E+00 -0.45593999997E+02  0.45594000000E+02  0.51100000000E-03 0.  1.
    9900012    2    1    2    0    0 -0.28261924700E+00 -0.65820811844E+00 -0.93800980960E+00  0.90007756818E+02  0.90000018408E+02 0.  0.
         12    1    1    2    0    0  0.28261924700E+00  0.65820811844E+00  0.93800980960E+00  0.11802431821E+01  0.00000000000E+00 0. -1.
         11    1    3    3    0    0 -0.80633147965E+01 -0.13538272242E+02 -0.58950999089E+01  0.16824210650E+02  0.51100000000E-03 0. -1.
        -11    1    3    3    0    0 -0.15800578478E+00 -0.28840221565E+02 -0.56986728160E+01  0.29398268960E+02  0.51100000000E-03 0.  1.
         12    1    3    3    0    0  0.79387013343E+01  0.41720285689E+02  0.10655762915E+02  0.43785277207E+02  0.00000000000E+00 0. -1.
</event>
<event>
 7    1  0.4096472E-015  0.9000768E+02  0.7816164E-02  0.1186339E+00
        -11   -1    0    0    0    0  0.00000000000E+00  0.00000000000E+00  0.45593999997E+02  0.45594000000E+02  0.51100000000E-03 0.  1.
         11   -1    0    0    0    0 -0.00000000000E+00 -0.00000000000E+00 -0.45593999997E+02  0.45594000000E+02  0.51100000000E-03 0. -1.
    9900012    2    1    2    0    0 -0.10866977907E+01 -0.38237595564E+00 -0.25694596053E+00  0.90007684497E+02  0.89999945132E+02 0.  0.
         12    1    1    2    0    0  0.10866977907E+01  0.38237595564E+00  0.25694596053E+00  0.11803155029E+01  0.00000000000E+00 0. -1.
         11    1    3    3    0    0  0.20184012699E+01  0.93464813273E+00  0.76370335906E+01  0.79543568655E+01  0.51100000000E-03 0. -1.
        -11    1    3    3    0    0  0.36448168869E+02  0.12415139769E+02  0.34945800663E+01  0.38662860726E+02  0.51100000000E-03 0.  1.
         12    1    3    3    0    0 -0.39553267930E+02 -0.13732163857E+02 -0.11388559617E+02  0.43390466906E+02  0.00000000000E+00 0. -1.
</event>
<event>
 7    1  0.4096472E-015  0.9000778E+02  0.7816164E-02  0.1186339E+00
        -11   -1    0    0    0    0  0.00000000000E+00  0.00000000000E+00  0.45593999997E+02  0.45594000000E+02  0.51100000000E-03 0. -1.
         11   -1    0    0    0    0 -0.00000000000E+00 -0.00000000000E+00 -0.45593999997E+02  0.45594000000E+02  0.51100000000E-03 0.  1.
    9900012    2    1    2    0    0  0.10513197373E+01  0.24806627502E+00 -0.47550353912E+00  0.90007782358E+02  0.90000044285E+02 0.  0.
         12    1    1    2    0    0 -0.10513197373E+01 -0.24806627502E+00  0.47550353912E+00  0.11802176420E+01  0.00000000000E+00 0. -1.
         11    1    3    3    0    0  0.86063434806E+00  0.98560690029E+01 -0.78514806489E+01  0.12630460653E+02  0.51100000000E-03 0. -1.
        -11    1    3    3    0    0  0.14146349399E+02  0.43521141068E+01 -0.30927559950E+02  0.34286645552E+02  0.51100000000E-03 0.  1.
         12    1    3    3    0    0 -0.13955664010E+02 -0.13960116835E+02  0.38303537060E+02  0.43090676152E+02  0.00000000000E+00 0. -1.
</event>
<event>
 7    1  0.4096472E-015  0.9000776E+02  0.7816164E-02  0.1186339E+00
        -11   -1    0    0    0    0  0.00000000000E+00  0.00000000000E+00  0.45593999997E+02  0.45594000000E+02  0.51100000000E-03 0.  1.
         11   -1    0    0    0    0 -0.00000000000E+00 -0.00000000000E+00 -0.45593999997E+02  0.45594000000E+02  0.51100000000E-03 0. -1.
    9900012    2    1    2    0    0 -0.10463137200E+01 -0.54512368826E+00 -0.32011407331E-01  0.90007764021E+02  0.90000025706E+02 0.  0.
         12    1    1    2    0    0  0.10463137200E+01  0.54512368826E+00  0.32011407331E-01  0.11802359791E+01  0.00000000000E+00 0. -1.
         11    1    3    3    0    0 -0.37503579421E+01  0.28232638635E+02 -0.30114812263E+02  0.41449354481E+02  0.51100000000E-03 0. -1.
        -11    1    3    3    0    0  0.10207602677E+02 -0.29186841239E+01  0.49052880225E+01  0.11695115231E+02  0.51100000000E-03 0.  1.
        -12    1    3    3    0    0 -0.75035584549E+01 -0.25859078199E+02  0.25177512834E+02  0.36863294309E+02  0.00000000000E+00 0.  1.
</event>
<event>
 7    1  0.4096472E-015  0.9000774E+02  0.7816164E-02  0.1186339E+00
        -11   -1    0    0    0    0  0.00000000000E+00  0.00000000000E+00  0.45593999997E+02  0.45594000000E+02  0.51100000000E-03 0. -1.
         11   -1    0    0    0    0 -0.00000000000E+00 -0.00000000000E+00 -0.45593999997E+02  0.45594000000E+02  0.51100000000E-03 0.  1.
    9900012    2    1    2    0    0  0.71859949005E+00  0.37263349339E+00  0.85894095278E+00  0.90007737102E+02  0.89999998432E+02 0.  0.
         12    1    1    2    0    0 -0.71859949005E+00 -0.37263349339E+00 -0.85894095278E+00  0.11802628978E+01  0.00000000000E+00 0. -1.
         11    1    3    3    0    0  0.20199604647E+01 -0.69298421050E+01  0.77895912541E+01  0.10619825048E+02  0.51100000000E-03 0. -1.
        -11    1    3    3    0    0  0.14089812022E+02 -0.15873625255E+02 -0.34316164302E+02  0.40349645776E+02  0.51100000000E-03 0.  1.
         12    1    3    3    0    0 -0.15391172996E+02  0.23176100853E+02  0.27385514001E+02  0.39038266279E+02  0.00000000000E+00 0. -1.
</event>
<event>
 7    1  0.4096472E-015  0.9000778E+02  0.7816164E-02  0.1186339E+00
        -11   -1    0    0    0    0  0.00000000000E+00  0.00000000000E+00  0.45593999997E+02  0.45594000000E+02  0.51100000000E-03 0.  1.
         11   -1    0    0    0    0 -0.00000000000E+00 -0.00000000000E+00 -0.45593999997E+02  0.45594000000E+02  0.51100000000E-03 0. -1.
    9900012    2    1    2    0    0 -0.96361787289E+00 -0.21175375126E+00  0.64770721239E+00  0.90007778119E+02  0.90000039990E+02 0.  0.
         12    1    1    2    0    0  0.96361787289E+00  0.21175375126E+00 -0.64770721239E+00  0.11802218813E+01  0.00000000000E+00 0. -1.
         11    1    3    3    0    0  0.63291579000E+01 -0.18772255492E+01  0.69730765902E+01  0.96023962051E+01  0.51100000000E-03 0. -1.
        -11    1    3    3    0    0  0.13283643297E+02  0.19483194992E+02  0.27994351349E+02  0.36602373885E+02  0.51100000000E-03 0.  1.
         12    1    3    3    0    0 -0.20576419070E+02 -0.17817723194E+02 -0.34319720727E+02  0.43803008028E+02  0.00000000000E+00 0. -1.
</event>
<event>
 7    1  0.4685351E-015  0.9000769E+02  0.7816164E-02  0.1186339E+00
        -11   -1    0    0    0    0  0.00000000000E+00  0.00000000000E+00  0.45593999997E+02  0.45594000000E+02  0.51100000000E-03 0. -1.
         11   -1    0    0    0    0 -0.00000000000E+00 -0.00000000000E+00 -0.45593999997E+02  0.45594000000E+02  0.51100000000E-03 0.  1.
    9900012    2    1    2    0    0  0.77445211064E+00  0.63978008092E+00 -0.61971309629E+00  0.90007686929E+02  0.89999947597E+02 0.  0.
         12    1    1    2    0    0 -0.77445211064E+00 -0.63978008092E+00  0.61971309629E+00  0.11803130709E+01  0.00000000000E+00 0. -1.
         11    1    3    3    0    0 -0.16312766123E+01  0.90235770838E+01 -0.12185418253E+01  0.92504514060E+01  0.51100000000E-03 0. -1.
        -11    1    3    3    0    0 -0.20186117468E+02  0.24638076636E+02 -0.18054135821E+02  0.36612374674E+02  0.51100000000E-03 0.  1.
         12    1    3    3    0    0  0.22591846191E+02 -0.33021873639E+02  0.18652964550E+02  0.44144860849E+02  0.00000000000E+00 0. -1.
</event>
<event>
 7    1  0.4096472E-015  0.9000871E+02  0.7816164E-02  0.1186337E+00
        -11   -1    0    0    0    0  0.00000000000E+00  0.00000000000E+00  0.45593999997E+02  0.45594000000E+02  0.51100000000E-03 0. -1.
         11   -1    0    0    0    0 -0.00000000000E+00 -0.00000000000E+00 -0.45593999997E+02  0.45594000000E+02  0.51100000000E-03 0.  1.
    9900012    2    1    2    0    0  0.96990480841E+00  0.65692345907E+00 -0.13583945784E+00  0.90008713721E+02  0.90000987937E+02 0.  0.
         12    1    1    2    0    0 -0.96990480841E+00 -0.65692345907E+00  0.13583945784E+00  0.11792862785E+01  0.00000000000E+00 0. -1.
         11    1    3    3    0    0  0.32664342414E+02  0.49093630132E+01  0.13749786849E+02  0.35778733197E+02  0.51100000000E-03 0. -1.
        -11    1    3    3    0    0  0.70644844035E+01 -0.54296287940E+01  0.59106970640E+01  0.10692247134E+02  0.51100000000E-03 0.  1.
        -12    1    3    3    0    0 -0.38758922009E+02  0.11771892398E+01 -0.19796323371E+02  0.43537733391E+02  0.00000000000E+00 0.  1.
</event>
<event>
 7    1  0.4096472E-015  0.9000774E+02  0.7816164E-02  0.1186339E+00
        -11   -1    0    0    0    0  0.00000000000E+00  0.00000000000E+00  0.45593999997E+02  0.45594000000E+02  0.51100000000E-03 0. -1.
         11   -1    0    0    0    0 -0.00000000000E+00 -0.00000000000E+00 -0.45593999997E+02  0.45594000000E+02  0.51100000000E-03 0.  1.
    9900012    2    1    2    0    0  0.60248522673E+00  0.85225023527E+00 -0.55109244811E+00  0.90007736556E+02  0.89999997878E+02 0.  0.
         12    1    1    2    0    0 -0.60248522673E+00 -0.85225023527E+00  0.55109244811E+00  0.11802634445E+01  0.00000000000E+00 0. -1.
         11    1    3    3    0    0 -0.71101190580E+01 -0.58055598299E+01  0.65871230075E+01  0.11298163910E+02  0.51100000000E-03 0. -1.
        -11    1    3    3    0    0 -0.11167440604E+02  0.22855917061E+02  0.26590836661E+02  0.36799147666E+02  0.51100000000E-03 0.  1.
         12    1    3    3    0    0  0.18880044889E+02 -0.16198106996E+02 -0.33729052117E+02  0.41910424979E+02  0.00000000000E+00 0. -1.
</event>
<event>
 7    1  0.4096472E-015  0.9000799E+02  0.7816164E-02  0.1186339E+00
        -11   -1    0    0    0    0  0.00000000000E+00  0.00000000000E+00  0.45593999997E+02  0.45594000000E+02  0.51100000000E-03 0.  1.
         11   -1    0    0    0    0 -0.00000000000E+00 -0.00000000000E+00 -0.45593999997E+02  0.45594000000E+02  0.51100000000E-03 0. -1.
    9900012    2    1    2    0    0 -0.10700899288E+01 -0.36090195054E+00 -0.34215864541E+00  0.90007993554E+02  0.90000258269E+02 0.  0.
         12    1    1    2    0    0  0.10700899288E+01  0.36090195054E+00  0.34215864541E+00  0.11800064458E+01  0.00000000000E+00 0. -1.
         11    1    3    3    0    0  0.59725367979E+01 -0.56583689411E+01 -0.77314114028E+01  0.11289953827E+02  0.51100000000E-03 0. -1.
        -11    1    3    3    0    0 -0.36481070159E+02 -0.41304686715E+01  0.23767495852E+02  0.43735833258E+02  0.51100000000E-03 0.  1.
         12    1    3    3    0    0  0.29438443433E+02  0.94279356620E+01 -0.16378243095E+02  0.34982206469E+02  0.00000000000E+00 0. -1.
</event>
<event>
 7    1  0.4096472E-015  0.9000771E+02  0.7816164E-02  0.1186339E+00
        -11   -1    0    0    0    0  0.00000000000E+00  0.00000000000E+00  0.45593999997E+02  0.45594000000E+02  0.51100000000E-03 0.  1.
         11   -1    0    0    0    0 -0.00000000000E+00 -0.00000000000E+00 -0.45593999997E+02  0.45594000000E+02  0.51100000000E-03 0. -1.
    9900012    2    1    2    0    0 -0.20687684100E+00 -0.11529724995E+01  0.14473578894E+00  0.90007706790E+02  0.89999967720E+02 0.  0.
         12    1    1    2    0    0  0.20687684100E+00  0.11529724995E+01 -0.14473578894E+00  0.11802932096E+01  0.00000000000E+00 0. -1.
         11    1    3    3    0    0  0.12943320227E+02  0.29234482327E+01  0.92065027135E+00  0.13301266303E+02  0.51100000000E-03 0. -1.
        -11    1    3    3    0    0 -0.14042042635E+02 -0.11187223603E+02  0.35472091208E+02  0.39756787952E+02  0.51100000000E-03 0.  1.
         12    1    3    3    0    0  0.89184556716E+00  0.71108028708E+01 -0.36248005690E+02  0.36949652536E+02  0.00000000000E+00 0. -1.
</event>
<event>
 7    1  0.4096472E-015  0.9000748E+02  0.7816164E-02  0.1186340E+00
        -11   -1    0    0    0    0  0.00000000000E+00  0.00000000000E+00  0.45593999997E+02  0.45594000000E+02  0.51100000000E-03 0.  1.
         11   -1    0    0    0    0 -0.00000000000E+00 -0.00000000000E+00 -0.45593999997E+02  0.45594000000E+02  0.51100000000E-03 0. -1.
    9900012    2    1    2    0    0  0.73958526881E+00 -0.51867201663E+00  0.76001060214E+00  0.90007481832E+02  0.89999739791E+02 0.  0.
         12    1    1    2    0    0 -0.73958526881E+00  0.51867201663E+00 -0.76001060214E+00  0.11805181685E+01  0.00000000000E+00 0. -1.
         11    1    3    3    0    0  0.11073748033E+02 -0.30590611328E+01  0.85461784521E+01  0.14318621334E+02  0.51100000000E-03 0. -1.
        -11    1    3    3    0    0  0.15348274565E+02  0.38439210969E+01  0.27678740481E+02  0.31881937463E+02  0.51100000000E-03 0.  1.
         12    1    3    3    0    0 -0.25682437329E+02 -0.13035319807E+01 -0.35464908331E+02  0.43806923034E+02  0.00000000000E+00 0. -1.
</event>
<event>
 7    1  0.4096472E-015  0.9000788E+02  0.7816164E-02  0.1186339E+00
        -11   -1    0    0    0    0  0.00000000000E+00  0.00000000000E+00  0.45593999997E+02  0.45594000000E+02  0.51100000000E-03 0. -1.
         11   -1    0    0    0    0 -0.00000000000E+00 -0.00000000000E+00 -0.45593999997E+02  0.45594000000E+02  0.51100000000E-03 0.  1.
    9900012    2    1    2    0    0 -0.89227796899E+00 -0.66113854829E+00  0.39928388453E+00  0.90007876373E+02  0.90000139541E+02 0.  0.
         12    1    1    2    0    0  0.89227796899E+00  0.66113854829E+00 -0.39928388453E+00  0.11801236268E+01  0.00000000000E+00 0. -1.
         11    1    3    3    0    0 -0.96140602819E+01 -0.27003508017E+01  0.33090084113E+01  0.10520056392E+02  0.51100000000E-03 0. -1.
        -11    1    3    3    0    0  0.19826479521E+02 -0.13173000587E+02 -0.34971165778E+02  0.42303660253E+02  0.51100000000E-03 0.  1.
         12    1    3    3    0    0 -0.11104697208E+02  0.15212212840E+02  0.32061441252E+02  0.37184159728E+02  0.00000000000E+00 0. -1.
</event>
<event>
 7    1  0.4096472E-015  0.9000768E+02  0.7816164E-02  0.1186339E+00
        -11   -1    0    0    0    0  0.00000000000E+00  0.00000000000E+00  0.45593999997E+02  0.45594000000E+02  0.51100000000E-03 0. -1.
         11   -1    0    0    0    0 -0.00000000000E+00 -0.00000000000E+00 -0.45593999997E+02  0.45594000000E+02  0.51100000000E-03 0.  1.
    9900012    2    1    2    0    0  0.82287590005E+00  0.83976255709E+00  0.10400773263E+00  0.90007684996E+02  0.89999945638E+02 0.  0.
         12    1    1    2    0    0 -0.82287590005E+00 -0.83976255709E+00 -0.10400773263E+00  0.11803150036E+01  0.00000000000E+00 0. -1.
         11    1    3    3    0    0 -0.17005162962E+02 -0.19805558129E+02  0.26818177232E+02  0.37425263265E+02  0.51100000000E-03 0. -1.
        -11    1    3    3    0    0 -0.27819460222E+01 -0.74874784895E+01  0.98253599638E+00  0.80477906935E+01  0.51100000000E-03 0.  1.
        -12    1    3    3    0    0  0.20609984885E+02  0.28132799175E+02 -0.27696705495E+02  0.44534631038E+02  0.00000000000E+00 0.  1.
</event>
<event>
 7    1  0.4096472E-015  0.9000813E+02  0.7816164E-02  0.1186338E+00
        -11   -1    0    0    0    0  0.00000000000E+00  0.00000000000E+00  0.45593999997E+02  0.45594000000E+02  0.51100000000E-03 0.  1.
         11   -1    0    0    0    0 -0.00000000000E+00 -0.00000000000E+00 -0.45593999997E+02  0.45594000000E+02  0.51100000000E-03 0. -1.
    9900012    2    1    2    0    0 -0.99819257287E+00  0.61244236213E+00  0.14359332068E+00  0.90008130049E+02  0.90000396565E+02 0.  0.
         12    1    1    2    0    0  0.99819257287E+00 -0.61244236213E+00 -0.14359332068E+00  0.11798699510E+01  0.00000000000E+00 0. -1.
         11    1    3    3    0    0  0.38967089793E+02 -0.13636193440E+02  0.43028430530E+01  0.41507762130E+02  0.51100000000E-03 0. -1.
        -11    1    3    3    0    0 -0.50012439015E+01  0.23244253829E+01 -0.96877214858E+01  0.11147526262E+02  0.51100000000E-03 0.  1.
        -12    1    3    3    0    0 -0.34964038464E+02  0.11924210419E+02  0.55284717535E+01  0.37352841656E+02  0.00000000000E+00 0.  1.
</event>
<event>
 7    1  0.4096472E-015  0.9000774E+02  0.7816164E-02  0.1186339E+00
        -11   -1    0    0    0    0  0.00000000000E+00  0.00000000000E+00  0.45593999997E+02  0.45594000000E+02  0.51100000000E-03 0.  1.
         11   -1    0    0    0    0 -0.00000000000E+00 -0.00000000000E+00 -0.45593999997E+02  0.45594000000E+02  0.51100000000E-03 0. -1.
    9900012    2    1    2    0    0 -0.10001696637E+01 -0.49351903795E+00 -0.38613811386E+00  0.90007744502E+02  0.90000005930E+02 0.  0.
         12    1    1    2    0    0  0.10001696637E+01  0.49351903795E+00  0.38613811386E+00  0.11802554977E+01  0.00000000000E+00 0. -1.
         11    1    3    3    0    0  0.36075740692E+02  0.15807419751E+01  0.13734969253E+02  0.38634274838E+02  0.51100000000E-03 0. -1.
        -11    1    3    3    0    0 -0.90226631203E+00 -0.88725962808E+01  0.46484069532E+01  0.10057073964E+02  0.51100000000E-03 0.  1.
        -12    1    3    3    0    0 -0.36173644043E+02  0.67983352678E+01 -0.18769514320E+02  0.41316395700E+02  0.00000000000E+00 0.  1.
</event>
<event>
 7    1  0.4096472E-015  0.9000763E+02  0.7816164E-02  0.1186339E+00
        -11   -1    0    0    0    0  0.00000000000E+00  0.00000000000E+00  0.45593999997E+02  0.45594000000E+02  0.51100000000E-03 0.  1.
         11   -1    0    0    0    0 -0.00000000000E+00 -0.00000000000E+00 -0.45593999997E+02  0.45594000000E+02  0.51100000000E-03 0. -1.
    9900012    2    1    2    0    0  0.10015171563E+01 -0.56915789393E+00  0.25748142338E+00  0.90007629717E+02  0.89999889629E+02 0.  0.
         12    1    1    2    0    0 -0.10015171563E+01  0.56915789393E+00 -0.25748142338E+00  0.11803702835E+01  0.00000000000E+00 0. -1.
         11    1    3    3    0    0  0.20502993292E+02 -0.31946429909E+02 -0.12258876507E+02  0.39890188911E+02  0.51100000000E-03 0. -1.
        -11    1    3    3    0    0 -0.14712433616E+01  0.10538569053E+01 -0.87428627036E+01  0.89282036222E+01  0.51100000000E-03 0.  1.
        -12    1    3    3    0    0 -0.18030232774E+02  0.30323415110E+02  0.21259220634E+02  0.41189237184E+02  0.00000000000E+00 0.  1.
</event>
<event>
 7    1  0.4096472E-015  0.9000802E+02  0.7816164E-02  0.1186338E+00
        -11   -1    0    0    0    0  0.00000000000E+00  0.00000000000E+00  0.45593999997E+02  0.45594000000E+02  0.51100000000E-03 0.  1.
         11   -1    0    0    0    0 -0.00000000000E+00 -0.00000000000E+00 -0.45593999997E+02  0.45594000000E+02  0.51100000000E-03 0. -1.
    9900012    2    1    2    0    0 -0.89144926986E+00  0.51245401872E+00  0.57884856878E+00  0.90008018395E+02  0.90000283438E+02 0.  0.
         12    1    1    2    0    0  0.89144926986E+00 -0.51245401872E+00 -0.57884856878E+00  0.11799816048E+01  0.00000000000E+00 0. -1.
         11    1    3    3    0    0 -0.19474700014E+02 -0.14943556268E+02  0.29044640832E+02  0.38028475855E+02  0.51100000000E-03 0. -1.
        -11    1    3    3    0    0  0.57540651607E+01 -0.97490513595E+01  0.71379947207E+00  0.11342961616E+02  0.51100000000E-03 0.  1.
        -12    1    3    3    0    0  0.12829185583E+02  0.25205061646E+02 -0.29179591736E+02  0.40636580923E+02  0.00000000000E+00 0.  1.
</event>
<event>
 7    1  0.4096472E-015  0.9000763E+02  0.7816164E-02  0.1186339E+00
        -11   -1    0    0    0    0  0.00000000000E+00  0.00000000000E+00  0.45593999997E+02  0.45594000000E+02  0.51100000000E-03 0. -1.
         11   -1    0    0    0    0 -0.00000000000E+00 -0.00000000000E+00 -0.45593999997E+02  0.45594000000E+02  0.51100000000E-03 0.  1.
    9900012    2    1    2    0    0 -0.11494246864E+01  0.24581515809E+00 -0.10799567502E+00  0.90007633418E+02  0.89999893379E+02 0.  0.
         12    1    1    2    0    0  0.11494246864E+01 -0.24581515809E+00  0.10799567502E+00  0.11803665818E+01  0.00000000000E+00 0. -1.
         11    1    3    3    0    0  0.33803127084E+02 -0.17471423215E+02  0.19945701112E+02  0.42961995100E+02  0.51100000000E-03 0. -1.
        -11    1    3    3    0    0 -0.92548732429E+01 -0.11603525189E+00  0.10468652867E+01  0.93146159401E+01  0.51100000000E-03 0.  1.
        -12    1    3    3    0    0 -0.25697678528E+02  0.17833273625E+02 -0.21100562074E+02  0.37731022378E+02  0.00000000000E+00 0.  1.
</event>
<event>
 7    1  0.5733819E-015  0.9000772E+02  0.7816164E-02  0.1186339E+00
        -11   -1    0    0    0    0  0.00000000000E+00  0.00000000000E+00  0.45593999997E+02  0.45594000000E+02  0.51100000000E-03 0. -1.
         11   -1    0    0    0    0 -0.00000000000E+00 -0.00000000000E+00 -0.45593999997E+02  0.45594000000E+02  0.51100000000E-03 0.  1.
    9900012    2    1    2    0    0 -0.30989497684E+00 -0.88242311009E+00 -0.71996773604E+00  0.90007720803E+02  0.89999981918E+02 0.  0.
         12    1    1    2    0    0  0.30989497684E+00  0.88242311009E+00  0.71996773604E+00  0.11802791970E+01  0.00000000000E+00 0. -1.
         11    1    3    3    0    0  0.19436165368E+02  0.49681750028E+00  0.35836382255E+02  0.40770794022E+02  0.51100000000E-03 0. -1.
        -11    1    3    3    0    0  0.65399335380E+01 -0.13561130954E+01 -0.67577416116E+01  0.95014128086E+01  0.51100000000E-03 0.  1.
        -12    1    3    3    0    0 -0.26285993883E+02 -0.23127514960E-01 -0.29798608379E+02  0.39735513972E+02  0.00000000000E+00 0.  1.
</event>
<event>
 7    1  0.4096472E-015  0.9000774E+02  0.7816164E-02  0.1186339E+00
        -11   -1    0    0    0    0  0.00000000000E+00  0.00000000000E+00  0.45593999997E+02  0.45594000000E+02  0.51100000000E-03 0. -1.
         11   -1    0    0    0    0 -0.00000000000E+00 -0.00000000000E+00 -0.45593999997E+02  0.45594000000E+02  0.51100000000E-03 0.  1.
    9900012    2    1    2    0    0 -0.10643087693E+01 -0.30821095014E+00 -0.40651550202E+00  0.90007744943E+02  0.90000006376E+02 0.  0.
         12    1    1    2    0    0  0.10643087693E+01  0.30821095014E+00  0.40651550202E+00  0.11802550570E+01  0.00000000000E+00 0. -1.
         11    1    3    3    0    0 -0.81039763502E+01  0.29363688552E+01  0.13675094629E+01  0.87273579697E+01  0.51100000000E-03 0. -1.
        -11    1    3    3    0    0 -0.14939451748E+02 -0.36439095010E+02 -0.99898936397E+01  0.40629950023E+02  0.51100000000E-03 0.  1.
         12    1    3    3    0    0  0.21979119329E+02  0.33194515205E+02  0.82158686747E+01  0.40650436950E+02  0.00000000000E+00 0. -1.
</event>
<event>
 7    1  0.4096472E-015  0.9000782E+02  0.7816164E-02  0.1186339E+00
        -11   -1    0    0    0    0  0.00000000000E+00  0.00000000000E+00  0.45593999997E+02  0.45594000000E+02  0.51100000000E-03 0.  1.
         11   -1    0    0    0    0 -0.00000000000E+00 -0.00000000000E+00 -0.45593999997E+02  0.45594000000E+02  0.51100000000E-03 0. -1.
    9900012    2    1    2    0    0  0.62702790030E+00  0.57951415404E-01  0.99815263081E+00  0.90007817375E+02  0.90000079764E+02 0.  0.
         12    1    1    2    0    0 -0.62702790030E+00 -0.57951415404E-01 -0.99815263081E+00  0.11801826251E+01  0.00000000000E+00 0. -1.
         11    1    3    3    0    0 -0.44320213174E+01  0.22750845684E+02 -0.31942013887E+02  0.39465631171E+02  0.51100000000E-03 0. -1.
        -11    1    3    3    0    0  0.64979088924E+01 -0.42007356692E+01 -0.43625239984E+01  0.88826018730E+01  0.51100000000E-03 0.  1.
        -12    1    3    3    0    0 -0.14388596747E+01 -0.18492158600E+02  0.37302690516E+02  0.41659584331E+02  0.00000000000E+00 0.  1.
</event>
<event>
 7    1  0.5115034E-015  0.9000773E+02  0.7816164E-02  0.1186339E+00
        -11   -1    0    0    0    0  0.00000000000E+00  0.00000000000E+00  0.45593999997E+02  0.45594000000E+02  0.51100000000E-03 0. -1.
         11   -1    0    0    0    0 -0.00000000000E+00 -0.00000000000E+00 -0.45593999997E+02  0.45594000000E+02  0.51100000000E-03 0.  1.
    9900012    2    1    2    0    0  0.13483309783E-01 -0.25903618932E+00 -0.11514184135E+01  0.90007726341E+02  0.89999987529E+02 0.  0.
         12    1    1    2    0    0 -0.13483309783E-01  0.25903618932E+00  0.11514184135E+01  0.11802736590E+01  0.00000000000E+00 0. -1.
         11    1    3    3    0    0  0.71864492302E+01 -0.63368504034E+01 -0.11818183605E+01  0.96538811093E+01  0.51100000000E-03 0. -1.
        -11    1    3    3    0    0 -0.21595852351E+02 -0.25152535254E+02 -0.21739713750E+02  0.39643991003E+02  0.51100000000E-03 0.  1.
         12    1    3    3    0    0  0.14422886431E+02  0.31230349468E+02  0.21770113697E+02  0.40709854228E+02  0.00000000000E+00 0. -1.
</event>
<event>
 7    1  0.4096472E-015  0.9000773E+02  0.7816164E-02  0.1186339E+00
        -11   -1    0    0    0    0  0.00000000000E+00  0.00000000000E+00  0.45593999997E+02  0.45594000000E+02  0.51100000000E-03 0.  1.
         11   -1    0    0    0    0 -0.00000000000E+00 -0.00000000000E+00 -0.45593999997E+02  0.45594000000E+02  0.51100000000E-03 0. -1.
    9900012    2    1    2    0    0 -0.10132307968E+01  0.58516640167E+00 -0.15488636577E+00  0.90007726239E+02  0.89999987425E+02 0.  0.
         12    1    1    2    0    0  0.10132307968E+01 -0.58516640167E+00  0.15488636577E+00  0.11802737612E+01  0.00000000000E+00 0. -1.
         11    1    3    3    0    0 -0.67129994350E+01  0.30023139191E+02 -0.17291247941E+02  0.35290799140E+02  0.51100000000E-03 0. -1.
        -11    1    3    3    0    0 -0.70237140823E+01  0.21291892659E+01 -0.91378483032E+01  0.11720336101E+02  0.51100000000E-03 0.  1.
        -12    1    3    3    0    0  0.12723482721E+02 -0.31567162055E+02  0.26274209878E+02  0.42996590998E+02  0.00000000000E+00 0.  1.
</event>
<event>
 7    1  0.4096472E-015  0.9000786E+02  0.7816164E-02  0.1186339E+00
        -11   -1    0    0    0    0  0.00000000000E+00  0.00000000000E+00  0.45593999997E+02  0.45594000000E+02  0.51100000000E-03 0.  1.
         11   -1    0    0    0    0 -0.00000000000E+00 -0.00000000000E+00 -0.45593999997E+02  0.45594000000E+02  0.51100000000E-03 0. -1.
    9900012    2    1    2    0    0 -0.62638308185E+00  0.27090734462E+00  0.96279708473E+00  0.90007862389E+02  0.90000125372E+02 0.  0.
         12    1    1    2    0    0  0.62638308185E+00 -0.27090734462E+00 -0.96279708473E+00  0.11801376110E+01  0.00000000000E+00 0. -1.
         11    1    3    3    0    0 -0.55792225841E+01  0.15581373570E+02 -0.32156642157E+02  0.36165682104E+02  0.51100000000E-03 0. -1.
        -11    1    3    3    0    0  0.77646098655E+01  0.10096572993E+02  0.97691210631E+00  0.12774361436E+02  0.51100000000E-03 0.  1.
        -12    1    3    3    0    0 -0.28117703632E+01 -0.25407039218E+02  0.32142527135E+02  0.41067818849E+02  0.00000000000E+00 0.  1.
</event>
<event>
 7    1  0.4096472E-015  0.9000771E+02  0.7816164E-02  0.1186339E+00
        -11   -1    0    0    0    0  0.00000000000E+00  0.00000000000E+00  0.45593999997E+02  0.45594000000E+02  0.51100000000E-03 0.  1.
         11   -1    0    0    0    0 -0.00000000000E+00 -0.00000000000E+00 -0.45593999997E+02  0.45594000000E+02  0.51100000000E-03 0. -1.
    9900012    2    1    2    0    0 -0.55790065112E+00 -0.10357133146E+01 -0.95602362669E-01  0.90007705537E+02  0.89999966451E+02 0.  0.
         12    1    1    2    0    0  0.55790065112E+00  0.10357133146E+01  0.95602362669E-01  0.11802944626E+01  0.00000000000E+00 0. -1.
         11    1    3    3    0    0 -0.50122030431E+01 -0.39027302848E+02  0.38233913685E+01  0.39533161634E+02  0.51100000000E-03 0. -1.
        -11    1    3    3    0    0 -0.21378369839E+01 -0.56287639024E+01 -0.18959401418E+01  0.63125208373E+01  0.51100000000E-03 0.  1.
        -12    1    3    3    0    0  0.65921393759E+01  0.43620353436E+02 -0.20230535894E+01  0.44162023066E+02  0.00000000000E+00 0.  1.
</event>
<event>
 7    1  0.4096472E-015  0.9000769E+02  0.7816164E-02  0.1186339E+00
        -11   -1    0    0    0    0  0.00000000000E+00  0.00000000000E+00  0.45593999997E+02  0.45594000000E+02  0.51100000000E-03 0. -1.
         11   -1    0    0    0    0 -0.00000000000E+00 -0.00000000000E+00 -0.45593999997E+02  0.45594000000E+02  0.51100000000E-03 0.  1.
    9900012    2    1    2    0    0 -0.92702411172E+00  0.72770305503E+00  0.64859994943E-01  0.90007689762E+02  0.89999950466E+02 0.  0.
         12    1    1    2    0    0  0.92702411172E+00 -0.72770305503E+00 -0.64859994943E-01  0.11803102384E+01  0.00000000000E+00 0. -1.
         11    1    3    3    0    0  0.35374572237E+02  0.74382922657E+01 -0.40477958832E+01  0.36374073247E+02  0.51100000000E-03 0. -1.
        -11    1    3    3    0    0  0.68883202046E+01  0.53725516255E-01 -0.55688579829E+01  0.88579919376E+01  0.51100000000E-03 0.  1.
        -12    1    3    3    0    0 -0.43189916554E+02 -0.67643147270E+01  0.96815138611E+01  0.44775624577E+02  0.00000000000E+00 0.  1.
</event>
<event>
 7    1  0.4096472E-015  0.9000712E+02  0.7816164E-02  0.1186340E+00
        -11   -1    0    0    0    0  0.00000000000E+00  0.00000000000E+00  0.45593999997E+02  0.45594000000E+02  0.51100000000E-03 0.  1.
         11   -1    0    0    0    0 -0.00000000000E+00 -0.00000000000E+00 -0.45593999997E+02  0.45594000000E+02  0.51100000000E-03 0. -1.
    9900012    2    1    2    0    0  0.28531638840E+00  0.11383752544E+01 -0.13103583979E+00  0.90007121491E+02  0.89999374693E+02 0.  0.
         12    1    1    2    0    0 -0.28531638840E+00 -0.11383752544E+01  0.13103583979E+00  0.11808785088E+01  0.00000000000E+00 0. -1.
         11    1    3    3    0    0 -0.18324234330E+02 -0.19741518413E+02 -0.29498171992E+02  0.39945553747E+02  0.51100000000E-03 0. -1.
        -11    1    3    3    0    0 -0.53446566801E+01 -0.27257366324E+01  0.87661050336E+01  0.10622598220E+02  0.51100000000E-03 0.  1.
        -12    1    3    3    0    0  0.23954207398E+02  0.23605630300E+02  0.20601031119E+02  0.39438969524E+02  0.00000000000E+00 0.  1.
</event>
<event>
 7    1  0.4096472E-015  0.9000776E+02  0.7816164E-02  0.1186339E+00
        -11   -1    0    0    0    0  0.00000000000E+00  0.00000000000E+00  0.45593999997E+02  0.45594000000E+02  0.51100000000E-03 0. -1.
         11   -1    0    0    0    0 -0.00000000000E+00 -0.00000000000E+00 -0.45593999997E+02  0.45594000000E+02  0.51100000000E-03 0.  1.
    9900012    2    1    2    0    0  0.95182530352E+00  0.63285130011E+00 -0.29409285642E+00  0.90007761556E+02  0.90000023209E+02 0.  0.
         12    1    1    2    0    0 -0.95182530352E+00 -0.63285130011E+00  0.29409285642E+00  0.11802384440E+01  0.00000000000E+00 0. -1.
         11    1    3    3    0    0  0.21902806404E+01  0.29752530575E+01 -0.92751806676E+01  0.99839088897E+01  0.51100000000E-03 0. -1.
        -11    1    3    3    0    0 -0.10179168242E+02  0.55375679815E+01 -0.33738501357E+02  0.35673051444E+02  0.51100000000E-03 0.  1.
         12    1    3    3    0    0  0.89407129046E+01 -0.78799697388E+01  0.42719589168E+02  0.44350801222E+02  0.00000000000E+00 0. -1.
</event>
<event>
 7    1  0.4096472E-015  0.9000766E+02  0.7816164E-02  0.1186339E+00
        -11   -1    0    0    0    0  0.00000000000E+00  0.00000000000E+00  0.45593999997E+02  0.45594000000E+02  0.51100000000E-03 0.  1.
         11   -1    0    0    0    0 -0.00000000000E+00 -0.00000000000E+00 -0.45593999997E+02  0.45594000000E+02  0.51100000000E-03 0. -1.
    9900012    2    1    2    0    0  0.10860020776E+01 -0.37057303735E+00 -0.27655218440E+00  0.90007658524E+02  0.89999918817E+02 0.  0.
         12    1    1    2    0    0 -0.10860020776E+01  0.37057303735E+00  0.27655218440E+00  0.11803414757E+01  0.00000000000E+00 0. -1.
         11    1    3    3    0    0 -0.25304894568E+02 -0.10457113893E+02 -0.24937778792E+02  0.37034871829E+02  0.51100000000E-03 0. -1.
        -11    1    3    3    0    0  0.25632262714E+00 -0.21064478516E+01 -0.86533960512E+01  0.89097748187E+01  0.51100000000E-03 0.  1.
        -12    1    3    3    0    0  0.26134574018E+02  0.12192988707E+02  0.33314622659E+02  0.44063011876E+02  0.00000000000E+00 0.  1.
</event>
<event>
 7    1  0.4096472E-015  0.9000771E+02  0.7816164E-02  0.1186339E+00
        -11   -1    0    0    0    0  0.00000000000E+00  0.00000000000E+00  0.45593999997E+02  0.45594000000E+02  0.51100000000E-03 0.  1.
         11   -1    0    0    0    0 -0.00000000000E+00 -0.00000000000E+00 -0.45593999997E+02  0.45594000000E+02  0.51100000000E-03 0. -1.
    9900012    2    1    2    0    0  0.68010190691E+00 -0.51393055494E+00  0.81635020581E+00  0.90007707292E+02  0.89999968228E+02 0.  0.
         12    1    1    2    0    0 -0.68010190691E+00  0.51393055494E+00 -0.81635020581E+00  0.11802927084E+01  0.00000000000E+00 0. -1.
         11    1    3    3    0    0  0.18613265252E+02 -0.70320580294E+01 -0.15246408407E+02  0.25067039176E+02  0.51100000000E-03 0. -1.
        -11    1    3    3    0    0  0.90382824995E+01 -0.21180354385E+02  0.12272840966E+02  0.26094455120E+02  0.51100000000E-03 0.  1.
         12    1    3    3    0    0 -0.26971445845E+02  0.27698481859E+02  0.37899176475E+01  0.38846212995E+02  0.00000000000E+00 0. -1.
</event>
<event>
 7    1  0.4096472E-015  0.9000762E+02  0.7816164E-02  0.1186339E+00
        -11   -1    0    0    0    0  0.00000000000E+00  0.00000000000E+00  0.45593999997E+02  0.45594000000E+02  0.51100000000E-03 0.  1.
         11   -1    0    0    0    0 -0.00000000000E+00 -0.00000000000E+00 -0.45593999997E+02  0.45594000000E+02  0.51100000000E-03 0. -1.
    9900012    2    1    2    0    0  0.31379995471E+00  0.35252930890E+00  0.10819200356E+01  0.90007619431E+02  0.89999879207E+02 0.  0.
         12    1    1    2    0    0 -0.31379995471E+00 -0.35252930890E+00 -0.10819200356E+01  0.11803805694E+01  0.00000000000E+00 0. -1.
         11    1    3    3    0    0  0.75099192269E+01 -0.30204690716E+01  0.68118567103E+01  0.10579390923E+02  0.51100000000E-03 0. -1.
        -11    1    3    3    0    0  0.25508563265E+02  0.14209094623E+02  0.20879079298E+02  0.35895976410E+02  0.51100000000E-03 0.  1.
         12    1    3    3    0    0 -0.32704682537E+02 -0.10836096243E+02 -0.26609015973E+02  0.43532252097E+02  0.00000000000E+00 0. -1.
</event>
<event>
 7    1  0.4096472E-015  0.9000772E+02  0.7816164E-02  0.1186339E+00
        -11   -1    0    0    0    0  0.00000000000E+00  0.00000000000E+00  0.45593999997E+02  0.45594000000E+02  0.51100000000E-03 0. -1.
         11   -1    0    0    0    0 -0.00000000000E+00 -0.00000000000E+00 -0.45593999997E+02  0.45594000000E+02  0.51100000000E-03 0.  1.
    9900012    2    1    2    0    0 -0.10515189018E+01 -0.53542160854E+00  0.26397366869E-01  0.90007718203E+02  0.89999979283E+02 0.  0.
         12    1    1    2    0    0  0.10515189018E+01  0.53542160854E+00 -0.26397366869E-01  0.11802817972E+01  0.00000000000E+00 0. -1.
         11    1    3    3    0    0 -0.76338981045E+01 -0.45404713566E+01 -0.34798566292E+01  0.95394802181E+01  0.51100000000E-03 0. -1.
        -11    1    3    3    0    0 -0.23878268382E+02  0.29709658141E+02  0.11509108837E+02  0.39815764142E+02  0.51100000000E-03 0.  1.
         12    1    3    3    0    0  0.30460647584E+02 -0.25704608393E+02 -0.80028548407E+01  0.40652473842E+02  0.00000000000E+00 0. -1.
</event>
<event>
 7    1  0.4096472E-015  0.9000765E+02  0.7816164E-02  0.1186339E+00
        -11   -1    0    0    0    0  0.00000000000E+00  0.00000000000E+00  0.45593999997E+02  0.45594000000E+02  0.51100000000E-03 0.  1.
         11   -1    0    0    0    0 -0.00000000000E+00 -0.00000000000E+00 -0.45593999997E+02  0.45594000000E+02  0.51100000000E-03 0. -1.
    9900012    2    1    2    0    0  0.41384286896E+00 -0.10285287101E+01 -0.40507782801E+00  0.90007650359E+02  0.89999910544E+02 0.  0.
         12    1    1    2    0    0 -0.41384286896E+00  0.10285287101E+01  0.40507782801E+00  0.11803496408E+01  0.00000000000E+00 0. -1.
         11    1    3    3    0    0  0.90489862012E+01 -0.44291608090E+01  0.55548920551E+00  0.10090103332E+02  0.51100000000E-03 0. -1.
        -11    1    3    3    0    0 -0.22741602980E+02 -0.19996846977E+02  0.27183208388E+02  0.40693749073E+02  0.51100000000E-03 0.  1.
         12    1    3    3    0    0  0.14106459648E+02  0.23397479076E+02 -0.28143775422E+02  0.39223797953E+02  0.00000000000E+00 0. -1.
</event>
<event>
 7    1  0.4096472E-015  0.9000775E+02  0.7816164E-02  0.1186339E+00
        -11   -1    0    0    0    0  0.00000000000E+00  0.00000000000E+00  0.45593999997E+02  0.45594000000E+02  0.51100000000E-03 0.  1.
         11   -1    0    0    0    0 -0.00000000000E+00 -0.00000000000E+00 -0.45593999997E+02  0.45594000000E+02  0.51100000000E-03 0. -1.
    9900012    2    1    2    0    0  0.41336557689E+00  0.84797178530E+00  0.70926850394E+00  0.90007750425E+02  0.90000011931E+02 0.  0.
         12    1    1    2    0    0 -0.41336557689E+00 -0.84797178530E+00 -0.70926850394E+00  0.11802495751E+01  0.00000000000E+00 0. -1.
         11    1    3    3    0    0 -0.88662199278E-01  0.11874031711E+01  0.91550531758E+01  0.92321604292E+01  0.51100000000E-03 0. -1.
        -11    1    3    3    0    0  0.34658593614E+02 -0.17647597439E+02  0.69425060263E+01  0.39507647321E+02  0.51100000000E-03 0.  1.
         12    1    3    3    0    0 -0.34156565838E+02  0.17308166053E+02 -0.15388290698E+02  0.41267942674E+02  0.00000000000E+00 0. -1.
</event>
<event>
 7    1  0.4096472E-015  0.9000765E+02  0.7816164E-02  0.1186339E+00
        -11   -1    0    0    0    0  0.00000000000E+00  0.00000000000E+00  0.45593999997E+02  0.45594000000E+02  0.51100000000E-03 0. -1.
         11   -1    0    0    0    0 -0.00000000000E+00 -0.00000000000E+00 -0.45593999997E+02  0.45594000000E+02  0.51100000000E-03 0.  1.
    9900012    2    1    2    0    0 -0.12785547114E-01 -0.59175466846E+00 -0.10212244569E+01  0.90007645626E+02  0.89999905748E+02 0.  0.
         12    1    1    2    0    0  0.12785547114E-01  0.59175466846E+00  0.10212244569E+01  0.11803543744E+01  0.00000000000E+00 0. -1.
         11    1    3    3    0    0 -0.10826140937E+02 -0.98646502911E+01  0.39207494766E+02  0.41853844496E+02  0.51100000000E-03 0. -1.
        -11    1    3    3    0    0 -0.62170190319E+01 -0.13917468660E+01 -0.98569881009E+01  0.11736630678E+02  0.51100000000E-03 0.  1.
        -12    1    3    3    0    0  0.17030374422E+02  0.10664642489E+02 -0.30371731122E+02  0.36417170452E+02  0.00000000000E+00 0.  1.
</event>
<event>
 7    1  0.4096472E-015  0.9000783E+02  0.7816164E-02  0.1186339E+00
        -11   -1    0    0    0    0  0.00000000000E+00  0.00000000000E+00  0.45593999997E+02  0.45594000000E+02  0.51100000000E-03 0.  1.
         11   -1    0    0    0    0 -0.00000000000E+00 -0.00000000000E+00 -0.45593999997E+02  0.45594000000E+02  0.51100000000E-03 0. -1.
    9900012    2    1    2    0    0  0.41039929633E+00 -0.91063801920E-01  0.11027554343E+01  0.90007834865E+02  0.90000097485E+02 0.  0.
         12    1    1    2    0    0 -0.41039929633E+00  0.91063801920E-01 -0.11027554343E+01  0.11801651352E+01  0.00000000000E+00 0. -1.
         11    1    3    3    0    0  0.57245222992E+00 -0.79639127227E+01  0.43357245271E+01  0.90857093749E+01  0.51100000000E-03 0. -1.
        -11    1    3    3    0    0  0.33764470624E+02 -0.17558047977E+02 -0.55484108189E+01  0.38459191205E+02  0.51100000000E-03 0.  1.
         12    1    3    3    0    0 -0.33926523557E+02  0.25430896898E+02  0.23154417261E+01  0.42462934285E+02  0.00000000000E+00 0. -1.
</event>
<event>
 7    1  0.4096472E-015  0.9000775E+02  0.7816164E-02  0.1186339E+00
        -11   -1    0    0    0    0  0.00000000000E+00  0.00000000000E+00  0.45593999997E+02  0.45594000000E+02  0.51100000000E-03 0.  1.
         11   -1    0    0    0    0 -0.00000000000E+00 -0.00000000000E+00 -0.45593999997E+02  0.45594000000E+02  0.51100000000E-03 0. -1.
    9900012    2    1    2    0    0  0.65071846842E+00  0.43045472377E-01  0.98372417648E+00  0.90007745496E+02  0.90000006937E+02 0.  0.
         12    1    1    2    0    0 -0.65071846842E+00 -0.43045472377E-01 -0.98372417648E+00  0.11802545036E+01  0.00000000000E+00 0. -1.
         11    1    3    3    0    0 -0.57676068658E+01 -0.44847017386E+01  0.55492621833E+01  0.91745381182E+01  0.51100000000E-03 0. -1.
        -11    1    3    3    0    0 -0.19997965837E+02 -0.56297270731E+01  0.29791644721E+02  0.36320167400E+02  0.51100000000E-03 0.  1.
         12    1    3    3    0    0  0.26416291172E+02  0.10157474284E+02 -0.34357182728E+02  0.44513039978E+02  0.00000000000E+00 0. -1.
</event>
<event>
 7    1  0.4096472E-015  0.9000777E+02  0.7816164E-02  0.1186339E+00
        -11   -1    0    0    0    0  0.00000000000E+00  0.00000000000E+00  0.45593999997E+02  0.45594000000E+02  0.51100000000E-03 0.  1.
         11   -1    0    0    0    0 -0.00000000000E+00 -0.00000000000E+00 -0.45593999997E+02  0.45594000000E+02  0.51100000000E-03 0. -1.
    9900012    2    1    2    0    0  0.52763322460E+00 -0.96564625158E+00  0.42670897029E+00  0.90007766952E+02  0.90000028675E+02 0.  0.
         12    1    1    2    0    0 -0.52763322460E+00  0.96564625158E+00 -0.42670897029E+00  0.11802330483E+01  0.00000000000E+00 0. -1.
         11    1    3    3    0    0 -0.37109001914E+01  0.21433356908E+00  0.78268211219E+01  0.86646320317E+01  0.51100000000E-03 0. -1.
        -11    1    3    3    0    0 -0.12636164633E+02 -0.30991404482E+02  0.18643849338E+02  0.38311002686E+02  0.51100000000E-03 0.  1.
         12    1    3    3    0    0  0.16874698049E+02  0.29811424662E+02 -0.26043961489E+02  0.43032132234E+02  0.00000000000E+00 0. -1.
</event>
<event>
 7    1  0.4096472E-015  0.9000765E+02  0.7816164E-02  0.1186339E+00
        -11   -1    0    0    0    0  0.00000000000E+00  0.00000000000E+00  0.45593999997E+02  0.45594000000E+02  0.51100000000E-03 0. -1.
         11   -1    0    0    0    0 -0.00000000000E+00 -0.00000000000E+00 -0.45593999997E+02  0.45594000000E+02  0.51100000000E-03 0.  1.
    9900012    2    1    2    0    0  0.21761067633E+00  0.69528730610E+00 -0.92868267069E+00  0.90007648210E+02  0.89999908367E+02 0.  0.
         12    1    1    2    0    0 -0.21761067633E+00 -0.69528730610E+00  0.92868267069E+00  0.11803517897E+01  0.00000000000E+00 0. -1.
         11    1    3    3    0    0  0.10076079149E+02  0.85267813840E+01 -0.80104579070E+01  0.15440233416E+02  0.51100000000E-03 0. -1.
        -11    1    3    3    0    0  0.27073300443E+02  0.54324712916E+01  0.19043990962E+02  0.33543239755E+02  0.51100000000E-03 0.  1.
         12    1    3    3    0    0 -0.36931768916E+02 -0.13263965369E+02 -0.11962215726E+02  0.41024175040E+02  0.00000000000E+00 0. -1.
</event>
<event>
 7    1  0.4096472E-015  0.9000781E+02  0.7816164E-02  0.1186339E+00
        -11   -1    0    0    0    0  0.00000000000E+00  0.00000000000E+00  0.45593999997E+02  0.45594000000E+02  0.51100000000E-03 0.  1.
         11   -1    0    0    0    0 -0.00000000000E+00 -0.00000000000E+00 -0.45593999997E+02  0.45594000000E+02  0.51100000000E-03 0. -1.
    9900012    2    1    2    0    0  0.66761624092E+00 -0.34278718146E+00  0.91084838144E+00  0.90007805410E+02  0.90000067641E+02 0.  0.
         12    1    1    2    0    0 -0.66761624092E+00  0.34278718146E+00 -0.91084838144E+00  0.11801945903E+01  0.00000000000E+00 0. -1.
         11    1    3    3    0    0  0.15710722066E+02 -0.37883832022E+02 -0.10573553655E+02  0.42353412538E+02  0.51100000000E-03 0. -1.
        -11    1    3    3    0    0  0.56057361915E+01  0.72134653032E+01 -0.23448654397E+00  0.91385635704E+01  0.51100000000E-03 0.  1.
        -12    1    3    3    0    0 -0.20648842016E+02  0.30327579537E+02  0.11718888580E+02  0.38515829301E+02  0.00000000000E+00 0.  1.
</event>
<event>
 7    1  0.4096472E-015  0.9000881E+02  0.7816164E-02  0.1186337E+00
        -11   -1    0    0    0    0  0.00000000000E+00  0.00000000000E+00  0.45593999997E+02  0.45594000000E+02  0.51100000000E-03 0.  1.
         11   -1    0    0    0    0 -0.00000000000E+00 -0.00000000000E+00 -0.45593999997E+02  0.45594000000E+02  0.51100000000E-03 0. -1.
    9900012    2    1    2    0    0 -0.25315948820E+00 -0.97317654601E+00 -0.61590163590E+00  0.90008806572E+02  0.90001082012E+02 0.  0.
         12    1    1    2    0    0  0.25315948820E+00  0.97317654601E+00  0.61590163590E+00  0.11791934283E+01  0.00000000000E+00 0. -1.
         11    1    3    3    0    0  0.65135445851E+01 -0.68215340875E+01 -0.17340874163E+01  0.95899243895E+01  0.51100000000E-03 0. -1.
        -11    1    3    3    0    0  0.34915155039E+02  0.79124628568E+01  0.11150967606E+02  0.37496922523E+02  0.51100000000E-03 0.  1.
         12    1    3    3    0    0 -0.41681859113E+02 -0.20641053154E+01 -0.10032781826E+02  0.42921959659E+02  0.00000000000E+00 0. -1.
</event>
<event>
 7    1  0.4096472E-015  0.9000810E+02  0.7816164E-02  0.1186338E+00
        -11   -1    0    0    0    0  0.00000000000E+00  0.00000000000E+00  0.45593999997E+02  0.45594000000E+02  0.51100000000E-03 0.  1.
         11   -1    0    0    0    0 -0.00000000000E+00 -0.00000000000E+00 -0.45593999997E+02  0.45594000000E+02  0.51100000000E-03 0. -1.
    9900012    2    1    2    0    0  0.19557372598E+00 -0.11116100726E+01  0.34384361181E+00  0.90008104045E+02  0.90000370217E+02 0.  0.
         12    1    1    2    0    0 -0.19557372598E+00  0.11116100726E+01 -0.34384361181E+00  0.11798959552E+01  0.00000000000E+00 0. -1.
         11    1    3    3    0    0  0.78816828998E+01  0.56071203189E+01 -0.30986027733E+00  0.96776410998E+01  0.51100000000E-03 0. -1.
        -11    1    3    3    0    0 -0.62049382731E+01  0.35131045503E+02  0.10740978981E+02  0.37256680566E+02  0.51100000000E-03 0.  1.
         12    1    3    3    0    0 -0.14811709007E+01 -0.41849775894E+02 -0.10087275092E+02  0.43073782379E+02  0.00000000000E+00 0. -1.
</event>
<event>
 7    1  0.4096472E-015  0.9000773E+02  0.7816164E-02  0.1186339E+00
        -11   -1    0    0    0    0  0.00000000000E+00  0.00000000000E+00  0.45593999997E+02  0.45594000000E+02  0.51100000000E-03 0.  1.
         11   -1    0    0    0    0 -0.00000000000E+00 -0.00000000000E+00 -0.45593999997E+02  0.45594000000E+02  0.51100000000E-03 0. -1.
    9900012    2    1    2    0    0  0.10853919469E+01 -0.24711017772E+00  0.39231061644E+00  0.90007725990E+02  0.89999987173E+02 0.  0.
         12    1    1    2    0    0 -0.10853919469E+01  0.24711017772E+00 -0.39231061644E+00  0.11802740098E+01  0.00000000000E+00 0. -1.
         11    1    3    3    0    0 -0.26360118259E+02  0.10669567528E+02 -0.26764483560E+02  0.39051672005E+02  0.51100000000E-03 0. -1.
        -11    1    3    3    0    0 -0.15244307343E+01 -0.86914086902E+01 -0.27662970715E+01  0.92475333918E+01  0.51100000000E-03 0.  1.
        -12    1    3    3    0    0  0.28969940940E+02 -0.22252690153E+01  0.29923091248E+02  0.41708520594E+02  0.00000000000E+00 0.  1.
</event>
<event>
 7    1  0.4096472E-015  0.9000771E+02  0.7816164E-02  0.1186339E+00
        -11   -1    0    0    0    0  0.00000000000E+00  0.00000000000E+00  0.45593999997E+02  0.45594000000E+02  0.51100000000E-03 0.  1.
         11   -1    0    0    0    0 -0.00000000000E+00 -0.00000000000E+00 -0.45593999997E+02  0.45594000000E+02  0.51100000000E-03 0. -1.
    9900012    2    1    2    0    0  0.53416731520E+00  0.80489099464E+00 -0.67816426693E+00  0.90007707237E+02  0.89999968172E+02 0.  0.
         12    1    1    2    0    0 -0.53416731520E+00 -0.80489099464E+00  0.67816426693E+00  0.11802927632E+01  0.00000000000E+00 0. -1.
         11    1    3    3    0    0  0.25824726520E+02  0.23262995478E+02 -0.13373267680E+02  0.37241478852E+02  0.51100000000E-03 0. -1.
        -11    1    3    3    0    0  0.39919484173E+01  0.77323946538E+01  0.49146292632E+01  0.99939561888E+01  0.51100000000E-03 0.  1.
        -12    1    3    3    0    0 -0.29282507622E+02 -0.30190499137E+02  0.77804741496E+01  0.42772272195E+02  0.00000000000E+00 0.  1.
</event>
<event>
 7    1  0.4096472E-015  0.9000767E+02  0.7816164E-02  0.1186339E+00
        -11   -1    0    0    0    0  0.00000000000E+00  0.00000000000E+00  0.45593999997E+02  0.45594000000E+02  0.51100000000E-03 0.  1.
         11   -1    0    0    0    0 -0.00000000000E+00 -0.00000000000E+00 -0.45593999997E+02  0.45594000000E+02  0.51100000000E-03 0. -1.
    9900012    2    1    2    0    0  0.10899111036E+01 -0.41716542012E+00  0.17678957760E+00  0.90007666252E+02  0.89999926647E+02 0.  0.
         12    1    1    2    0    0 -0.10899111036E+01  0.41716542012E+00 -0.17678957760E+00  0.11803337478E+01  0.00000000000E+00 0. -1.
         11    1    3    3    0    0 -0.24661553277E+01 -0.54703212695E+01  0.39378770542E+01  0.71772705708E+01  0.51100000000E-03 0. -1.
        -11    1    3    3    0    0 -0.35946467607E+01 -0.55444175643E+01  0.38301800506E+02  0.38867595420E+02  0.51100000000E-03 0.  1.
         12    1    3    3    0    0  0.71507131919E+01  0.10597573414E+02 -0.42062887983E+02  0.43962800262E+02  0.00000000000E+00 0. -1.
</event>
<event>
 7    1  0.4096472E-015  0.9000778E+02  0.7816164E-02  0.1186339E+00
        -11   -1    0    0    0    0  0.00000000000E+00  0.00000000000E+00  0.45593999997E+02  0.45594000000E+02  0.51100000000E-03 0. -1.
         11   -1    0    0    0    0 -0.00000000000E+00 -0.00000000000E+00 -0.45593999997E+02  0.45594000000E+02  0.51100000000E-03 0.  1.
    9900012    2    1    2    0    0 -0.28885070700E+00 -0.78296616616E+00 -0.83454065094E+00  0.90007775934E+02  0.90000037776E+02 0.  0.
         12    1    1    2    0    0  0.28885070700E+00  0.78296616616E+00  0.83454065094E+00  0.11802240662E+01  0.00000000000E+00 0. -1.
         11    1    3    3    0    0  0.37213453069E+01 -0.82817299300E+01 -0.30156205203E+01  0.95671013849E+01  0.51100000000E-03 0. -1.
        -11    1    3    3    0    0  0.92713348678E+01 -0.27350161709E+02 -0.21728639634E+02  0.36140320646E+02  0.51100000000E-03 0.  1.
         12    1    3    3    0    0 -0.13281530882E+02  0.34848925473E+02  0.23909719504E+02  0.44300353903E+02  0.00000000000E+00 0. -1.
</event>
<event>
 7    1  0.4096472E-015  0.9000811E+02  0.7816164E-02  0.1186338E+00
        -11   -1    0    0    0    0  0.00000000000E+00  0.00000000000E+00  0.45593999997E+02  0.45594000000E+02  0.51100000000E-03 0.  1.
         11   -1    0    0    0    0 -0.00000000000E+00 -0.00000000000E+00 -0.45593999997E+02  0.45594000000E+02  0.51100000000E-03 0. -1.
    9900012    2    1    2    0    0 -0.57420455524E+00  0.29733438888E+00  0.98692991784E+00  0.90008106245E+02  0.90000372447E+02 0.  0.
         12    1    1    2    0    0  0.57420455524E+00 -0.29733438888E+00 -0.98692991784E+00  0.11798937549E+01  0.00000000000E+00 0. -1.
         11    1    3    3    0    0  0.29050569849E+02  0.26838635096E+02  0.24208964235E+01  0.39624596933E+02  0.51100000000E-03 0. -1.
        -11    1    3    3    0    0  0.53479770751E+01 -0.44375613337E+01  0.49356995852E+01  0.85237280601E+01  0.51100000000E-03 0.  1.
        -12    1    3    3    0    0 -0.34972751479E+02 -0.22103739374E+02 -0.63696660909E+01  0.41859781252E+02  0.00000000000E+00 0.  1.
</event>
<event>
 7    1  0.4096472E-015  0.9000771E+02  0.7816164E-02  0.1186339E+00
        -11   -1    0    0    0    0  0.00000000000E+00  0.00000000000E+00  0.45593999997E+02  0.45594000000E+02  0.51100000000E-03 0.  1.
         11   -1    0    0    0    0 -0.00000000000E+00 -0.00000000000E+00 -0.45593999997E+02  0.45594000000E+02  0.51100000000E-03 0. -1.
    9900012    2    1    2    0    0  0.78938633246E+00  0.34177177288E+00  0.80817806118E+00  0.90007707449E+02  0.89999968388E+02 0.  0.
         12    1    1    2    0    0 -0.78938633246E+00 -0.34177177288E+00 -0.80817806118E+00  0.11802925507E+01  0.00000000000E+00 0. -1.
         11    1    3    3    0    0 -0.10781599056E+02 -0.22747600623E+02 -0.76411434313E+01  0.26307475849E+02  0.51100000000E-03 0. -1.
        -11    1    3    3    0    0 -0.13012635030E+02 -0.74337360305E+01  0.17939557312E+02  0.23375560284E+02  0.51100000000E-03 0.  1.
        -12    1    3    3    0    0  0.24583620418E+02  0.30523108427E+02 -0.94902358193E+01  0.40324671317E+02  0.00000000000E+00 0.  1.
</event>
<event>
 7    1  0.4096472E-015  0.9000777E+02  0.7816164E-02  0.1186339E+00
        -11   -1    0    0    0    0  0.00000000000E+00  0.00000000000E+00  0.45593999997E+02  0.45594000000E+02  0.51100000000E-03 0.  1.
         11   -1    0    0    0    0 -0.00000000000E+00 -0.00000000000E+00 -0.45593999997E+02  0.45594000000E+02  0.51100000000E-03 0. -1.
    9900012    2    1    2    0    0 -0.97790097777E-01  0.50787531490E-01  0.11750784549E+01  0.90007766272E+02  0.90000027987E+02 0.  0.
         12    1    1    2    0    0  0.97790097777E-01 -0.50787531490E-01 -0.11750784549E+01  0.11802337276E+01  0.00000000000E+00 0. -1.
         11    1    3    3    0    0 -0.49293420323E+01 -0.83635974230E+01  0.38253978243E+01  0.10434646304E+02  0.51100000000E-03 0. -1.
        -11    1    3    3    0    0  0.28336928918E+02 -0.24477032057E+02  0.67976045035E+01  0.38056721694E+02  0.51100000000E-03 0.  1.
         12    1    3    3    0    0 -0.23505376983E+02  0.32891417012E+02 -0.94479238729E+01  0.41516398274E+02  0.00000000000E+00 0. -1.
</event>
<event>
 7    1  0.4096472E-015  0.9000787E+02  0.7816164E-02  0.1186339E+00
        -11   -1    0    0    0    0  0.00000000000E+00  0.00000000000E+00  0.45593999997E+02  0.45594000000E+02  0.51100000000E-03 0. -1.
         11   -1    0    0    0    0 -0.00000000000E+00 -0.00000000000E+00 -0.45593999997E+02  0.45594000000E+02  0.51100000000E-03 0.  1.
    9900012    2    1    2    0    0  0.90727925176E-01 -0.59322561858E-01 -0.11751390519E+01  0.90007871823E+02  0.90000134931E+02 0.  0.
         12    1    1    2    0    0 -0.90727925176E-01  0.59322561858E-01  0.11751390519E+01  0.11801281770E+01  0.00000000000E+00 0. -1.
         11    1    3    3    0    0  0.61511817556E+01 -0.60281510147E+01 -0.44078265053E+01  0.96749458091E+01  0.51100000000E-03 0. -1.
        -11    1    3    3    0    0  0.21202247481E+02 -0.28903527726E+02  0.39465200426E+01  0.36062781839E+02  0.51100000000E-03 0.  1.
         12    1    3    3    0    0 -0.27262701312E+02  0.34872356179E+02 -0.71383258923E+00  0.44270144175E+02  0.00000000000E+00 0. -1.
</event>
<event>
 7    1  0.4096472E-015  0.9000746E+02  0.7816164E-02  0.1186340E+00
        -11   -1    0    0    0    0  0.00000000000E+00  0.00000000000E+00  0.45593999997E+02  0.45594000000E+02  0.51100000000E-03 0.  1.
         11   -1    0    0    0    0 -0.00000000000E+00 -0.00000000000E+00 -0.45593999997E+02  0.45594000000E+02  0.51100000000E-03 0. -1.
    9900012    2    1    2    0    0  0.99817343788E+00 -0.36956447303E+00 -0.51063949819E+00  0.90007457409E+02  0.89999715046E+02 0.  0.
         12    1    1    2    0    0 -0.99817343788E+00  0.36956447303E+00  0.51063949819E+00  0.11805425909E+01  0.00000000000E+00 0. -1.
         11    1    3    3    0    0  0.87892774189E+01  0.21964395959E+01 -0.12068721188E+00  0.90603703075E+01  0.51100000000E-03 0. -1.
        -11    1    3    3    0    0  0.22454621353E+02  0.28027640819E+01  0.30105662200E+02  0.37661869356E+02  0.51100000000E-03 0.  1.
         12    1    3    3    0    0 -0.30245725334E+02 -0.53687681508E+01 -0.30495614486E+02  0.43285217746E+02  0.00000000000E+00 0. -1.
</event>
<event>
 7    1  0.4096472E-015  0.9000780E+02  0.7816164E-02  0.1186339E+00
        -11   -1    0    0    0    0  0.00000000000E+00  0.00000000000E+00  0.45593999997E+02  0.45594000000E+02  0.51100000000E-03 0. -1.
         11   -1    0    0    0    0 -0.00000000000E+00 -0.00000000000E+00 -0.45593999997E+02  0.45594000000E+02  0.51100000000E-03 0.  1.
    9900012    2    1    2    0    0 -0.75621529522E+00 -0.13017315605E+00 -0.89669853962E+00  0.90007798791E+02  0.90000060935E+02 0.  0.
         12    1    1    2    0    0  0.75621529522E+00  0.13017315605E+00  0.89669853962E+00  0.11802012092E+01  0.00000000000E+00 0. -1.
         11    1    3    3    0    0 -0.23925062552E+01  0.30713204626E+02  0.26690206900E+02  0.40760178719E+02  0.51100000000E-03 0. -1.
        -11    1    3    3    0    0 -0.18858445334E+01  0.43532957550E+01 -0.65654470320E+01  0.81001659567E+01  0.51100000000E-03 0.  1.
        -12    1    3    3    0    0  0.35221354934E+01 -0.35196673537E+02 -0.21021458408E+02  0.41147454115E+02  0.00000000000E+00 0.  1.
</event>
<event>
 7    1  0.4096472E-015  0.9000761E+02  0.7816164E-02  0.1186339E+00
        -11   -1    0    0    0    0  0.00000000000E+00  0.00000000000E+00  0.45593999997E+02  0.45594000000E+02  0.51100000000E-03 0. -1.
         11   -1    0    0    0    0 -0.00000000000E+00 -0.00000000000E+00 -0.45593999997E+02  0.45594000000E+02  0.51100000000E-03 0.  1.
    9900012    2    1    2    0    0 -0.36930634554E+00 -0.62724201270E+00 -0.92925135049E+00  0.90007606933E+02  0.89999866545E+02 0.  0.
         12    1    1    2    0    0  0.36930634554E+00  0.62724201270E+00  0.92925135049E+00  0.11803930666E+01  0.00000000000E+00 0. -1.
         11    1    3    3    0    0 -0.18660935973E+01  0.28556555817E+02  0.76967735911E+01  0.29634431147E+02  0.51100000000E-03 0. -1.
        -11    1    3    3    0    0 -0.12797750948E+02 -0.94865181823E+01  0.18176674207E+02  0.24169566443E+02  0.51100000000E-03 0.  1.
        -12    1    3    3    0    0  0.14294538200E+02 -0.19697279647E+02 -0.26802699148E+02  0.36203609343E+02  0.00000000000E+00 0.  1.
</event>
<event>
 7    1  0.4096472E-015  0.9000776E+02  0.7816164E-02  0.1186339E+00
        -11   -1    0    0    0    0  0.00000000000E+00  0.00000000000E+00  0.45593999997E+02  0.45594000000E+02  0.51100000000E-03 0.  1.
         11   -1    0    0    0    0 -0.00000000000E+00 -0.00000000000E+00 -0.45593999997E+02  0.45594000000E+02  0.51100000000E-03 0. -1.
    9900012    2    1    2    0    0  0.89943603895E+00  0.56332815075E+00  0.51636984395E+00  0.90007762054E+02  0.90000023713E+02 0.  0.
         12    1    1    2    0    0 -0.89943603895E+00 -0.56332815075E+00 -0.51636984395E+00  0.11802379461E+01  0.00000000000E+00 0. -1.
         11    1    3    3    0    0  0.36634647631E+02  0.17091625360E+02 -0.60403052207E+01  0.40874274940E+02  0.51100000000E-03 0. -1.
        -11    1    3    3    0    0  0.30220617170E+01 -0.81343237221E+01 -0.10944307663E+01  0.87463054143E+01  0.51100000000E-03 0.  1.
        -12    1    3    3    0    0 -0.38757273309E+02 -0.83939734867E+01  0.76511058310E+01  0.40387181700E+02  0.00000000000E+00 0.  1.
</event>
<event>
 7    1  0.4096472E-015  0.9000774E+02  0.7816164E-02  0.1186339E+00
        -11   -1    0    0    0    0  0.00000000000E+00  0.00000000000E+00  0.45593999997E+02  0.45594000000E+02  0.51100000000E-03 0.  1.
         11   -1    0    0    0    0 -0.00000000000E+00 -0.00000000000E+00 -0.45593999997E+02  0.45594000000E+02  0.51100000000E-03 0. -1.
    9900012    2    1    2    0    0  0.37421424941E+00  0.11104028896E+01  0.14132841556E+00  0.90007743840E+02  0.90000005259E+02 0.  0.
         12    1    1    2    0    0 -0.37421424941E+00 -0.11104028896E+01 -0.14132841556E+00  0.11802561598E+01  0.00000000000E+00 0. -1.
         11    1    3    3    0    0  0.92881369301E+01  0.67087727111E+01 -0.27683122453E+01  0.11787309781E+02  0.51100000000E-03 0. -1.
        -11    1    3    3    0    0  0.20264437748E+02 -0.19483220320E+01 -0.28609991198E+02  0.35113743642E+02  0.51100000000E-03 0.  1.
         12    1    3    3    0    0 -0.29178360429E+02 -0.36500477895E+01  0.31519631859E+02  0.43106690417E+02  0.00000000000E+00 0. -1.
</event>
<event>
 7    1  0.4096472E-015  0.9000788E+02  0.7816164E-02  0.1186339E+00
        -11   -1    0    0    0    0  0.00000000000E+00  0.00000000000E+00  0.45593999997E+02  0.45594000000E+02  0.51100000000E-03 0. -1.
         11   -1    0    0    0    0 -0.00000000000E+00 -0.00000000000E+00 -0.45593999997E+02  0.45594000000E+02  0.51100000000E-03 0.  1.
    9900012    2    1    2    0    0 -0.99410276668E+00  0.56358626657E+00  0.29465709937E+00  0.90007876025E+02  0.90000139188E+02 0.  0.
         12    1    1    2    0    0  0.99410276668E+00 -0.56358626657E+00 -0.29465709937E+00  0.11801239752E+01  0.00000000000E+00 0. -1.
         11    1    3    3    0    0  0.49994270075E+01 -0.60575260296E+01 -0.21801270533E+02  0.23172899885E+02  0.51100000000E-03 0.  1.
        -11    1    3    3    0    0 -0.32472245635E+02  0.12357648301E+02  0.58178215218E+01  0.35227904502E+02  0.51100000000E-03 0. -1.
        -12    1    3    3    0    0  0.26478715861E+02 -0.57365360044E+01  0.16278106110E+02  0.31607071637E+02  0.00000000000E+00 0.  1.
</event>
<event>
 7    1  0.4096472E-015  0.9000750E+02  0.7816164E-02  0.1186340E+00
        -11   -1    0    0    0    0  0.00000000000E+00  0.00000000000E+00  0.45593999997E+02  0.45594000000E+02  0.51100000000E-03 0.  1.
         11   -1    0    0    0    0 -0.00000000000E+00 -0.00000000000E+00 -0.45593999997E+02  0.45594000000E+02  0.51100000000E-03 0. -1.
    9900012    2    1    2    0    0  0.92468040374E+00 -0.68040287870E+00  0.27495800194E+00  0.90007498484E+02  0.89999756664E+02 0.  0.
         12    1    1    2    0    0 -0.92468040374E+00  0.68040287870E+00 -0.27495800194E+00  0.11805015160E+01  0.00000000000E+00 0. -1.
         11    1    3    3    0    0  0.40357725774E+01  0.94415840829E+01 -0.56840023272E+01  0.11736219707E+02  0.51100000000E-03 0. -1.
        -11    1    3    3    0    0  0.20858384321E+02  0.26794732870E+02  0.92750589456E+00  0.33968958970E+02  0.51100000000E-03 0.  1.
         12    1    3    3    0    0 -0.23969476494E+02 -0.36916719832E+02  0.50314544346E+01  0.44302319807E+02  0.00000000000E+00 0. -1.
</event>
<event>
 7    1  0.4096472E-015  0.9000746E+02  0.7816164E-02  0.1186340E+00
        -11   -1    0    0    0    0  0.00000000000E+00  0.00000000000E+00  0.45593999997E+02  0.45594000000E+02  0.51100000000E-03 0.  1.
         11   -1    0    0    0    0 -0.00000000000E+00 -0.00000000000E+00 -0.45593999997E+02  0.45594000000E+02  0.51100000000E-03 0. -1.
    9900012    2    1    2    0    0 -0.38496395570E+00  0.10163336857E+01 -0.46103302785E+00  0.90007456540E+02  0.89999714166E+02 0.  0.
         12    1    1    2    0    0  0.38496395570E+00 -0.10163336857E+01  0.46103302785E+00  0.11805434599E+01  0.00000000000E+00 0. -1.
         11    1    3    3    0    0  0.72842981711E+01  0.74396193976E+01 -0.77418495185E+01  0.12974789819E+02  0.51100000000E-03 0. -1.
        -11    1    3    3    0    0  0.16234118166E+02  0.73941137104E+01  0.34136302231E+02  0.38516316549E+02  0.51100000000E-03 0.  1.
         12    1    3    3    0    0 -0.23903380293E+02 -0.13817399422E+02 -0.26855485740E+02  0.38516350172E+02  0.00000000000E+00 0. -1.
</event>
<event>
 7    1  0.4096472E-015  0.9000786E+02  0.7816164E-02  0.1186339E+00
        -11   -1    0    0    0    0  0.00000000000E+00  0.00000000000E+00  0.45593999997E+02  0.45594000000E+02  0.51100000000E-03 0.  1.
         11   -1    0    0    0    0 -0.00000000000E+00 -0.00000000000E+00 -0.45593999997E+02  0.45594000000E+02  0.51100000000E-03 0. -1.
    9900012    2    1    2    0    0 -0.93078955124E+00 -0.11805674351E+00  0.71583253768E+00  0.90007863226E+02  0.90000126220E+02 0.  0.
         12    1    1    2    0    0  0.93078955124E+00  0.11805674351E+00 -0.71583253768E+00  0.11801367740E+01  0.00000000000E+00 0. -1.
         11    1    3    3    0    0  0.22326083578E+02 -0.11131216489E+02 -0.28597895332E+02  0.37949935522E+02  0.51100000000E-03 0. -1.
        -11    1    3    3    0    0  0.90845572988E-01  0.75454542399E+01 -0.59596494946E+01  0.96155891637E+01  0.51100000000E-03 0.  1.
        -12    1    3    3    0    0 -0.23347718702E+02  0.34677055058E+01  0.35273377364E+02  0.42442338540E+02  0.00000000000E+00 0.  1.
</event>
<event>
 7    1  0.4096472E-015  0.9000776E+02  0.7816164E-02  0.1186339E+00
        -11   -1    0    0    0    0  0.00000000000E+00  0.00000000000E+00  0.45593999997E+02  0.45594000000E+02  0.51100000000E-03 0. -1.
         11   -1    0    0    0    0 -0.00000000000E+00 -0.00000000000E+00 -0.45593999997E+02  0.45594000000E+02  0.51100000000E-03 0.  1.
    9900012    2    1    2    0    0 -0.67968401014E+00 -0.52150503634E+00 -0.81180227384E+00  0.90007762402E+02  0.90000024065E+02 0.  0.
         12    1    1    2    0    0  0.67968401014E+00  0.52150503634E+00  0.81180227384E+00  0.11802375983E+01  0.00000000000E+00 0. -1.
         11    1    3    3    0    0 -0.25219203854E+01 -0.15441713782E+02 -0.16306867159E+01  0.15731044034E+02  0.51100000000E-03 0. -1.
        -11    1    3    3    0    0 -0.66878335487E+00 -0.24848555140E+02 -0.17519985317E+02  0.30411311210E+02  0.51100000000E-03 0.  1.
         12    1    3    3    0    0  0.25110197301E+01  0.39768763886E+02  0.18338869759E+02  0.43865407158E+02  0.00000000000E+00 0. -1.
</event>
<event>
 7    1  0.4096472E-015  0.9000772E+02  0.7816164E-02  0.1186339E+00
        -11   -1    0    0    0    0  0.00000000000E+00  0.00000000000E+00  0.45593999997E+02  0.45594000000E+02  0.51100000000E-03 0.  1.
         11   -1    0    0    0    0 -0.00000000000E+00 -0.00000000000E+00 -0.45593999997E+02  0.45594000000E+02  0.51100000000E-03 0. -1.
    9900012    2    1    2    0    0  0.70143629974E+00  0.94610515843E+00  0.76982972693E-01  0.90007722816E+02  0.89999983957E+02 0.  0.
         12    1    1    2    0    0 -0.70143629974E+00 -0.94610515843E+00 -0.76982972693E-01  0.11802771842E+01  0.00000000000E+00 0. -1.
         11    1    3    3    0    0 -0.12099447044E+02  0.23409037688E+02 -0.28754848424E+02  0.39002832877E+02  0.51100000000E-03 0. -1.
        -11    1    3    3    0    0  0.77814900031E+01 -0.25348286537E+01 -0.62836670611E+01  0.10318014100E+02  0.51100000000E-03 0.  1.
        -12    1    3    3    0    0  0.50193933411E+01 -0.19928103876E+02  0.35115498458E+02  0.40686875839E+02  0.00000000000E+00 0.  1.
</event>
<event>
 7    1  0.4096472E-015  0.9000773E+02  0.7816164E-02  0.1186339E+00
        -11   -1    0    0    0    0  0.00000000000E+00  0.00000000000E+00  0.45593999997E+02  0.45594000000E+02  0.51100000000E-03 0.  1.
         11   -1    0    0    0    0 -0.00000000000E+00 -0.00000000000E+00 -0.45593999997E+02  0.45594000000E+02  0.51100000000E-03 0. -1.
    9900012    2    1    2    0    0  0.93940401189E-01  0.12432262020E+00  0.11699367523E+01  0.90007731845E+02  0.89999993106E+02 0.  0.
         12    1    1    2    0    0 -0.93940401189E-01 -0.12432262020E+00 -0.11699367523E+01  0.11802681548E+01  0.00000000000E+00 0. -1.
         11    1    3    3    0    0 -0.16782312186E+02 -0.34001964244E+02 -0.13371581172E+02  0.40206700412E+02  0.51100000000E-03 0. -1.
        -11    1    3    3    0    0 -0.62499401348E+01  0.60524839713E+01 -0.32789137372E+01  0.92976120305E+01  0.51100000000E-03 0.  1.
        -12    1    3    3    0    0  0.23126192722E+02  0.28073802893E+02  0.17820431661E+02  0.40503419402E+02  0.00000000000E+00 0.  1.
</event>
<event>
 7    1  0.4096472E-015  0.9000783E+02  0.7816164E-02  0.1186339E+00
        -11   -1    0    0    0    0  0.00000000000E+00  0.00000000000E+00  0.45593999997E+02  0.45594000000E+02  0.51100000000E-03 0.  1.
         11   -1    0    0    0    0 -0.00000000000E+00 -0.00000000000E+00 -0.45593999997E+02  0.45594000000E+02  0.51100000000E-03 0. -1.
    9900012    2    1    2    0    0 -0.74705650873E+00  0.85070743641E+00  0.33317252578E+00  0.90007830308E+02  0.90000092868E+02 0.  0.
         12    1    1    2    0    0  0.74705650873E+00 -0.85070743641E+00 -0.33317252578E+00  0.11801696918E+01  0.00000000000E+00 0. -1.
         11    1    3    3    0    0 -0.26226436460E+01  0.52632354208E+01 -0.72586540111E+01  0.93417324465E+01  0.51100000000E-03 0. -1.
        -11    1    3    3    0    0  0.34734741493E+02  0.18870365763E+02  0.82841054359E+01  0.40388356908E+02  0.51100000000E-03 0.  1.
         12    1    3    3    0    0 -0.32859154356E+02 -0.23282893747E+02 -0.69227889906E+00  0.40277740953E+02  0.00000000000E+00 0. -1.
</event>
<event>
 7    1  0.4096472E-015  0.9000773E+02  0.7816164E-02  0.1186339E+00
        -11   -1    0    0    0    0  0.00000000000E+00  0.00000000000E+00  0.45593999997E+02  0.45594000000E+02  0.51100000000E-03 0. -1.
         11   -1    0    0    0    0 -0.00000000000E+00 -0.00000000000E+00 -0.45593999997E+02  0.45594000000E+02  0.51100000000E-03 0.  1.
    9900012    2    1    2    0    0 -0.91115427011E+00  0.73224662159E+00 -0.16323135241E+00  0.90007732364E+02  0.89999993631E+02 0.  0.
         12    1    1    2    0    0  0.91115427011E+00 -0.73224662159E+00  0.16323135241E+00  0.11802676363E+01  0.00000000000E+00 0. -1.
         11    1    3    3    0    0 -0.34568748643E+02  0.20196865051E+02  0.20518433850E+02  0.44987974710E+02  0.51100000000E-03 0. -1.
        -11    1    3    3    0    0  0.52230606564E+01 -0.82386469373E+00 -0.59655202328E+01  0.79716088441E+01  0.51100000000E-03 0.  1.
        -12    1    3    3    0    0  0.28434533716E+02 -0.18640753735E+02 -0.14716144969E+02  0.37048148810E+02  0.00000000000E+00 0.  1.
</event>
<event>
 7    1  0.4096472E-015  0.9000767E+02  0.7816164E-02  0.1186339E+00
        -11   -1    0    0    0    0  0.00000000000E+00  0.00000000000E+00  0.45593999997E+02  0.45594000000E+02  0.51100000000E-03 0. -1.
         11   -1    0    0    0    0 -0.00000000000E+00 -0.00000000000E+00 -0.45593999997E+02  0.45594000000E+02  0.51100000000E-03 0.  1.
    9900012    2    1    2    0    0 -0.89220123591E+00  0.55322416021E+00 -0.53952762794E+00  0.90007673741E+02  0.89999934234E+02 0.  0.
         12    1    1    2    0    0  0.89220123591E+00 -0.55322416021E+00  0.53952762794E+00  0.11803262592E+01  0.00000000000E+00 0. -1.
         11    1    3    3    0    0  0.17021611414E+01 -0.32874686849E+02  0.29385655207E+02  0.44126625978E+02  0.51100000000E-03 0. -1.
        -11    1    3    3    0    0  0.24107392008E+01  0.73010876969E+01 -0.37263518834E+01  0.85441935647E+01  0.51100000000E-03 0.  1.
        -12    1    3    3    0    0 -0.50051015780E+01  0.26126823313E+02 -0.26198830951E+02  0.37336854198E+02  0.00000000000E+00 0.  1.
</event>
<event>
 7    1  0.4096472E-015  0.9000763E+02  0.7816164E-02  0.1186339E+00
        -11   -1    0    0    0    0  0.00000000000E+00  0.00000000000E+00  0.45593999997E+02  0.45594000000E+02  0.51100000000E-03 0. -1.
         11   -1    0    0    0    0 -0.00000000000E+00 -0.00000000000E+00 -0.45593999997E+02  0.45594000000E+02  0.51100000000E-03 0.  1.
    9900012    2    1    2    0    0 -0.69336273908E+00  0.92712763757E+00 -0.23014067665E+00  0.90007626214E+02  0.89999886080E+02 0.  0.
         12    1    1    2    0    0  0.69336273908E+00 -0.92712763757E+00  0.23014067665E+00  0.11803737863E+01  0.00000000000E+00 0. -1.
         11    1    3    3    0    0  0.12088862260E+02 -0.58162381693E+01 -0.77955243880E+00  0.13437891183E+02  0.51100000000E-03 0. -1.
        -11    1    3    3    0    0 -0.31908074905E+02 -0.85821908656E+01  0.25392497615E+02  0.41672031143E+02  0.51100000000E-03 0.  1.
         12    1    3    3    0    0  0.19125849906E+02  0.15325556673E+02 -0.24843085853E+02  0.34897703888E+02  0.00000000000E+00 0. -1.
</event>
<event>
 7    1  0.4096472E-015  0.9000782E+02  0.7816164E-02  0.1186339E+00
        -11   -1    0    0    0    0  0.00000000000E+00  0.00000000000E+00  0.45593999997E+02  0.45594000000E+02  0.51100000000E-03 0.  1.
         11   -1    0    0    0    0 -0.00000000000E+00 -0.00000000000E+00 -0.45593999997E+02  0.45594000000E+02  0.51100000000E-03 0. -1.
    9900012    2    1    2    0    0 -0.66765386153E+00  0.16019230333E+00  0.95989104842E+00  0.90007824556E+02  0.90000087040E+02 0.  0.
         12    1    1    2    0    0  0.66765386153E+00 -0.16019230333E+00 -0.95989104842E+00  0.11801754436E+01  0.00000000000E+00 0. -1.
         11    1    3    3    0    0  0.57806005742E+01 -0.17722299654E+02 -0.33992818218E+02  0.38768633439E+02  0.51100000000E-03 0. -1.
        -11    1    3    3    0    0  0.82193285035E+01  0.50647060236E+01 -0.16324899058E+01  0.97915081427E+01  0.51100000000E-03 0.  1.
        -12    1    3    3    0    0 -0.14667582939E+02  0.12817785934E+02  0.36585199172E+02  0.41447682975E+02  0.00000000000E+00 0.  1.
</event>
<event>
 7    1  0.4096472E-015  0.9000767E+02  0.7816164E-02  0.1186339E+00
        -11   -1    0    0    0    0  0.00000000000E+00  0.00000000000E+00  0.45593999997E+02  0.45594000000E+02  0.51100000000E-03 0.  1.
         11   -1    0    0    0    0 -0.00000000000E+00 -0.00000000000E+00 -0.45593999997E+02  0.45594000000E+02  0.51100000000E-03 0. -1.
    9900012    2    1    2    0    0  0.10248012511E+01  0.15409406612E+00  0.56499112243E+00  0.90007670574E+02  0.89999931026E+02 0.  0.
         12    1    1    2    0    0 -0.10248012511E+01 -0.15409406612E+00 -0.56499112243E+00  0.11803294260E+01  0.00000000000E+00 0. -1.
         11    1    3    3    0    0 -0.62993736082E+01  0.89929174554E+01 -0.50777865141E+00  0.10991474498E+02  0.51100000000E-03 0. -1.
        -11    1    3    3    0    0 -0.23407907318E+02  0.20805967569E+01  0.28119262394E+02  0.36646308487E+02  0.51100000000E-03 0.  1.
         12    1    3    3    0    0  0.30732082178E+02 -0.10919420146E+02 -0.27046492620E+02  0.42369887589E+02  0.00000000000E+00 0. -1.
</event>
<event>
 7    1  0.4096472E-015  0.9000778E+02  0.7816164E-02  0.1186339E+00
        -11   -1    0    0    0    0  0.00000000000E+00  0.00000000000E+00  0.45593999997E+02  0.45594000000E+02  0.51100000000E-03 0.  1.
         11   -1    0    0    0    0 -0.00000000000E+00 -0.00000000000E+00 -0.45593999997E+02  0.45594000000E+02  0.51100000000E-03 0. -1.
    9900012    2    1    2    0    0  0.75223767075E+00  0.94688999717E-01  0.90448106587E+00  0.90007782427E+02  0.90000044356E+02 0.  0.
         12    1    1    2    0    0 -0.75223767075E+00 -0.94688999717E-01 -0.90448106587E+00  0.11802175725E+01  0.00000000000E+00 0. -1.
         11    1    3    3    0    0 -0.32883147902E+02 -0.60090944141E+01 -0.17353351016E+02  0.37663635292E+02  0.51100000000E-03 0. -1.
        -11    1    3    3    0    0 -0.42187790450E+01  0.42586992690E+01 -0.50613804956E+01  0.78455203063E+01  0.51100000000E-03 0.  1.
        -12    1    3    3    0    0  0.37854164618E+02  0.18450841448E+01  0.23319212578E+02  0.44498626829E+02  0.00000000000E+00 0.  1.
</event>
<event>
 7    1  0.4096472E-015  0.9000773E+02  0.7816164E-02  0.1186339E+00
        -11   -1    0    0    0    0  0.00000000000E+00  0.00000000000E+00  0.45593999997E+02  0.45594000000E+02  0.51100000000E-03 0.  1.
         11   -1    0    0    0    0 -0.00000000000E+00 -0.00000000000E+00 -0.45593999997E+02  0.45594000000E+02  0.51100000000E-03 0. -1.
    9900012    2    1    2    0    0  0.80174566935E+00 -0.34227061027E+00  0.79566731990E+00  0.90007732330E+02  0.89999993597E+02 0.  0.
         12    1    1    2    0    0 -0.80174566935E+00  0.34227061027E+00 -0.79566731990E+00  0.11802676700E+01  0.00000000000E+00 0. -1.
         11    1    3    3    0    0  0.11648033460E+02  0.27453553368E+02 -0.25575216180E+02  0.39286969327E+02  0.51100000000E-03 0. -1.
        -11    1    3    3    0    0 -0.71755426002E+01  0.24473351804E+00 -0.47974155068E+01  0.86350160340E+01  0.51100000000E-03 0.  1.
        -12    1    3    3    0    0 -0.36707451905E+01 -0.28040557496E+02  0.31168299007E+02  0.42085746969E+02  0.00000000000E+00 0.  1.
</event>
<event>
 7    1  0.4096472E-015  0.9000784E+02  0.7816164E-02  0.1186339E+00
        -11   -1    0    0    0    0  0.00000000000E+00  0.00000000000E+00  0.45593999997E+02  0.45594000000E+02  0.51100000000E-03 0.  1.
         11   -1    0    0    0    0 -0.00000000000E+00 -0.00000000000E+00 -0.45593999997E+02  0.45594000000E+02  0.51100000000E-03 0. -1.
    9900012    2    1    2    0    0  0.88038277346E+00 -0.75716396942E+00 -0.21071006933E+00  0.90007843300E+02  0.90000106031E+02 0.  0.
         12    1    1    2    0    0 -0.88038277346E+00  0.75716396942E+00  0.21071006933E+00  0.11801567005E+01  0.00000000000E+00 0. -1.
         11    1    3    3    0    0  0.41070662249E+01  0.19565990711E+01 -0.84626980233E+01  0.96079930785E+01  0.51100000000E-03 0. -1.
        -11    1    3    3    0    0  0.25380717435E+02 -0.18239234483E+02  0.28307550872E+02  0.42168328502E+02  0.51100000000E-03 0.  1.
         12    1    3    3    0    0 -0.28607400886E+02  0.15525471443E+02 -0.20055562918E+02  0.38231521719E+02  0.00000000000E+00 0. -1.
</event>
<event>
 7    1  0.4096472E-015  0.9000778E+02  0.7816164E-02  0.1186339E+00
        -11   -1    0    0    0    0  0.00000000000E+00  0.00000000000E+00  0.45593999997E+02  0.45594000000E+02  0.51100000000E-03 0. -1.
         11   -1    0    0    0    0 -0.00000000000E+00 -0.00000000000E+00 -0.45593999997E+02  0.45594000000E+02  0.51100000000E-03 0.  1.
    9900012    2    1    2    0    0 -0.60614123022E+00 -0.33453553260E+00  0.95581901846E+00  0.90007783406E+02  0.90000045347E+02 0.  0.
         12    1    1    2    0    0  0.60614123022E+00  0.33453553260E+00 -0.95581901846E+00  0.11802165944E+01  0.00000000000E+00 0. -1.
         11    1    3    3    0    0  0.37038265939E+01 -0.11434900439E+02 -0.73797108020E+01  0.14104446507E+02  0.51100000000E-03 0. -1.
        -11    1    3    3    0    0 -0.39601068938E+01 -0.30701927749E+02 -0.63392272427E+01  0.31598680612E+02  0.51100000000E-03 0.  1.
         12    1    3    3    0    0 -0.34986093031E+00  0.41802292655E+02  0.14674757063E+02  0.44304656287E+02  0.00000000000E+00 0. -1.
</event>
<event>
 7    1  0.4096472E-015  0.9000771E+02  0.7816164E-02  0.1186339E+00
        -11   -1    0    0    0    0  0.00000000000E+00  0.00000000000E+00  0.45593999997E+02  0.45594000000E+02  0.51100000000E-03 0.  1.
         11   -1    0    0    0    0 -0.00000000000E+00 -0.00000000000E+00 -0.45593999997E+02  0.45594000000E+02  0.51100000000E-03 0. -1.
    9900012    2    1    2    0    0 -0.11196331521E+01 -0.36535129889E+00  0.77672066225E-01  0.90007706428E+02  0.89999967353E+02 0.  0.
         12    1    1    2    0    0  0.11196331521E+01  0.36535129889E+00 -0.77672066225E-01  0.11802935723E+01  0.00000000000E+00 0. -1.
         11    1    3    3    0    0 -0.19293048463E+02  0.23560438615E+02 -0.23138902661E+02  0.38245585409E+02  0.51100000000E-03 0. -1.
        -11    1    3    3    0    0 -0.79819379201E+01  0.31781020909E+01  0.39858764229E+01  0.94709491066E+01  0.51100000000E-03 0.  1.
        -12    1    3    3    0    0  0.26155353230E+02 -0.27103892005E+02  0.19230698304E+02  0.42291171912E+02  0.00000000000E+00 0.  1.
</event>
<event>
 7    1  0.4096472E-015  0.9000767E+02  0.7816164E-02  0.1186339E+00
        -11   -1    0    0    0    0  0.00000000000E+00  0.00000000000E+00  0.45593999997E+02  0.45594000000E+02  0.51100000000E-03 0.  1.
         11   -1    0    0    0    0 -0.00000000000E+00 -0.00000000000E+00 -0.45593999997E+02  0.45594000000E+02  0.51100000000E-03 0. -1.
    9900012    2    1    2    0    0  0.71812026118E+00  0.18320116184E+00  0.91865445732E+00  0.90007667256E+02  0.89999927663E+02 0.  0.
         12    1    1    2    0    0 -0.71812026118E+00 -0.18320116184E+00 -0.91865445732E+00  0.11803327443E+01  0.00000000000E+00 0. -1.
         11    1    3    3    0    0 -0.42628199866E+01  0.28833806316E+02 -0.32707123325E+02  0.43809998144E+02  0.51100000000E-03 0. -1.
        -11    1    3    3    0    0 -0.17726235754E+01 -0.43442749311E+00  0.54784907565E+01  0.57744941612E+01  0.51100000000E-03 0.  1.
        -12    1    3    3    0    0  0.67535638231E+01 -0.28216177661E+02  0.28147287026E+02  0.40423174950E+02  0.00000000000E+00 0.  1.
</event>
<event>
 7    1  0.4096472E-015  0.9000774E+02  0.7816164E-02  0.1186339E+00
        -11   -1    0    0    0    0  0.00000000000E+00  0.00000000000E+00  0.45593999997E+02  0.45594000000E+02  0.51100000000E-03 0.  1.
         11   -1    0    0    0    0 -0.00000000000E+00 -0.00000000000E+00 -0.45593999997E+02  0.45594000000E+02  0.51100000000E-03 0. -1.
    9900012    2    1    2    0    0  0.67318988120E+00 -0.79518108468E+00  0.55454643294E+00  0.90007737606E+02  0.89999998942E+02 0.  0.
         12    1    1    2    0    0 -0.67318988120E+00  0.79518108468E+00 -0.55454643294E+00  0.11802623945E+01  0.00000000000E+00 0. -1.
         11    1    3    3    0    0  0.21226273035E+01  0.34136418039E+01 -0.57139178857E+01  0.69862260843E+01  0.51100000000E-03 0. -1.
        -11    1    3    3    0    0 -0.23294917035E+01 -0.63449839064E+01  0.44353956099E+02  0.44866009119E+02  0.51100000000E-03 0.  1.
         12    1    3    3    0    0  0.88005428116E+00  0.21361610179E+01 -0.38085491780E+02  0.38155502402E+02  0.00000000000E+00 0. -1.
</event>
<event>
 7    1  0.4096472E-015  0.9000779E+02  0.7816164E-02  0.1186339E+00
        -11   -1    0    0    0    0  0.00000000000E+00  0.00000000000E+00  0.45593999997E+02  0.45594000000E+02  0.51100000000E-03 0.  1.
         11   -1    0    0    0    0 -0.00000000000E+00 -0.00000000000E+00 -0.45593999997E+02  0.45594000000E+02  0.51100000000E-03 0. -1.
    9900012    2    1    2    0    0 -0.11413184418E+01  0.28796539890E+00 -0.85760940172E-01  0.90007793749E+02  0.90000055826E+02 0.  0.
         12    1    1    2    0    0  0.11413184418E+01 -0.28796539890E+00  0.85760940172E-01  0.11802062512E+01  0.00000000000E+00 0. -1.
         11    1    3    3    0    0 -0.12554399133E+02 -0.13346087791E+02  0.39689408598E+02  0.43714758973E+02  0.51100000000E-03 0. -1.
        -11    1    3    3    0    0  0.57921823936E+01  0.11966526833E+01 -0.21908521015E+01  0.63072329684E+01  0.51100000000E-03 0.  1.
        -12    1    3    3    0    0  0.56208982974E+01  0.12437400506E+02 -0.37584317437E+02  0.39985801808E+02  0.00000000000E+00 0.  1.
</event>
<event>
 7    1  0.4394471E-015  0.9000778E+02  0.7816164E-02  0.1186339E+00
        -11   -1    0    0    0    0  0.00000000000E+00  0.00000000000E+00  0.45593999997E+02  0.45594000000E+02  0.51100000000E-03 0. -1.
         11   -1    0    0    0    0 -0.00000000000E+00 -0.00000000000E+00 -0.45593999997E+02  0.45594000000E+02  0.51100000000E-03 0.  1.
    9900012    2    1    2    0    0  0.97972324530E+00  0.47324192796E-01 -0.65636268791E+00  0.90007784259E+02  0.90000046211E+02 0.  0.
         12    1    1    2    0    0 -0.97972324530E+00 -0.47324192796E-01  0.65636268791E+00  0.11802157407E+01  0.00000000000E+00 0. -1.
         11    1    3    3    0    0  0.28774484601E+01 -0.94699490600E+01  0.46000076717E+00  0.99081403808E+01  0.51100000000E-03 0. -1.
        -11    1    3    3    0    0  0.21721780633E+02 -0.17627050231E+02 -0.24500880331E+02  0.37186580792E+02  0.51100000000E-03 0.  1.
         12    1    3    3    0    0 -0.23619505848E+02  0.27144323484E+02  0.23384516876E+02  0.42913063086E+02  0.00000000000E+00 0. -1.
</event>
<event>
 7    1  0.4096472E-015  0.9000769E+02  0.7816164E-02  0.1186339E+00
        -11   -1    0    0    0    0  0.00000000000E+00  0.00000000000E+00  0.45593999997E+02  0.45594000000E+02  0.51100000000E-03 0.  1.
         11   -1    0    0    0    0 -0.00000000000E+00 -0.00000000000E+00 -0.45593999997E+02  0.45594000000E+02  0.51100000000E-03 0. -1.
    9900012    2    1    2    0    0 -0.17004989494E+00  0.63790143288E+00  0.97841298387E+00  0.90007691917E+02  0.89999952650E+02 0.  0.
         12    1    1    2    0    0  0.17004989494E+00 -0.63790143288E+00 -0.97841298387E+00  0.11803080834E+01  0.00000000000E+00 0. -1.
         11    1    3    3    0    0  0.26358068490E+02  0.27801071902E+02 -0.10728426802E+02  0.39783746874E+02  0.51100000000E-03 0. -1.
        -11    1    3    3    0    0  0.61402993788E+01 -0.11798425540E+01 -0.15239753742E+01  0.64356667188E+01  0.51100000000E-03 0.  1.
        -12    1    3    3    0    0 -0.32668417764E+02 -0.25983327915E+02  0.13230815160E+02  0.43788278324E+02  0.00000000000E+00 0.  1.
</event>
<event>
 7    1  0.4096472E-015  0.9000775E+02  0.7816164E-02  0.1186339E+00
        -11   -1    0    0    0    0  0.00000000000E+00  0.00000000000E+00  0.45593999997E+02  0.45594000000E+02  0.51100000000E-03 0.  1.
         11   -1    0    0    0    0 -0.00000000000E+00 -0.00000000000E+00 -0.45593999997E+02  0.45594000000E+02  0.51100000000E-03 0. -1.
    9900012    2    1    2    0    0  0.14850101819E+00  0.74967446620E+00  0.89939707763E+00  0.90007754491E+02  0.90000016051E+02 0.  0.
         12    1    1    2    0    0 -0.14850101819E+00 -0.74967446620E+00 -0.89939707763E+00  0.11802455087E+01  0.00000000000E+00 0. -1.
         11    1    3    3    0    0  0.21939547787E+02 -0.18705388250E+02 -0.14419855137E+02  0.32236121496E+02  0.51100000000E-03 0. -1.
        -11    1    3    3    0    0 -0.20969643863E+02 -0.87981218173E+01 -0.45892606327E+01  0.23199013442E+02  0.51100000000E-03 0.  1.
        -12    1    3    3    0    0 -0.82140290548E+00  0.28253184533E+02  0.19908512847E+02  0.34572619553E+02  0.00000000000E+00 0.  1.
</event>
<event>
 7    1  0.4096472E-015  0.9000767E+02  0.7816164E-02  0.1186339E+00
        -11   -1    0    0    0    0  0.00000000000E+00  0.00000000000E+00  0.45593999997E+02  0.45594000000E+02  0.51100000000E-03 0.  1.
         11   -1    0    0    0    0 -0.00000000000E+00 -0.00000000000E+00 -0.45593999997E+02  0.45594000000E+02  0.51100000000E-03 0. -1.
    9900012    2    1    2    0    0  0.78259991312E+00 -0.87290616417E+00  0.13691411242E+00  0.90007672389E+02  0.89999932864E+02 0.  0.
         12    1    1    2    0    0 -0.78259991312E+00  0.87290616417E+00 -0.13691411242E+00  0.11803276111E+01  0.00000000000E+00 0. -1.
         11    1    3    3    0    0  0.26461160367E+02  0.13230348442E+02 -0.20309065269E+02  0.35884443151E+02  0.51100000000E-03 0. -1.
        -11    1    3    3    0    0 -0.80186606337E-02  0.87411497993E+01  0.17588956277E+02  0.19641261347E+02  0.51100000000E-03 0.  1.
        -12    1    3    3    0    0 -0.25670541794E+02 -0.22844404405E+02  0.28570231045E+01  0.34481967891E+02  0.00000000000E+00 0.  1.
</event>
<event>
 7    1  0.4096472E-015  0.9000775E+02  0.7816164E-02  0.1186339E+00
        -11   -1    0    0    0    0  0.00000000000E+00  0.00000000000E+00  0.45593999997E+02  0.45594000000E+02  0.51100000000E-03 0. -1.
         11   -1    0    0    0    0 -0.00000000000E+00 -0.00000000000E+00 -0.45593999997E+02  0.45594000000E+02  0.51100000000E-03 0.  1.
    9900012    2    1    2    0    0  0.38495128534E+00  0.81128759944E+00 -0.76590404904E+00  0.90007752537E+02  0.90000014071E+02 0.  0.
         12    1    1    2    0    0 -0.38495128534E+00 -0.81128759944E+00  0.76590404904E+00  0.11802474628E+01  0.00000000000E+00 0. -1.
         11    1    3    3    0    0 -0.28864849998E+00  0.62427668387E+01  0.35089412859E+01  0.71671559889E+01  0.51100000000E-03 0. -1.
        -11    1    3    3    0    0  0.40505626756E+02  0.35004365231E+01  0.50467519717E+01  0.40968628979E+02  0.51100000000E-03 0.  1.
         12    1    3    3    0    0 -0.39832026970E+02 -0.89319157624E+01 -0.93215973067E+01  0.41871967569E+02  0.00000000000E+00 0. -1.
</event>
<event>
 7    1  0.4096472E-015  0.9000774E+02  0.7816164E-02  0.1186339E+00
        -11   -1    0    0    0    0  0.00000000000E+00  0.00000000000E+00  0.45593999997E+02  0.45594000000E+02  0.51100000000E-03 0.  1.
         11   -1    0    0    0    0 -0.00000000000E+00 -0.00000000000E+00 -0.45593999997E+02  0.45594000000E+02  0.51100000000E-03 0. -1.
    9900012    2    1    2    0    0  0.10967247121E+01 -0.33031537243E-01  0.43487712840E+00  0.90007739735E+02  0.90000001099E+02 0.  0.
         12    1    1    2    0    0 -0.10967247121E+01  0.33031537243E-01 -0.43487712840E+00  0.11802602651E+01  0.00000000000E+00 0. -1.
         11    1    3    3    0    0 -0.32083087748E+02 -0.10839250132E+02 -0.17739495691E+02  0.38229616405E+02  0.51100000000E-03 0. -1.
        -11    1    3    3    0    0  0.28822266980E+01 -0.71638653282E+01 -0.53723730888E+01  0.94069437144E+01  0.51100000000E-03 0.  1.
        -12    1    3    3    0    0  0.30297585762E+02  0.17970083922E+02  0.23546745908E+02  0.42371179616E+02  0.00000000000E+00 0.  1.
</event>
<event>
 7    1  0.4096472E-015  0.9000780E+02  0.7816164E-02  0.1186339E+00
        -11   -1    0    0    0    0  0.00000000000E+00  0.00000000000E+00  0.45593999997E+02  0.45594000000E+02  0.51100000000E-03 0.  1.
         11   -1    0    0    0    0 -0.00000000000E+00 -0.00000000000E+00 -0.45593999997E+02  0.45594000000E+02  0.51100000000E-03 0. -1.
    9900012    2    1    2    0    0  0.10828253759E+00 -0.11691507356E+01  0.11926267650E+00  0.90007804196E+02  0.90000066411E+02 0.  0.
         12    1    1    2    0    0 -0.10828253759E+00  0.11691507356E+01 -0.11926267650E+00  0.11801958043E+01  0.00000000000E+00 0. -1.
         11    1    3    3    0    0  0.17459916457E+02 -0.33767564414E+02 -0.40285969377E+01  0.38227302843E+02  0.51100000000E-03 0. -1.
        -11    1    3    3    0    0  0.10238909625E+02  0.29553073901E+01  0.37024852804E+01  0.11281733448E+02  0.51100000000E-03 0.  1.
        -12    1    3    3    0    0 -0.27590543544E+02  0.29643106288E+02  0.44537433378E+00  0.40498767905E+02  0.00000000000E+00 0.  1.
</event>
<event>
 7    1  0.4096472E-015  0.9000800E+02  0.7816164E-02  0.1186339E+00
        -11   -1    0    0    0    0  0.00000000000E+00  0.00000000000E+00  0.45593999997E+02  0.45594000000E+02  0.51100000000E-03 0. -1.
         11   -1    0    0    0    0 -0.00000000000E+00 -0.00000000000E+00 -0.45593999997E+02  0.45594000000E+02  0.51100000000E-03 0.  1.
    9900012    2    1    2    0    0 -0.10898428388E+01  0.41104320587E+00  0.18891740051E+00  0.90007998426E+02  0.90000263205E+02 0.  0.
         12    1    1    2    0    0  0.10898428388E+01 -0.41104320587E+00 -0.18891740051E+00  0.11800015739E+01  0.00000000000E+00 0. -1.
         11    1    3    3    0    0  0.27734182609E+02 -0.17003652005E+02  0.97471987420E+01  0.33960520462E+02  0.51100000000E-03 0. -1.
        -11    1    3    3    0    0  0.62501408917E+01 -0.91910913223E+01 -0.32065491724E+01  0.11568162288E+02  0.51100000000E-03 0.  1.
        -12    1    3    3    0    0 -0.35074166339E+02  0.26605786533E+02 -0.63517321691E+01  0.44479315676E+02  0.00000000000E+00 0.  1.
</event>
<event>
 7    1  0.4096472E-015  0.9000752E+02  0.7816164E-02  0.1186339E+00
        -11   -1    0    0    0    0  0.00000000000E+00  0.00000000000E+00  0.45593999997E+02  0.45594000000E+02  0.51100000000E-03 0.  1.
         11   -1    0    0    0    0 -0.00000000000E+00 -0.00000000000E+00 -0.45593999997E+02  0.45594000000E+02  0.51100000000E-03 0. -1.
    9900012    2    1    2    0    0 -0.10998099315E+01  0.39578087157E+00  0.16522426783E+00  0.90007524061E+02  0.89999782578E+02 0.  0.
         12    1    1    2    0    0  0.10998099315E+01 -0.39578087157E+00 -0.16522426783E+00  0.11804759390E+01  0.00000000000E+00 0. -1.
         11    1    3    3    0    0 -0.54326976762E+01  0.24720274110E+02 -0.20819287457E+02  0.32772685068E+02  0.51100000000E-03 0. -1.
        -11    1    3    3    0    0 -0.51165206024E+00  0.13690404567E+02  0.33692562625E+00  0.13704104647E+02  0.51100000000E-03 0.  1.
        -12    1    3    3    0    0  0.48445398049E+01 -0.38014897805E+02  0.20647586099E+02  0.43530734346E+02  0.00000000000E+00 0.  1.
</event>
<event>
 7    1  0.4096472E-015  0.9000769E+02  0.7816164E-02  0.1186339E+00
        -11   -1    0    0    0    0  0.00000000000E+00  0.00000000000E+00  0.45593999997E+02  0.45594000000E+02  0.51100000000E-03 0.  1.
         11   -1    0    0    0    0 -0.00000000000E+00 -0.00000000000E+00 -0.45593999997E+02  0.45594000000E+02  0.51100000000E-03 0. -1.
    9900012    2    1    2    0    0 -0.20582394253E-01  0.11536765420E+01  0.24845771032E+00  0.90007693077E+02  0.89999953826E+02 0.  0.
         12    1    1    2    0    0  0.20582394253E-01 -0.11536765420E+01 -0.24845771032E+00  0.11803069229E+01  0.00000000000E+00 0. -1.
         11    1    3    3    0    0  0.80564513115E+01  0.33469591794E+02 -0.17442864129E+02  0.38592401997E+02  0.51100000000E-03 0. -1.
        -11    1    3    3    0    0 -0.54470913296E+01  0.24804345289E+01 -0.65905991559E+01  0.89027724278E+01  0.51100000000E-03 0.  1.
        -12    1    3    3    0    0 -0.26299423761E+01 -0.34796349781E+02  0.24281920996E+02  0.42512518653E+02  0.00000000000E+00 0.  1.
</event>
<event>
 7    1  0.4096472E-015  0.9000758E+02  0.7816164E-02  0.1186339E+00
        -11   -1    0    0    0    0  0.00000000000E+00  0.00000000000E+00  0.45593999997E+02  0.45594000000E+02  0.51100000000E-03 0. -1.
         11   -1    0    0    0    0 -0.00000000000E+00 -0.00000000000E+00 -0.45593999997E+02  0.45594000000E+02  0.51100000000E-03 0.  1.
    9900012    2    1    2    0    0 -0.18912390263E+00 -0.10746868170E+01 -0.45019259329E+00  0.90007579322E+02  0.89999838569E+02 0.  0.
         12    1    1    2    0    0  0.18912390263E+00  0.10746868170E+01  0.45019259329E+00  0.11804206776E+01  0.00000000000E+00 0. -1.
         11    1    3    3    0    0 -0.79748517041E+01 -0.55005565331E+00 -0.74988845097E+01  0.10960569788E+02  0.51100000000E-03 0. -1.
        -11    1    3    3    0    0  0.30078052030E+02 -0.23248424750E+02 -0.14412206305E+02  0.40655751845E+02  0.51100000000E-03 0.  1.
         12    1    3    3    0    0 -0.22292324228E+02  0.22723793586E+02  0.21460898222E+02  0.38391257689E+02  0.00000000000E+00 0. -1.
</event>
<event>
 7    1  0.4096472E-015  0.9000773E+02  0.7816164E-02  0.1186339E+00
        -11   -1    0    0    0    0  0.00000000000E+00  0.00000000000E+00  0.45593999997E+02  0.45594000000E+02  0.51100000000E-03 0.  1.
         11   -1    0    0    0    0 -0.00000000000E+00 -0.00000000000E+00 -0.45593999997E+02  0.45594000000E+02  0.51100000000E-03 0. -1.
    9900012    2    1    2    0    0  0.14511879591E-01 -0.76378672521E+00  0.89970351718E+00  0.90007725805E+02  0.89999986986E+02 0.  0.
         12    1    1    2    0    0 -0.14511879591E-01  0.76378672521E+00 -0.89970351718E+00  0.11802741949E+01  0.00000000000E+00 0. -1.
         11    1    3    3    0    0 -0.50182657574E+01  0.19056666180E+01  0.76285706000E+01  0.93278961256E+01  0.51100000000E-03 0. -1.
        -11    1    3    3    0    0  0.28599284821E+02 -0.24320467524E+02  0.16628874999E+02  0.41060001423E+02  0.51100000000E-03 0.  1.
         12    1    3    3    0    0 -0.23566507184E+02  0.21651014181E+02 -0.23357742082E+02  0.39619828257E+02  0.00000000000E+00 0. -1.
</event>
<event>
 7    1  0.4096472E-015  0.9000775E+02  0.7816164E-02  0.1186339E+00
        -11   -1    0    0    0    0  0.00000000000E+00  0.00000000000E+00  0.45593999997E+02  0.45594000000E+02  0.51100000000E-03 0. -1.
         11   -1    0    0    0    0 -0.00000000000E+00 -0.00000000000E+00 -0.45593999997E+02  0.45594000000E+02  0.51100000000E-03 0.  1.
    9900012    2    1    2    0    0 -0.10322089373E+01  0.14511880576E+00 -0.55360204900E+00  0.90007750032E+02  0.90000011533E+02 0.  0.
         12    1    1    2    0    0  0.10322089373E+01 -0.14511880576E+00  0.55360204900E+00  0.11802499679E+01  0.00000000000E+00 0. -1.
         11    1    3    3    0    0  0.11351312919E+02  0.57643894695E+01 -0.11722058384E+02  0.17305696864E+02  0.51100000000E-03 0. -1.
        -11    1    3    3    0    0 -0.23672468932E+02  0.27828897903E+02  0.54180000208E+01  0.36934916655E+02  0.51100000000E-03 0.  1.
         12    1    3    3    0    0  0.11288947075E+02 -0.33448168567E+02  0.57504563141E+01  0.35767136513E+02  0.00000000000E+00 0. -1.
</event>
<event>
 7    1  0.4096472E-015  0.9000779E+02  0.7816164E-02  0.1186339E+00
        -11   -1    0    0    0    0  0.00000000000E+00  0.00000000000E+00  0.45593999997E+02  0.45594000000E+02  0.51100000000E-03 0.  1.
         11   -1    0    0    0    0 -0.00000000000E+00 -0.00000000000E+00 -0.45593999997E+02  0.45594000000E+02  0.51100000000E-03 0. -1.
    9900012    2    1    2    0    0  0.33628390103E+00 -0.10734956490E+01 -0.35696981492E+00  0.90007785096E+02  0.90000047059E+02 0.  0.
         12    1    1    2    0    0 -0.33628390103E+00  0.10734956490E+01  0.35696981492E+00  0.11802149039E+01  0.00000000000E+00 0. -1.
         11    1    3    3    0    0 -0.88113351724E+01 -0.29801795059E+02 -0.27241729197E+02  0.41326727746E+02  0.51100000000E-03 0. -1.
        -11    1    3    3    0    0  0.23613365363E+01 -0.49647670599E+01  0.72482614737E+01  0.90973686772E+01  0.51100000000E-03 0.  1.
        -12    1    3    3    0    0  0.67862825371E+01  0.33693066470E+02  0.19636497908E+02  0.39583688673E+02  0.00000000000E+00 0.  1.
</event>
<event>
 7    1  0.4096472E-015  0.9000778E+02  0.7816164E-02  0.1186339E+00
        -11   -1    0    0    0    0  0.00000000000E+00  0.00000000000E+00  0.45593999997E+02  0.45594000000E+02  0.51100000000E-03 0.  1.
         11   -1    0    0    0    0 -0.00000000000E+00 -0.00000000000E+00 -0.45593999997E+02  0.45594000000E+02  0.51100000000E-03 0. -1.
    9900012    2    1    2    0    0  0.10365489148E+01  0.40338294630E+00  0.39466367744E+00  0.90007783548E+02  0.90000045491E+02 0.  0.
         12    1    1    2    0    0 -0.10365489148E+01 -0.40338294630E+00 -0.39466367744E+00  0.11802164515E+01  0.00000000000E+00 0. -1.
         11    1    3    3    0    0  0.16143887179E+02  0.74239364066E+01  0.23285439692E+01  0.17920994456E+02  0.51100000000E-03 0. -1.
        -11    1    3    3    0    0  0.83484214289E+01 -0.32793434870E+02  0.99431329082E+01  0.35269978782E+02  0.51100000000E-03 0.  1.
         12    1    3    3    0    0 -0.23455759693E+02  0.25772881410E+02 -0.11877013200E+02  0.36816810311E+02  0.00000000000E+00 0. -1.
</event>
<event>
 7    1  0.4096472E-015  0.9000759E+02  0.7816164E-02  0.1186339E+00
        -11   -1    0    0    0    0  0.00000000000E+00  0.00000000000E+00  0.45593999997E+02  0.45594000000E+02  0.51100000000E-03 0.  1.
         11   -1    0    0    0    0 -0.00000000000E+00 -0.00000000000E+00 -0.45593999997E+02  0.45594000000E+02  0.51100000000E-03 0. -1.
    9900012    2    1    2    0    0  0.66421852705E+00  0.24536201473E+00  0.94445154786E+00  0.90007585879E+02  0.89999845213E+02 0.  0.
         12    1    1    2    0    0 -0.66421852705E+00 -0.24536201473E+00 -0.94445154786E+00  0.11804141206E+01  0.00000000000E+00 0. -1.
         11    1    3    3    0    0 -0.64662569229E+01 -0.55846228829E+01  0.79669141537E+00  0.85810960145E+01  0.51100000000E-03 0. -1.
        -11    1    3    3    0    0 -0.35663208282E+02  0.11145618354E+02 -0.60827044791E+01  0.37856155741E+02  0.51100000000E-03 0.  1.
         12    1    3    3    0    0  0.42793683732E+02 -0.53156334563E+01  0.62304646116E+01  0.43570334124E+02  0.00000000000E+00 0. -1.
</event>
<event>
 7    1  0.4096472E-015  0.9000763E+02  0.7816164E-02  0.1186339E+00
        -11   -1    0    0    0    0  0.00000000000E+00  0.00000000000E+00  0.45593999997E+02  0.45594000000E+02  0.51100000000E-03 0. -1.
         11   -1    0    0    0    0 -0.00000000000E+00 -0.00000000000E+00 -0.45593999997E+02  0.45594000000E+02  0.51100000000E-03 0.  1.
    9900012    2    1    2    0    0  0.63824311810E+00 -0.33189070232E+00 -0.93582570830E+00  0.90007629095E+02  0.89999888999E+02 0.  0.
         12    1    1    2    0    0 -0.63824311810E+00  0.33189070232E+00  0.93582570830E+00  0.11803709046E+01  0.00000000000E+00 0. -1.
         11    1    3    3    0    0 -0.18162426488E+02 -0.59847860974E+01  0.25395342431E+02  0.31790168575E+02  0.51100000000E-03 0. -1.
        -11    1    3    3    0    0 -0.10538421471E+01 -0.11171411241E+01  0.13293954554E+02  0.13382369578E+02  0.51100000000E-03 0.  1.
        -12    1    3    3    0    0  0.19854511753E+02  0.67700365191E+01 -0.39625122693E+02  0.44835090943E+02  0.00000000000E+00 0.  1.
</event>
<event>
 7    1  0.4096472E-015  0.9000774E+02  0.7816164E-02  0.1186339E+00
        -11   -1    0    0    0    0  0.00000000000E+00  0.00000000000E+00  0.45593999997E+02  0.45594000000E+02  0.51100000000E-03 0. -1.
         11   -1    0    0    0    0 -0.00000000000E+00 -0.00000000000E+00 -0.45593999997E+02  0.45594000000E+02  0.51100000000E-03 0.  1.
    9900012    2    1    2    0    0 -0.11069418117E+01  0.39978678298E+00  0.88636438849E-01  0.90007743221E+02  0.90000004631E+02 0.  0.
         12    1    1    2    0    0  0.11069418117E+01 -0.39978678298E+00 -0.88636438849E-01  0.11802567791E+01  0.00000000000E+00 0. -1.
         11    1    3    3    0    0  0.63065247851E+01 -0.12609754309E+02 -0.57652806151E+00  0.14110653545E+02  0.51100000000E-03 0. -1.
        -11    1    3    3    0    0 -0.13646869724E+02 -0.20576848134E+02 -0.23474178118E+02  0.34068765328E+02  0.51100000000E-03 0.  1.
         12    1    3    3    0    0  0.62334031268E+01  0.33586389225E+02  0.24139342619E+02  0.41828324348E+02  0.00000000000E+00 0. -1.
</event>
<event>
 7    1  0.4096472E-015  0.9000775E+02  0.7816164E-02  0.1186339E+00
        -11   -1    0    0    0    0  0.00000000000E+00  0.00000000000E+00  0.45593999997E+02  0.45594000000E+02  0.51100000000E-03 0. -1.
         11   -1    0    0    0    0 -0.00000000000E+00 -0.00000000000E+00 -0.45593999997E+02  0.45594000000E+02  0.51100000000E-03 0.  1.
    9900012    2    1    2    0    0  0.17326344475E+00 -0.10290243604E+01 -0.55142873266E+00  0.90007752144E+02  0.90000013672E+02 0.  0.
         12    1    1    2    0    0 -0.17326344475E+00  0.10290243604E+01  0.55142873266E+00  0.11802478565E+01  0.00000000000E+00 0. -1.
         11    1    3    3    0    0  0.42191711019E+01  0.70863943065E+01  0.82319945522E+00  0.82883078284E+01  0.51100000000E-03 0. -1.
        -11    1    3    3    0    0 -0.28878423423E+02  0.25442685942E+02 -0.83788921746E+01  0.39389077695E+02  0.51100000000E-03 0.  1.
         12    1    3    3    0    0  0.24832515766E+02 -0.33558104609E+02  0.70042639867E+01  0.42330366620E+02  0.00000000000E+00 0. -1.
</event>
<event>
 7    1  0.4096472E-015  0.9000783E+02  0.7816164E-02  0.1186339E+00
        -11   -1    0    0    0    0  0.00000000000E+00  0.00000000000E+00  0.45593999997E+02  0.45594000000E+02  0.51100000000E-03 0. -1.
         11   -1    0    0    0    0 -0.00000000000E+00 -0.00000000000E+00 -0.45593999997E+02  0.45594000000E+02  0.51100000000E-03 0.  1.
    9900012    2    1    2    0    0 -0.18870466422E+00 -0.91016612440E+00 -0.72718545019E+00  0.90007826071E+02  0.90000088575E+02 0.  0.
         12    1    1    2    0    0  0.18870466422E+00  0.91016612440E+00  0.72718545019E+00  0.11801739292E+01  0.00000000000E+00 0. -1.
         11    1    3    3    0    0 -0.22214155085E+02  0.20180369457E+02  0.22915105599E+02  0.37760006123E+02  0.51100000000E-03 0. -1.
        -11    1    3    3    0    0 -0.73859764439E+01  0.34246301675E+01 -0.25361626483E+01  0.85271836531E+01  0.51100000000E-03 0.  1.
        -12    1    3    3    0    0  0.29411426865E+02 -0.24515165749E+02 -0.21106128401E+02  0.43720636294E+02  0.00000000000E+00 0.  1.
</event>
<event>
 7    1  0.4096472E-015  0.9000763E+02  0.7816164E-02  0.1186339E+00
        -11   -1    0    0    0    0  0.00000000000E+00  0.00000000000E+00  0.45593999997E+02  0.45594000000E+02  0.51100000000E-03 0. -1.
         11   -1    0    0    0    0 -0.00000000000E+00 -0.00000000000E+00 -0.45593999997E+02  0.45594000000E+02  0.51100000000E-03 0.  1.
    9900012    2    1    2    0    0 -0.65227092125E+00  0.16481471301E+00 -0.96987593506E+00  0.90007626935E+02  0.89999886810E+02 0.  0.
         12    1    1    2    0    0  0.65227092125E+00 -0.16481471301E+00  0.96987593506E+00  0.11803730655E+01  0.00000000000E+00 0. -1.
         11    1    3    3    0    0 -0.13986146812E+02  0.31327687779E+02  0.23222684082E+02  0.41428605823E+02  0.51100000000E-03 0. -1.
        -11    1    3    3    0    0 -0.36528328764E+01 -0.86914502794E+01  0.25190843626E+01  0.97586004257E+01  0.51100000000E-03 0.  1.
        -12    1    3    3    0    0  0.16986708767E+02 -0.22471422786E+02 -0.26711644379E+02  0.38820420686E+02  0.00000000000E+00 0.  1.
</event>
<event>
 7    1  0.4096472E-015  0.9000774E+02  0.7816164E-02  0.1186339E+00
        -11   -1    0    0    0    0  0.00000000000E+00  0.00000000000E+00  0.45593999997E+02  0.45594000000E+02  0.51100000000E-03 0. -1.
         11   -1    0    0    0    0 -0.00000000000E+00 -0.00000000000E+00 -0.45593999997E+02  0.45594000000E+02  0.51100000000E-03 0.  1.
    9900012    2    1    2    0    0  0.55660663154E+00 -0.67942059043E+00 -0.78841342720E+00  0.90007737735E+02  0.89999999074E+02 0.  0.
         12    1    1    2    0    0 -0.55660663154E+00  0.67942059043E+00  0.78841342720E+00  0.11802622646E+01  0.00000000000E+00 0. -1.
         11    1    3    3    0    0  0.29528605950E+01  0.38315657739E+02  0.12606628425E+02  0.40444234375E+02  0.51100000000E-03 0. -1.
        -11    1    3    3    0    0  0.73067511458E+01 -0.13585370482E+01  0.20977019714E+01  0.77223434941E+01  0.51100000000E-03 0.  1.
        -12    1    3    3    0    0 -0.97030051092E+01 -0.37636541282E+02 -0.15492743823E+02  0.41841159866E+02  0.00000000000E+00 0.  1.
</event>
<event>
 7    1  0.4096472E-015  0.9000777E+02  0.7816164E-02  0.1186339E+00
        -11   -1    0    0    0    0  0.00000000000E+00  0.00000000000E+00  0.45593999997E+02  0.45594000000E+02  0.51100000000E-03 0.  1.
         11   -1    0    0    0    0 -0.00000000000E+00 -0.00000000000E+00 -0.45593999997E+02  0.45594000000E+02  0.51100000000E-03 0. -1.
    9900012    2    1    2    0    0  0.65050369112E+00  0.38850353208E+00  0.90490353616E+00  0.90007771015E+02  0.90000032793E+02 0.  0.
         12    1    1    2    0    0 -0.65050369112E+00 -0.38850353208E+00 -0.90490353616E+00  0.11802289847E+01  0.00000000000E+00 0. -1.
         11    1    3    3    0    0  0.15696462588E+02 -0.16695155006E+02 -0.28166278972E+02  0.36310417374E+02  0.51100000000E-03 0. -1.
        -11    1    3    3    0    0  0.38822947489E+01 -0.78708805011E+01 -0.26011365472E+01  0.91536268210E+01  0.51100000000E-03 0.  1.
        -12    1    3    3    0    0 -0.18928253646E+02  0.24954539039E+02  0.31672319055E+02  0.44543726821E+02  0.00000000000E+00 0.  1.
</event>
<event>
 7    1  0.4096472E-015  0.9000774E+02  0.7816164E-02  0.1186339E+00
        -11   -1    0    0    0    0  0.00000000000E+00  0.00000000000E+00  0.45593999997E+02  0.45594000000E+02  0.51100000000E-03 0. -1.
         11   -1    0    0    0    0 -0.00000000000E+00 -0.00000000000E+00 -0.45593999997E+02  0.45594000000E+02  0.51100000000E-03 0.  1.
    9900012    2    1    2    0    0 -0.92007238422E+00  0.73255251771E+00 -0.99202114696E-01  0.90007742637E+02  0.90000004040E+02 0.  0.
         12    1    1    2    0    0  0.92007238422E+00 -0.73255251771E+00  0.99202114696E-01  0.11802573630E+01  0.00000000000E+00 0. -1.
         11    1    3    3    0    0 -0.20579874554E+02  0.31507344591E+02 -0.23021513490E+00  0.37633721568E+02  0.51100000000E-03 0. -1.
        -11    1    3    3    0    0  0.89849447898E+00  0.50242280234E+01  0.95909151020E+01  0.10864428762E+02  0.51100000000E-03 0.  1.
        -12    1    3    3    0    0  0.18761307691E+02 -0.35799020096E+02 -0.94599020818E+01  0.41509592307E+02  0.00000000000E+00 0.  1.
</event>
<event>
 7    1  0.4096472E-015  0.9000771E+02  0.7816164E-02  0.1186339E+00
        -11   -1    0    0    0    0  0.00000000000E+00  0.00000000000E+00  0.45593999997E+02  0.45594000000E+02  0.51100000000E-03 0.  1.
         11   -1    0    0    0    0 -0.00000000000E+00 -0.00000000000E+00 -0.45593999997E+02  0.45594000000E+02  0.51100000000E-03 0. -1.
    9900012    2    1    2    0    0  0.98846234348E+00  0.62125659999E+00  0.17341659301E+00  0.90007707290E+02  0.89999968226E+02 0.  0.
         12    1    1    2    0    0 -0.98846234348E+00 -0.62125659999E+00 -0.17341659301E+00  0.11802927104E+01  0.00000000000E+00 0. -1.
         11    1    3    3    0    0 -0.14325342996E+01 -0.15097683990E+02  0.50685263141E+01  0.15990064904E+02  0.51100000000E-03 0. -1.
        -11    1    3    3    0    0  0.77034906472E+01  0.28360743073E+01  0.32811266408E+02  0.33822570706E+02  0.51100000000E-03 0.  1.
         12    1    3    3    0    0 -0.52824940041E+01  0.12882866283E+02 -0.37706376129E+02  0.40195071679E+02  0.00000000000E+00 0. -1.
</event>
<event>
 7    1  0.4096472E-015  0.9000765E+02  0.7816164E-02  0.1186339E+00
        -11   -1    0    0    0    0  0.00000000000E+00  0.00000000000E+00  0.45593999997E+02  0.45594000000E+02  0.51100000000E-03 0.  1.
         11   -1    0    0    0    0 -0.00000000000E+00 -0.00000000000E+00 -0.45593999997E+02  0.45594000000E+02  0.51100000000E-03 0. -1.
    9900012    2    1    2    0    0  0.39972673479E+00 -0.79986728740E+00  0.77049442966E+00  0.90007648016E+02  0.89999908170E+02 0.  0.
         12    1    1    2    0    0 -0.39972673479E+00  0.79986728740E+00 -0.77049442966E+00  0.11803519840E+01  0.00000000000E+00 0. -1.
         11    1    3    3    0    0 -0.25389811911E+02 -0.19179584450E+02 -0.20289626956E+02  0.37738150072E+02  0.51100000000E-03 0. -1.
        -11    1    3    3    0    0 -0.92913086319E+00 -0.88307178294E+01  0.37927193241E+00  0.88875592264E+01  0.51100000000E-03 0.  1.
        -12    1    3    3    0    0  0.26718669509E+02  0.27210434992E+02  0.20680849453E+02  0.43381938718E+02  0.00000000000E+00 0.  1.
</event>
<event>
 7    1  0.4261651E-015  0.9000771E+02  0.7816164E-02  0.1186339E+00
        -11   -1    0    0    0    0  0.00000000000E+00  0.00000000000E+00  0.45593999997E+02  0.45594000000E+02  0.51100000000E-03 0. -1.
         11   -1    0    0    0    0 -0.00000000000E+00 -0.00000000000E+00 -0.45593999997E+02  0.45594000000E+02  0.51100000000E-03 0.  1.
    9900012    2    1    2    0    0  0.10048712103E+01 -0.61825600630E+00 -0.32745501918E-01  0.90007712363E+02  0.89999973366E+02 0.  0.
         12    1    1    2    0    0 -0.10048712103E+01  0.61825600630E+00  0.32745501918E-01  0.11802876372E+01  0.00000000000E+00 0. -1.
         11    1    3    3    0    0  0.79043971895E+01 -0.16814891373E+02  0.30820133840E+02  0.35987507791E+02  0.51100000000E-03 0. -1.
        -11    1    3    3    0    0  0.12741263224E+01 -0.86863462402E+01  0.46241881853E+01  0.99226571807E+01  0.51100000000E-03 0.  1.
        -12    1    3    3    0    0 -0.81736523016E+01  0.24882981607E+02 -0.35477067527E+02  0.44097547391E+02  0.00000000000E+00 0.  1.
</event>
<event>
 7    1  0.4096472E-015  0.9000773E+02  0.7816164E-02  0.1186339E+00
        -11   -1    0    0    0    0  0.00000000000E+00  0.00000000000E+00  0.45593999997E+02  0.45594000000E+02  0.51100000000E-03 0. -1.
         11   -1    0    0    0    0 -0.00000000000E+00 -0.00000000000E+00 -0.45593999997E+02  0.45594000000E+02  0.51100000000E-03 0.  1.
    9900012    2    1    2    0    0 -0.93444266706E-01  0.52519195141E+00 -0.10528411077E+01  0.90007731889E+02  0.89999993150E+02 0.  0.
         12    1    1    2    0    0  0.93444266706E-01 -0.52519195141E+00  0.10528411077E+01  0.11802681114E+01  0.00000000000E+00 0. -1.
         11    1    3    3    0    0  0.59743617551E+01 -0.20247428467E+01 -0.62226536905E+01  0.88608126709E+01  0.51100000000E-03 0. -1.
        -11    1    3    3    0    0  0.12817513146E+02  0.11712374583E+02 -0.33168640046E+02  0.37438309850E+02  0.51100000000E-03 0.  1.
         12    1    3    3    0    0 -0.18885319168E+02 -0.91624397846E+01  0.38338452629E+02  0.43708609368E+02  0.00000000000E+00 0. -1.
</event>
<event>
 7    1  0.4096472E-015  0.9000782E+02  0.7816164E-02  0.1186339E+00
        -11   -1    0    0    0    0  0.00000000000E+00  0.00000000000E+00  0.45593999997E+02  0.45594000000E+02  0.51100000000E-03 0.  1.
         11   -1    0    0    0    0 -0.00000000000E+00 -0.00000000000E+00 -0.45593999997E+02  0.45594000000E+02  0.51100000000E-03 0. -1.
    9900012    2    1    2    0    0 -0.71506119270E+00  0.17650230510E+00  0.92214628758E+00  0.90007822323E+02  0.90000084778E+02 0.  0.
         12    1    1    2    0    0  0.71506119270E+00 -0.17650230510E+00 -0.92214628758E+00  0.11801776768E+01  0.00000000000E+00 0. -1.
         11    1    3    3    0    0  0.18147700036E+02 -0.12659481284E+02 -0.27046550692E+02  0.34944490089E+02  0.51100000000E-03 0. -1.
        -11    1    3    3    0    0  0.90944908867E+01  0.38970339023E+01 -0.48626407634E+01  0.11024604899E+02  0.51100000000E-03 0.  1.
        -12    1    3    3    0    0 -0.27957252116E+02  0.89389496869E+01  0.32831337743E+02  0.44038727335E+02  0.00000000000E+00 0.  1.
</event>
<event>
 7    1  0.4096472E-015  0.9000776E+02  0.7816164E-02  0.1186339E+00
        -11   -1    0    0    0    0  0.00000000000E+00  0.00000000000E+00  0.45593999997E+02  0.45594000000E+02  0.51100000000E-03 0.  1.
         11   -1    0    0    0    0 -0.00000000000E+00 -0.00000000000E+00 -0.45593999997E+02  0.45594000000E+02  0.51100000000E-03 0. -1.
    9900012    2    1    2    0    0  0.28515029993E+00 -0.90690144125E-01  0.11416830360E+01  0.90007756148E+02  0.90000017729E+02 0.  0.
         12    1    1    2    0    0 -0.28515029993E+00  0.90690144125E-01 -0.11416830360E+01  0.11802438521E+01  0.00000000000E+00 0. -1.
         11    1    3    3    0    0  0.27970448310E+02 -0.39245945634E+01 -0.27772623207E+02  0.39611450632E+02  0.51100000000E-03 0. -1.
        -11    1    3    3    0    0  0.56925423305E+01 -0.30604396063E+01  0.14461486700E+01  0.66228902305E+01  0.51100000000E-03 0.  1.
        -12    1    3    3    0    0 -0.33377840340E+02  0.68943440256E+01  0.27468157573E+02  0.43773415285E+02  0.00000000000E+00 0.  1.
</event>
<event>
 7    1  0.4096472E-015  0.9000775E+02  0.7816164E-02  0.1186339E+00
        -11   -1    0    0    0    0  0.00000000000E+00  0.00000000000E+00  0.45593999997E+02  0.45594000000E+02  0.51100000000E-03 0.  1.
         11   -1    0    0    0    0 -0.00000000000E+00 -0.00000000000E+00 -0.45593999997E+02  0.45594000000E+02  0.51100000000E-03 0. -1.
    9900012    2    1    2    0    0 -0.46006432820E+00 -0.10461130807E+01 -0.29491137328E+00  0.90007752364E+02  0.90000013895E+02 0.  0.
         12    1    1    2    0    0  0.46006432820E+00  0.10461130807E+01  0.29491137328E+00  0.11802476358E+01  0.00000000000E+00 0. -1.
         11    1    3    3    0    0  0.24588714287E+00  0.32143095968E+01  0.84132088315E+01  0.90096797820E+01  0.51100000000E-03 0. -1.
        -11    1    3    3    0    0  0.85858805229E+01 -0.21498365828E+02  0.29836632029E+02  0.37764026384E+02  0.51100000000E-03 0.  1.
         12    1    3    3    0    0 -0.92918319939E+01  0.17237943151E+02 -0.38544752234E+02  0.43234046198E+02  0.00000000000E+00 0. -1.
</event>
<event>
 7    1  0.4096472E-015  0.9000727E+02  0.7816164E-02  0.1186340E+00
        -11   -1    0    0    0    0  0.00000000000E+00  0.00000000000E+00  0.45593999997E+02  0.45594000000E+02  0.51100000000E-03 0. -1.
         11   -1    0    0    0    0 -0.00000000000E+00 -0.00000000000E+00 -0.45593999997E+02  0.45594000000E+02  0.51100000000E-03 0.  1.
    9900012    2    1    2    0    0  0.78252061029E+00 -0.79926879338E+00  0.37808316997E+00  0.90007273108E+02  0.89999528312E+02 0.  0.
         12    1    1    2    0    0 -0.78252061029E+00  0.79926879338E+00 -0.37808316997E+00  0.11807268918E+01  0.00000000000E+00 0. -1.
         11    1    3    3    0    0  0.38098656731E+02  0.83926774059E+01 -0.19630906706E+01  0.39061469557E+02  0.51100000000E-03 0. -1.
        -11    1    3    3    0    0  0.23660519685E+01 -0.10745411926E+02  0.22630558002E+01  0.11233142979E+02  0.51100000000E-03 0.  1.
        -12    1    3    3    0    0 -0.39682188089E+02  0.15534657267E+01  0.78118040363E-01  0.39712660572E+02  0.00000000000E+00 0.  1.
</event>
<event>
 7    1  0.4096472E-015  0.9000775E+02  0.7816164E-02  0.1186339E+00
        -11   -1    0    0    0    0  0.00000000000E+00  0.00000000000E+00  0.45593999997E+02  0.45594000000E+02  0.51100000000E-03 0.  1.
         11   -1    0    0    0    0 -0.00000000000E+00 -0.00000000000E+00 -0.45593999997E+02  0.45594000000E+02  0.51100000000E-03 0. -1.
    9900012    2    1    2    0    0  0.10713116804E+01 -0.48539345165E+00  0.98390996549E-01  0.90007747354E+02  0.90000008819E+02 0.  0.
         12    1    1    2    0    0 -0.10713116804E+01  0.48539345165E+00 -0.98390996549E-01  0.11802526457E+01  0.00000000000E+00 0. -1.
         11    1    3    3    0    0 -0.25123096918E+01  0.42521877087E+01 -0.80495796891E+01  0.94439681135E+01  0.51100000000E-03 0. -1.
        -11    1    3    3    0    0 -0.27444378644E+02  0.55863868492E+01  0.30149393189E+02  0.41150790358E+02  0.51100000000E-03 0.  1.
         12    1    3    3    0    0  0.31028000016E+02 -0.10323968009E+02 -0.22001422504E+02  0.39412988882E+02  0.00000000000E+00 0. -1.
</event>
<event>
 7    1  0.4096472E-015  0.9000775E+02  0.7816164E-02  0.1186339E+00
        -11   -1    0    0    0    0  0.00000000000E+00  0.00000000000E+00  0.45593999997E+02  0.45594000000E+02  0.51100000000E-03 0. -1.
         11   -1    0    0    0    0 -0.00000000000E+00 -0.00000000000E+00 -0.45593999997E+02  0.45594000000E+02  0.51100000000E-03 0.  1.
    9900012    2    1    2    0    0 -0.73891104359E+00 -0.92022772793E+00  0.13340714560E-01  0.90007751477E+02  0.90000012996E+02 0.  0.
         12    1    1    2    0    0  0.73891104359E+00  0.92022772793E+00 -0.13340714560E-01  0.11802485231E+01  0.00000000000E+00 0. -1.
         11    1    3    3    0    0 -0.17692447773E+02  0.33199362157E+02  0.16161629850E+02  0.40944091583E+02  0.51100000000E-03 0. -1.
        -11    1    3    3    0    0  0.86968467217E+01 -0.31016627143E+01  0.51208323084E+01  0.10558332174E+02  0.51100000000E-03 0.  1.
        -12    1    3    3    0    0  0.82566900078E+01 -0.31017927171E+02 -0.21269121444E+02  0.38505327721E+02  0.00000000000E+00 0.  1.
</event>
<event>
 7    1  0.4096472E-015  0.9000770E+02  0.7816164E-02  0.1186339E+00
        -11   -1    0    0    0    0  0.00000000000E+00  0.00000000000E+00  0.45593999997E+02  0.45594000000E+02  0.51100000000E-03 0.  1.
         11   -1    0    0    0    0 -0.00000000000E+00 -0.00000000000E+00 -0.45593999997E+02  0.45594000000E+02  0.51100000000E-03 0. -1.
    9900012    2    1    2    0    0 -0.58205861894E+00 -0.48091067052E+00  0.90721151165E+00  0.90007703412E+02  0.89999964297E+02 0.  0.
         12    1    1    2    0    0  0.58205861894E+00  0.48091067052E+00 -0.90721151165E+00  0.11802965881E+01  0.00000000000E+00 0. -1.
         11    1    3    3    0    0 -0.48433884671E+01  0.38996475360E+01 -0.55488792334E+01  0.83340100646E+01  0.51100000000E-03 0. -1.
        -11    1    3    3    0    0  0.14360375032E+02  0.32578575970E+02  0.20241733410E+02  0.40954996704E+02  0.51100000000E-03 0.  1.
         12    1    3    3    0    0 -0.10099045184E+02 -0.36959134176E+02 -0.13785642665E+02  0.40718696644E+02  0.00000000000E+00 0. -1.
</event>
<event>
 7    1  0.4096472E-015  0.9000773E+02  0.7816164E-02  0.1186339E+00
        -11   -1    0    0    0    0  0.00000000000E+00  0.00000000000E+00  0.45593999997E+02  0.45594000000E+02  0.51100000000E-03 0.  1.
         11   -1    0    0    0    0 -0.00000000000E+00 -0.00000000000E+00 -0.45593999997E+02  0.45594000000E+02  0.51100000000E-03 0. -1.
    9900012    2    1    2    0    0 -0.29786952916E+00  0.80883012361E+00  0.80628353590E+00  0.90007734960E+02  0.89999996261E+02 0.  0.
         12    1    1    2    0    0  0.29786952916E+00 -0.80883012361E+00 -0.80628353590E+00  0.11802650404E+01  0.00000000000E+00 0. -1.
         11    1    3    3    0    0 -0.18456064170E+02  0.13799080238E+02 -0.31051176170E+02  0.38668028937E+02  0.51100000000E-03 0. -1.
        -11    1    3    3    0    0 -0.70344211484E+01  0.54133945205E+01  0.50919208301E+01  0.10233063037E+02  0.51100000000E-03 0.  1.
        -12    1    3    3    0    0  0.25192615789E+02 -0.18403644635E+02  0.26765538876E+02  0.41106642985E+02  0.00000000000E+00 0.  1.
</event>
<event>
 7    1  0.4096472E-015  0.9000771E+02  0.7816164E-02  0.1186339E+00
        -11   -1    0    0    0    0  0.00000000000E+00  0.00000000000E+00  0.45593999997E+02  0.45594000000E+02  0.51100000000E-03 0. -1.
         11   -1    0    0    0    0 -0.00000000000E+00 -0.00000000000E+00 -0.45593999997E+02  0.45594000000E+02  0.51100000000E-03 0.  1.
    9900012    2    1    2    0    0  0.40287192171E+00 -0.10564755378E+01 -0.33859137931E+00  0.90007707464E+02  0.89999968403E+02 0.  0.
         12    1    1    2    0    0 -0.40287192171E+00  0.10564755378E+01  0.33859137931E+00  0.11802925355E+01  0.00000000000E+00 0. -1.
         11    1    3    3    0    0 -0.36685914816E+02  0.13797546347E+01 -0.46274111834E+01  0.37002337808E+02  0.51100000000E-03 0. -1.
        -11    1    3    3    0    0  0.47381672736E+01 -0.13697704596E+02  0.10878839410E+02  0.18122540867E+02  0.51100000000E-03 0.  1.
        -12    1    3    3    0    0  0.32350619464E+02  0.11261474423E+02 -0.65900196064E+01  0.34882828789E+02  0.00000000000E+00 0.  1.
</event>
<event>
 7    1  0.4096472E-015  0.9000780E+02  0.7816164E-02  0.1186339E+00
        -11   -1    0    0    0    0  0.00000000000E+00  0.00000000000E+00  0.45593999997E+02  0.45594000000E+02  0.51100000000E-03 0.  1.
         11   -1    0    0    0    0 -0.00000000000E+00 -0.00000000000E+00 -0.45593999997E+02  0.45594000000E+02  0.51100000000E-03 0. -1.
    9900012    2    1    2    0    0  0.96108544700E+00 -0.38657096235E+00  0.56545532802E+00  0.90007804222E+02  0.90000066438E+02 0.  0.
         12    1    1    2    0    0 -0.96108544700E+00  0.38657096235E+00 -0.56545532802E+00  0.11801957776E+01  0.00000000000E+00 0. -1.
         11    1    3    3    0    0  0.10339202979E+02  0.34458257572E+02 -0.20134445769E+02  0.41227012259E+02  0.51100000000E-03 0. -1.
        -11    1    3    3    0    0 -0.18712298759E+01  0.36686033654E+01 -0.55514874271E+00  0.41555194969E+01  0.51100000000E-03 0.  1.
        -12    1    3    3    0    0 -0.75068876558E+01 -0.38513431900E+02  0.21255049840E+02  0.44625272466E+02  0.00000000000E+00 0.  1.
</event>
<event>
 7    1  0.4096472E-015  0.9000762E+02  0.7816164E-02  0.1186339E+00
        -11   -1    0    0    0    0  0.00000000000E+00  0.00000000000E+00  0.45593999997E+02  0.45594000000E+02  0.51100000000E-03 0.  1.
         11   -1    0    0    0    0 -0.00000000000E+00 -0.00000000000E+00 -0.45593999997E+02  0.45594000000E+02  0.51100000000E-03 0. -1.
    9900012    2    1    2    0    0 -0.39774074391E-01  0.70559714087E+00  0.94543851685E+00  0.90007617311E+02  0.89999877060E+02 0.  0.
         12    1    1    2    0    0  0.39774074391E-01 -0.70559714087E+00 -0.94543851685E+00  0.11803826885E+01  0.00000000000E+00 0. -1.
         11    1    3    3    0    0 -0.23133291563E+01 -0.76434358033E+01 -0.50305750429E+01  0.94382354383E+01  0.51100000000E-03 0. -1.
        -11    1    3    3    0    0 -0.34744818966E+02 -0.13342504588E+02  0.57710901914E+01  0.37663382162E+02  0.51100000000E-03 0.  1.
         12    1    3    3    0    0  0.37018374048E+02  0.21691537532E+02  0.20492336835E+00  0.42905999711E+02  0.00000000000E+00 0. -1.
</event>
<event>
 7    1  0.4096472E-015  0.9000787E+02  0.7816164E-02  0.1186339E+00
        -11   -1    0    0    0    0  0.00000000000E+00  0.00000000000E+00  0.45593999997E+02  0.45594000000E+02  0.51100000000E-03 0.  1.
         11   -1    0    0    0    0 -0.00000000000E+00 -0.00000000000E+00 -0.45593999997E+02  0.45594000000E+02  0.51100000000E-03 0. -1.
    9900012    2    1    2    0    0 -0.19934661581E+00 -0.66158181586E+00  0.95670179587E+00  0.90007869542E+02  0.90000132620E+02 0.  0.
         12    1    1    2    0    0  0.19934661581E+00  0.66158181586E+00 -0.95670179587E+00  0.11801304583E+01  0.00000000000E+00 0. -1.
         11    1    3    3    0    0 -0.22098326441E+02  0.26644939487E+02  0.13798843514E+02  0.37265223928E+02  0.51100000000E-03 0. -1.
        -11    1    3    3    0    0 -0.93594370966E+01  0.41986422610E+00 -0.21244410161E+01  0.96066955102E+01  0.51100000000E-03 0.  1.
        -12    1    3    3    0    0  0.31258416922E+02 -0.27726385529E+02 -0.10717700702E+02  0.43135950104E+02  0.00000000000E+00 0.  1.
</event>
<event>
 7    1  0.4096472E-015  0.9000789E+02  0.7816164E-02  0.1186339E+00
        -11   -1    0    0    0    0  0.00000000000E+00  0.00000000000E+00  0.45593999997E+02  0.45594000000E+02  0.51100000000E-03 0. -1.
         11   -1    0    0    0    0 -0.00000000000E+00 -0.00000000000E+00 -0.45593999997E+02  0.45594000000E+02  0.51100000000E-03 0.  1.
    9900012    2    1    2    0    0 -0.74711302227E+00 -0.34543877188E+00 -0.84567415786E+00  0.90007885347E+02  0.90000148633E+02 0.  0.
         12    1    1    2    0    0  0.74711302227E+00  0.34543877188E+00  0.84567415786E+00  0.11801146531E+01  0.00000000000E+00 0. -1.
         11    1    3    3    0    0 -0.15169380665E+02 -0.32991899540E+02  0.21509788663E+02  0.42204816711E+02  0.51100000000E-03 0. -1.
        -11    1    3    3    0    0  0.26851654301E+01 -0.11288910021E+01  0.28345698361E+01  0.40643935216E+01  0.51100000000E-03 0.  1.
        -12    1    3    3    0    0  0.11737102213E+02  0.33775351770E+02 -0.25190032657E+02  0.43738675115E+02  0.00000000000E+00 0.  1.
</event>
<event>
 7    1  0.4096472E-015  0.9000773E+02  0.7816164E-02  0.1186339E+00
        -11   -1    0    0    0    0  0.00000000000E+00  0.00000000000E+00  0.45593999997E+02  0.45594000000E+02  0.51100000000E-03 0. -1.
         11   -1    0    0    0    0 -0.00000000000E+00 -0.00000000000E+00 -0.45593999997E+02  0.45594000000E+02  0.51100000000E-03 0.  1.
    9900012    2    1    2    0    0  0.80381177996E+00  0.70932677625E+00 -0.49373724472E+00  0.90007731251E+02  0.89999992503E+02 0.  0.
         12    1    1    2    0    0 -0.80381177996E+00 -0.70932677625E+00  0.49373724472E+00  0.11802687490E+01  0.00000000000E+00 0. -1.
         11    1    3    3    0    0  0.31771707054E+01 -0.17797319617E+01 -0.67929372501E+00  0.37044972361E+01  0.51100000000E-03 0. -1.
        -11    1    3    3    0    0  0.81291265191E+01  0.24273776547E+02 -0.35150324426E+02  0.43483838760E+02  0.51100000000E-03 0.  1.
         12    1    3    3    0    0 -0.10502485444E+02 -0.21784717809E+02  0.35335880907E+02  0.42819395255E+02  0.00000000000E+00 0. -1.
</event>
<event>
 7    1  0.4096472E-015  0.9000739E+02  0.7816164E-02  0.1186340E+00
        -11   -1    0    0    0    0  0.00000000000E+00  0.00000000000E+00  0.45593999997E+02  0.45594000000E+02  0.51100000000E-03 0.  1.
         11   -1    0    0    0    0 -0.00000000000E+00 -0.00000000000E+00 -0.45593999997E+02  0.45594000000E+02  0.51100000000E-03 0. -1.
    9900012    2    1    2    0    0  0.37817719067E-02  0.11730945365E+01 -0.13294693575E+00  0.90007389996E+02  0.89999646743E+02 0.  0.
         12    1    1    2    0    0 -0.37817719067E-02 -0.11730945365E+01  0.13294693575E+00  0.11806100039E+01  0.00000000000E+00 0. -1.
         11    1    3    3    0    0 -0.56757037378E+01 -0.39968904332E+02  0.11590759194E+02  0.42000864579E+02  0.51100000000E-03 0. -1.
        -11    1    3    3    0    0 -0.43604807896E-01  0.27394248158E+01 -0.86326578392E+01  0.90569935040E+01  0.51100000000E-03 0.  1.
        -12    1    3    3    0    0  0.57230903176E+01  0.38402574053E+02 -0.30910482908E+01  0.38949531913E+02  0.00000000000E+00 0.  1.
</event>
<event>
 7    1  0.4096472E-015  0.9000779E+02  0.7816164E-02  0.1186339E+00
        -11   -1    0    0    0    0  0.00000000000E+00  0.00000000000E+00  0.45593999997E+02  0.45594000000E+02  0.51100000000E-03 0. -1.
         11   -1    0    0    0    0 -0.00000000000E+00 -0.00000000000E+00 -0.45593999997E+02  0.45594000000E+02  0.51100000000E-03 0.  1.
    9900012    2    1    2    0    0 -0.24283689929E+00 -0.84978086354E+00 -0.78218102076E+00  0.90007786280E+02  0.90000048259E+02 0.  0.
         12    1    1    2    0    0  0.24283689929E+00  0.84978086354E+00  0.78218102076E+00  0.11802137200E+01  0.00000000000E+00 0. -1.
         11    1    3    3    0    0 -0.21438040990E+02  0.23008902538E+02  0.17264987340E+02  0.35875883063E+02  0.51100000000E-03 0. -1.
        -11    1    3    3    0    0  0.50842579496E+01  0.11283080692E+02 -0.42860512413E+01  0.13096863147E+02  0.51100000000E-03 0.  1.
        -12    1    3    3    0    0  0.16110946141E+02 -0.35141764093E+02 -0.13761117119E+02  0.41035040069E+02  0.00000000000E+00 0.  1.
</event>
<event>
 7    1  0.4096472E-015  0.9000789E+02  0.7816164E-02  0.1186339E+00
        -11   -1    0    0    0    0  0.00000000000E+00  0.00000000000E+00  0.45593999997E+02  0.45594000000E+02  0.51100000000E-03 0.  1.
         11   -1    0    0    0    0 -0.00000000000E+00 -0.00000000000E+00 -0.45593999997E+02  0.45594000000E+02  0.51100000000E-03 0. -1.
    9900012    2    1    2    0    0 -0.33862724017E+00 -0.73417032650E+00  0.85963670610E+00  0.90007894182E+02  0.90000157585E+02 0.  0.
         12    1    1    2    0    0  0.33862724017E+00  0.73417032650E+00 -0.85963670610E+00  0.11801058184E+01  0.00000000000E+00 0. -1.
         11    1    3    3    0    0  0.22008426932E+01  0.80939499198E+01 -0.63604898771E+01  0.10526707254E+02  0.51100000000E-03 0. -1.
        -11    1    3    3    0    0 -0.37516356216E+02  0.10806134693E+02  0.35658857782E+01  0.39204146112E+02  0.51100000000E-03 0.  1.
         12    1    3    3    0    0  0.34976886282E+02 -0.19634254940E+02  0.36542408050E+01  0.40277040816E+02  0.00000000000E+00 0. -1.
</event>
<event>
 7    1  0.4096472E-015  0.9000766E+02  0.7816164E-02  0.1186339E+00
        -11   -1    0    0    0    0  0.00000000000E+00  0.00000000000E+00  0.45593999997E+02  0.45594000000E+02  0.51100000000E-03 0. -1.
         11   -1    0    0    0    0 -0.00000000000E+00 -0.00000000000E+00 -0.45593999997E+02  0.45594000000E+02  0.51100000000E-03 0.  1.
    9900012    2    1    2    0    0  0.30593476012E+00  0.11399947713E+01 -0.38807278933E-02  0.90007661398E+02  0.89999921728E+02 0.  0.
         12    1    1    2    0    0 -0.30593476012E+00 -0.11399947713E+01  0.38807278933E-02  0.11803386023E+01  0.00000000000E+00 0. -1.
         11    1    3    3    0    0 -0.35492188687E+01 -0.75523555965E+01 -0.36038117675E+01  0.90896913672E+01  0.51100000000E-03 0. -1.
        -11    1    3    3    0    0  0.13502821066E+02 -0.23709666676E+01 -0.36086996511E+02  0.38603354480E+02  0.51100000000E-03 0.  1.
         12    1    3    3    0    0 -0.96476674375E+01  0.11063317035E+02  0.39686927550E+02  0.42314615551E+02  0.00000000000E+00 0. -1.
</event>
<event>
 7    1  0.4096472E-015  0.9000769E+02  0.7816164E-02  0.1186339E+00
        -11   -1    0    0    0    0  0.00000000000E+00  0.00000000000E+00  0.45593999997E+02  0.45594000000E+02  0.51100000000E-03 0.  1.
         11   -1    0    0    0    0 -0.00000000000E+00 -0.00000000000E+00 -0.45593999997E+02  0.45594000000E+02  0.51100000000E-03 0. -1.
    9900012    2    1    2    0    0 -0.19058820434E+00  0.10927392678E+01 -0.40339042029E+00  0.90007692073E+02  0.89999952809E+02 0.  0.
         12    1    1    2    0    0  0.19058820434E+00 -0.10927392678E+01  0.40339042029E+00  0.11803079268E+01  0.00000000000E+00 0. -1.
         11    1    3    3    0    0  0.30791342568E+01 -0.67067535150E+01 -0.38471484505E+02  0.39172908122E+02  0.51100000000E-03 0. -1.
        -11    1    3    3    0    0  0.59380990509E+01  0.41632262540E+01 -0.35365698570E+01  0.80685066644E+01  0.51100000000E-03 0.  1.
        -12    1    3    3    0    0 -0.92078215120E+01  0.36362665288E+01  0.41604663942E+02  0.42766277287E+02  0.00000000000E+00 0.  1.
</event>
<event>
 7    1  0.4096472E-015  0.9000732E+02  0.7816164E-02  0.1186340E+00
        -11   -1    0    0    0    0  0.00000000000E+00  0.00000000000E+00  0.45593999997E+02  0.45594000000E+02  0.51100000000E-03 0.  1.
         11   -1    0    0    0    0 -0.00000000000E+00 -0.00000000000E+00 -0.45593999997E+02  0.45594000000E+02  0.51100000000E-03 0. -1.
    9900012    2    1    2    0    0  0.46393262257E+00 -0.10227956293E+01 -0.36421886084E+00  0.90007322332E+02  0.89999578186E+02 0.  0.
         12    1    1    2    0    0 -0.46393262257E+00  0.10227956293E+01  0.36421886084E+00  0.11806776682E+01  0.00000000000E+00 0. -1.
         11    1    3    3    0    0  0.54407102815E+01  0.94374870246E+01 -0.16556998972E+01  0.11018567607E+02  0.51100000000E-03 0. -1.
        -11    1    3    3    0    0 -0.72715633794E+01  0.21330453232E+02 -0.27833248071E+02  0.35812757050E+02  0.51100000000E-03 0.  1.
         12    1    3    3    0    0  0.22947857205E+01 -0.31790735886E+02  0.29124729107E+02  0.43175997675E+02  0.00000000000E+00 0. -1.
</event>
<event>
 7    1  0.4096472E-015  0.9000771E+02  0.7816164E-02  0.1186339E+00
        -11   -1    0    0    0    0  0.00000000000E+00  0.00000000000E+00  0.45593999997E+02  0.45594000000E+02  0.51100000000E-03 0.  1.
         11   -1    0    0    0    0 -0.00000000000E+00 -0.00000000000E+00 -0.45593999997E+02  0.45594000000E+02  0.51100000000E-03 0. -1.
    9900012    2    1    2    0    0  0.76156853301E+00 -0.72532507006E+00 -0.53572063706E+00  0.90007712031E+02  0.89999973030E+02 0.  0.
         12    1    1    2    0    0 -0.76156853301E+00  0.72532507006E+00  0.53572063706E+00  0.11802879686E+01  0.00000000000E+00 0. -1.
         11    1    3    3    0    0  0.94259054913E+01  0.82029147782E+01  0.38323314612E+01  0.13069899383E+02  0.51100000000E-03 0. -1.
        -11    1    3    3    0    0  0.30888301270E+01 -0.22725866766E+02  0.30190897484E+02  0.37914326883E+02  0.51100000000E-03 0.  1.
        -12    1    3    3    0    0 -0.11753167085E+02  0.13797626917E+02 -0.34558949582E+02  0.39023485766E+02  0.00000000000E+00 0.  1.
</event>
<event>
 7    1  0.4096472E-015  0.9000770E+02  0.7816164E-02  0.1186339E+00
        -11   -1    0    0    0    0  0.00000000000E+00  0.00000000000E+00  0.45593999997E+02  0.45594000000E+02  0.51100000000E-03 0. -1.
         11   -1    0    0    0    0 -0.00000000000E+00 -0.00000000000E+00 -0.45593999997E+02  0.45594000000E+02  0.51100000000E-03 0.  1.
    9900012    2    1    2    0    0 -0.15457243404E-02 -0.10921337372E+01  0.44759781514E+00  0.90007702456E+02  0.89999963328E+02 0.  0.
         12    1    1    2    0    0  0.15457243404E-02  0.10921337372E+01 -0.44759781514E+00  0.11802975444E+01  0.00000000000E+00 0. -1.
         11    1    3    3    0    0 -0.84208673314E+01  0.84494832910E+01  0.34449356231E+01  0.12416616133E+02  0.51100000000E-03 0. -1.
        -11    1    3    3    0    0 -0.26482408462E+01  0.60053699509E+01 -0.37549568488E+02  0.38118863332E+02  0.51100000000E-03 0.  1.
         12    1    3    3    0    0  0.11067562453E+02 -0.15546986979E+02  0.34552230680E+02  0.39472222990E+02  0.00000000000E+00 0. -1.
</event>
<event>
 7    1  0.4096472E-015  0.9000786E+02  0.7816164E-02  0.1186339E+00
        -11   -1    0    0    0    0  0.00000000000E+00  0.00000000000E+00  0.45593999997E+02  0.45594000000E+02  0.51100000000E-03 0. -1.
         11   -1    0    0    0    0 -0.00000000000E+00 -0.00000000000E+00 -0.45593999997E+02  0.45594000000E+02  0.51100000000E-03 0.  1.
    9900012    2    1    2    0    0 -0.15715394835E+00  0.98655143077E+00 -0.62829458117E+00  0.90007857987E+02  0.90000120913E+02 0.  0.
         12    1    1    2    0    0  0.15715394835E+00 -0.98655143077E+00  0.62829458117E+00  0.11801420125E+01  0.00000000000E+00 0. -1.
         11    1    3    3    0    0 -0.78719571913E+01  0.62257345161E+01  0.23216414144E+01  0.10301334836E+02  0.51100000000E-03 0. -1.
        -11    1    3    3    0    0 -0.32697192998E+02 -0.17716382536E+02 -0.39715265673E+01  0.37399861813E+02  0.51100000000E-03 0.  1.
         12    1    3    3    0    0  0.40411996241E+02  0.12477199450E+02  0.10215905718E+01  0.42306661338E+02  0.00000000000E+00 0. -1.
</event>
<event>
 7    1  0.4096472E-015  0.9000783E+02  0.7816164E-02  0.1186339E+00
        -11   -1    0    0    0    0  0.00000000000E+00  0.00000000000E+00  0.45593999997E+02  0.45594000000E+02  0.51100000000E-03 0.  1.
         11   -1    0    0    0    0 -0.00000000000E+00 -0.00000000000E+00 -0.45593999997E+02  0.45594000000E+02  0.51100000000E-03 0. -1.
    9900012    2    1    2    0    0 -0.63608358261E+00  0.22568982306E+00  0.96812102600E+00  0.90007831986E+02  0.90000094568E+02 0.  0.
         12    1    1    2    0    0  0.63608358261E+00 -0.22568982306E+00 -0.96812102600E+00  0.11801680140E+01  0.00000000000E+00 0. -1.
         11    1    3    3    0    0 -0.61060883016E+01 -0.33846709078E+02 -0.70275964799E+01  0.35103719778E+02  0.51100000000E-03 0. -1.
        -11    1    3    3    0    0 -0.93653727887E+01 -0.62592014327E+01  0.45242904114E+00  0.11273531050E+02  0.51100000000E-03 0.  1.
        -12    1    3    3    0    0  0.14835377508E+02  0.40331600333E+02  0.75432884648E+01  0.43630581157E+02  0.00000000000E+00 0.  1.
</event>
<event>
 7    1  0.4096472E-015  0.9000779E+02  0.7816164E-02  0.1186339E+00
        -11   -1    0    0    0    0  0.00000000000E+00  0.00000000000E+00  0.45593999997E+02  0.45594000000E+02  0.51100000000E-03 0.  1.
         11   -1    0    0    0    0 -0.00000000000E+00 -0.00000000000E+00 -0.45593999997E+02  0.45594000000E+02  0.51100000000E-03 0. -1.
    9900012    2    1    2    0    0 -0.72058301182E+00 -0.78868851925E+00  0.50161740269E+00  0.90007792613E+02  0.90000054676E+02 0.  0.
         12    1    1    2    0    0  0.72058301182E+00  0.78868851925E+00 -0.50161740269E+00  0.11802073869E+01  0.00000000000E+00 0. -1.
         11    1    3    3    0    0  0.88111410837E+01 -0.34743004323E+01  0.26195484822E+01  0.98269529968E+01  0.51100000000E-03 0. -1.
        -11    1    3    3    0    0 -0.40988382940E+02 -0.12697533039E+02  0.81769864005E+01  0.43682238818E+02  0.51100000000E-03 0.  1.
         12    1    3    3    0    0  0.31456658845E+02  0.15383144952E+02 -0.10294917480E+02  0.36498600798E+02  0.00000000000E+00 0. -1.
</event>
<event>
 7    1  0.4096472E-015  0.9000747E+02  0.7816164E-02  0.1186340E+00
        -11   -1    0    0    0    0  0.00000000000E+00  0.00000000000E+00  0.45593999997E+02  0.45594000000E+02  0.51100000000E-03 0.  1.
         11   -1    0    0    0    0 -0.00000000000E+00 -0.00000000000E+00 -0.45593999997E+02  0.45594000000E+02  0.51100000000E-03 0. -1.
    9900012    2    1    2    0    0 -0.17892100234E+00  0.41912892150E-01  0.11661424125E+01  0.90007467264E+02  0.89999725031E+02 0.  0.
         12    1    1    2    0    0  0.17892100234E+00 -0.41912892150E-01 -0.11661424125E+01  0.11805327365E+01  0.00000000000E+00 0. -1.
         11    1    3    3    0    0  0.10171730929E+02  0.72465391260E+01 -0.36962121539E+01  0.13024531621E+02  0.51100000000E-03 0. -1.
        -11    1    3    3    0    0 -0.35006530479E+02  0.10963208501E+02  0.21099647879E+02  0.42318367853E+02  0.51100000000E-03 0.  1.
         12    1    3    3    0    0  0.24655878549E+02 -0.18167834735E+02 -0.16237293313E+02  0.34664567790E+02  0.00000000000E+00 0. -1.
</event>
<event>
 7    1  0.4096472E-015  0.9000775E+02  0.7816164E-02  0.1186339E+00
        -11   -1    0    0    0    0  0.00000000000E+00  0.00000000000E+00  0.45593999997E+02  0.45594000000E+02  0.51100000000E-03 0.  1.
         11   -1    0    0    0    0 -0.00000000000E+00 -0.00000000000E+00 -0.45593999997E+02  0.45594000000E+02  0.51100000000E-03 0. -1.
    9900012    2    1    2    0    0  0.10907699039E+01 -0.93334912665E-02  0.45068741992E+00  0.90007752040E+02  0.90000013567E+02 0.  0.
         12    1    1    2    0    0 -0.10907699039E+01  0.93334912665E-02 -0.45068741992E+00  0.11802479603E+01  0.00000000000E+00 0. -1.
         11    1    3    3    0    0  0.17168594776E+02  0.27681478381E+02 -0.27167342641E+02  0.42415673971E+02  0.51100000000E-03 0. -1.
        -11    1    3    3    0    0 -0.50988556701E+01  0.30161500755E+01  0.62090362029E+01  0.85818192275E+01  0.51100000000E-03 0.  1.
        -12    1    3    3    0    0 -0.10978969203E+02 -0.30706961948E+02  0.21408993858E+02  0.39010258841E+02  0.00000000000E+00 0.  1.
</event>
<event>
 7    1  0.4096472E-015  0.9000883E+02  0.7816164E-02  0.1186337E+00
        -11   -1    0    0    0    0  0.00000000000E+00  0.00000000000E+00  0.45593999997E+02  0.45594000000E+02  0.51100000000E-03 0.  1.
         11   -1    0    0    0    0 -0.00000000000E+00 -0.00000000000E+00 -0.45593999997E+02  0.45594000000E+02  0.51100000000E-03 0. -1.
    9900012    2    1    2    0    0  0.92926075958E+00 -0.64108194606E+00  0.34049756156E+00  0.90008826472E+02  0.90001102174E+02 0.  0.
         12    1    1    2    0    0 -0.92926075958E+00  0.64108194606E+00 -0.34049756156E+00  0.11791735285E+01  0.00000000000E+00 0. -1.
         11    1    3    3    0    0 -0.91773391618E+01  0.28396061209E+01  0.79196373939E+00  0.96391972611E+01  0.51100000000E-03 0. -1.
        -11    1    3    3    0    0  0.42766314182E+02  0.47573642088E+00 -0.13691237821E+02  0.44906947650E+02  0.51100000000E-03 0.  1.
         12    1    3    3    0    0 -0.32659714261E+02 -0.39564244878E+01  0.13239771643E+02  0.35462681561E+02  0.00000000000E+00 0. -1.
</event>
<event>
 7    1  0.4096472E-015  0.9000774E+02  0.7816164E-02  0.1186339E+00
        -11   -1    0    0    0    0  0.00000000000E+00  0.00000000000E+00  0.45593999997E+02  0.45594000000E+02  0.51100000000E-03 0. -1.
         11   -1    0    0    0    0 -0.00000000000E+00 -0.00000000000E+00 -0.45593999997E+02  0.45594000000E+02  0.51100000000E-03 0.  1.
    9900012    2    1    2    0    0  0.29536841985E-01  0.10945231371E+01 -0.44064713342E+00  0.90007735954E+02  0.89999997268E+02 0.  0.
         12    1    1    2    0    0 -0.29536841985E-01 -0.10945231371E+01  0.44064713342E+00  0.11802640463E+01  0.00000000000E+00 0. -1.
         11    1    3    3    0    0 -0.14152165900E+02 -0.34378512058E+01 -0.73293759461E+01  0.16304060003E+02  0.51100000000E-03 0. -1.
        -11    1    3    3    0    0  0.32701070302E+02  0.91701278329E+01 -0.20982088162E+02  0.39921163150E+02  0.51100000000E-03 0.  1.
         12    1    3    3    0    0 -0.18519367561E+02 -0.46377534900E+01  0.27870816974E+02  0.33782512800E+02  0.00000000000E+00 0. -1.
</event>
<event>
 7    1  0.4096472E-015  0.9000763E+02  0.7816164E-02  0.1186339E+00
        -11   -1    0    0    0    0  0.00000000000E+00  0.00000000000E+00  0.45593999997E+02  0.45594000000E+02  0.51100000000E-03 0.  1.
         11   -1    0    0    0    0 -0.00000000000E+00 -0.00000000000E+00 -0.45593999997E+02  0.45594000000E+02  0.51100000000E-03 0. -1.
    9900012    2    1    2    0    0  0.10839350330E+01  0.95474363563E-01 -0.45743132860E+00  0.90007629749E+02  0.89999889661E+02 0.  0.
         12    1    1    2    0    0 -0.10839350330E+01 -0.95474363563E-01  0.45743132860E+00  0.11803702513E+01  0.00000000000E+00 0. -1.
         11    1    3    3    0    0  0.20288005423E+02 -0.45358298645E+01  0.13092445843E+02  0.24568049475E+02  0.51100000000E-03 0. -1.
        -11    1    3    3    0    0  0.17446640329E+02  0.74189931943E+01  0.10346445024E+02  0.21598047220E+02  0.51100000000E-03 0.  1.
         12    1    3    3    0    0 -0.36650710720E+02 -0.27876889663E+01 -0.23896322196E+02  0.43841533054E+02  0.00000000000E+00 0. -1.
</event>
<event>
 7    1  0.4096472E-015  0.9000785E+02  0.7816164E-02  0.1186339E+00
        -11   -1    0    0    0    0  0.00000000000E+00  0.00000000000E+00  0.45593999997E+02  0.45594000000E+02  0.51100000000E-03 0. -1.
         11   -1    0    0    0    0 -0.00000000000E+00 -0.00000000000E+00 -0.45593999997E+02  0.45594000000E+02  0.51100000000E-03 0.  1.
    9900012    2    1    2    0    0 -0.60785783016E-02  0.25380077648E+00 -0.11525174049E+01  0.90007852487E+02  0.90000115340E+02 0.  0.
         12    1    1    2    0    0  0.60785783016E-02 -0.25380077648E+00  0.11525174049E+01  0.11801475128E+01  0.00000000000E+00 0. -1.
         11    1    3    3    0    0  0.38380004649E+01  0.92401053402E+00 -0.82454880541E+01  0.91417786315E+01  0.51100000000E-03 0. -1.
        -11    1    3    3    0    0  0.10436276952E+02 -0.25070081589E+02 -0.25824470682E+02  0.37474366623E+02  0.51100000000E-03 0.  1.
         12    1    3    3    0    0 -0.14280355995E+02  0.24399871832E+02  0.32917441332E+02  0.43391707233E+02  0.00000000000E+00 0. -1.
</event>
<event>
 7    1  0.4096472E-015  0.9000687E+02  0.7816164E-02  0.1186341E+00
        -11   -1    0    0    0    0  0.00000000000E+00  0.00000000000E+00  0.45593999997E+02  0.45594000000E+02  0.51100000000E-03 0. -1.
         11   -1    0    0    0    0 -0.00000000000E+00 -0.00000000000E+00 -0.45593999997E+02  0.45594000000E+02  0.51100000000E-03 0.  1.
    9900012    2    1    2    0    0  0.10606004697E+00 -0.10563193452E+01  0.51770552251E+00  0.90006865672E+02  0.89999115495E+02 0.  0.
         12    1    1    2    0    0 -0.10606004697E+00  0.10563193452E+01 -0.51770552251E+00  0.11811343279E+01  0.00000000000E+00 0. -1.
         11    1    3    3    0    0  0.27034961442E+01  0.16101956388E+02  0.53061761868E+01  0.17167917663E+02  0.51100000000E-03 0. -1.
        -11    1    3    3    0    0  0.26083199834E+02 -0.27835473217E+02  0.91225296634E+01  0.39222027364E+02  0.51100000000E-03 0.  1.
         12    1    3    3    0    0 -0.28680635931E+02  0.10677197484E+02 -0.13911000328E+02  0.33616920645E+02  0.00000000000E+00 0. -1.
</event>
<event>
 7    1  0.4096472E-015  0.9000770E+02  0.7816164E-02  0.1186339E+00
        -11   -1    0    0    0    0  0.00000000000E+00  0.00000000000E+00  0.45593999997E+02  0.45594000000E+02  0.51100000000E-03 0. -1.
         11   -1    0    0    0    0 -0.00000000000E+00 -0.00000000000E+00 -0.45593999997E+02  0.45594000000E+02  0.51100000000E-03 0.  1.
    9900012    2    1    2    0    0  0.75236371893E+00 -0.89303948018E+00 -0.17187533579E+00  0.90007698424E+02  0.89999959243E+02 0.  0.
         12    1    1    2    0    0 -0.75236371893E+00  0.89303948018E+00  0.17187533579E+00  0.11803015758E+01  0.00000000000E+00 0. -1.
         11    1    3    3    0    0 -0.31220381651E+02  0.58671591206E+01  0.43363626044E+01  0.32061500705E+02  0.51100000000E-03 0. -1.
        -11    1    3    3    0    0 -0.42428848040E+01 -0.17217764581E+02 -0.91704236953E+01  0.19963721087E+02  0.51100000000E-03 0.  1.
         12    1    3    3    0    0  0.36215630174E+02  0.10457565980E+02  0.46621857551E+01  0.37982476632E+02  0.00000000000E+00 0. -1.
</event>
<event>
 7    1  0.4096472E-015  0.9000775E+02  0.7816164E-02  0.1186339E+00
        -11   -1    0    0    0    0  0.00000000000E+00  0.00000000000E+00  0.45593999997E+02  0.45594000000E+02  0.51100000000E-03 0. -1.
         11   -1    0    0    0    0 -0.00000000000E+00 -0.00000000000E+00 -0.45593999997E+02  0.45594000000E+02  0.51100000000E-03 0.  1.
    9900012    2    1    2    0    0 -0.80711143543E+00 -0.79656436432E+00 -0.32716564316E+00  0.90007753833E+02  0.90000015384E+02 0.  0.
         12    1    1    2    0    0  0.80711143543E+00  0.79656436432E+00  0.32716564316E+00  0.11802461666E+01  0.00000000000E+00 0. -1.
         11    1    3    3    0    0  0.10195496536E+02 -0.16390798985E+02  0.32473173025E+02  0.37777154572E+02  0.51100000000E-03 0. -1.
        -11    1    3    3    0    0  0.65460449106E-01  0.45870946018E+01  0.76236378698E+01  0.88975039527E+01  0.51100000000E-03 0.  1.
        -12    1    3    3    0    0 -0.11068068420E+02  0.11007140019E+02 -0.40423976538E+02  0.43333095309E+02  0.00000000000E+00 0.  1.
</event>
<event>
 7    1  0.4096472E-015  0.9000782E+02  0.7816164E-02  0.1186339E+00
        -11   -1    0    0    0    0  0.00000000000E+00  0.00000000000E+00  0.45593999997E+02  0.45594000000E+02  0.51100000000E-03 0. -1.
         11   -1    0    0    0    0 -0.00000000000E+00 -0.00000000000E+00 -0.45593999997E+02  0.45594000000E+02  0.51100000000E-03 0.  1.
    9900012    2    1    2    0    0 -0.96061646324E+00  0.34800645600E+00 -0.59069694946E+00  0.90007824009E+02  0.90000086486E+02 0.  0.
         12    1    1    2    0    0  0.96061646324E+00 -0.34800645600E+00  0.59069694946E+00  0.11801759907E+01  0.00000000000E+00 0. -1.
         11    1    3    3    0    0  0.65521217120E+01 -0.19206405883E+01  0.84914600563E+01  0.10896056780E+02  0.51100000000E-03 0. -1.
        -11    1    3    3    0    0  0.22873120391E+02  0.21555733337E+02  0.15976334509E+02  0.35257233878E+02  0.51100000000E-03 0.  1.
         12    1    3    3    0    0 -0.30385858566E+02 -0.19287086293E+02 -0.25058491514E+02  0.43854533351E+02  0.00000000000E+00 0. -1.
</event>
<event>
 7    1  0.4096472E-015  0.9000778E+02  0.7816164E-02  0.1186339E+00
        -11   -1    0    0    0    0  0.00000000000E+00  0.00000000000E+00  0.45593999997E+02  0.45594000000E+02  0.51100000000E-03 0.  1.
         11   -1    0    0    0    0 -0.00000000000E+00 -0.00000000000E+00 -0.45593999997E+02  0.45594000000E+02  0.51100000000E-03 0. -1.
    9900012    2    1    2    0    0 -0.82437038720E-02 -0.11743887815E+01 -0.11685040838E+00  0.90007783500E+02  0.90000045442E+02 0.  0.
         12    1    1    2    0    0  0.82437038720E-02  0.11743887815E+01  0.11685040838E+00  0.11802164999E+01  0.00000000000E+00 0. -1.
         11    1    3    3    0    0 -0.29512455223E+02 -0.96561394958E+01 -0.10178411972E+02  0.32677608753E+02  0.51100000000E-03 0. -1.
        -11    1    3    3    0    0  0.14182056421E+02  0.14916891203E+02  0.26767528490E+02  0.33766032477E+02  0.51100000000E-03 0.  1.
         12    1    3    3    0    0  0.15322155098E+02 -0.64351404890E+01 -0.16705966926E+02  0.23564142270E+02  0.00000000000E+00 0. -1.
</event>
<event>
 7    1  0.4096472E-015  0.9000772E+02  0.7816164E-02  0.1186339E+00
        -11   -1    0    0    0    0  0.00000000000E+00  0.00000000000E+00  0.45593999997E+02  0.45594000000E+02  0.51100000000E-03 0.  1.
         11   -1    0    0    0    0 -0.00000000000E+00 -0.00000000000E+00 -0.45593999997E+02  0.45594000000E+02  0.51100000000E-03 0. -1.
    9900012    2    1    2    0    0 -0.67035672411E+00  0.71474127639E+00 -0.65789114460E+00  0.90007722919E+02  0.89999984062E+02 0.  0.
         12    1    1    2    0    0  0.67035672411E+00 -0.71474127639E+00  0.65789114460E+00  0.11802770810E+01  0.00000000000E+00 0. -1.
         11    1    3    3    0    0  0.21305996924E+02 -0.28001825798E+02  0.24983210636E+02  0.43153314669E+02  0.51100000000E-03 0. -1.
        -11    1    3    3    0    0 -0.62450213540E+01  0.69783701279E+00 -0.80799440433E+01  0.10235856789E+02  0.51100000000E-03 0.  1.
        -12    1    3    3    0    0 -0.15731332294E+02  0.28018730061E+02 -0.17561157738E+02  0.36618551461E+02  0.00000000000E+00 0.  1.
</event>
<event>
 7    1  0.4096472E-015  0.9000779E+02  0.7816164E-02  0.1186339E+00
        -11   -1    0    0    0    0  0.00000000000E+00  0.00000000000E+00  0.45593999997E+02  0.45594000000E+02  0.51100000000E-03 0.  1.
         11   -1    0    0    0    0 -0.00000000000E+00 -0.00000000000E+00 -0.45593999997E+02  0.45594000000E+02  0.51100000000E-03 0. -1.
    9900012    2    1    2    0    0 -0.28753095837E+00  0.54664731795E+00  0.10056876906E+01  0.90007786005E+02  0.90000047981E+02 0.  0.
         12    1    1    2    0    0  0.28753095837E+00 -0.54664731795E+00 -0.10056876906E+01  0.11802139947E+01  0.00000000000E+00 0. -1.
         11    1    3    3    0    0  0.43801620670E+00  0.57067440654E+01  0.85591652105E+01  0.10296508893E+02  0.51100000000E-03 0. -1.
        -11    1    3    3    0    0 -0.74430852163E+00 -0.35158660728E+02  0.18715676002E+02  0.39836690975E+02  0.51100000000E-03 0.  1.
         12    1    3    3    0    0  0.18761356566E-01  0.29998563980E+02 -0.26269153522E+02  0.39874586137E+02  0.00000000000E+00 0. -1.
</event>
<event>
 7    1  0.4096472E-015  0.9000775E+02  0.7816164E-02  0.1186339E+00
        -11   -1    0    0    0    0  0.00000000000E+00  0.00000000000E+00  0.45593999997E+02  0.45594000000E+02  0.51100000000E-03 0. -1.
         11   -1    0    0    0    0 -0.00000000000E+00 -0.00000000000E+00 -0.45593999997E+02  0.45594000000E+02  0.51100000000E-03 0.  1.
    9900012    2    1    2    0    0 -0.57344434874E+00 -0.72727647570E+00 -0.73158752605E+00  0.90007750111E+02  0.90000011612E+02 0.  0.
         12    1    1    2    0    0  0.57344434874E+00  0.72727647570E+00  0.73158752605E+00  0.11802498894E+01  0.00000000000E+00 0. -1.
         11    1    3    3    0    0  0.76858320683E+01 -0.35307075892E+02  0.20312637569E+02  0.41451958553E+02  0.51100000000E-03 0. -1.
        -11    1    3    3    0    0 -0.58982890228E+01  0.41121593364E+01  0.47067267971E+01  0.85937736303E+01  0.51100000000E-03 0.  1.
        -12    1    3    3    0    0 -0.23609873943E+01  0.30467640079E+02 -0.25750951892E+02  0.39962017928E+02  0.00000000000E+00 0.  1.
</event>
<event>
 7    1  0.4096472E-015  0.9000767E+02  0.7816164E-02  0.1186339E+00
        -11   -1    0    0    0    0  0.00000000000E+00  0.00000000000E+00  0.45593999997E+02  0.45594000000E+02  0.51100000000E-03 0. -1.
         11   -1    0    0    0    0 -0.00000000000E+00 -0.00000000000E+00 -0.45593999997E+02  0.45594000000E+02  0.51100000000E-03 0.  1.
    9900012    2    1    2    0    0  0.10261584170E+01  0.27308835774E+00  0.51536993358E+00  0.90007667625E+02  0.89999928037E+02 0.  0.
         12    1    1    2    0    0 -0.10261584170E+01 -0.27308835774E+00 -0.51536993358E+00  0.11803323754E+01  0.00000000000E+00 0. -1.
         11    1    3    3    0    0 -0.16967547006E+02  0.75740513847E+01  0.38007338282E+02  0.42306284041E+02  0.51100000000E-03 0. -1.
        -11    1    3    3    0    0  0.14067648025E+02  0.44146980634E+01 -0.10762752981E+02  0.18254455125E+02  0.51100000000E-03 0.  1.
        -12    1    3    3    0    0  0.39260573984E+01 -0.11715661090E+02 -0.26729215368E+02  0.29446928459E+02  0.00000000000E+00 0.  1.
</event>
<event>
 7    1  0.4096472E-015  0.9000774E+02  0.7816164E-02  0.1186339E+00
        -11   -1    0    0    0    0  0.00000000000E+00  0.00000000000E+00  0.45593999997E+02  0.45594000000E+02  0.51100000000E-03 0.  1.
         11   -1    0    0    0    0 -0.00000000000E+00 -0.00000000000E+00 -0.45593999997E+02  0.45594000000E+02  0.51100000000E-03 0. -1.
    9900012    2    1    2    0    0 -0.77246031664E+00 -0.36719952197E+00 -0.81331899652E+00  0.90007738072E+02  0.89999999414E+02 0.  0.
         12    1    1    2    0    0  0.77246031664E+00  0.36719952197E+00  0.81331899652E+00  0.11802619285E+01  0.00000000000E+00 0. -1.
         11    1    3    3    0    0 -0.11859493294E+02  0.52062825710E+01 -0.18284638073E+01  0.13080376124E+02  0.51100000000E-03 0. -1.
        -11    1    3    3    0    0 -0.23184561156E+02  0.31532088226E+01  0.24964896436E+02  0.34215678515E+02  0.51100000000E-03 0.  1.
         12    1    3    3    0    0  0.34271594133E+02 -0.87266909156E+01 -0.23949751626E+02  0.42711683433E+02  0.00000000000E+00 0. -1.
</event>
<event>
 7    1  0.4096472E-015  0.9000753E+02  0.7816164E-02  0.1186339E+00
        -11   -1    0    0    0    0  0.00000000000E+00  0.00000000000E+00  0.45593999997E+02  0.45594000000E+02  0.51100000000E-03 0.  1.
         11   -1    0    0    0    0 -0.00000000000E+00 -0.00000000000E+00 -0.45593999997E+02  0.45594000000E+02  0.51100000000E-03 0. -1.
    9900012    2    1    2    0    0  0.47101106252E+00 -0.10044277193E+01 -0.40346925148E+00  0.90007528102E+02  0.89999786673E+02 0.  0.
         12    1    1    2    0    0 -0.47101106252E+00  0.10044277193E+01  0.40346925148E+00  0.11804718976E+01  0.00000000000E+00 0. -1.
         11    1    3    3    0    0  0.36213143582E+01 -0.38992540196E+01 -0.74109584589E+01  0.91236179847E+01  0.51100000000E-03 0. -1.
        -11    1    3    3    0    0 -0.30732695127E+02 -0.24312907731E+02 -0.67626850846E+01  0.39766190941E+02  0.51100000000E-03 0.  1.
         12    1    3    3    0    0  0.27582391831E+02  0.27207734032E+02  0.13770174292E+02  0.41117719177E+02  0.00000000000E+00 0. -1.
</event>
<event>
 7    1  0.4096472E-015  0.9000768E+02  0.7816164E-02  0.1186339E+00
        -11   -1    0    0    0    0  0.00000000000E+00  0.00000000000E+00  0.45593999997E+02  0.45594000000E+02  0.51100000000E-03 0. -1.
         11   -1    0    0    0    0 -0.00000000000E+00 -0.00000000000E+00 -0.45593999997E+02  0.45594000000E+02  0.51100000000E-03 0.  1.
    9900012    2    1    2    0    0  0.30642578584E+00 -0.11271868206E+01  0.16944351026E+00  0.90007678860E+02  0.89999939421E+02 0.  0.
         12    1    1    2    0    0 -0.30642578584E+00  0.11271868206E+01 -0.16944351026E+00  0.11803211402E+01  0.00000000000E+00 0. -1.
         11    1    3    3    0    0 -0.14354028190E+01  0.83697714530E+01 -0.18693913782E+01  0.86952906688E+01  0.51100000000E-03 0. -1.
        -11    1    3    3    0    0  0.27832822507E+02  0.20773523522E+02  0.16965487198E+02  0.38652723634E+02  0.51100000000E-03 0.  1.
         12    1    3    3    0    0 -0.26090993902E+02 -0.30270481796E+02 -0.14926652310E+02  0.42659664557E+02  0.00000000000E+00 0. -1.
</event>
<event>
 7    1  0.4096472E-015  0.9000768E+02  0.7816164E-02  0.1186339E+00
        -11   -1    0    0    0    0  0.00000000000E+00  0.00000000000E+00  0.45593999997E+02  0.45594000000E+02  0.51100000000E-03 0.  1.
         11   -1    0    0    0    0 -0.00000000000E+00 -0.00000000000E+00 -0.45593999997E+02  0.45594000000E+02  0.51100000000E-03 0. -1.
    9900012    2    1    2    0    0  0.11231961560E+01 -0.36254656949E+00 -0.12510710931E-01  0.90007675410E+02  0.89999935925E+02 0.  0.
         12    1    1    2    0    0 -0.11231961560E+01  0.36254656949E+00  0.12510710931E-01  0.11803245900E+01  0.00000000000E+00 0. -1.
         11    1    3    3    0    0  0.26852094276E+02 -0.18026552962E+02 -0.22853894689E+02  0.39601667659E+02  0.51100000000E-03 0. -1.
        -11    1    3    3    0    0 -0.37354159773E+01 -0.91967428269E+01  0.27718537544E+01  0.10306143054E+02  0.51100000000E-03 0.  1.
        -12    1    3    3    0    0 -0.21993482142E+02  0.26860749219E+02  0.20069530224E+02  0.40099864697E+02  0.00000000000E+00 0.  1.
</event>
<event>
 7    1  0.4096472E-015  0.9000765E+02  0.7816164E-02  0.1186339E+00
        -11   -1    0    0    0    0  0.00000000000E+00  0.00000000000E+00  0.45593999997E+02  0.45594000000E+02  0.51100000000E-03 0.  1.
         11   -1    0    0    0    0 -0.00000000000E+00 -0.00000000000E+00 -0.45593999997E+02  0.45594000000E+02  0.51100000000E-03 0. -1.
    9900012    2    1    2    0    0  0.84991256438E+00 -0.73634329714E+00  0.35870752567E+00  0.90007650938E+02  0.89999911131E+02 0.  0.
         12    1    1    2    0    0 -0.84991256438E+00  0.73634329714E+00 -0.35870752567E+00  0.11803490616E+01  0.00000000000E+00 0. -1.
         11    1    3    3    0    0  0.61139057319E+01 -0.48347838621E+01  0.77339716748E+01  0.10980405112E+02  0.51100000000E-03 0. -1.
        -11    1    3    3    0    0 -0.33296679441E+02 -0.75304928021E+01  0.18780368982E+02  0.38962538970E+02  0.51100000000E-03 0.  1.
         12    1    3    3    0    0  0.28032686274E+02  0.11628933367E+02 -0.26155633131E+02  0.40064706856E+02  0.00000000000E+00 0. -1.
</event>
<event>
 7    1  0.4096472E-015  0.9000774E+02  0.7816164E-02  0.1186339E+00
        -11   -1    0    0    0    0  0.00000000000E+00  0.00000000000E+00  0.45593999997E+02  0.45594000000E+02  0.51100000000E-03 0.  1.
         11   -1    0    0    0    0 -0.00000000000E+00 -0.00000000000E+00 -0.45593999997E+02  0.45594000000E+02  0.51100000000E-03 0. -1.
    9900012    2    1    2    0    0 -0.25456168117E-01 -0.90101947560E+00  0.76192066943E+00  0.90007742732E+02  0.90000004136E+02 0.  0.
         12    1    1    2    0    0  0.25456168117E-01  0.90101947560E+00 -0.76192066943E+00  0.11802572679E+01  0.00000000000E+00 0. -1.
         11    1    3    3    0    0 -0.32793163670E+02  0.34736656248E+01 -0.15720710942E+02  0.36532159656E+02  0.51100000000E-03 0. -1.
        -11    1    3    3    0    0 -0.61461842563E+01 -0.49766352333E+01 -0.46657695038E+01  0.91821503190E+01  0.51100000000E-03 0.  1.
        -12    1    3    3    0    0  0.38913891758E+02  0.60195013292E+00  0.21148401115E+02  0.44293432757E+02  0.00000000000E+00 0.  1.
</event>
<event>
 7    1  0.4096472E-015  0.9000775E+02  0.7816164E-02  0.1186339E+00
        -11   -1    0    0    0    0  0.00000000000E+00  0.00000000000E+00  0.45593999997E+02  0.45594000000E+02  0.51100000000E-03 0. -1.
         11   -1    0    0    0    0 -0.00000000000E+00 -0.00000000000E+00 -0.45593999997E+02  0.45594000000E+02  0.51100000000E-03 0.  1.
    9900012    2    1    2    0    0  0.58367347262E+00  0.35508748483E+00 -0.96241357530E+00  0.90007745055E+02  0.90000006490E+02 0.  0.
         12    1    1    2    0    0 -0.58367347262E+00 -0.35508748483E+00  0.96241357530E+00  0.11802549447E+01  0.00000000000E+00 0. -1.
         11    1    3    3    0    0 -0.10196665268E+02 -0.39566757403E+01 -0.62579811741E+01  0.12601174316E+02  0.51100000000E-03 0. -1.
        -11    1    3    3    0    0 -0.23954974493E+02 -0.22167840980E+02 -0.35883134228E+01  0.32834889525E+02  0.51100000000E-03 0.  1.
         12    1    3    3    0    0  0.34735313234E+02  0.26479604205E+02  0.88838810216E+01  0.44571681214E+02  0.00000000000E+00 0. -1.
</event>
<event>
 7    1  0.4096472E-015  0.9000768E+02  0.7816164E-02  0.1186339E+00
        -11   -1    0    0    0    0  0.00000000000E+00  0.00000000000E+00  0.45593999997E+02  0.45594000000E+02  0.51100000000E-03 0. -1.
         11   -1    0    0    0    0 -0.00000000000E+00 -0.00000000000E+00 -0.45593999997E+02  0.45594000000E+02  0.51100000000E-03 0.  1.
    9900012    2    1    2    0    0  0.92146767738E+00 -0.51964512891E+00 -0.52346073994E+00  0.90007684412E+02  0.89999945046E+02 0.  0.
         12    1    1    2    0    0 -0.92146767738E+00  0.51964512891E+00  0.52346073994E+00  0.11803155878E+01  0.00000000000E+00 0. -1.
         11    1    3    3    0    0 -0.55462284593E+01 -0.16972353059E+02 -0.41525324557E+01  0.18332074201E+02  0.51100000000E-03 0. -1.
        -11    1    3    3    0    0  0.36583978881E+02  0.44630068658E+01  0.10943130154E+02  0.38445520401E+02  0.51100000000E-03 0.  1.
         12    1    3    3    0    0 -0.30116282745E+02  0.11989701064E+02 -0.73140584379E+01  0.33230089810E+02  0.00000000000E+00 0. -1.
</event>
<event>
 7    1  0.4096472E-015  0.9000774E+02  0.7816164E-02  0.1186339E+00
        -11   -1    0    0    0    0  0.00000000000E+00  0.00000000000E+00  0.45593999997E+02  0.45594000000E+02  0.51100000000E-03 0. -1.
         11   -1    0    0    0    0 -0.00000000000E+00 -0.00000000000E+00 -0.45593999997E+02  0.45594000000E+02  0.51100000000E-03 0.  1.
    9900012    2    1    2    0    0 -0.93728191286E+00 -0.47750049586E+00 -0.53525706966E+00  0.90007743995E+02  0.90000005415E+02 0.  0.
         12    1    1    2    0    0  0.93728191286E+00  0.47750049586E+00  0.53525706966E+00  0.11802560054E+01  0.00000000000E+00 0. -1.
         11    1    3    3    0    0  0.97062144590E+01  0.58765129762E+00  0.28040600162E+00  0.97280296544E+01  0.51100000000E-03 0. -1.
        -11    1    3    3    0    0 -0.10888578087E+02  0.25513614962E+02 -0.29963261334E+02  0.40832618227E+02  0.51100000000E-03 0.  1.
         12    1    3    3    0    0  0.24508171525E+00 -0.26578766756E+02  0.29147598263E+02  0.39447096114E+02  0.00000000000E+00 0. -1.
</event>
<event>
 7    1  0.4096472E-015  0.9000765E+02  0.7816164E-02  0.1186339E+00
        -11   -1    0    0    0    0  0.00000000000E+00  0.00000000000E+00  0.45593999997E+02  0.45594000000E+02  0.51100000000E-03 0.  1.
         11   -1    0    0    0    0 -0.00000000000E+00 -0.00000000000E+00 -0.45593999997E+02  0.45594000000E+02  0.51100000000E-03 0. -1.
    9900012    2    1    2    0    0  0.74319346514E+00 -0.67343682843E+00  0.62239325819E+00  0.90007649604E+02  0.89999909779E+02 0.  0.
         12    1    1    2    0    0 -0.74319346514E+00  0.67343682843E+00 -0.62239325819E+00  0.11803503956E+01  0.00000000000E+00 0. -1.
         11    1    3    3    0    0  0.68919879447E+01  0.14020391023E+01 -0.66635037884E+01  0.96885238543E+01  0.51100000000E-03 0. -1.
        -11    1    3    3    0    0 -0.27180494784E+02  0.26101890127E+02 -0.12832792258E+02  0.39809151238E+02  0.51100000000E-03 0.  1.
         12    1    3    3    0    0  0.21031700304E+02 -0.28177366057E+02  0.20118689305E+02  0.40509974512E+02  0.00000000000E+00 0. -1.
</event>
<event>
 7    1  0.4096472E-015  0.9000779E+02  0.7816164E-02  0.1186339E+00
        -11   -1    0    0    0    0  0.00000000000E+00  0.00000000000E+00  0.45593999997E+02  0.45594000000E+02  0.51100000000E-03 0. -1.
         11   -1    0    0    0    0 -0.00000000000E+00 -0.00000000000E+00 -0.45593999997E+02  0.45594000000E+02  0.51100000000E-03 0.  1.
    9900012    2    1    2    0    0 -0.48383691824E+00  0.36533137966E+00 -0.10125816359E+01  0.90007793768E+02  0.90000055846E+02 0.  0.
         12    1    1    2    0    0  0.48383691824E+00 -0.36533137966E+00  0.10125816359E+01  0.11802062318E+01  0.00000000000E+00 0. -1.
         11    1    3    3    0    0 -0.18877602361E-01  0.48866551341E+01 -0.73367295740E+01  0.88151775856E+01  0.51100000000E-03 0. -1.
        -11    1    3    3    0    0  0.97443900426E+01  0.35242248555E+02 -0.85093189754E+01  0.37541679906E+02  0.51100000000E-03 0.  1.
         12    1    3    3    0    0 -0.10209349358E+02 -0.39763572309E+02  0.14833466914E+02  0.43650936276E+02  0.00000000000E+00 0. -1.
</event>
<event>
 7    1  0.4096472E-015  0.9000772E+02  0.7816164E-02  0.1186339E+00
        -11   -1    0    0    0    0  0.00000000000E+00  0.00000000000E+00  0.45593999997E+02  0.45594000000E+02  0.51100000000E-03 0. -1.
         11   -1    0    0    0    0 -0.00000000000E+00 -0.00000000000E+00 -0.45593999997E+02  0.45594000000E+02  0.51100000000E-03 0.  1.
    9900012    2    1    2    0    0  0.35331233191E-01  0.62943891575E+00 -0.99781294554E+00  0.90007715153E+02  0.89999976193E+02 0.  0.
         12    1    1    2    0    0 -0.35331233191E-01 -0.62943891575E+00  0.99781294554E+00  0.11802848465E+01  0.00000000000E+00 0. -1.
         11    1    3    3    0    0 -0.12899320243E+02 -0.70039625796E+01 -0.88259685579E+00  0.14704656814E+02  0.51100000000E-03 0.  1.
        -11    1    3    3    0    0 -0.10826408132E+02  0.35993027771E+02 -0.52480841655E+01  0.37950646224E+02  0.51100000000E-03 0. -1.
         12    1    3    3    0    0  0.23761059607E+02 -0.28359626276E+02  0.51328680757E+01  0.37352412116E+02  0.00000000000E+00 0. -1.
</event>
<event>
 7    1  0.4096472E-015  0.9000780E+02  0.7816164E-02  0.1186339E+00
        -11   -1    0    0    0    0  0.00000000000E+00  0.00000000000E+00  0.45593999997E+02  0.45594000000E+02  0.51100000000E-03 0.  1.
         11   -1    0    0    0    0 -0.00000000000E+00 -0.00000000000E+00 -0.45593999997E+02  0.45594000000E+02  0.51100000000E-03 0. -1.
    9900012    2    1    2    0    0 -0.82847339570E+00  0.83934205445E+00 -0.44726493227E-01  0.90007803529E+02  0.90000065735E+02 0.  0.
         12    1    1    2    0    0  0.82847339570E+00 -0.83934205445E+00  0.44726493227E-01  0.11801964713E+01  0.00000000000E+00 0. -1.
         11    1    3    3    0    0  0.18846343366E+02 -0.34109486816E+02  0.75938626569E+01  0.39702751787E+02  0.51100000000E-03 0. -1.
        -11    1    3    3    0    0  0.46663854970E+00  0.25656560303E+01  0.85028651999E+01  0.88937651909E+01  0.51100000000E-03 0.  1.
        -12    1    3    3    0    0 -0.20141455311E+02  0.32383172841E+02 -0.16141454350E+02  0.41411286551E+02  0.00000000000E+00 0.  1.
</event>
<event>
 7    1  0.4096472E-015  0.9000806E+02  0.7816164E-02  0.1186338E+00
        -11   -1    0    0    0    0  0.00000000000E+00  0.00000000000E+00  0.45593999997E+02  0.45594000000E+02  0.51100000000E-03 0.  1.
         11   -1    0    0    0    0 -0.00000000000E+00 -0.00000000000E+00 -0.45593999997E+02  0.45594000000E+02  0.51100000000E-03 0. -1.
    9900012    2    1    2    0    0 -0.15413521459E+00  0.10576911247E+01 -0.49979790472E+00  0.90008056728E+02  0.90000322276E+02 0.  0.
         12    1    1    2    0    0  0.15413521459E+00 -0.10576911247E+01  0.49979790472E+00  0.11799432720E+01  0.00000000000E+00 0. -1.
         11    1    3    3    0    0  0.88688102117E+00 -0.38930812749E+01  0.14966596689E+02  0.15490050241E+02  0.51100000000E-03 0. -1.
        -11    1    3    3    0    0  0.44029887525E+01  0.20795838274E+02  0.23749512496E+02  0.31873069252E+02  0.51100000000E-03 0.  1.
         12    1    3    3    0    0 -0.54440049883E+01 -0.15845065874E+02 -0.39215907090E+02  0.42644937235E+02  0.00000000000E+00 0. -1.
</event>
<event>
 7    1  0.4096472E-015  0.9000767E+02  0.7816164E-02  0.1186339E+00
        -11   -1    0    0    0    0  0.00000000000E+00  0.00000000000E+00  0.45593999997E+02  0.45594000000E+02  0.51100000000E-03 0. -1.
         11   -1    0    0    0    0 -0.00000000000E+00 -0.00000000000E+00 -0.45593999997E+02  0.45594000000E+02  0.51100000000E-03 0.  1.
    9900012    2    1    2    0    0 -0.16108084619E-01  0.10189151660E+01  0.59558875048E+00  0.90007672272E+02  0.89999932746E+02 0.  0.
         12    1    1    2    0    0  0.16108084619E-01 -0.10189151660E+01 -0.59558875048E+00  0.11803277281E+01  0.00000000000E+00 0. -1.
         11    1    3    3    0    0  0.72513948428E+01 -0.27877629900E+02  0.25291265372E+02  0.38332663361E+02  0.51100000000E-03 0. -1.
        -11    1    3    3    0    0 -0.69147007780E+01 -0.46699938593E+01  0.22359886292E+01  0.86383780251E+01  0.51100000000E-03 0.  1.
        -12    1    3    3    0    0 -0.35280214947E+00  0.33566538926E+02 -0.26931665250E+02  0.43036630885E+02  0.00000000000E+00 0.  1.
</event>
<event>
 7    1  0.4096472E-015  0.9000776E+02  0.7816164E-02  0.1186339E+00
        -11   -1    0    0    0    0  0.00000000000E+00  0.00000000000E+00  0.45593999997E+02  0.45594000000E+02  0.51100000000E-03 0. -1.
         11   -1    0    0    0    0 -0.00000000000E+00 -0.00000000000E+00 -0.45593999997E+02  0.45594000000E+02  0.51100000000E-03 0.  1.
    9900012    2    1    2    0    0  0.21472019624E+00 -0.17040477060E+00 -0.11479609766E+01  0.90007764027E+02  0.90000025712E+02 0.  0.
         12    1    1    2    0    0 -0.21472019624E+00  0.17040477060E+00  0.11479609766E+01  0.11802359732E+01  0.00000000000E+00 0. -1.
         11    1    3    3    0    0 -0.91317766668E+01  0.37360524095E+01 -0.61913271931E+01  0.11648174336E+02  0.51100000000E-03 0. -1.
        -11    1    3    3    0    0 -0.29212108684E+02  0.16038560658E+02  0.96754227006E+01  0.34701534929E+02  0.51100000000E-03 0.  1.
         12    1    3    3    0    0  0.38558605547E+02 -0.19945017838E+02 -0.46320564842E+01  0.43658054761E+02  0.00000000000E+00 0. -1.
</event>
<event>
 7    1  0.4096472E-015  0.9000769E+02  0.7816164E-02  0.1186339E+00
        -11   -1    0    0    0    0  0.00000000000E+00  0.00000000000E+00  0.45593999997E+02  0.45594000000E+02  0.51100000000E-03 0.  1.
         11   -1    0    0    0    0 -0.00000000000E+00 -0.00000000000E+00 -0.45593999997E+02  0.45594000000E+02  0.51100000000E-03 0. -1.
    9900012    2    1    2    0    0  0.42979258380E+00  0.76650754113E+00 -0.78796409213E+00  0.90007685260E+02  0.89999945905E+02 0.  0.
         12    1    1    2    0    0 -0.42979258380E+00 -0.76650754113E+00  0.78796409213E+00  0.11803147403E+01  0.00000000000E+00 0. -1.
         11    1    3    3    0    0  0.14014766196E+02 -0.28476687331E+02 -0.21716639865E+02  0.38457090896E+02  0.51100000000E-03 0. -1.
        -11    1    3    3    0    0  0.54848587334E+01 -0.95514840840E+00 -0.49462110453E+01  0.74472134234E+01  0.51100000000E-03 0.  1.
        -12    1    3    3    0    0 -0.19069832345E+02  0.30198343280E+02  0.25874886818E+02  0.44103380941E+02  0.00000000000E+00 0.  1.
</event>
<event>
 7    1  0.4096472E-015  0.9000845E+02  0.7816164E-02  0.1186338E+00
        -11   -1    0    0    0    0  0.00000000000E+00  0.00000000000E+00  0.45593999997E+02  0.45594000000E+02  0.51100000000E-03 0. -1.
         11   -1    0    0    0    0 -0.00000000000E+00 -0.00000000000E+00 -0.45593999997E+02  0.45594000000E+02  0.51100000000E-03 0.  1.
    9900012    2    1    2    0    0 -0.73315717193E+00  0.48425231544E+00 -0.78697510584E+00  0.90008445185E+02  0.90000715859E+02 0.  0.
         12    1    1    2    0    0  0.73315717193E+00 -0.48425231544E+00  0.78697510584E+00  0.11795548147E+01  0.00000000000E+00 0. -1.
         11    1    3    3    0    0  0.20755755183E+02 -0.36576477551E+02 -0.12679914385E+02  0.43925167187E+02  0.51100000000E-03 0. -1.
        -11    1    3    3    0    0 -0.14279568648E+01  0.66852208777E+01  0.62190536372E+01  0.92416377009E+01  0.51100000000E-03 0.  1.
        -12    1    3    3    0    0 -0.20060955490E+02  0.30375508989E+02  0.56738856422E+01  0.36841640298E+02  0.00000000000E+00 0.  1.
</event>
<event>
 7    1  0.4168730E-015  0.9000778E+02  0.7816164E-02  0.1186339E+00
        -11   -1    0    0    0    0  0.00000000000E+00  0.00000000000E+00  0.45593999997E+02  0.45594000000E+02  0.51100000000E-03 0. -1.
         11   -1    0    0    0    0 -0.00000000000E+00 -0.00000000000E+00 -0.45593999997E+02  0.45594000000E+02  0.51100000000E-03 0.  1.
    9900012    2    1    2    0    0 -0.10462541424E+01  0.43585966705E+00 -0.32909954557E+00  0.90007776339E+02  0.90000038186E+02 0.  0.
         12    1    1    2    0    0  0.10462541424E+01 -0.43585966705E+00  0.32909954557E+00  0.11802236613E+01  0.00000000000E+00 0. -1.
         11    1    3    3    0    0  0.53748693417E+01 -0.18022745957E+01  0.69740948478E+01  0.89875143040E+01  0.51100000000E-03 0. -1.
        -11    1    3    3    0    0  0.20533980608E+02  0.32802399671E+02 -0.10628868537E+02  0.40132463548E+02  0.51100000000E-03 0.  1.
         12    1    3    3    0    0 -0.26955104092E+02 -0.30564265408E+02  0.33256741437E+01  0.40887798487E+02  0.00000000000E+00 0. -1.
</event>
<event>
 7    1  0.4096472E-015  0.9000796E+02  0.7816164E-02  0.1186339E+00
        -11   -1    0    0    0    0  0.00000000000E+00  0.00000000000E+00  0.45593999997E+02  0.45594000000E+02  0.51100000000E-03 0.  1.
         11   -1    0    0    0    0 -0.00000000000E+00 -0.00000000000E+00 -0.45593999997E+02  0.45594000000E+02  0.51100000000E-03 0. -1.
    9900012    2    1    2    0    0 -0.72819141307E+00 -0.27011548432E+00  0.88840458115E+00  0.90007962793E+02  0.90000227102E+02 0.  0.
         12    1    1    2    0    0  0.72819141307E+00  0.27011548432E+00 -0.88840458115E+00  0.11800372065E+01  0.00000000000E+00 0. -1.
         11    1    3    3    0    0  0.13433080231E+02  0.26689830329E+02 -0.29736317686E+02  0.42154991132E+02  0.51100000000E-03 0. -1.
        -11    1    3    3    0    0  0.53820634043E+01 -0.46881422855E+01  0.57605585156E+01  0.91722036202E+01  0.51100000000E-03 0.  1.
        -12    1    3    3    0    0 -0.19543335049E+02 -0.22271803528E+02  0.24864163752E+02  0.38680768042E+02  0.00000000000E+00 0.  1.
</event>
<event>
 7    1  0.4096472E-015  0.9000764E+02  0.7816164E-02  0.1186339E+00
        -11   -1    0    0    0    0  0.00000000000E+00  0.00000000000E+00  0.45593999997E+02  0.45594000000E+02  0.51100000000E-03 0. -1.
         11   -1    0    0    0    0 -0.00000000000E+00 -0.00000000000E+00 -0.45593999997E+02  0.45594000000E+02  0.51100000000E-03 0.  1.
    9900012    2    1    2    0    0  0.17690933116E+00 -0.11545183453E+01  0.17044176918E+00  0.90007635684E+02  0.89999895675E+02 0.  0.
         12    1    1    2    0    0 -0.17690933116E+00  0.11545183453E+01 -0.17044176918E+00  0.11803643156E+01  0.00000000000E+00 0. -1.
         11    1    3    3    0    0 -0.37358770639E+02  0.10907751993E+02 -0.32241978285E+01  0.39051917355E+02  0.51100000000E-03 0. -1.
        -11    1    3    3    0    0 -0.24335629152E+01  0.24605593201E+01 -0.64368056335E+01  0.73081494002E+01  0.51100000000E-03 0.  1.
        -12    1    3    3    0    0  0.39969242885E+02 -0.14522829659E+02  0.98314452312E+01  0.43647568929E+02  0.00000000000E+00 0.  1.
</event>
<event>
 7    1  0.4096472E-015  0.9000777E+02  0.7816164E-02  0.1186339E+00
        -11   -1    0    0    0    0  0.00000000000E+00  0.00000000000E+00  0.45593999997E+02  0.45594000000E+02  0.51100000000E-03 0.  1.
         11   -1    0    0    0    0 -0.00000000000E+00 -0.00000000000E+00 -0.45593999997E+02  0.45594000000E+02  0.51100000000E-03 0. -1.
    9900012    2    1    2    0    0 -0.83251299722E+00 -0.79378633236E+00 -0.26412620864E+00  0.90007772358E+02  0.90000034153E+02 0.  0.
         12    1    1    2    0    0  0.83251299722E+00  0.79378633236E+00  0.26412620864E+00  0.11802276416E+01  0.00000000000E+00 0. -1.
         11    1    3    3    0    0  0.27976990907E+01  0.45465669494E+01 -0.89303662407E+01  0.10404317983E+02  0.51100000000E-03 0. -1.
        -11    1    3    3    0    0  0.25865798830E+02  0.81091281030E+01 -0.22051549224E+02  0.34943788162E+02  0.51100000000E-03 0.  1.
         12    1    3    3    0    0 -0.29496010917E+02 -0.13449481385E+02  0.30717789256E+02  0.44659666214E+02  0.00000000000E+00 0. -1.
</event>
<event>
 7    1  0.4096472E-015  0.9000768E+02  0.7816164E-02  0.1186339E+00
        -11   -1    0    0    0    0  0.00000000000E+00  0.00000000000E+00  0.45593999997E+02  0.45594000000E+02  0.51100000000E-03 0.  1.
         11   -1    0    0    0    0 -0.00000000000E+00 -0.00000000000E+00 -0.45593999997E+02  0.45594000000E+02  0.51100000000E-03 0. -1.
    9900012    2    1    2    0    0 -0.11354416755E+01 -0.15669839058E+00  0.28172747043E+00  0.90007681165E+02  0.89999941757E+02 0.  0.
         12    1    1    2    0    0  0.11354416755E+01  0.15669839058E+00 -0.28172747043E+00  0.11803188347E+01  0.00000000000E+00 0. -1.
         11    1    3    3    0    0 -0.17573684306E+02  0.85631973328E+01 -0.31800083104E+02  0.37328380816E+02  0.51100000000E-03 0. -1.
        -11    1    3    3    0    0 -0.97424883370E+01 -0.45548733733E+01 -0.38831239035E+00  0.10761679108E+02  0.51100000000E-03 0.  1.
        -12    1    3    3    0    0  0.26180730967E+02 -0.41650223501E+01  0.32470122965E+02  0.41917621241E+02  0.00000000000E+00 0.  1.
</event>
<event>
 7    1  0.4096472E-015  0.9000782E+02  0.7816164E-02  0.1186339E+00
        -11   -1    0    0    0    0  0.00000000000E+00  0.00000000000E+00  0.45593999997E+02  0.45594000000E+02  0.51100000000E-03 0.  1.
         11   -1    0    0    0    0 -0.00000000000E+00 -0.00000000000E+00 -0.45593999997E+02  0.45594000000E+02  0.51100000000E-03 0. -1.
    9900012    2    1    2    0    0 -0.11336691300E+01 -0.30383847962E+00 -0.12371817248E+00  0.90007817936E+02  0.90000080333E+02 0.  0.
         12    1    1    2    0    0  0.11336691300E+01  0.30383847962E+00  0.12371817248E+00  0.11801820640E+01  0.00000000000E+00 0. -1.
         11    1    3    3    0    0 -0.92737716262E+01 -0.93386326985E+01  0.22534053693E+01  0.13352555443E+02  0.51100000000E-03 0. -1.
        -11    1    3    3    0    0 -0.17039062740E+02 -0.18028464920E+02  0.21351363550E+02  0.32729740789E+02  0.51100000000E-03 0.  1.
         12    1    3    3    0    0  0.25179165237E+02  0.27063259139E+02 -0.23728487092E+02  0.43925521703E+02  0.00000000000E+00 0. -1.
</event>
<event>
 7    1  0.4096472E-015  0.9000783E+02  0.7816164E-02  0.1186339E+00
        -11   -1    0    0    0    0  0.00000000000E+00  0.00000000000E+00  0.45593999997E+02  0.45594000000E+02  0.51100000000E-03 0. -1.
         11   -1    0    0    0    0 -0.00000000000E+00 -0.00000000000E+00 -0.45593999997E+02  0.45594000000E+02  0.51100000000E-03 0.  1.
    9900012    2    1    2    0    0 -0.10558510016E+01 -0.38658390752E+00 -0.35851724371E+00  0.90007829220E+02  0.90000091766E+02 0.  0.
         12    1    1    2    0    0  0.10558510016E+01  0.38658390752E+00  0.35851724371E+00  0.11801707796E+01  0.00000000000E+00 0. -1.
         11    1    3    3    0    0  0.12942393626E+02 -0.70252319511E+01 -0.64790071817E+01  0.16088411080E+02  0.51100000000E-03 0. -1.
        -11    1    3    3    0    0  0.23495825695E+02  0.22327951554E+02 -0.19897648599E+01  0.32473841937E+02  0.51100000000E-03 0.  1.
         12    1    3    3    0    0 -0.37494070323E+02 -0.15689303510E+02  0.81102547980E+01  0.41445576204E+02  0.00000000000E+00 0. -1.
</event>
<event>
 7    1  0.4096472E-015  0.9000714E+02  0.7816164E-02  0.1186340E+00
        -11   -1    0    0    0    0  0.00000000000E+00  0.00000000000E+00  0.45593999997E+02  0.45594000000E+02  0.51100000000E-03 0.  1.
         11   -1    0    0    0    0 -0.00000000000E+00 -0.00000000000E+00 -0.45593999997E+02  0.45594000000E+02  0.51100000000E-03 0. -1.
    9900012    2    1    2    0    0  0.11046325906E+01  0.14188689707E+00  0.39254348554E+00  0.90007137840E+02  0.89999391258E+02 0.  0.
         12    1    1    2    0    0 -0.11046325906E+01 -0.14188689707E+00 -0.39254348554E+00  0.11808621595E+01  0.00000000000E+00 0. -1.
         11    1    3    3    0    0  0.24695290000E+01  0.46591974552E+01 -0.62198918689E+01  0.81543699653E+01  0.51100000000E-03 0. -1.
        -11    1    3    3    0    0  0.27372997080E+02  0.24967382702E+02  0.14760368576E+02  0.39881319548E+02  0.51100000000E-03 0.  1.
         12    1    3    3    0    0 -0.28737893490E+02 -0.29484693260E+02 -0.81479332211E+01  0.41971448327E+02  0.00000000000E+00 0. -1.
</event>
<event>
 7    1  0.4096472E-015  0.9000767E+02  0.7816164E-02  0.1186339E+00
        -11   -1    0    0    0    0  0.00000000000E+00  0.00000000000E+00  0.45593999997E+02  0.45594000000E+02  0.51100000000E-03 0.  1.
         11   -1    0    0    0    0 -0.00000000000E+00 -0.00000000000E+00 -0.45593999997E+02  0.45594000000E+02  0.51100000000E-03 0. -1.
    9900012    2    1    2    0    0 -0.76313376237E+00 -0.72378091704E+00  0.53567616580E+00  0.90007669152E+02  0.89999929585E+02 0.  0.
         12    1    1    2    0    0  0.76313376237E+00  0.72378091704E+00 -0.53567616580E+00  0.11803308476E+01  0.00000000000E+00 0. -1.
         11    1    3    3    0    0  0.16400849987E+01 -0.22139805193E+01 -0.15242194816E+02  0.15489225017E+02  0.51100000000E-03 0. -1.
        -11    1    3    3    0    0  0.24370876686E+02  0.39919585701E+01 -0.18568415837E+02  0.30897595872E+02  0.51100000000E-03 0.  1.
         12    1    3    3    0    0 -0.26774095447E+02 -0.25017589678E+01  0.34346286820E+02  0.43620848264E+02  0.00000000000E+00 0. -1.
</event>
<event>
 7    1  0.4096472E-015  0.9000771E+02  0.7816164E-02  0.1186339E+00
        -11   -1    0    0    0    0  0.00000000000E+00  0.00000000000E+00  0.45593999997E+02  0.45594000000E+02  0.51100000000E-03 0. -1.
         11   -1    0    0    0    0 -0.00000000000E+00 -0.00000000000E+00 -0.45593999997E+02  0.45594000000E+02  0.51100000000E-03 0.  1.
    9900012    2    1    2    0    0  0.81150761926E-01 -0.10150594203E+01 -0.59677815015E+00  0.90007713919E+02  0.89999974943E+02 0.  0.
         12    1    1    2    0    0 -0.81150761926E-01  0.10150594203E+01  0.59677815015E+00  0.11802860811E+01  0.00000000000E+00 0. -1.
         11    1    3    3    0    0 -0.27689242968E+01 -0.37804506654E+01 -0.79232862908E+01  0.92052819024E+01  0.51100000000E-03 0. -1.
        -11    1    3    3    0    0 -0.37964286646E+02 -0.55308398818E+01 -0.77460518107E+00  0.38372871456E+02  0.51100000000E-03 0.  1.
         12    1    3    3    0    0  0.40814361705E+02  0.82962311269E+01  0.81011133217E+01  0.42429560560E+02  0.00000000000E+00 0. -1.
</event>
<event>
 7    1  0.4096472E-015  0.9000769E+02  0.7816164E-02  0.1186339E+00
        -11   -1    0    0    0    0  0.00000000000E+00  0.00000000000E+00  0.45593999997E+02  0.45594000000E+02  0.51100000000E-03 0.  1.
         11   -1    0    0    0    0 -0.00000000000E+00 -0.00000000000E+00 -0.45593999997E+02  0.45594000000E+02  0.51100000000E-03 0. -1.
    9900012    2    1    2    0    0 -0.74349304131E+00 -0.81629277568E+00  0.41716031797E+00  0.90007687105E+02  0.89999947775E+02 0.  0.
         12    1    1    2    0    0  0.74349304131E+00  0.81629277568E+00 -0.41716031797E+00  0.11803128945E+01  0.00000000000E+00 0. -1.
         11    1    3    3    0    0 -0.23745225146E+01  0.13627574788E+02  0.16367267210E+02  0.21429806064E+02  0.51100000000E-03 0. -1.
        -11    1    3    3    0    0  0.27790550211E+02 -0.22574520033E+02  0.19452390147E+01  0.35856764924E+02  0.51100000000E-03 0.  1.
         12    1    3    3    0    0 -0.26159520738E+02  0.81306524691E+01 -0.17895345907E+02  0.32721116117E+02  0.00000000000E+00 0. -1.
</event>
<event>
 7    1  0.4096472E-015  0.9000778E+02  0.7816164E-02  0.1186339E+00
        -11   -1    0    0    0    0  0.00000000000E+00  0.00000000000E+00  0.45593999997E+02  0.45594000000E+02  0.51100000000E-03 0. -1.
         11   -1    0    0    0    0 -0.00000000000E+00 -0.00000000000E+00 -0.45593999997E+02  0.45594000000E+02  0.51100000000E-03 0.  1.
    9900012    2    1    2    0    0  0.65500490937E+00 -0.32597126092E+00  0.92608563827E+00  0.90007778282E+02  0.90000040155E+02 0.  0.
         12    1    1    2    0    0 -0.65500490937E+00  0.32597126092E+00 -0.92608563827E+00  0.11802217180E+01  0.00000000000E+00 0. -1.
         11    1    3    3    0    0  0.31669520816E+01 -0.80811190809E+01 -0.39379411228E+01  0.95310781990E+01  0.51100000000E-03 0. -1.
        -11    1    3    3    0    0 -0.40814198279E+02  0.64238936249E+01 -0.27279290852E+01  0.41406603191E+02  0.51100000000E-03 0.  1.
         12    1    3    3    0    0  0.38302251107E+02  0.13312541951E+01  0.75919558463E+01  0.39070096892E+02  0.00000000000E+00 0. -1.
</event>
<event>
 7    1  0.4096472E-015  0.9000778E+02  0.7816164E-02  0.1186339E+00
        -11   -1    0    0    0    0  0.00000000000E+00  0.00000000000E+00  0.45593999997E+02  0.45594000000E+02  0.51100000000E-03 0.  1.
         11   -1    0    0    0    0 -0.00000000000E+00 -0.00000000000E+00 -0.45593999997E+02  0.45594000000E+02  0.51100000000E-03 0. -1.
    9900012    2    1    2    0    0  0.10122488132E+01 -0.42989545060E+00  0.42831110153E+00  0.90007784698E+02  0.90000046656E+02 0.  0.
         12    1    1    2    0    0 -0.10122488132E+01  0.42989545060E+00 -0.42831110153E+00  0.11802153016E+01  0.00000000000E+00 0. -1.
         11    1    3    3    0    0  0.11657234748E+01  0.70425150497E+01 -0.36704140994E+02  0.37391842637E+02  0.51100000000E-03 0. -1.
        -11    1    3    3    0    0  0.82264093678E+01 -0.31718108440E+01 -0.45227854123E+01  0.99090758027E+01  0.51100000000E-03 0.  1.
        -12    1    3    3    0    0 -0.83798840294E+01 -0.43005996564E+01  0.41655237508E+02  0.42706866258E+02  0.00000000000E+00 0.  1.
</event>
<event>
 7    1  0.4096472E-015  0.9000785E+02  0.7816164E-02  0.1186339E+00
        -11   -1    0    0    0    0  0.00000000000E+00  0.00000000000E+00  0.45593999997E+02  0.45594000000E+02  0.51100000000E-03 0. -1.
         11   -1    0    0    0    0 -0.00000000000E+00 -0.00000000000E+00 -0.45593999997E+02  0.45594000000E+02  0.51100000000E-03 0.  1.
    9900012    2    1    2    0    0  0.34618593723E+00  0.85608238902E+00 -0.73487440935E+00  0.90007846553E+02  0.90000109328E+02 0.  0.
         12    1    1    2    0    0 -0.34618593723E+00 -0.85608238902E+00  0.73487440935E+00  0.11801534466E+01  0.00000000000E+00 0. -1.
         11    1    3    3    0    0 -0.21360803115E+02 -0.28160599976E+02  0.23747404243E+02  0.42582185351E+02  0.51100000000E-03 0. -1.
        -11    1    3    3    0    0  0.39766593625E+01  0.16238431952E+02 -0.18139632674E+02  0.24668740660E+02  0.51100000000E-03 0.  1.
        -12    1    3    3    0    0  0.17730329690E+02  0.12778250413E+02 -0.63426459783E+01  0.22756920542E+02  0.00000000000E+00 0.  1.
</event>
<event>
 7    1  0.4096472E-015  0.9000775E+02  0.7816164E-02  0.1186339E+00
        -11   -1    0    0    0    0  0.00000000000E+00  0.00000000000E+00  0.45593999997E+02  0.45594000000E+02  0.51100000000E-03 0.  1.
         11   -1    0    0    0    0 -0.00000000000E+00 -0.00000000000E+00 -0.45593999997E+02  0.45594000000E+02  0.51100000000E-03 0. -1.
    9900012    2    1    2    0    0 -0.47242434346E-02 -0.59152455255E+00 -0.10213020305E+01  0.90007753648E+02  0.90000015196E+02 0.  0.
         12    1    1    2    0    0  0.47242434346E-02  0.59152455255E+00  0.10213020305E+01  0.11802463524E+01  0.00000000000E+00 0. -1.
         11    1    3    3    0    0  0.97511670535E+01  0.32871559322E+01 -0.37219797854E+02  0.38616110700E+02  0.51100000000E-03 0. -1.
        -11    1    3    3    0    0  0.68356337351E+01 -0.99503930234E+01  0.11310571398E+01  0.12124994862E+02  0.51100000000E-03 0.  1.
        -12    1    3    3    0    0 -0.16591525032E+02  0.60717125387E+01  0.35067438684E+02  0.39266648086E+02  0.00000000000E+00 0.  1.
</event>
<event>
 7    1  0.4096472E-015  0.9000777E+02  0.7816164E-02  0.1186339E+00
        -11   -1    0    0    0    0  0.00000000000E+00  0.00000000000E+00  0.45593999997E+02  0.45594000000E+02  0.51100000000E-03 0.  1.
         11   -1    0    0    0    0 -0.00000000000E+00 -0.00000000000E+00 -0.45593999997E+02  0.45594000000E+02  0.51100000000E-03 0. -1.
    9900012    2    1    2    0    0 -0.42762154971E+00 -0.70552413669E+00  0.84398391359E+00  0.90007774029E+02  0.90000035846E+02 0.  0.
         12    1    1    2    0    0  0.42762154971E+00  0.70552413669E+00 -0.84398391359E+00  0.11802259714E+01  0.00000000000E+00 0. -1.
         11    1    3    3    0    0  0.53360108700E+01 -0.51424498363E+01 -0.66274179530E+01  0.99418545206E+01  0.51100000000E-03 0. -1.
        -11    1    3    3    0    0 -0.20486408997E+02 -0.29101059406E+02  0.20642875354E+02  0.41142349414E+02  0.51100000000E-03 0.  1.
         12    1    3    3    0    0  0.14722776577E+02  0.33537985106E+02 -0.13171473487E+02  0.38923570094E+02  0.00000000000E+00 0. -1.
</event>
<event>
 7    1  0.4096472E-015  0.9000767E+02  0.7816164E-02  0.1186339E+00
        -11   -1    0    0    0    0  0.00000000000E+00  0.00000000000E+00  0.45593999997E+02  0.45594000000E+02  0.51100000000E-03 0.  1.
         11   -1    0    0    0    0 -0.00000000000E+00 -0.00000000000E+00 -0.45593999997E+02  0.45594000000E+02  0.51100000000E-03 0. -1.
    9900012    2    1    2    0    0 -0.69406814769E+00  0.84669698044E+00  0.44109212397E+00  0.90007665881E+02  0.89999926271E+02 0.  0.
         12    1    1    2    0    0  0.69406814769E+00 -0.84669698044E+00 -0.44109212397E+00  0.11803341189E+01  0.00000000000E+00 0. -1.
         11    1    3    3    0    0 -0.36203065949E+01  0.55156107900E+01 -0.58266029343E+01  0.88021522506E+01  0.51100000000E-03 0. -1.
        -11    1    3    3    0    0 -0.10890933026E+02  0.15043252879E+02  0.37456093431E+02  0.41807544950E+02  0.51100000000E-03 0.  1.
         12    1    3    3    0    0  0.13817171473E+02 -0.19712166688E+02 -0.31188398373E+02  0.39397968680E+02  0.00000000000E+00 0. -1.
</event>
<event>
 7    1  0.4096472E-015  0.9000776E+02  0.7816164E-02  0.1186339E+00
        -11   -1    0    0    0    0  0.00000000000E+00  0.00000000000E+00  0.45593999997E+02  0.45594000000E+02  0.51100000000E-03 0.  1.
         11   -1    0    0    0    0 -0.00000000000E+00 -0.00000000000E+00 -0.45593999997E+02  0.45594000000E+02  0.51100000000E-03 0. -1.
    9900012    2    1    2    0    0  0.24509034170E+00 -0.73681176048E+00  0.88882307333E+00  0.90007759642E+02  0.90000021270E+02 0.  0.
         12    1    1    2    0    0 -0.24509034170E+00  0.73681176048E+00 -0.88882307333E+00  0.11802403576E+01  0.00000000000E+00 0. -1.
         11    1    3    3    0    0  0.73561774677E+01  0.11882836733E+02 -0.51102288391E+01  0.14880510569E+02  0.51100000000E-03 0. -1.
        -11    1    3    3    0    0 -0.38816015031E+02 -0.12577549862E+02 -0.59718699550E+01  0.41237616498E+02  0.51100000000E-03 0.  1.
         12    1    3    3    0    0  0.31704927905E+02 -0.42098631199E-01  0.11970921867E+02  0.33889632575E+02  0.00000000000E+00 0. -1.
</event>
<event>
 7    1  0.4096472E-015  0.9000778E+02  0.7816164E-02  0.1186339E+00
        -11   -1    0    0    0    0  0.00000000000E+00  0.00000000000E+00  0.45593999997E+02  0.45594000000E+02  0.51100000000E-03 0. -1.
         11   -1    0    0    0    0 -0.00000000000E+00 -0.00000000000E+00 -0.45593999997E+02  0.45594000000E+02  0.51100000000E-03 0.  1.
    9900012    2    1    2    0    0  0.57840811757E+00  0.78548487973E-01 -0.10257685274E+01  0.90007776764E+02  0.90000038617E+02 0.  0.
         12    1    1    2    0    0 -0.57840811757E+00 -0.78548487973E-01  0.10257685274E+01  0.11802232362E+01  0.00000000000E+00 0. -1.
         11    1    3    3    0    0  0.87454746946E+01 -0.64191559558E+01 -0.19719285290E+01  0.11026213911E+02  0.51100000000E-03 0. -1.
        -11    1    3    3    0    0 -0.16106507826E+02  0.30017407092E+02 -0.25618589430E+02  0.42623660654E+02  0.51100000000E-03 0.  1.
         12    1    3    3    0    0  0.79394412494E+01 -0.23519702648E+02  0.26564749431E+02  0.36357902200E+02  0.00000000000E+00 0. -1.
</event>
<event>
 7    1  0.4096472E-015  0.9000777E+02  0.7816164E-02  0.1186339E+00
        -11   -1    0    0    0    0  0.00000000000E+00  0.00000000000E+00  0.45593999997E+02  0.45594000000E+02  0.51100000000E-03 0. -1.
         11   -1    0    0    0    0 -0.00000000000E+00 -0.00000000000E+00 -0.45593999997E+02  0.45594000000E+02  0.51100000000E-03 0.  1.
    9900012    2    1    2    0    0 -0.10992859568E+01  0.29238677743E+00  0.31466159548E+00  0.90007774783E+02  0.90000036610E+02 0.  0.
         12    1    1    2    0    0  0.10992859568E+01 -0.29238677743E+00 -0.31466159548E+00  0.11802252167E+01  0.00000000000E+00 0. -1.
         11    1    3    3    0    0  0.38365376238E+01  0.12600260881E+00  0.69053326557E+01  0.79005390286E+01  0.51100000000E-03 0. -1.
        -11    1    3    3    0    0 -0.29936679546E+02 -0.19341688628E+02  0.19870261729E+02  0.40806041252E+02  0.51100000000E-03 0.  1.
         12    1    3    3    0    0  0.25000855966E+02  0.19508072797E+02 -0.26460932789E+02  0.41301194502E+02  0.00000000000E+00 0. -1.
</event>
<event>
 7    1  0.4096472E-015  0.9000776E+02  0.7816164E-02  0.1186339E+00
        -11   -1    0    0    0    0  0.00000000000E+00  0.00000000000E+00  0.45593999997E+02  0.45594000000E+02  0.51100000000E-03 0.  1.
         11   -1    0    0    0    0 -0.00000000000E+00 -0.00000000000E+00 -0.45593999997E+02  0.45594000000E+02  0.51100000000E-03 0. -1.
    9900012    2    1    2    0    0  0.10249481706E+01 -0.51385775997E+00  0.27999851768E+00  0.90007759465E+02  0.90000021090E+02 0.  0.
         12    1    1    2    0    0 -0.10249481706E+01  0.51385775997E+00 -0.27999851768E+00  0.11802405347E+01  0.00000000000E+00 0. -1.
         11    1    3    3    0    0  0.23575872004E+02  0.33666531594E+02  0.14031236038E+01  0.41124516367E+02  0.51100000000E-03 0. -1.
        -11    1    3    3    0    0  0.43346483381E+01 -0.15071208193E+02 -0.24469267912E+01  0.15871923122E+02  0.51100000000E-03 0.  1.
        -12    1    3    3    0    0 -0.26885572172E+02 -0.19109181160E+02  0.13238017051E+01  0.33011319976E+02  0.00000000000E+00 0.  1.
</event>
<event>
 7    1  0.4096472E-015  0.9000780E+02  0.7816164E-02  0.1186339E+00
        -11   -1    0    0    0    0  0.00000000000E+00  0.00000000000E+00  0.45593999997E+02  0.45594000000E+02  0.51100000000E-03 0.  1.
         11   -1    0    0    0    0 -0.00000000000E+00 -0.00000000000E+00 -0.45593999997E+02  0.45594000000E+02  0.51100000000E-03 0. -1.
    9900012    2    1    2    0    0 -0.84713641324E+00 -0.53715960462E+00  0.62184352153E+00  0.90007800903E+02  0.90000063075E+02 0.  0.
         12    1    1    2    0    0  0.84713641324E+00  0.53715960462E+00 -0.62184352153E+00  0.11801990971E+01  0.00000000000E+00 0. -1.
         11    1    3    3    0    0 -0.34415612795E+02 -0.30334521407E+01 -0.22518151196E+02  0.41239584982E+02  0.51100000000E-03 0. -1.
        -11    1    3    3    0    0 -0.13536393709E+00 -0.71861628169E+01  0.74474434096E+01  0.10350056668E+02  0.51100000000E-03 0.  1.
        -12    1    3    3    0    0  0.33703840319E+02  0.96824553530E+01  0.15692551308E+02  0.38418159253E+02  0.00000000000E+00 0.  1.
</event>
<event>
 7    1  0.4096472E-015  0.9000780E+02  0.7816164E-02  0.1186339E+00
        -11   -1    0    0    0    0  0.00000000000E+00  0.00000000000E+00  0.45593999997E+02  0.45594000000E+02  0.51100000000E-03 0. -1.
         11   -1    0    0    0    0 -0.00000000000E+00 -0.00000000000E+00 -0.45593999997E+02  0.45594000000E+02  0.51100000000E-03 0.  1.
    9900012    2    1    2    0    0 -0.51857195761E+00 -0.94319638859E+00 -0.48408578941E+00  0.90007798596E+02  0.90000060737E+02 0.  0.
         12    1    1    2    0    0  0.51857195761E+00  0.94319638859E+00  0.48408578941E+00  0.11802014041E+01  0.00000000000E+00 0. -1.
         11    1    3    3    0    0 -0.26586888465E+02 -0.20596422867E+01 -0.25552061314E+02  0.36932541237E+02  0.51100000000E-03 0. -1.
        -11    1    3    3    0    0 -0.68251128188E+01  0.10859387485E+01 -0.49841077631E+01  0.85207252279E+01  0.51100000000E-03 0.  1.
        -12    1    3    3    0    0  0.32893429326E+02  0.30507149624E-01  0.30052083288E+02  0.44554532131E+02  0.00000000000E+00 0.  1.
</event>
<event>
 7    1  0.4096472E-015  0.9000775E+02  0.7816164E-02  0.1186339E+00
        -11   -1    0    0    0    0  0.00000000000E+00  0.00000000000E+00  0.45593999997E+02  0.45594000000E+02  0.51100000000E-03 0.  1.
         11   -1    0    0    0    0 -0.00000000000E+00 -0.00000000000E+00 -0.45593999997E+02  0.45594000000E+02  0.51100000000E-03 0. -1.
    9900012    2    1    2    0    0  0.20345340197E-01  0.11145944866E+01 -0.38761279646E+00  0.90007754906E+02  0.90000016471E+02 0.  0.
         12    1    1    2    0    0 -0.20345340197E-01 -0.11145944866E+01  0.38761279646E+00  0.11802450942E+01  0.00000000000E+00 0. -1.
         11    1    3    3    0    0  0.32184208994E+00  0.19195565712E+00 -0.83709509293E+01  0.83793346410E+01  0.51100000000E-03 0. -1.
        -11    1    3    3    0    0  0.16071411411E+02  0.32292619665E+02 -0.15393581610E+02  0.39218183341E+02  0.51100000000E-03 0.  1.
         12    1    3    3    0    0 -0.16372908161E+02 -0.31369980835E+02  0.23376919742E+02  0.42410236923E+02  0.00000000000E+00 0. -1.
</event>
<event>
 7    1  0.4096472E-015  0.9000771E+02  0.7816164E-02  0.1186339E+00
        -11   -1    0    0    0    0  0.00000000000E+00  0.00000000000E+00  0.45593999997E+02  0.45594000000E+02  0.51100000000E-03 0. -1.
         11   -1    0    0    0    0 -0.00000000000E+00 -0.00000000000E+00 -0.45593999997E+02  0.45594000000E+02  0.51100000000E-03 0.  1.
    9900012    2    1    2    0    0  0.11079577439E+01  0.23584063059E+00 -0.33148916334E+00  0.90007713496E+02  0.89999974514E+02 0.  0.
         12    1    1    2    0    0 -0.11079577439E+01 -0.23584063059E+00  0.33148916334E+00  0.11802865037E+01  0.00000000000E+00 0. -1.
         11    1    3    3    0    0  0.10251994794E+02 -0.23014685130E+01 -0.28826052787E+01  0.10895392055E+02  0.51100000000E-03 0. -1.
        -11    1    3    3    0    0 -0.11531631587E+02  0.20890160371E+02 -0.31999663437E+02  0.39916860945E+02  0.51100000000E-03 0.  1.
         12    1    3    3    0    0  0.23875945374E+01 -0.18352851227E+02  0.34550779553E+02  0.39195460496E+02  0.00000000000E+00 0. -1.
</event>
<event>
 7    1  0.4096472E-015  0.9000770E+02  0.7816164E-02  0.1186339E+00
        -11   -1    0    0    0    0  0.00000000000E+00  0.00000000000E+00  0.45593999997E+02  0.45594000000E+02  0.51100000000E-03 0.  1.
         11   -1    0    0    0    0 -0.00000000000E+00 -0.00000000000E+00 -0.45593999997E+02  0.45594000000E+02  0.51100000000E-03 0. -1.
    9900012    2    1    2    0    0  0.44957505503E+00  0.99624954342E+00 -0.44551468055E+00  0.90007697406E+02  0.89999958212E+02 0.  0.
         12    1    1    2    0    0 -0.44957505503E+00 -0.99624954342E+00  0.44551468055E+00  0.11803025940E+01  0.00000000000E+00 0. -1.
         11    1    3    3    0    0  0.46019680784E+01 -0.90554202645E+01  0.36759338962E+01  0.10802371806E+02  0.51100000000E-03 0. -1.
        -11    1    3    3    0    0  0.17863548363E+01 -0.11313174204E+02  0.33572557123E+02  0.35472462082E+02  0.51100000000E-03 0.  1.
         12    1    3    3    0    0 -0.59387478597E+01  0.21364844012E+02 -0.37694005699E+02  0.43732863518E+02  0.00000000000E+00 0. -1.
</event>
<event>
 7    1  0.4096472E-015  0.9000774E+02  0.7816164E-02  0.1186339E+00
        -11   -1    0    0    0    0  0.00000000000E+00  0.00000000000E+00  0.45593999997E+02  0.45594000000E+02  0.51100000000E-03 0.  1.
         11   -1    0    0    0    0 -0.00000000000E+00 -0.00000000000E+00 -0.45593999997E+02  0.45594000000E+02  0.51100000000E-03 0. -1.
    9900012    2    1    2    0    0 -0.47046718131E+00 -0.95984758455E+00 -0.50036694457E+00  0.90007739930E+02  0.90000001297E+02 0.  0.
         12    1    1    2    0    0  0.47046718131E+00  0.95984758455E+00  0.50036694457E+00  0.11802600703E+01  0.00000000000E+00 0. -1.
         11    1    3    3    0    0  0.13905047253E+02 -0.17031107702E+01 -0.26247161322E+00  0.14011417381E+02  0.51100000000E-03 0. -1.
        -11    1    3    3    0    0  0.12245169820E+02 -0.25834287267E+02  0.18416897660E+02  0.34007891764E+02  0.51100000000E-03 0.  1.
         12    1    3    3    0    0 -0.26620684255E+02  0.26577550453E+02 -0.18654792992E+02  0.41988430785E+02  0.00000000000E+00 0. -1.
</event>
<event>
 7    1  0.4096472E-015  0.9000774E+02  0.7816164E-02  0.1186339E+00
        -11   -1    0    0    0    0  0.00000000000E+00  0.00000000000E+00  0.45593999997E+02  0.45594000000E+02  0.51100000000E-03 0.  1.
         11   -1    0    0    0    0 -0.00000000000E+00 -0.00000000000E+00 -0.45593999997E+02  0.45594000000E+02  0.51100000000E-03 0. -1.
    9900012    2    1    2    0    0  0.47421532231E+00 -0.76164672072E+00  0.76682862944E+00  0.90007740687E+02  0.90000002064E+02 0.  0.
         12    1    1    2    0    0 -0.47421532231E+00  0.76164672072E+00 -0.76682862944E+00  0.11802593130E+01  0.00000000000E+00 0. -1.
         11    1    3    3    0    0  0.29695789781E+02  0.30728429698E+01 -0.32225633729E+02  0.43929190343E+02  0.51100000000E-03 0. -1.
        -11    1    3    3    0    0 -0.87264748956E+00  0.17242998429E+00  0.80735400523E+01  0.81223946579E+01  0.51100000000E-03 0.  1.
        -12    1    3    3    0    0 -0.28348926970E+02 -0.40069196748E+01  0.24918922306E+02  0.37956155687E+02  0.00000000000E+00 0.  1.
</event>
<event>
 7    1  0.4096472E-015  0.9000764E+02  0.7816164E-02  0.1186339E+00
        -11   -1    0    0    0    0  0.00000000000E+00  0.00000000000E+00  0.45593999997E+02  0.45594000000E+02  0.51100000000E-03 0.  1.
         11   -1    0    0    0    0 -0.00000000000E+00 -0.00000000000E+00 -0.45593999997E+02  0.45594000000E+02  0.51100000000E-03 0. -1.
    9900012    2    1    2    0    0 -0.96737401329E+00  0.74727369264E-01  0.67219353819E+00  0.90007643777E+02  0.89999903874E+02 0.  0.
         12    1    1    2    0    0  0.96737401329E+00 -0.74727369264E-01 -0.67219353819E+00  0.11803562234E+01  0.00000000000E+00 0. -1.
         11    1    3    3    0    0 -0.33314532359E+01  0.81776421818E+01  0.18114949424E+01  0.90140959892E+01  0.51100000000E-03 0. -1.
        -11    1    3    3    0    0 -0.16623852263E+02  0.14213789702E+02 -0.31791815645E+02  0.38588908044E+02  0.51100000000E-03 0.  1.
         12    1    3    3    0    0  0.18987931486E+02 -0.22316704515E+02  0.30652514240E+02  0.42404639744E+02  0.00000000000E+00 0. -1.
</event>
<event>
 7    1  0.4096472E-015  0.9000880E+02  0.7816164E-02  0.1186337E+00
        -11   -1    0    0    0    0  0.00000000000E+00  0.00000000000E+00  0.45593999997E+02  0.45594000000E+02  0.51100000000E-03 0. -1.
         11   -1    0    0    0    0 -0.00000000000E+00 -0.00000000000E+00 -0.45593999997E+02  0.45594000000E+02  0.51100000000E-03 0.  1.
    9900012    2    1    2    0    0  0.31335186233E-02  0.11433481981E+01 -0.28852590100E+00  0.90008804462E+02  0.90001079874E+02 0.  0.
         12    1    1    2    0    0 -0.31335186233E-02 -0.11433481981E+01  0.28852590100E+00  0.11791955379E+01  0.00000000000E+00 0. -1.
         11    1    3    3    0    0  0.69116803348E+01 -0.60574925284E+01 -0.38534517087E+01  0.99656224650E+01  0.51100000000E-03 0. -1.
        -11    1    3    3    0    0 -0.37840984576E+01 -0.10035107814E+02 -0.35578092198E+02  0.37159432648E+02  0.51100000000E-03 0.  1.
         12    1    3    3    0    0 -0.31244483585E+01  0.17235948540E+02  0.39143018006E+02  0.42883749349E+02  0.00000000000E+00 0. -1.
</event>
<event>
 7    1  0.4096472E-015  0.9000772E+02  0.7816164E-02  0.1186339E+00
        -11   -1    0    0    0    0  0.00000000000E+00  0.00000000000E+00  0.45593999997E+02  0.45594000000E+02  0.51100000000E-03 0.  1.
         11   -1    0    0    0    0 -0.00000000000E+00 -0.00000000000E+00 -0.45593999997E+02  0.45594000000E+02  0.51100000000E-03 0. -1.
    9900012    2    1    2    0    0  0.11065568470E+01  0.39715633344E+00  0.10419973645E+00  0.90007720883E+02  0.89999981999E+02 0.  0.
         12    1    1    2    0    0 -0.11065568470E+01 -0.39715633344E+00 -0.10419973645E+00  0.11802791170E+01  0.00000000000E+00 0. -1.
         11    1    3    3    0    0 -0.97993262475E+01  0.30103601502E+01 -0.36555859350E+02  0.37966036351E+02  0.51100000000E-03 0. -1.
        -11    1    3    3    0    0  0.39902098838E+00 -0.93745044257E+01 -0.34757553028E+01  0.10006069466E+02  0.51100000000E-03 0.  1.
        -12    1    3    3    0    0  0.10506862106E+02  0.67613006090E+01  0.40135814389E+02  0.42035615066E+02  0.00000000000E+00 0.  1.
</event>
<event>
 7    1  0.4096472E-015  0.9000774E+02  0.7816164E-02  0.1186339E+00
        -11   -1    0    0    0    0  0.00000000000E+00  0.00000000000E+00  0.45593999997E+02  0.45594000000E+02  0.51100000000E-03 0. -1.
         11   -1    0    0    0    0 -0.00000000000E+00 -0.00000000000E+00 -0.45593999997E+02  0.45594000000E+02  0.51100000000E-03 0.  1.
    9900012    2    1    2    0    0  0.14262812293E+00 -0.11355441012E+01 -0.28848258200E+00  0.90007735035E+02  0.89999996338E+02 0.  0.
         12    1    1    2    0    0 -0.14262812293E+00  0.11355441012E+01  0.28848258200E+00  0.11802649648E+01  0.00000000000E+00 0. -1.
         11    1    3    3    0    0  0.23771700237E+02  0.19724580957E+02  0.16754706301E+02  0.35140759946E+02  0.51100000000E-03 0. -1.
        -11    1    3    3    0    0  0.11501275732E+02 -0.19328993704E+01 -0.74051170666E+01  0.13814890607E+02  0.51100000000E-03 0.  1.
        -12    1    3    3    0    0 -0.35130347846E+02 -0.18927225688E+02 -0.96380718161E+01  0.41052084483E+02  0.00000000000E+00 0.  1.
</event>
<event>
 7    1  0.4096472E-015  0.9000784E+02  0.7816164E-02  0.1186339E+00
        -11   -1    0    0    0    0  0.00000000000E+00  0.00000000000E+00  0.45593999997E+02  0.45594000000E+02  0.51100000000E-03 0.  1.
         11   -1    0    0    0    0 -0.00000000000E+00 -0.00000000000E+00 -0.45593999997E+02  0.45594000000E+02  0.51100000000E-03 0. -1.
    9900012    2    1    2    0    0 -0.19096275309E+00  0.70118343178E+00  0.92987159367E+00  0.90007836385E+02  0.90000099025E+02 0.  0.
         12    1    1    2    0    0  0.19096275309E+00 -0.70118343178E+00 -0.92987159367E+00  0.11801636153E+01  0.00000000000E+00 0. -1.
         11    1    3    3    0    0 -0.10957145008E+02 -0.20794488301E+00  0.17751616459E+01  0.11101957797E+02  0.51100000000E-03 0. -1.
        -11    1    3    3    0    0 -0.32588907649E-01 -0.89785173720E+01  0.37132930036E+02  0.38203001577E+02  0.51100000000E-03 0.  1.
         12    1    3    3    0    0  0.10798771163E+02  0.98876456868E+01 -0.37978220088E+02  0.40702877010E+02  0.00000000000E+00 0. -1.
</event>
<event>
 7    1  0.4096472E-015  0.9000774E+02  0.7816164E-02  0.1186339E+00
        -11   -1    0    0    0    0  0.00000000000E+00  0.00000000000E+00  0.45593999997E+02  0.45594000000E+02  0.51100000000E-03 0. -1.
         11   -1    0    0    0    0 -0.00000000000E+00 -0.00000000000E+00 -0.45593999997E+02  0.45594000000E+02  0.51100000000E-03 0.  1.
    9900012    2    1    2    0    0  0.10344740521E+01  0.11311256120E+00 -0.55685218523E+00  0.90007739278E+02  0.90000000636E+02 0.  0.
         12    1    1    2    0    0 -0.10344740521E+01 -0.11311256120E+00  0.55685218523E+00  0.11802607221E+01  0.00000000000E+00 0. -1.
         11    1    3    3    0    0 -0.34167857741E+00  0.31042837164E+01 -0.14392678965E+02  0.14727611134E+02  0.51100000000E-03 0. -1.
        -11    1    3    3    0    0 -0.11604746862E+02  0.16610203766E+02 -0.23580771808E+02  0.31090542263E+02  0.51100000000E-03 0.  1.
         12    1    3    3    0    0  0.12980899491E+02 -0.19601374921E+02  0.37416598589E+02  0.44189585881E+02  0.00000000000E+00 0. -1.
</event>
<event>
 7    1  0.4096472E-015  0.9000763E+02  0.7816164E-02  0.1186339E+00
        -11   -1    0    0    0    0  0.00000000000E+00  0.00000000000E+00  0.45593999997E+02  0.45594000000E+02  0.51100000000E-03 0.  1.
         11   -1    0    0    0    0 -0.00000000000E+00 -0.00000000000E+00 -0.45593999997E+02  0.45594000000E+02  0.51100000000E-03 0. -1.
    9900012    2    1    2    0    0 -0.69958435789E+00 -0.62357670285E+00  0.71764318714E+00  0.90007628058E+02  0.89999887948E+02 0.  0.
         12    1    1    2    0    0  0.69958435789E+00  0.62357670285E+00 -0.71764318714E+00  0.11803719423E+01  0.00000000000E+00 0. -1.
         11    1    3    3    0    0  0.51649261327E-01 -0.94592172447E+01  0.35508530563E+01  0.10103861451E+02  0.51100000000E-03 0. -1.
        -11    1    3    3    0    0  0.78896794211E+01 -0.48085178514E+01  0.36358894547E+02  0.37514505172E+02  0.51100000000E-03 0.  1.
         12    1    3    3    0    0 -0.86409130403E+01  0.13644158393E+02 -0.39192104417E+02  0.42389261435E+02  0.00000000000E+00 0. -1.
</event>
<event>
 7    1  0.4096472E-015  0.9000785E+02  0.7816164E-02  0.1186339E+00
        -11   -1    0    0    0    0  0.00000000000E+00  0.00000000000E+00  0.45593999997E+02  0.45594000000E+02  0.51100000000E-03 0. -1.
         11   -1    0    0    0    0 -0.00000000000E+00 -0.00000000000E+00 -0.45593999997E+02  0.45594000000E+02  0.51100000000E-03 0.  1.
    9900012    2    1    2    0    0  0.11345432587E+01 -0.28580540280E+00  0.15450391934E+00  0.90007853994E+02  0.90000116867E+02 0.  0.
         12    1    1    2    0    0 -0.11345432587E+01  0.28580540280E+00 -0.15450391934E+00  0.11801460059E+01  0.00000000000E+00 0. -1.
         11    1    3    3    0    0  0.21288109207E+02 -0.13411576128E+02  0.24691096517E+02  0.35252010089E+02  0.51100000000E-03 0. -1.
        -11    1    3    3    0    0  0.84983126871E+01 -0.26734336391E+01  0.53917398868E+01  0.10413425239E+02  0.51100000000E-03 0.  1.
        -12    1    3    3    0    0 -0.28651878635E+02  0.15799204364E+02 -0.29928332485E+02  0.44342418666E+02  0.00000000000E+00 0.  1.
</event>
<event>
 7    1  0.4096472E-015  0.9000770E+02  0.7816164E-02  0.1186339E+00
        -11   -1    0    0    0    0  0.00000000000E+00  0.00000000000E+00  0.45593999997E+02  0.45594000000E+02  0.51100000000E-03 0.  1.
         11   -1    0    0    0    0 -0.00000000000E+00 -0.00000000000E+00 -0.45593999997E+02  0.45594000000E+02  0.51100000000E-03 0. -1.
    9900012    2    1    2    0    0 -0.72982414392E+00 -0.90864371516E+00  0.18661030349E+00  0.90007703390E+02  0.89999964275E+02 0.  0.
         12    1    1    2    0    0  0.72982414392E+00  0.90864371516E+00 -0.18661030349E+00  0.11802966100E+01  0.00000000000E+00 0. -1.
         11    1    3    3    0    0  0.27969076578E+02 -0.67623642610E+01 -0.19112993619E+02  0.34544251915E+02  0.51100000000E-03 0. -1.
        -11    1    3    3    0    0 -0.25382646728E+00 -0.11812972913E+02 -0.62290422503E+01  0.13357085181E+02  0.51100000000E-03 0.  1.
        -12    1    3    3    0    0 -0.28445074254E+02  0.17666693459E+02  0.25528646173E+02  0.42106366294E+02  0.00000000000E+00 0.  1.
</event>
<event>
 7    1  0.4096472E-015  0.9000768E+02  0.7816164E-02  0.1186339E+00
        -11   -1    0    0    0    0  0.00000000000E+00  0.00000000000E+00  0.45593999997E+02  0.45594000000E+02  0.51100000000E-03 0.  1.
         11   -1    0    0    0    0 -0.00000000000E+00 -0.00000000000E+00 -0.45593999997E+02  0.45594000000E+02  0.51100000000E-03 0. -1.
    9900012    2    1    2    0    0 -0.98255550905E+00  0.17878449856E+00  0.62911172710E+00  0.90007677675E+02  0.89999938220E+02 0.  0.
         12    1    1    2    0    0  0.98255550905E+00 -0.17878449856E+00 -0.62911172710E+00  0.11803223248E+01  0.00000000000E+00 0. -1.
         11    1    3    3    0    0 -0.62604077787E-01  0.24987920437E+01 -0.73961749382E+01  0.78071303900E+01  0.51100000000E-03 0. -1.
        -11    1    3    3    0    0 -0.52676073877E+01  0.17828449283E+02  0.40027986719E+02  0.44134351841E+02  0.51100000000E-03 0.  1.
         12    1    3    3    0    0  0.43476559565E+01 -0.20148456828E+02 -0.32002700053E+02  0.38066195444E+02  0.00000000000E+00 0. -1.
</event>
<event>
 7    1  0.4096472E-015  0.9000750E+02  0.7816164E-02  0.1186340E+00
        -11   -1    0    0    0    0  0.00000000000E+00  0.00000000000E+00  0.45593999997E+02  0.45594000000E+02  0.51100000000E-03 0. -1.
         11   -1    0    0    0    0 -0.00000000000E+00 -0.00000000000E+00 -0.45593999997E+02  0.45594000000E+02  0.51100000000E-03 0.  1.
    9900012    2    1    2    0    0  0.11718483125E+01 -0.12713874314E+00  0.64794666885E-01  0.90007495415E+02  0.89999753554E+02 0.  0.
         12    1    1    2    0    0 -0.11718483125E+01  0.12713874314E+00 -0.64794666885E-01  0.11805045855E+01  0.00000000000E+00 0. -1.
         11    1    3    3    0    0  0.31303680621E+01  0.15799651269E+01 -0.61419549226E+01  0.70724185777E+01  0.51100000000E-03 0. -1.
        -11    1    3    3    0    0 -0.83044444379E+01  0.39039594355E+02 -0.49389790147E+01  0.40217499161E+02  0.51100000000E-03 0.  1.
         12    1    3    3    0    0  0.63459246883E+01 -0.40746698225E+02  0.11145728604E+02  0.42717577676E+02  0.00000000000E+00 0. -1.
</event>
<event>
 7    1  0.4096472E-015  0.9000791E+02  0.7816164E-02  0.1186339E+00
        -11   -1    0    0    0    0  0.00000000000E+00  0.00000000000E+00  0.45593999997E+02  0.45594000000E+02  0.51100000000E-03 0.  1.
         11   -1    0    0    0    0 -0.00000000000E+00 -0.00000000000E+00 -0.45593999997E+02  0.45594000000E+02  0.51100000000E-03 0. -1.
    9900012    2    1    2    0    0  0.11445761621E+01  0.24196460929E+00 -0.15498134809E+00  0.90007906495E+02  0.90000170060E+02 0.  0.
         12    1    1    2    0    0 -0.11445761621E+01 -0.24196460929E+00  0.15498134809E+00  0.11800935053E+01  0.00000000000E+00 0. -1.
         11    1    3    3    0    0  0.33869971228E+02  0.15746235173E+02 -0.17874530041E+01  0.37394035107E+02  0.51100000000E-03 0. -1.
        -11    1    3    3    0    0  0.46666298225E+01  0.30587678737E+00 -0.94391186087E+01  0.10534132849E+02  0.51100000000E-03 0.  1.
        -12    1    3    3    0    0 -0.37392024888E+02 -0.15810147351E+02  0.11071590265E+02  0.42079738539E+02  0.00000000000E+00 0.  1.
</event>
<event>
 7    1  0.4096472E-015  0.9000779E+02  0.7816164E-02  0.1186339E+00
        -11   -1    0    0    0    0  0.00000000000E+00  0.00000000000E+00  0.45593999997E+02  0.45594000000E+02  0.51100000000E-03 0.  1.
         11   -1    0    0    0    0 -0.00000000000E+00 -0.00000000000E+00 -0.45593999997E+02  0.45594000000E+02  0.51100000000E-03 0. -1.
    9900012    2    1    2    0    0  0.89115627049E+00 -0.93712979491E-01  0.76808137708E+00  0.90007792127E+02  0.90000054183E+02 0.  0.
         12    1    1    2    0    0 -0.89115627049E+00  0.93712979491E-01 -0.76808137708E+00  0.11802078727E+01  0.00000000000E+00 0. -1.
         11    1    3    3    0    0  0.92286163203E+01 -0.38864328687E+01 -0.48766123685E+01  0.11137911298E+02  0.51100000000E-03 0. -1.
        -11    1    3    3    0    0 -0.20931340496E+02 -0.31343159782E+02  0.14712396776E+02  0.40459477249E+02  0.51100000000E-03 0.  1.
         12    1    3    3    0    0  0.12593880446E+02  0.35135879671E+02 -0.90677030301E+01  0.38410403581E+02  0.00000000000E+00 0. -1.
</event>
<event>
 7    1  0.4096472E-015  0.9000775E+02  0.7816164E-02  0.1186339E+00
        -11   -1    0    0    0    0  0.00000000000E+00  0.00000000000E+00  0.45593999997E+02  0.45594000000E+02  0.51100000000E-03 0. -1.
         11   -1    0    0    0    0 -0.00000000000E+00 -0.00000000000E+00 -0.45593999997E+02  0.45594000000E+02  0.51100000000E-03 0.  1.
    9900012    2    1    2    0    0  0.71641974397E+00  0.77341909311E+00 -0.53062904989E+00  0.90007745141E+02  0.90000006577E+02 0.  0.
         12    1    1    2    0    0 -0.71641974397E+00 -0.77341909311E+00  0.53062904989E+00  0.11802548588E+01  0.00000000000E+00 0. -1.
         11    1    3    3    0    0  0.32278615669E-01 -0.17319207811E+01  0.97405790740E+01  0.98934055036E+01  0.51100000000E-03 0. -1.
        -11    1    3    3    0    0 -0.20680111977E+02 -0.26161028869E+02  0.14762795821E+02  0.36469255594E+02  0.51100000000E-03 0.  1.
         12    1    3    3    0    0  0.21364253105E+02  0.28666368743E+02 -0.25034003945E+02  0.43645084044E+02  0.00000000000E+00 0. -1.
</event>
<event>
 7    1  0.4096472E-015  0.9000772E+02  0.7816164E-02  0.1186339E+00
        -11   -1    0    0    0    0  0.00000000000E+00  0.00000000000E+00  0.45593999997E+02  0.45594000000E+02  0.51100000000E-03 0.  1.
         11   -1    0    0    0    0 -0.00000000000E+00 -0.00000000000E+00 -0.45593999997E+02  0.45594000000E+02  0.51100000000E-03 0. -1.
    9900012    2    1    2    0    0 -0.83730519883E+00 -0.12277925926E+00  0.82274283200E+00  0.90007720156E+02  0.89999981262E+02 0.  0.
         12    1    1    2    0    0  0.83730519883E+00  0.12277925926E+00 -0.82274283200E+00  0.11802798440E+01  0.00000000000E+00 0. -1.
         11    1    3    3    0    0 -0.34009310636E+01 -0.22034891965E+02 -0.35399950825E+02  0.41836100615E+02  0.51100000000E-03 0. -1.
        -11    1    3    3    0    0 -0.15946116170E+01 -0.42213180871E+01  0.97370766367E+01  0.10731867232E+02  0.51100000000E-03 0.  1.
        -12    1    3    3    0    0  0.41582374817E+01  0.26133430793E+02  0.26485617020E+02  0.37439752309E+02  0.00000000000E+00 0.  1.
</event>
<event>
 7    1  0.4096472E-015  0.9000774E+02  0.7816164E-02  0.1186339E+00
        -11   -1    0    0    0    0  0.00000000000E+00  0.00000000000E+00  0.45593999997E+02  0.45594000000E+02  0.51100000000E-03 0.  1.
         11   -1    0    0    0    0 -0.00000000000E+00 -0.00000000000E+00 -0.45593999997E+02  0.45594000000E+02  0.51100000000E-03 0. -1.
    9900012    2    1    2    0    0  0.26980228434E-01 -0.11364875916E+01  0.31730205100E+00  0.90007740465E+02  0.90000001839E+02 0.  0.
         12    1    1    2    0    0 -0.26980228434E-01  0.11364875916E+01 -0.31730205100E+00  0.11802595351E+01  0.00000000000E+00 0. -1.
         11    1    3    3    0    0  0.34675878409E+01  0.50854421672E+01 -0.55691373938E+01  0.83006734090E+01  0.51100000000E-03 0. -1.
        -11    1    3    3    0    0 -0.16097588922E+02  0.28412317363E+02  0.24094131140E+02  0.40582253544E+02  0.51100000000E-03 0.  1.
         12    1    3    3    0    0  0.12656981310E+02 -0.34634247122E+02 -0.18207691695E+02  0.41124813512E+02  0.00000000000E+00 0. -1.
</event>
<event>
 7    1  0.4096472E-015  0.9000766E+02  0.7816164E-02  0.1186339E+00
        -11   -1    0    0    0    0  0.00000000000E+00  0.00000000000E+00  0.45593999997E+02  0.45594000000E+02  0.51100000000E-03 0. -1.
         11   -1    0    0    0    0 -0.00000000000E+00 -0.00000000000E+00 -0.45593999997E+02  0.45594000000E+02  0.51100000000E-03 0.  1.
    9900012    2    1    2    0    0  0.14042509104E+00  0.75686729419E+00 -0.89478601062E+00  0.90007657121E+02  0.89999917395E+02 0.  0.
         12    1    1    2    0    0 -0.14042509104E+00 -0.75686729419E+00  0.89478601062E+00  0.11803428790E+01  0.00000000000E+00 0. -1.
         11    1    3    3    0    0 -0.35875553641E+01 -0.19556311279E+02 -0.72887419246E+01  0.21176534736E+02  0.51100000000E-03 0. -1.
        -11    1    3    3    0    0 -0.95344805081E+01 -0.15542019068E+02 -0.16228641649E+02  0.24409618705E+02  0.51100000000E-03 0.  1.
         12    1    3    3    0    0  0.13262460963E+02  0.35855197641E+02  0.22622597563E+02  0.44421503680E+02  0.00000000000E+00 0. -1.
</event>
<event>
 7    1  0.4096472E-015  0.9000786E+02  0.7816164E-02  0.1186339E+00
        -11   -1    0    0    0    0  0.00000000000E+00  0.00000000000E+00  0.45593999997E+02  0.45594000000E+02  0.51100000000E-03 0.  1.
         11   -1    0    0    0    0 -0.00000000000E+00 -0.00000000000E+00 -0.45593999997E+02  0.45594000000E+02  0.51100000000E-03 0. -1.
    9900012    2    1    2    0    0  0.82147746779E+00 -0.29811833257E+00  0.79311973997E+00  0.90007856495E+02  0.90000119401E+02 0.  0.
         12    1    1    2    0    0 -0.82147746779E+00  0.29811833257E+00 -0.79311973997E+00  0.11801435049E+01  0.00000000000E+00 0. -1.
         11    1    3    3    0    0 -0.10166131592E+01  0.35281949011E+01 -0.72828907714E+01  0.81561118080E+01  0.51100000000E-03 0. -1.
        -11    1    3    3    0    0 -0.31656851581E+02  0.12627494855E+02  0.23576785987E+02  0.41442426523E+02  0.51100000000E-03 0.  1.
         12    1    3    3    0    0  0.33494942208E+02 -0.16453808089E+02 -0.15500775475E+02  0.40409318164E+02  0.00000000000E+00 0. -1.
</event>
<event>
 7    1  0.4096472E-015  0.9000780E+02  0.7816164E-02  0.1186339E+00
        -11   -1    0    0    0    0  0.00000000000E+00  0.00000000000E+00  0.45593999997E+02  0.45594000000E+02  0.51100000000E-03 0.  1.
         11   -1    0    0    0    0 -0.00000000000E+00 -0.00000000000E+00 -0.45593999997E+02  0.45594000000E+02  0.51100000000E-03 0. -1.
    9900012    2    1    2    0    0  0.66268275513E+00  0.96831940732E+00  0.12682959075E+00  0.90007798045E+02  0.90000060180E+02 0.  0.
         12    1    1    2    0    0 -0.66268275513E+00 -0.96831940732E+00 -0.12682959075E+00  0.11802019546E+01  0.00000000000E+00 0. -1.
         11    1    3    3    0    0 -0.24219225725E+02  0.11787759632E+02 -0.21615651555E+02  0.34536336869E+02  0.51100000000E-03 0. -1.
        -11    1    3    3    0    0 -0.63125409525E+01  0.87707353518E+01 -0.28563347192E+01  0.11177326164E+02  0.51100000000E-03 0.  1.
        -12    1    3    3    0    0  0.31194449433E+02 -0.19590175577E+02  0.24598815865E+02  0.44294135013E+02  0.00000000000E+00 0.  1.
</event>
<event>
 7    1  0.4096472E-015  0.9000716E+02  0.7816164E-02  0.1186340E+00
        -11   -1    0    0    0    0  0.00000000000E+00  0.00000000000E+00  0.45593999997E+02  0.45594000000E+02  0.51100000000E-03 0.  1.
         11   -1    0    0    0    0 -0.00000000000E+00 -0.00000000000E+00 -0.45593999997E+02  0.45594000000E+02  0.51100000000E-03 0. -1.
    9900012    2    1    2    0    0 -0.11558315178E+01 -0.23298203406E+00  0.64416221076E-01  0.90007162765E+02  0.89999416512E+02 0.  0.
         12    1    1    2    0    0  0.11558315178E+01  0.23298203406E+00 -0.64416221076E-01  0.11808372349E+01  0.00000000000E+00 0. -1.
         11    1    3    3    0    0  0.45616545587E+01  0.32781892647E+01 -0.42663959579E+01  0.70538891329E+01  0.51100000000E-03 0. -1.
        -11    1    3    3    0    0  0.30297349597E+02  0.22966732243E+02  0.42253774976E+01  0.38252503157E+02  0.51100000000E-03 0.  1.
         12    1    3    3    0    0 -0.36014835674E+02 -0.26477903542E+02  0.10543468136E+00  0.44700770475E+02  0.00000000000E+00 0. -1.
</event>
<event>
 7    1  0.4096472E-015  0.9000765E+02  0.7816164E-02  0.1186339E+00
        -11   -1    0    0    0    0  0.00000000000E+00  0.00000000000E+00  0.45593999997E+02  0.45594000000E+02  0.51100000000E-03 0. -1.
         11   -1    0    0    0    0 -0.00000000000E+00 -0.00000000000E+00 -0.45593999997E+02  0.45594000000E+02  0.51100000000E-03 0.  1.
    9900012    2    1    2    0    0  0.11673266359E+01  0.13916592118E+00 -0.10582096117E+00  0.90007653990E+02  0.89999914222E+02 0.  0.
         12    1    1    2    0    0 -0.11673266359E+01 -0.13916592118E+00  0.10582096117E+00  0.11803460104E+01  0.00000000000E+00 0. -1.
         11    1    3    3    0    0 -0.18395709917E+02  0.27036835473E+02  0.14155578721E+02  0.35633874684E+02  0.51100000000E-03 0. -1.
        -11    1    3    3    0    0 -0.90761564488E+01  0.18746369014E+01  0.37033924686E+01  0.99802803284E+01  0.51100000000E-03 0.  1.
        -12    1    3    3    0    0  0.28639193002E+02 -0.28772306454E+02 -0.17964792151E+02  0.44393498978E+02  0.00000000000E+00 0.  1.
</event>
<event>
 7    1  0.4096472E-015  0.9000773E+02  0.7816164E-02  0.1186339E+00
        -11   -1    0    0    0    0  0.00000000000E+00  0.00000000000E+00  0.45593999997E+02  0.45594000000E+02  0.51100000000E-03 0.  1.
         11   -1    0    0    0    0 -0.00000000000E+00 -0.00000000000E+00 -0.45593999997E+02  0.45594000000E+02  0.51100000000E-03 0. -1.
    9900012    2    1    2    0    0 -0.66103515314E+00  0.94238428677E+00  0.26071518594E+00  0.90007733917E+02  0.89999995205E+02 0.  0.
         12    1    1    2    0    0  0.66103515314E+00 -0.94238428677E+00 -0.26071518594E+00  0.11802660826E+01  0.00000000000E+00 0. -1.
         11    1    3    3    0    0 -0.92381465130E+01 -0.91924235948E+01 -0.36410264800E+02  0.38672359452E+02  0.51100000000E-03 0. -1.
        -11    1    3    3    0    0 -0.33210946305E+01  0.90110563924E+01 -0.28736174621E+01  0.10024294710E+02  0.51100000000E-03 0.  1.
        -12    1    3    3    0    0  0.11898205990E+02  0.11237514892E+01  0.39544597448E+02  0.41311079755E+02  0.00000000000E+00 0.  1.
</event>
<event>
 7    1  0.4096472E-015  0.9000778E+02  0.7816164E-02  0.1186339E+00
        -11   -1    0    0    0    0  0.00000000000E+00  0.00000000000E+00  0.45593999997E+02  0.45594000000E+02  0.51100000000E-03 0.  1.
         11   -1    0    0    0    0 -0.00000000000E+00 -0.00000000000E+00 -0.45593999997E+02  0.45594000000E+02  0.51100000000E-03 0. -1.
    9900012    2    1    2    0    0 -0.95170877978E+00 -0.55509350441E+00  0.42313085839E+00  0.90007780477E+02  0.90000042379E+02 0.  0.
         12    1    1    2    0    0  0.95170877978E+00  0.55509350441E+00 -0.42313085839E+00  0.11802195234E+01  0.00000000000E+00 0. -1.
         11    1    3    3    0    0 -0.26672967224E+02  0.86873068237E+01 -0.13574036324E+02  0.31163615688E+02  0.51100000000E-03 0. -1.
        -11    1    3    3    0    0 -0.27766647433E+01 -0.93159232980E+01 -0.15201212009E+02  0.18043645441E+02  0.51100000000E-03 0.  1.
        -12    1    3    3    0    0  0.28497923188E+02  0.73522969889E-01  0.29198379191E+02  0.40800519347E+02  0.00000000000E+00 0.  1.
</event>
<event>
 7    1  0.4096472E-015  0.9000763E+02  0.7816164E-02  0.1186339E+00
        -11   -1    0    0    0    0  0.00000000000E+00  0.00000000000E+00  0.45593999997E+02  0.45594000000E+02  0.51100000000E-03 0.  1.
         11   -1    0    0    0    0 -0.00000000000E+00 -0.00000000000E+00 -0.45593999997E+02  0.45594000000E+02  0.51100000000E-03 0. -1.
    9900012    2    1    2    0    0 -0.39411084193E+00  0.98919255487E+00 -0.50935306090E+00  0.90007633190E+02  0.89999893148E+02 0.  0.
         12    1    1    2    0    0  0.39411084193E+00 -0.98919255487E+00  0.50935306090E+00  0.11803668103E+01  0.00000000000E+00 0. -1.
         11    1    3    3    0    0  0.11142832685E+02  0.13277498304E+01 -0.11188320440E+01  0.11277296895E+02  0.51100000000E-03 0. -1.
        -11    1    3    3    0    0 -0.28636353254E+01 -0.37874387603E+02  0.95860701407E+01  0.39173490840E+02  0.51100000000E-03 0.  1.
         12    1    3    3    0    0 -0.86733082015E+01  0.37535830327E+02 -0.89765911576E+01  0.39556845455E+02  0.00000000000E+00 0. -1.
</event>
<event>
 7    1  0.4096472E-015  0.9000766E+02  0.7816164E-02  0.1186339E+00
        -11   -1    0    0    0    0  0.00000000000E+00  0.00000000000E+00  0.45593999997E+02  0.45594000000E+02  0.51100000000E-03 0.  1.
         11   -1    0    0    0    0 -0.00000000000E+00 -0.00000000000E+00 -0.45593999997E+02  0.45594000000E+02  0.51100000000E-03 0. -1.
    9900012    2    1    2    0    0 -0.69717109958E+00  0.40547686439E+00  0.86182394093E+00  0.90007661263E+02  0.89999921591E+02 0.  0.
         12    1    1    2    0    0  0.69717109958E+00 -0.40547686439E+00 -0.86182394093E+00  0.11803387373E+01  0.00000000000E+00 0. -1.
         11    1    3    3    0    0 -0.70914949173E+01 -0.58462905450E+01 -0.16756076540E+00  0.91921972438E+01  0.51100000000E-03 0. -1.
        -11    1    3    3    0    0 -0.27857196509E+02 -0.13061415834E+02 -0.19531344671E+02  0.36443070752E+02  0.51100000000E-03 0.  1.
         12    1    3    3    0    0  0.34251520327E+02  0.19313183243E+02  0.20560729378E+02  0.44372393267E+02  0.00000000000E+00 0. -1.
</event>
<event>
 7    1  0.4096472E-015  0.9000774E+02  0.7816164E-02  0.1186339E+00
        -11   -1    0    0    0    0  0.00000000000E+00  0.00000000000E+00  0.45593999997E+02  0.45594000000E+02  0.51100000000E-03 0.  1.
         11   -1    0    0    0    0 -0.00000000000E+00 -0.00000000000E+00 -0.45593999997E+02  0.45594000000E+02  0.51100000000E-03 0. -1.
    9900012    2    1    2    0    0  0.50170523853E+00 -0.10580461843E+01 -0.14778794557E+00  0.90007741066E+02  0.90000002448E+02 0.  0.
         12    1    1    2    0    0 -0.50170523853E+00  0.10580461843E+01  0.14778794557E+00  0.11802589341E+01  0.00000000000E+00 0. -1.
         11    1    3    3    0    0  0.38753163209E+02  0.31396970392E+01 -0.14166168884E+02  0.41380498998E+02  0.51100000000E-03 0. -1.
        -11    1    3    3    0    0 -0.71878324738E+01  0.42848789078E+01 -0.63679278037E+01  0.10515494648E+02  0.51100000000E-03 0.  1.
        -12    1    3    3    0    0 -0.31063625497E+02 -0.84826221313E+01  0.20386308742E+02  0.38111747419E+02  0.00000000000E+00 0.  1.
</event>
<event>
 7    1  0.4096472E-015  0.9000771E+02  0.7816164E-02  0.1186339E+00
        -11   -1    0    0    0    0  0.00000000000E+00  0.00000000000E+00  0.45593999997E+02  0.45594000000E+02  0.51100000000E-03 0. -1.
         11   -1    0    0    0    0 -0.00000000000E+00 -0.00000000000E+00 -0.45593999997E+02  0.45594000000E+02  0.51100000000E-03 0.  1.
    9900012    2    1    2    0    0 -0.24708377734E+00 -0.10083897626E+01 -0.56141841437E+00  0.90007707264E+02  0.89999968200E+02 0.  0.
         12    1    1    2    0    0  0.24708377734E+00  0.10083897626E+01  0.56141841437E+00  0.11802927359E+01  0.00000000000E+00 0. -1.
         11    1    3    3    0    0  0.22263547647E+02 -0.19999146939E+02 -0.21359705654E+02  0.36767763843E+02  0.51100000000E-03 0. -1.
        -11    1    3    3    0    0  0.27052084309E+01 -0.15540223525E+01 -0.87542970892E+01  0.92935921964E+01  0.51100000000E-03 0.  1.
        -12    1    3    3    0    0 -0.25215839855E+02  0.20544779529E+02  0.29552584328E+02  0.43946351225E+02  0.00000000000E+00 0.  1.
</event>
<event>
 7    1  0.4096472E-015  0.9000782E+02  0.7816164E-02  0.1186339E+00
        -11   -1    0    0    0    0  0.00000000000E+00  0.00000000000E+00  0.45593999997E+02  0.45594000000E+02  0.51100000000E-03 0. -1.
         11   -1    0    0    0    0 -0.00000000000E+00 -0.00000000000E+00 -0.45593999997E+02  0.45594000000E+02  0.51100000000E-03 0.  1.
    9900012    2    1    2    0    0  0.70487829203E+00  0.82752593903E+00 -0.45952783044E+00  0.90007822720E+02  0.90000085179E+02 0.  0.
         12    1    1    2    0    0 -0.70487829203E+00 -0.82752593903E+00  0.45952783044E+00  0.11801772804E+01  0.00000000000E+00 0. -1.
         11    1    3    3    0    0  0.32017188868E+02 -0.21253731284E+02  0.10748901517E+01  0.38444464694E+02  0.51100000000E-03 0. -1.
        -11    1    3    3    0    0 -0.27727968037E+01 -0.89157676189E+01 -0.13083871882E+01  0.94282125371E+01  0.51100000000E-03 0.  1.
        -12    1    3    3    0    0 -0.28539513772E+02  0.30997024842E+02 -0.22603079392E+00  0.42135145489E+02  0.00000000000E+00 0.  1.
</event>
<event>
 7    1  0.4096472E-015  0.9000793E+02  0.7816164E-02  0.1186339E+00
        -11   -1    0    0    0    0  0.00000000000E+00  0.00000000000E+00  0.45593999997E+02  0.45594000000E+02  0.51100000000E-03 0. -1.
         11   -1    0    0    0    0 -0.00000000000E+00 -0.00000000000E+00 -0.45593999997E+02  0.45594000000E+02  0.51100000000E-03 0.  1.
    9900012    2    1    2    0    0  0.15633634875E+00 -0.99061046546E+00  0.62193719472E+00  0.90007933891E+02  0.90000197818E+02 0.  0.
         12    1    1    2    0    0 -0.15633634875E+00  0.99061046546E+00 -0.62193719472E+00  0.11800661093E+01  0.00000000000E+00 0. -1.
         11    1    3    3    0    0  0.50788747556E+01  0.79709793300E+01  0.77058190595E+01  0.12194717213E+02  0.51100000000E-03 0. -1.
        -11    1    3    3    0    0 -0.38792635916E+02 -0.84984152719E+01  0.83638121730E+01  0.40583802406E+02  0.51100000000E-03 0.  1.
         12    1    3    3    0    0  0.33870097509E+02 -0.46317452360E+00 -0.15447694038E+02  0.37229414271E+02  0.00000000000E+00 0. -1.
</event>
<event>
 7    1  0.4096472E-015  0.9000775E+02  0.7816164E-02  0.1186339E+00
        -11   -1    0    0    0    0  0.00000000000E+00  0.00000000000E+00  0.45593999997E+02  0.45594000000E+02  0.51100000000E-03 0.  1.
         11   -1    0    0    0    0 -0.00000000000E+00 -0.00000000000E+00 -0.45593999997E+02  0.45594000000E+02  0.51100000000E-03 0. -1.
    9900012    2    1    2    0    0 -0.94841132271E+00  0.99702063769E-01  0.69538789373E+00  0.90007750509E+02  0.90000012016E+02 0.  0.
         12    1    1    2    0    0  0.94841132271E+00 -0.99702063769E-01 -0.69538789373E+00  0.11802494911E+01  0.00000000000E+00 0. -1.
         11    1    3    3    0    0  0.96202774573E+01  0.31915376150E+02 -0.13690500944E+02  0.36035687721E+02  0.51100000000E-03 0. -1.
        -11    1    3    3    0    0 -0.50531782395E+00  0.93925649086E+01  0.84500522524E+00  0.94440275178E+01  0.51100000000E-03 0.  1.
        -12    1    3    3    0    0 -0.10063370956E+02 -0.41208238995E+02  0.13540883612E+02  0.44528035270E+02  0.00000000000E+00 0.  1.
</event>
<event>
 7    1  0.4096472E-015  0.9000774E+02  0.7816164E-02  0.1186339E+00
        -11   -1    0    0    0    0  0.00000000000E+00  0.00000000000E+00  0.45593999997E+02  0.45594000000E+02  0.51100000000E-03 0.  1.
         11   -1    0    0    0    0 -0.00000000000E+00 -0.00000000000E+00 -0.45593999997E+02  0.45594000000E+02  0.51100000000E-03 0. -1.
    9900012    2    1    2    0    0 -0.85192619674E+00 -0.35090025035E+00  0.73762924942E+00  0.90007743189E+02  0.90000004599E+02 0.  0.
         12    1    1    2    0    0  0.85192619674E+00  0.35090025035E+00 -0.73762924942E+00  0.11802568110E+01  0.00000000000E+00 0. -1.
         11    1    3    3    0    0  0.86468861850E+00 -0.37275351354E+01 -0.39017140229E+02  0.39204329308E+02  0.51100000000E-03 0. -1.
        -11    1    3    3    0    0  0.89512395116E+01  0.12066865558E+01 -0.55525009286E+00  0.90492587632E+01  0.51100000000E-03 0.  1.
        -12    1    3    3    0    0 -0.10667854327E+02  0.21699483293E+01  0.40310019572E+02  0.41754155117E+02  0.00000000000E+00 0.  1.
</event>
<event>
 7    1  0.4096472E-015  0.9000772E+02  0.7816164E-02  0.1186339E+00
        -11   -1    0    0    0    0  0.00000000000E+00  0.00000000000E+00  0.45593999997E+02  0.45594000000E+02  0.51100000000E-03 0. -1.
         11   -1    0    0    0    0 -0.00000000000E+00 -0.00000000000E+00 -0.45593999997E+02  0.45594000000E+02  0.51100000000E-03 0.  1.
    9900012    2    1    2    0    0  0.81315703663E+00 -0.92539181343E-01 -0.85044822318E+00  0.90007724589E+02  0.89999985753E+02 0.  0.
         12    1    1    2    0    0 -0.81315703663E+00  0.92539181343E-01  0.85044822318E+00  0.11802754113E+01  0.00000000000E+00 0. -1.
         11    1    3    3    0    0  0.60914579068E+01 -0.45057189180E+01  0.72700002373E+01  0.10500488851E+02  0.51100000000E-03 0. -1.
        -11    1    3    3    0    0 -0.11021475715E+02  0.40427109466E+02 -0.96754935070E+01  0.43005107622E+02  0.51100000000E-03 0.  1.
         12    1    3    3    0    0  0.57431748451E+01 -0.36013929729E+02  0.15550450466E+01  0.36502128115E+02  0.00000000000E+00 0. -1.
</event>
<event>
 7    1  0.4096472E-015  0.9000774E+02  0.7816164E-02  0.1186339E+00
        -11   -1    0    0    0    0  0.00000000000E+00  0.00000000000E+00  0.45593999997E+02  0.45594000000E+02  0.51100000000E-03 0.  1.
         11   -1    0    0    0    0 -0.00000000000E+00 -0.00000000000E+00 -0.45593999997E+02  0.45594000000E+02  0.51100000000E-03 0. -1.
    9900012    2    1    2    0    0  0.27661531561E+00  0.10920954944E+01  0.35190249536E+00  0.90007735636E+02  0.89999996947E+02 0.  0.
         12    1    1    2    0    0 -0.27661531561E+00 -0.10920954944E+01 -0.35190249536E+00  0.11802643636E+01  0.00000000000E+00 0. -1.
         11    1    3    3    0    0  0.85575589602E+01  0.72580369087E+00 -0.72994552993E+00  0.86192474783E+01  0.51100000000E-03 0. -1.
        -11    1    3    3    0    0  0.29680343459E+02  0.21566174946E+02  0.74727906129E+01  0.37441491549E+02  0.51100000000E-03 0.  1.
         12    1    3    3    0    0 -0.37961287103E+02 -0.21199883142E+02 -0.63909425876E+01  0.43946996609E+02  0.00000000000E+00 0. -1.
</event>
<event>
 7    1  0.4096472E-015  0.9000774E+02  0.7816164E-02  0.1186339E+00
        -11   -1    0    0    0    0  0.00000000000E+00  0.00000000000E+00  0.45593999997E+02  0.45594000000E+02  0.51100000000E-03 0. -1.
         11   -1    0    0    0    0 -0.00000000000E+00 -0.00000000000E+00 -0.45593999997E+02  0.45594000000E+02  0.51100000000E-03 0.  1.
    9900012    2    1    2    0    0 -0.53793046365E+00  0.86902503801E+00  0.59029063105E+00  0.90007738703E+02  0.90000000054E+02 0.  0.
         12    1    1    2    0    0  0.53793046365E+00 -0.86902503801E+00 -0.59029063105E+00  0.11802612971E+01  0.00000000000E+00 0. -1.
         11    1    3    3    0    0 -0.10581227560E+02 -0.39415182756E+01 -0.27195745871E+01  0.11614388885E+02  0.51100000000E-03 0. -1.
        -11    1    3    3    0    0 -0.60604197402E+01 -0.34815584099E+02  0.43602852797E+01  0.35607101420E+02  0.51100000000E-03 0.  1.
         12    1    3    3    0    0  0.16103716836E+02  0.39626127412E+02 -0.10504200615E+01  0.42786248398E+02  0.00000000000E+00 0. -1.
</event>
<event>
 7    1  0.4096472E-015  0.9000772E+02  0.7816164E-02  0.1186339E+00
        -11   -1    0    0    0    0  0.00000000000E+00  0.00000000000E+00  0.45593999997E+02  0.45594000000E+02  0.51100000000E-03 0. -1.
         11   -1    0    0    0    0 -0.00000000000E+00 -0.00000000000E+00 -0.45593999997E+02  0.45594000000E+02  0.51100000000E-03 0.  1.
    9900012    2    1    2    0    0 -0.11393335525E+01 -0.47734484605E-02 -0.30813359616E+00  0.90007724590E+02  0.89999985755E+02 0.  0.
         12    1    1    2    0    0  0.11393335525E+01  0.47734484605E-02  0.30813359616E+00  0.11802754097E+01  0.00000000000E+00 0. -1.
         11    1    3    3    0    0  0.37366597893E+02  0.17158439530E+01  0.58585803539E+01  0.37861982550E+02  0.51100000000E-03 0. -1.
        -11    1    3    3    0    0  0.10321775341E+01  0.59574262111E+01 -0.10001351694E+02  0.11686888101E+02  0.51100000000E-03 0.  1.
        -12    1    3    3    0    0 -0.39538108980E+02 -0.76780436126E+01  0.38346377438E+01  0.40458853939E+02  0.00000000000E+00 0.  1.
</event>
<event>
 7    1  0.4096472E-015  0.9000787E+02  0.7816164E-02  0.1186339E+00
        -11   -1    0    0    0    0  0.00000000000E+00  0.00000000000E+00  0.45593999997E+02  0.45594000000E+02  0.51100000000E-03 0. -1.
         11   -1    0    0    0    0 -0.00000000000E+00 -0.00000000000E+00 -0.45593999997E+02  0.45594000000E+02  0.51100000000E-03 0.  1.
    9900012    2    1    2    0    0  0.11439585443E+01  0.23006072906E+00 -0.17647535861E+00  0.90007867532E+02  0.90000130583E+02 0.  0.
         12    1    1    2    0    0 -0.11439585443E+01 -0.23006072906E+00  0.17647535861E+00  0.11801324681E+01  0.00000000000E+00 0. -1.
         11    1    3    3    0    0  0.28911723408E+02 -0.39922047816E+01  0.55605962626E+01  0.29711036342E+02  0.51100000000E-03 0. -1.
        -11    1    3    3    0    0 -0.42852838943E+01 -0.23387349992E+02 -0.20766722699E+01  0.23867223669E+02  0.51100000000E-03 0.  1.
        -12    1    3    3    0    0 -0.23482480970E+02  0.27609615503E+02 -0.36603993514E+01  0.36429607521E+02  0.00000000000E+00 0.  1.
</event>
<event>
 7    1  0.4096472E-015  0.9000772E+02  0.7816164E-02  0.1186339E+00
        -11   -1    0    0    0    0  0.00000000000E+00  0.00000000000E+00  0.45593999997E+02  0.45594000000E+02  0.51100000000E-03 0. -1.
         11   -1    0    0    0    0 -0.00000000000E+00 -0.00000000000E+00 -0.45593999997E+02  0.45594000000E+02  0.51100000000E-03 0.  1.
    9900012    2    1    2    0    0  0.56148430633E+00 -0.10209960316E+01 -0.18807584820E+00  0.90007716116E+02  0.89999977168E+02 0.  0.
         12    1    1    2    0    0 -0.56148430633E+00  0.10209960316E+01  0.18807584820E+00  0.11802838843E+01  0.00000000000E+00 0. -1.
         11    1    3    3    0    0 -0.47787618908E+00  0.60612946772E+01 -0.43640634390E+01  0.74841638662E+01  0.51100000000E-03 0. -1.
        -11    1    3    3    0    0 -0.20681670036E+02  0.31453285207E+02 -0.27721695192E+01  0.37745536821E+02  0.51100000000E-03 0.  1.
         12    1    3    3    0    0  0.21721030531E+02 -0.38535575916E+02  0.69481571099E+01  0.44778015429E+02  0.00000000000E+00 0. -1.
</event>
<event>
 7    1  0.4096472E-015  0.9000774E+02  0.7816164E-02  0.1186339E+00
        -11   -1    0    0    0    0  0.00000000000E+00  0.00000000000E+00  0.45593999997E+02  0.45594000000E+02  0.51100000000E-03 0.  1.
         11   -1    0    0    0    0 -0.00000000000E+00 -0.00000000000E+00 -0.45593999997E+02  0.45594000000E+02  0.51100000000E-03 0. -1.
    9900012    2    1    2    0    0  0.32923971150E-01 -0.52032882894E+00  0.10588565642E+01  0.90007744391E+02  0.90000005817E+02 0.  0.
         12    1    1    2    0    0 -0.32923971150E-01  0.52032882894E+00 -0.10588565642E+01  0.11802556086E+01  0.00000000000E+00 0. -1.
         11    1    3    3    0    0  0.62434456718E+01  0.65564921544E+01  0.26901867735E+01  0.94448561855E+01  0.51100000000E-03 0. -1.
        -11    1    3    3    0    0 -0.18340224087E+01  0.35960692580E+02  0.63788015254E+01  0.36568075669E+02  0.51100000000E-03 0.  1.
         12    1    3    3    0    0 -0.43764992920E+01 -0.43037513563E+02 -0.80101317347E+01  0.43994812537E+02  0.00000000000E+00 0. -1.
</event>
<event>
 7    1  0.4096472E-015  0.9000773E+02  0.7816164E-02  0.1186339E+00
        -11   -1    0    0    0    0  0.00000000000E+00  0.00000000000E+00  0.45593999997E+02  0.45594000000E+02  0.51100000000E-03 0. -1.
         11   -1    0    0    0    0 -0.00000000000E+00 -0.00000000000E+00 -0.45593999997E+02  0.45594000000E+02  0.51100000000E-03 0.  1.
    9900012    2    1    2    0    0  0.20007249336E+00  0.11618227682E+01  0.56302831817E-01  0.90007732591E+02  0.89999993861E+02 0.  0.
         12    1    1    2    0    0 -0.20007249336E+00 -0.11618227682E+01 -0.56302831817E-01  0.11802674088E+01  0.00000000000E+00 0. -1.
         11    1    3    3    0    0  0.47305303626E+01 -0.37510338996E+01  0.82760884029E+01  0.10244111106E+02  0.51100000000E-03 0. -1.
        -11    1    3    3    0    0  0.27678676440E+02 -0.13773093651E+02  0.16524184786E+02  0.35055041310E+02  0.51100000000E-03 0.  1.
         12    1    3    3    0    0 -0.32209134309E+02  0.18685950319E+02 -0.24743970357E+02  0.44708580175E+02  0.00000000000E+00 0. -1.
</event>
<event>
 7    1  0.4096472E-015  0.9000778E+02  0.7816164E-02  0.1186339E+00
        -11   -1    0    0    0    0  0.00000000000E+00  0.00000000000E+00  0.45593999997E+02  0.45594000000E+02  0.51100000000E-03 0. -1.
         11   -1    0    0    0    0 -0.00000000000E+00 -0.00000000000E+00 -0.45593999997E+02  0.45594000000E+02  0.51100000000E-03 0.  1.
    9900012    2    1    2    0    0 -0.10061143150E+01 -0.50780573435E+00 -0.35041652409E+00  0.90007777809E+02  0.90000039677E+02 0.  0.
         12    1    1    2    0    0  0.10061143150E+01  0.50780573435E+00  0.35041652409E+00  0.11802221906E+01  0.00000000000E+00 0. -1.
         11    1    3    3    0    0  0.15833261863E+02 -0.18803336437E+02 -0.24769128868E+02  0.34896524003E+02  0.51100000000E-03 0. -1.
        -11    1    3    3    0    0  0.16970685988E+00 -0.11445448455E+02 -0.22849771121E+01  0.11672540915E+02  0.51100000000E-03 0.  1.
        -12    1    3    3    0    0 -0.17009083038E+02  0.29740979158E+02  0.26703689456E+02  0.43438712891E+02  0.00000000000E+00 0.  1.
</event>
<event>
 7    1  0.4096472E-015  0.9000778E+02  0.7816164E-02  0.1186339E+00
        -11   -1    0    0    0    0  0.00000000000E+00  0.00000000000E+00  0.45593999997E+02  0.45594000000E+02  0.51100000000E-03 0. -1.
         11   -1    0    0    0    0 -0.00000000000E+00 -0.00000000000E+00 -0.45593999997E+02  0.45594000000E+02  0.51100000000E-03 0.  1.
    9900012    2    1    2    0    0  0.27757818369E+00 -0.16819447306E+00 -0.11347144608E+01  0.90007781403E+02  0.90000043318E+02 0.  0.
         12    1    1    2    0    0 -0.27757818369E+00  0.16819447306E+00  0.11347144608E+01  0.11802185969E+01  0.00000000000E+00 0. -1.
         11    1    3    3    0    0 -0.48129102847E+01 -0.26206251273E+01  0.61089551576E+01  0.82067724986E+01  0.51100000000E-03 0. -1.
        -11    1    3    3    0    0 -0.22549910096E+02 -0.21079108832E+02 -0.26523764978E+02  0.40698125059E+02  0.51100000000E-03 0.  1.
         12    1    3    3    0    0  0.27640398564E+02  0.23531539486E+02  0.19280095359E+02  0.41102883846E+02  0.00000000000E+00 0. -1.
</event>
<event>
 7    1  0.4096472E-015  0.9000772E+02  0.7816164E-02  0.1186339E+00
        -11   -1    0    0    0    0  0.00000000000E+00  0.00000000000E+00  0.45593999997E+02  0.45594000000E+02  0.51100000000E-03 0. -1.
         11   -1    0    0    0    0 -0.00000000000E+00 -0.00000000000E+00 -0.45593999997E+02  0.45594000000E+02  0.51100000000E-03 0.  1.
    9900012    2    1    2    0    0 -0.86281058337E+00  0.80309606351E+00 -0.60457518283E-01  0.90007720160E+02  0.89999981266E+02 0.  0.
         12    1    1    2    0    0  0.86281058337E+00 -0.80309606351E+00  0.60457518283E-01  0.11802798403E+01  0.00000000000E+00 0. -1.
         11    1    3    3    0    0  0.55839224423E+01 -0.34251695243E+01  0.46278571954E+01  0.80205385477E+01  0.51100000000E-03 0. -1.
        -11    1    3    3    0    0  0.14061479553E+02  0.35314916497E+00 -0.39204509763E+02  0.41651452647E+02  0.51100000000E-03 0.  1.
         12    1    3    3    0    0 -0.20508212579E+02  0.38751164228E+01  0.34516195049E+02  0.40335728965E+02  0.00000000000E+00 0. -1.
</event>
<event>
 7    1  0.4096472E-015  0.9000773E+02  0.7816164E-02  0.1186339E+00
        -11   -1    0    0    0    0  0.00000000000E+00  0.00000000000E+00  0.45593999997E+02  0.45594000000E+02  0.51100000000E-03 0. -1.
         11   -1    0    0    0    0 -0.00000000000E+00 -0.00000000000E+00 -0.45593999997E+02  0.45594000000E+02  0.51100000000E-03 0.  1.
    9900012    2    1    2    0    0 -0.30380428406E+00  0.10563160409E+01 -0.43003825106E+00  0.90007731590E+02  0.89999992847E+02 0.  0.
         12    1    1    2    0    0  0.30380428406E+00 -0.10563160409E+01  0.43003825106E+00  0.11802684096E+01  0.00000000000E+00 0. -1.
         11    1    3    3    0    0  0.94405899394E+01  0.40254725044E+01 -0.34488111814E+01  0.10826978623E+02  0.51100000000E-03 0. -1.
        -11    1    3    3    0    0  0.20936787584E+02 -0.31027624689E+02  0.35689013380E+01  0.37600526927E+02  0.51100000000E-03 0.  1.
         12    1    3    3    0    0 -0.30681181807E+02  0.28058468226E+02 -0.55012840762E+00  0.41580226040E+02  0.00000000000E+00 0. -1.
</event>
<event>
 7    1  0.4096472E-015  0.9000756E+02  0.7816164E-02  0.1186339E+00
        -11   -1    0    0    0    0  0.00000000000E+00  0.00000000000E+00  0.45593999997E+02  0.45594000000E+02  0.51100000000E-03 0.  1.
         11   -1    0    0    0    0 -0.00000000000E+00 -0.00000000000E+00 -0.45593999997E+02  0.45594000000E+02  0.51100000000E-03 0. -1.
    9900012    2    1    2    0    0  0.34284009125E+00 -0.11017700172E+01 -0.24901148778E+00  0.90007558040E+02  0.89999817006E+02 0.  0.
         12    1    1    2    0    0 -0.34284009125E+00  0.11017700172E+01  0.24901148778E+00  0.11804419596E+01  0.00000000000E+00 0. -1.
         11    1    3    3    0    0 -0.42907282228E+00  0.13296159930E+01  0.96223284059E+01  0.97232292160E+01  0.51100000000E-03 0. -1.
        -11    1    3    3    0    0 -0.34203178912E+02  0.11621482927E+02 -0.19951318613E+02  0.41267074378E+02  0.51100000000E-03 0.  1.
         12    1    3    3    0    0  0.34975091825E+02 -0.14052868938E+02  0.10079978719E+02  0.39017254446E+02  0.00000000000E+00 0. -1.
</event>
<event>
 7    1  0.4096472E-015  0.9000770E+02  0.7816164E-02  0.1186339E+00
        -11   -1    0    0    0    0  0.00000000000E+00  0.00000000000E+00  0.45593999997E+02  0.45594000000E+02  0.51100000000E-03 0.  1.
         11   -1    0    0    0    0 -0.00000000000E+00 -0.00000000000E+00 -0.45593999997E+02  0.45594000000E+02  0.51100000000E-03 0. -1.
    9900012    2    1    2    0    0 -0.50967467563E+00  0.68392594443E+00  0.81583366715E+00  0.90007700231E+02  0.89999961074E+02 0.  0.
         12    1    1    2    0    0  0.50967467563E+00 -0.68392594443E+00 -0.81583366715E+00  0.11802997691E+01  0.00000000000E+00 0. -1.
         11    1    3    3    0    0 -0.83994238943E+01  0.11386551861E+01  0.59021417668E+01  0.10328704424E+02  0.51100000000E-03 0. -1.
        -11    1    3    3    0    0  0.17185118492E+02 -0.84546137726E+01  0.33830485924E+02  0.38875578063E+02  0.51100000000E-03 0.  1.
         12    1    3    3    0    0 -0.92953692737E+01  0.79998845309E+01 -0.38916794024E+02  0.40803417743E+02  0.00000000000E+00 0. -1.
</event>
<event>
 7    1  0.4096472E-015  0.9000792E+02  0.7816164E-02  0.1186339E+00
        -11   -1    0    0    0    0  0.00000000000E+00  0.00000000000E+00  0.45593999997E+02  0.45594000000E+02  0.51100000000E-03 0. -1.
         11   -1    0    0    0    0 -0.00000000000E+00 -0.00000000000E+00 -0.45593999997E+02  0.45594000000E+02  0.51100000000E-03 0.  1.
    9900012    2    1    2    0    0  0.23284903590E+00 -0.42514370058E-01 -0.11560964538E+01  0.90007921547E+02  0.90000185311E+02 0.  0.
         12    1    1    2    0    0 -0.23284903590E+00  0.42514370058E-01  0.11560964538E+01  0.11800784532E+01  0.00000000000E+00 0. -1.
         11    1    3    3    0    0 -0.13637883853E+02  0.51252652061E+01 -0.17668548088E+02  0.22900607224E+02  0.51100000000E-03 0. -1.
        -11    1    3    3    0    0  0.94267762679E+01 -0.23050915370E+02 -0.16095738957E+02  0.29652683235E+02  0.51100000000E-03 0.  1.
         12    1    3    3    0    0  0.44439566208E+01  0.17883135793E+02  0.32608190592E+02  0.37454631088E+02  0.00000000000E+00 0. -1.
</event>
<event>
 7    1  0.4096472E-015  0.9000776E+02  0.7816164E-02  0.1186339E+00
        -11   -1    0    0    0    0  0.00000000000E+00  0.00000000000E+00  0.45593999997E+02  0.45594000000E+02  0.51100000000E-03 0. -1.
         11   -1    0    0    0    0 -0.00000000000E+00 -0.00000000000E+00 -0.45593999997E+02  0.45594000000E+02  0.51100000000E-03 0.  1.
    9900012    2    1    2    0    0 -0.52194667179E-01  0.10307709100E+01 -0.57249219750E+00  0.90007762622E+02  0.90000024289E+02 0.  0.
         12    1    1    2    0    0  0.52194667179E-01 -0.10307709100E+01  0.57249219750E+00  0.11802373780E+01  0.00000000000E+00 0. -1.
         11    1    3    3    0    0 -0.11060380191E+02  0.29763870816E+01  0.11307662890E+02  0.16095158599E+02  0.51100000000E-03 0. -1.
        -11    1    3    3    0    0  0.93881114237E+01 -0.33404109925E+02  0.93378460039E+01  0.35932806240E+02  0.51100000000E-03 0.  1.
         12    1    3    3    0    0  0.16200741004E+01  0.31458493754E+02 -0.21218001091E+02  0.37979797783E+02  0.00000000000E+00 0. -1.
</event>
<event>
 7    1  0.4096472E-015  0.9000770E+02  0.7816164E-02  0.1186339E+00
        -11   -1    0    0    0    0  0.00000000000E+00  0.00000000000E+00  0.45593999997E+02  0.45594000000E+02  0.51100000000E-03 0.  1.
         11   -1    0    0    0    0 -0.00000000000E+00 -0.00000000000E+00 -0.45593999997E+02  0.45594000000E+02  0.51100000000E-03 0. -1.
    9900012    2    1    2    0    0 -0.42003499771E+00 -0.65075752410E+00  0.89060826063E+00  0.90007704347E+02  0.89999965244E+02 0.  0.
         12    1    1    2    0    0  0.42003499771E+00  0.65075752410E+00 -0.89060826063E+00  0.11802956530E+01  0.00000000000E+00 0. -1.
         11    1    3    3    0    0  0.91049211803E+01  0.32175088600E+02 -0.10604429144E+02  0.35079763880E+02  0.51100000000E-03 0. -1.
        -11    1    3    3    0    0  0.63956617377E+01  0.77322437255E+01  0.35143826724E+01  0.10632166662E+02  0.51100000000E-03 0.  1.
        -12    1    3    3    0    0 -0.15920617916E+02 -0.40558089850E+02  0.79806547325E+01  0.44295773806E+02  0.00000000000E+00 0.  1.
</event>
<event>
 7    1  0.4096472E-015  0.9000783E+02  0.7816164E-02  0.1186339E+00
        -11   -1    0    0    0    0  0.00000000000E+00  0.00000000000E+00  0.45593999997E+02  0.45594000000E+02  0.51100000000E-03 0.  1.
         11   -1    0    0    0    0 -0.00000000000E+00 -0.00000000000E+00 -0.45593999997E+02  0.45594000000E+02  0.51100000000E-03 0. -1.
    9900012    2    1    2    0    0 -0.99587648442E+00 -0.62479931215E+00 -0.10318892867E+00  0.90007833864E+02  0.90000096471E+02 0.  0.
         12    1    1    2    0    0  0.99587648442E+00  0.62479931215E+00  0.10318892867E+00  0.11801661356E+01  0.00000000000E+00 0. -1.
         11    1    3    3    0    0  0.63320697748E+01 -0.68118325852E+01  0.32002428034E+01  0.98355337966E+01  0.51100000000E-03 0. -1.
        -11    1    3    3    0    0 -0.11977023940E+02 -0.35561144893E+02 -0.63429414447E+01  0.38056235166E+02  0.51100000000E-03 0.  1.
         12    1    3    3    0    0  0.46490776808E+01  0.41748178167E+02  0.30395097126E+01  0.42116064902E+02  0.00000000000E+00 0. -1.
</event>
<event>
 7    1  0.4096472E-015  0.9000723E+02  0.7816164E-02  0.1186340E+00
        -11   -1    0    0    0    0  0.00000000000E+00  0.00000000000E+00  0.45593999997E+02  0.45594000000E+02  0.51100000000E-03 0.  1.
         11   -1    0    0    0    0 -0.00000000000E+00 -0.00000000000E+00 -0.45593999997E+02  0.45594000000E+02  0.51100000000E-03 0. -1.
    9900012    2    1    2    0    0 -0.21185263546E+00  0.75771547476E+00  0.88045808818E+00  0.90007228758E+02  0.89999483377E+02 0.  0.
         12    1    1    2    0    0  0.21185263546E+00 -0.75771547476E+00 -0.88045808818E+00  0.11807712416E+01  0.00000000000E+00 0. -1.
         11    1    3    3    0    0 -0.34384438870E+01 -0.35356689021E+02  0.57255915048E+01  0.35981950381E+02  0.51100000000E-03 0. -1.
        -11    1    3    3    0    0 -0.45345874574E+01 -0.60540885178E+01  0.61641916637E+01  0.97576498358E+01  0.51100000000E-03 0.  1.
        -12    1    3    3    0    0  0.77611787090E+01  0.42168493013E+02 -0.11009325080E+02  0.44267628542E+02  0.00000000000E+00 0.  1.
</event>
<event>
 7    1  0.4096472E-015  0.9000779E+02  0.7816164E-02  0.1186339E+00
        -11   -1    0    0    0    0  0.00000000000E+00  0.00000000000E+00  0.45593999997E+02  0.45594000000E+02  0.51100000000E-03 0. -1.
         11   -1    0    0    0    0 -0.00000000000E+00 -0.00000000000E+00 -0.45593999997E+02  0.45594000000E+02  0.51100000000E-03 0.  1.
    9900012    2    1    2    0    0  0.81379870709E+00 -0.15639415884E+00 -0.84033554427E+00  0.90007791842E+02  0.90000053895E+02 0.  0.
         12    1    1    2    0    0 -0.81379870709E+00  0.15639415884E+00  0.84033554427E+00  0.11802081577E+01  0.00000000000E+00 0. -1.
         11    1    3    3    0    0  0.23142496715E+01 -0.61532326872E+01 -0.74405667711E+01  0.99287490743E+01  0.51100000000E-03 0. -1.
        -11    1    3    3    0    0  0.21338120085E+02 -0.29474833624E+02 -0.39215017281E+01  0.36598625138E+02  0.51100000000E-03 0.  1.
         12    1    3    3    0    0 -0.22838571049E+02  0.35471672153E+02  0.10521732955E+02  0.43480417630E+02  0.00000000000E+00 0. -1.
</event>
<event>
 7    1  0.4096472E-015  0.9000774E+02  0.7816164E-02  0.1186339E+00
        -11   -1    0    0    0    0  0.00000000000E+00  0.00000000000E+00  0.45593999997E+02  0.45594000000E+02  0.51100000000E-03 0.  1.
         11   -1    0    0    0    0 -0.00000000000E+00 -0.00000000000E+00 -0.45593999997E+02  0.45594000000E+02  0.51100000000E-03 0. -1.
    9900012    2    1    2    0    0  0.16973745166E+00  0.11675271266E+01 -0.33008595800E-01  0.90007737334E+02  0.89999998667E+02 0.  0.
         12    1    1    2    0    0 -0.16973745166E+00 -0.11675271266E+01  0.33008595800E-01  0.11802626662E+01  0.00000000000E+00 0. -1.
         11    1    3    3    0    0 -0.30615492029E+02 -0.84296095915E+00  0.26856667670E+02  0.40734500536E+02  0.51100000000E-03 0. -1.
        -11    1    3    3    0    0 -0.38938000073E+01 -0.44526733123E+01 -0.50992903886E+01  0.78096568972E+01  0.51100000000E-03 0.  1.
        -12    1    3    3    0    0  0.34679029488E+02  0.64631613981E+01 -0.21790385877E+02  0.41463579900E+02  0.00000000000E+00 0.  1.
</event>
<event>
 7    1  0.4096472E-015  0.9000765E+02  0.7816164E-02  0.1186339E+00
        -11   -1    0    0    0    0  0.00000000000E+00  0.00000000000E+00  0.45593999997E+02  0.45594000000E+02  0.51100000000E-03 0.  1.
         11   -1    0    0    0    0 -0.00000000000E+00 -0.00000000000E+00 -0.45593999997E+02  0.45594000000E+02  0.51100000000E-03 0. -1.
    9900012    2    1    2    0    0  0.11637846408E+01  0.30411425021E-01  0.19471356046E+00  0.90007647122E+02  0.89999907264E+02 0.  0.
         12    1    1    2    0    0 -0.11637846408E+01 -0.30411425021E-01 -0.19471356046E+00  0.11803528776E+01  0.00000000000E+00 0. -1.
         11    1    3    3    0    0  0.59338462417E+01  0.71817135196E+00  0.80873601861E+01  0.10056425625E+02  0.51100000000E-03 0. -1.
        -11    1    3    3    0    0 -0.32300027124E+02 -0.19955528677E+02  0.13293424463E+02  0.40227229723E+02  0.51100000000E-03 0.  1.
         12    1    3    3    0    0  0.27529965523E+02  0.19267768750E+02 -0.21186071089E+02  0.39723991774E+02  0.00000000000E+00 0. -1.
</event>
<event>
 7    1  0.4096472E-015  0.9000768E+02  0.7816164E-02  0.1186339E+00
        -11   -1    0    0    0    0  0.00000000000E+00  0.00000000000E+00  0.45593999997E+02  0.45594000000E+02  0.51100000000E-03 0.  1.
         11   -1    0    0    0    0 -0.00000000000E+00 -0.00000000000E+00 -0.45593999997E+02  0.45594000000E+02  0.51100000000E-03 0. -1.
    9900012    2    1    2    0    0 -0.14496551915E+00 -0.44071306762E+00  0.10853199429E+01  0.90007676998E+02  0.89999937535E+02 0.  0.
         12    1    1    2    0    0  0.14496551915E+00  0.44071306762E+00 -0.10853199429E+01  0.11803230016E+01  0.00000000000E+00 0. -1.
         11    1    3    3    0    0 -0.13295722255E+01  0.38675593609E+02 -0.89101383107E+01  0.39710954008E+02  0.51100000000E-03 0. -1.
        -11    1    3    3    0    0  0.85521427996E+01 -0.13155493330E+01 -0.37155973542E+01  0.94167659243E+01  0.51100000000E-03 0.  1.
        -12    1    3    3    0    0 -0.73675360933E+01 -0.37800757343E+02  0.13711055608E+02  0.40879957066E+02  0.00000000000E+00 0.  1.
</event>
<event>
 7    1  0.4096472E-015  0.9000765E+02  0.7816164E-02  0.1186339E+00
        -11   -1    0    0    0    0  0.00000000000E+00  0.00000000000E+00  0.45593999997E+02  0.45594000000E+02  0.51100000000E-03 0.  1.
         11   -1    0    0    0    0 -0.00000000000E+00 -0.00000000000E+00 -0.45593999997E+02  0.45594000000E+02  0.51100000000E-03 0. -1.
    9900012    2    1    2    0    0 -0.27948692741E+00  0.10125047800E+01  0.53846464349E+00  0.90007651304E+02  0.89999911501E+02 0.  0.
         12    1    1    2    0    0  0.27948692741E+00 -0.10125047800E+01 -0.53846464349E+00  0.11803486961E+01  0.00000000000E+00 0. -1.
         11    1    3    3    0    0 -0.84745829275E+01  0.39097328231E+01 -0.45904724851E+01  0.10400817489E+02  0.51100000000E-03 0. -1.
        -11    1    3    3    0    0 -0.88134359675E+01  0.26130580462E+02  0.27705075398E+02  0.39090345252E+02  0.51100000000E-03 0.  1.
         12    1    3    3    0    0  0.17008531968E+02 -0.29027808505E+02 -0.22576138270E+02  0.40516488563E+02  0.00000000000E+00 0. -1.
</event>
<event>
 7    1  0.4096472E-015  0.9000775E+02  0.7816164E-02  0.1186339E+00
        -11   -1    0    0    0    0  0.00000000000E+00  0.00000000000E+00  0.45593999997E+02  0.45594000000E+02  0.51100000000E-03 0.  1.
         11   -1    0    0    0    0 -0.00000000000E+00 -0.00000000000E+00 -0.45593999997E+02  0.45594000000E+02  0.51100000000E-03 0. -1.
    9900012    2    1    2    0    0  0.32910527093E+00 -0.88089824603E+00  0.71322829332E+00  0.90007751468E+02  0.90000012987E+02 0.  0.
         12    1    1    2    0    0 -0.32910527093E+00  0.88089824603E+00 -0.71322829332E+00  0.11802485321E+01  0.00000000000E+00 0. -1.
         11    1    3    3    0    0 -0.67750509326E+01 -0.65458105359E+01  0.31286733158E+01  0.99266080657E+01  0.51100000000E-03 0. -1.
        -11    1    3    3    0    0 -0.25627747048E+02 -0.12646932198E+02  0.21355990880E+02  0.35676387983E+02  0.51100000000E-03 0.  1.
         12    1    3    3    0    0  0.32731903251E+02  0.18311844488E+02 -0.23771435902E+02  0.44404755420E+02  0.00000000000E+00 0. -1.
</event>
<event>
 7    1  0.4096472E-015  0.9000870E+02  0.7816164E-02  0.1186337E+00
        -11   -1    0    0    0    0  0.00000000000E+00  0.00000000000E+00  0.45593999997E+02  0.45594000000E+02  0.51100000000E-03 0.  1.
         11   -1    0    0    0    0 -0.00000000000E+00 -0.00000000000E+00 -0.45593999997E+02  0.45594000000E+02  0.51100000000E-03 0. -1.
    9900012    2    1    2    0    0  0.72681864026E+00 -0.87208620700E+00  0.31927955891E+00  0.90008703971E+02  0.90000978058E+02 0.  0.
         12    1    1    2    0    0 -0.72681864026E+00  0.87208620700E+00 -0.31927955891E+00  0.11792960294E+01  0.00000000000E+00 0. -1.
         11    1    3    3    0    0  0.36730294561E+01 -0.10377297017E+02  0.41772694360E+01  0.11774082510E+02  0.51100000000E-03 0. -1.
        -11    1    3    3    0    0 -0.81520484960E+01 -0.19252809549E+02  0.28037320553E+02  0.34974532367E+02  0.51100000000E-03 0.  1.
         12    1    3    3    0    0  0.52058376801E+01  0.28758020359E+02 -0.31895310431E+02  0.43260089093E+02  0.00000000000E+00 0. -1.
</event>
<event>
 7    1  0.4096472E-015  0.9000778E+02  0.7816164E-02  0.1186339E+00
        -11   -1    0    0    0    0  0.00000000000E+00  0.00000000000E+00  0.45593999997E+02  0.45594000000E+02  0.51100000000E-03 0. -1.
         11   -1    0    0    0    0 -0.00000000000E+00 -0.00000000000E+00 -0.45593999997E+02  0.45594000000E+02  0.51100000000E-03 0.  1.
    9900012    2    1    2    0    0  0.89877871838E+00  0.38995913300E+00  0.65805890594E+00  0.90007782718E+02  0.90000044649E+02 0.  0.
         12    1    1    2    0    0 -0.89877871838E+00 -0.38995913300E+00 -0.65805890594E+00  0.11802172824E+01  0.00000000000E+00 0. -1.
         11    1    3    3    0    0 -0.37145756421E+02 -0.24845501268E+01 -0.40096726406E+01  0.37444060736E+02  0.51100000000E-03 0. -1.
        -11    1    3    3    0    0  0.36315876869E+00 -0.64029644635E+01 -0.93197668725E+01  0.11313173429E+02  0.51100000000E-03 0.  1.
        -12    1    3    3    0    0  0.37681376371E+02  0.92774737233E+01  0.13987498419E+02  0.41250548553E+02  0.00000000000E+00 0.  1.
</event>
<event>
 7    1  0.4096472E-015  0.9000752E+02  0.7816164E-02  0.1186339E+00
        -11   -1    0    0    0    0  0.00000000000E+00  0.00000000000E+00  0.45593999997E+02  0.45594000000E+02  0.51100000000E-03 0.  1.
         11   -1    0    0    0    0 -0.00000000000E+00 -0.00000000000E+00 -0.45593999997E+02  0.45594000000E+02  0.51100000000E-03 0. -1.
    9900012    2    1    2    0    0  0.10809432105E+01 -0.36386338780E+00  0.30447461148E+00  0.90007517227E+02  0.89999775654E+02 0.  0.
         12    1    1    2    0    0 -0.10809432105E+01  0.36386338780E+00 -0.30447461148E+00  0.11804827734E+01  0.00000000000E+00 0. -1.
         11    1    3    3    0    0  0.11940337346E+01  0.29491731351E+02  0.29758403034E+02  0.41913607409E+02  0.51100000000E-03 0. -1.
        -11    1    3    3    0    0  0.35737819613E+01 -0.77741774223E+01  0.26481023646E+01  0.89566845705E+01  0.51100000000E-03 0.  1.
        -12    1    3    3    0    0 -0.36868724855E+01 -0.22081417317E+02 -0.32102030787E+02  0.39137225247E+02  0.00000000000E+00 0.  1.
</event>
<event>
 7    1  0.4096472E-015  0.9000767E+02  0.7816164E-02  0.1186339E+00
        -11   -1    0    0    0    0  0.00000000000E+00  0.00000000000E+00  0.45593999997E+02  0.45594000000E+02  0.51100000000E-03 0.  1.
         11   -1    0    0    0    0 -0.00000000000E+00 -0.00000000000E+00 -0.45593999997E+02  0.45594000000E+02  0.51100000000E-03 0. -1.
    9900012    2    1    2    0    0 -0.89825880258E+00  0.32390804908E+00  0.69381963475E+00  0.90007673356E+02  0.89999933844E+02 0.  0.
         12    1    1    2    0    0  0.89825880258E+00 -0.32390804908E+00 -0.69381963475E+00  0.11803266439E+01  0.00000000000E+00 0. -1.
         11    1    3    3    0    0 -0.19861750070E+02  0.27978823704E+02  0.18264835478E+02  0.38870398853E+02  0.51100000000E-03 0. -1.
        -11    1    3    3    0    0  0.11916983176E+02  0.16043658247E+01  0.54934091092E+01  0.13219910046E+02  0.51100000000E-03 0.  1.
        -12    1    3    3    0    0  0.70465080918E+01 -0.29259281480E+02 -0.23064424953E+02  0.37917364457E+02  0.00000000000E+00 0.  1.
</event>
<event>
 7    1  0.4096472E-015  0.9000771E+02  0.7816164E-02  0.1186339E+00
        -11   -1    0    0    0    0  0.00000000000E+00  0.00000000000E+00  0.45593999997E+02  0.45594000000E+02  0.51100000000E-03 0.  1.
         11   -1    0    0    0    0 -0.00000000000E+00 -0.00000000000E+00 -0.45593999997E+02  0.45594000000E+02  0.51100000000E-03 0. -1.
    9900012    2    1    2    0    0  0.11707959903E+01  0.12840653996E+00 -0.76382666752E-01  0.90007709442E+02  0.89999970406E+02 0.  0.
         12    1    1    2    0    0 -0.11707959903E+01 -0.12840653996E+00  0.76382666752E-01  0.11802905584E+01  0.00000000000E+00 0. -1.
         11    1    3    3    0    0  0.64479486576E+01  0.46776455628E+01  0.22454073771E+01  0.82763678297E+01  0.51100000000E-03 0. -1.
        -11    1    3    3    0    0 -0.30270849471E+02 -0.98924811910E+01 -0.30215107312E+02  0.43899182475E+02  0.51100000000E-03 0.  1.
         12    1    3    3    0    0  0.24993696804E+02  0.53432421682E+01  0.27893317268E+02  0.37832159137E+02  0.00000000000E+00 0. -1.
</event>
<event>
 7    1  0.4096472E-015  0.9000757E+02  0.7816164E-02  0.1186339E+00
        -11   -1    0    0    0    0  0.00000000000E+00  0.00000000000E+00  0.45593999997E+02  0.45594000000E+02  0.51100000000E-03 0.  1.
         11   -1    0    0    0    0 -0.00000000000E+00 -0.00000000000E+00 -0.45593999997E+02  0.45594000000E+02  0.51100000000E-03 0. -1.
    9900012    2    1    2    0    0 -0.14008994819E+00 -0.79072496139E+00  0.86519033133E+00  0.90007565560E+02  0.89999824625E+02 0.  0.
         12    1    1    2    0    0  0.14008994819E+00  0.79072496139E+00 -0.86519033133E+00  0.11804344402E+01  0.00000000000E+00 0. -1.
         11    1    3    3    0    0  0.39740694083E+01 -0.94766093033E+01  0.48436165255E+01  0.11360456543E+02  0.51100000000E-03 0. -1.
        -11    1    3    3    0    0 -0.17727726345E+02 -0.23967583630E+02 -0.23753666970E+02  0.38117634255E+02  0.51100000000E-03 0.  1.
         12    1    3    3    0    0  0.13613566989E+02  0.32653467972E+02  0.19775240776E+02  0.40529474762E+02  0.00000000000E+00 0. -1.
</event>
<event>
 7    1  0.4096472E-015  0.9000775E+02  0.7816164E-02  0.1186339E+00
        -11   -1    0    0    0    0  0.00000000000E+00  0.00000000000E+00  0.45593999997E+02  0.45594000000E+02  0.51100000000E-03 0. -1.
         11   -1    0    0    0    0 -0.00000000000E+00 -0.00000000000E+00 -0.45593999997E+02  0.45594000000E+02  0.51100000000E-03 0.  1.
    9900012    2    1    2    0    0 -0.96683596114E+00  0.35845550001E+00 -0.57421073982E+00  0.90007754223E+02  0.90000015778E+02 0.  0.
         12    1    1    2    0    0  0.96683596114E+00 -0.35845550001E+00  0.57421073982E+00  0.11802457774E+01  0.00000000000E+00 0. -1.
         11    1    3    3    0    0 -0.26366210003E+02  0.13157431837E+02  0.24397551659E+02  0.38256183417E+02  0.51100000000E-03 0. -1.
        -11    1    3    3    0    0  0.42871683506E+01  0.11625597443E+02 -0.31533790115E+01  0.12785856554E+02  0.51100000000E-03 0.  1.
        -12    1    3    3    0    0  0.21112205691E+02 -0.24424573779E+02 -0.21818383388E+02  0.38965714251E+02  0.00000000000E+00 0.  1.
</event>
<event>
 7    1  0.4096472E-015  0.9000783E+02  0.7816164E-02  0.1186339E+00
        -11   -1    0    0    0    0  0.00000000000E+00  0.00000000000E+00  0.45593999997E+02  0.45594000000E+02  0.51100000000E-03 0. -1.
         11   -1    0    0    0    0 -0.00000000000E+00 -0.00000000000E+00 -0.45593999997E+02  0.45594000000E+02  0.51100000000E-03 0.  1.
    9900012    2    1    2    0    0 -0.40456353311E+00  0.73072906068E+00 -0.83376608192E+00  0.90007829465E+02  0.90000092014E+02 0.  0.
         12    1    1    2    0    0  0.40456353311E+00 -0.73072906068E+00  0.83376608192E+00  0.11801705351E+01  0.00000000000E+00 0. -1.
         11    1    3    3    0    0  0.19653518125E+01  0.61989933622E+01 -0.74850869809E+01  0.99154754715E+01  0.51100000000E-03 0. -1.
        -11    1    3    3    0    0 -0.36947249010E+02  0.10990172326E+02 -0.74939010839E+01  0.39268838166E+02  0.51100000000E-03 0.  1.
         12    1    3    3    0    0  0.34577333665E+02 -0.16458436628E+02  0.14145221983E+02  0.40823515828E+02  0.00000000000E+00 0. -1.
</event>
<event>
 7    1  0.4096472E-015  0.9000788E+02  0.7816164E-02  0.1186339E+00
        -11   -1    0    0    0    0  0.00000000000E+00  0.00000000000E+00  0.45593999997E+02  0.45594000000E+02  0.51100000000E-03 0. -1.
         11   -1    0    0    0    0 -0.00000000000E+00 -0.00000000000E+00 -0.45593999997E+02  0.45594000000E+02  0.51100000000E-03 0.  1.
    9900012    2    1    2    0    0  0.31367472861E+00  0.11355855770E+01 -0.68748553328E-01  0.90007884412E+02  0.90000147686E+02 0.  0.
         12    1    1    2    0    0 -0.31367472861E+00 -0.11355855770E+01  0.68748553328E-01  0.11801155883E+01  0.00000000000E+00 0. -1.
         11    1    3    3    0    0  0.81920087895E+00  0.45607747605E+01 -0.77079734132E+01  0.89935872096E+01  0.51100000000E-03 0. -1.
        -11    1    3    3    0    0  0.12183012120E+02 -0.39801008040E+02 -0.55329442069E+00  0.41627540887E+02  0.51100000000E-03 0.  1.
         12    1    3    3    0    0 -0.12688538270E+02  0.36375818856E+02  0.81925192806E+01  0.39386756316E+02  0.00000000000E+00 0. -1.
</event>
<event>
 7    1  0.4096472E-015  0.9000778E+02  0.7816164E-02  0.1186339E+00
        -11   -1    0    0    0    0  0.00000000000E+00  0.00000000000E+00  0.45593999997E+02  0.45594000000E+02  0.51100000000E-03 0. -1.
         11   -1    0    0    0    0 -0.00000000000E+00 -0.00000000000E+00 -0.45593999997E+02  0.45594000000E+02  0.51100000000E-03 0.  1.
    9900012    2    1    2    0    0  0.73303580001E+00  0.52035428841E+00  0.76473534196E+00  0.90007775355E+02  0.90000037190E+02 0.  0.
         12    1    1    2    0    0 -0.73303580001E+00 -0.52035428841E+00 -0.76473534196E+00  0.11802246451E+01  0.00000000000E+00 0. -1.
         11    1    3    3    0    0 -0.49336118760E+01  0.87338620139E+01 -0.16479435340E+00  0.10032349140E+02  0.51100000000E-03 0. -1.
        -11    1    3    3    0    0 -0.10537540585E+02  0.20004720481E+02  0.29158211493E+02  0.36897559551E+02  0.51100000000E-03 0.  1.
         12    1    3    3    0    0  0.16204188261E+02 -0.28218228206E+02 -0.28228681798E+02  0.43077866664E+02  0.00000000000E+00 0. -1.
</event>
<event>
 7    1  0.4096472E-015  0.9000773E+02  0.7816164E-02  0.1186339E+00
        -11   -1    0    0    0    0  0.00000000000E+00  0.00000000000E+00  0.45593999997E+02  0.45594000000E+02  0.51100000000E-03 0.  1.
         11   -1    0    0    0    0 -0.00000000000E+00 -0.00000000000E+00 -0.45593999997E+02  0.45594000000E+02  0.51100000000E-03 0. -1.
    9900012    2    1    2    0    0  0.41949984939E+00 -0.68069094434E+00  0.86816836359E+00  0.90007730288E+02  0.89999991528E+02 0.  0.
         12    1    1    2    0    0 -0.41949984939E+00  0.68069094434E+00 -0.86816836359E+00  0.11802697119E+01  0.00000000000E+00 0. -1.
         11    1    3    3    0    0  0.26173774321E+02  0.54662819646E+01 -0.31562339781E+02  0.41365782882E+02  0.51100000000E-03 0. -1.
        -11    1    3    3    0    0 -0.77087562860E+01  0.40764355129E+01 -0.15257320879E+01  0.88526893446E+01  0.51100000000E-03 0.  1.
        -12    1    3    3    0    0 -0.18045518185E+02 -0.10223408422E+02  0.33956240233E+02  0.39789258062E+02  0.00000000000E+00 0.  1.
</event>
<event>
 7    1  0.4096472E-015  0.9000817E+02  0.7816164E-02  0.1186338E+00
        -11   -1    0    0    0    0  0.00000000000E+00  0.00000000000E+00  0.45593999997E+02  0.45594000000E+02  0.51100000000E-03 0.  1.
         11   -1    0    0    0    0 -0.00000000000E+00 -0.00000000000E+00 -0.45593999997E+02  0.45594000000E+02  0.51100000000E-03 0. -1.
    9900012    2    1    2    0    0 -0.15126333050E+00  0.44870857236E+00  0.10806414894E+01  0.90008166958E+02  0.90000433961E+02 0.  0.
         12    1    1    2    0    0  0.15126333050E+00 -0.44870857236E+00 -0.10806414894E+01  0.11798330419E+01  0.00000000000E+00 0. -1.
         11    1    3    3    0    0  0.14367068857E+02  0.14095038477E+02 -0.21224870375E+02  0.29250263245E+02  0.51100000000E-03 0. -1.
        -11    1    3    3    0    0 -0.13892618496E+02  0.11719714116E+02  0.29262406610E+02  0.34447713835E+02  0.51100000000E-03 0.  1.
         12    1    3    3    0    0 -0.62571369146E+00 -0.25366044021E+02 -0.69568947450E+01  0.26310189878E+02  0.00000000000E+00 0. -1.
</event>
<event>
 7    1  0.4096472E-015  0.9000774E+02  0.7816164E-02  0.1186339E+00
        -11   -1    0    0    0    0  0.00000000000E+00  0.00000000000E+00  0.45593999997E+02  0.45594000000E+02  0.51100000000E-03 0. -1.
         11   -1    0    0    0    0 -0.00000000000E+00 -0.00000000000E+00 -0.45593999997E+02  0.45594000000E+02  0.51100000000E-03 0.  1.
    9900012    2    1    2    0    0  0.42659870061E+00  0.10475315346E+01  0.33720303176E+00  0.90007739583E+02  0.90000000945E+02 0.  0.
         12    1    1    2    0    0 -0.42659870061E+00 -0.10475315346E+01 -0.33720303176E+00  0.11802604170E+01  0.00000000000E+00 0. -1.
         11    1    3    3    0    0 -0.11427235222E+01  0.89052244109E+01  0.56559883741E+01  0.10611269651E+02  0.51100000000E-03 0. -1.
        -11    1    3    3    0    0 -0.32833291849E+02 -0.23995882458E+02 -0.74200940204E+01  0.41338665002E+02  0.51100000000E-03 0.  1.
         12    1    3    3    0    0  0.34402614072E+02  0.16138189581E+02  0.21013086781E+01  0.38057804930E+02  0.00000000000E+00 0. -1.
</event>
<event>
 7    1  0.4096472E-015  0.9000730E+02  0.7816164E-02  0.1186340E+00
        -11   -1    0    0    0    0  0.00000000000E+00  0.00000000000E+00  0.45593999997E+02  0.45594000000E+02  0.51100000000E-03 0. -1.
         11   -1    0    0    0    0 -0.00000000000E+00 -0.00000000000E+00 -0.45593999997E+02  0.45594000000E+02  0.51100000000E-03 0.  1.
    9900012    2    1    2    0    0  0.42837523291E-01  0.66489097119E+00 -0.97474495416E+00  0.90007304111E+02  0.89999559724E+02 0.  0.
         12    1    1    2    0    0 -0.42837523291E-01 -0.66489097119E+00  0.97474495416E+00  0.11806958891E+01  0.00000000000E+00 0. -1.
         11    1    3    3    0    0 -0.11659239067E+02 -0.17312288256E+02  0.27940623039E+02  0.34875945813E+02  0.51100000000E-03 0. -1.
        -11    1    3    3    0    0 -0.11016811529E+02 -0.44747345465E+01  0.22760691963E+00  0.11893073223E+02  0.51100000000E-03 0.  1.
        -12    1    3    3    0    0  0.22718888119E+02  0.22451913773E+02 -0.29142974913E+02  0.43238285075E+02  0.00000000000E+00 0.  1.
</event>
<event>
 7    1  0.4096472E-015  0.9000790E+02  0.7816164E-02  0.1186339E+00
        -11   -1    0    0    0    0  0.00000000000E+00  0.00000000000E+00  0.45593999997E+02  0.45594000000E+02  0.51100000000E-03 0. -1.
         11   -1    0    0    0    0 -0.00000000000E+00 -0.00000000000E+00 -0.45593999997E+02  0.45594000000E+02  0.51100000000E-03 0.  1.
    9900012    2    1    2    0    0 -0.11242825089E+01  0.31279767056E+00 -0.17542060417E+00  0.90007904270E+02  0.90000167807E+02 0.  0.
         12    1    1    2    0    0  0.11242825089E+01 -0.31279767056E+00  0.17542060417E+00  0.11800957295E+01  0.00000000000E+00 0. -1.
         11    1    3    3    0    0  0.26557319456E+02  0.27679980186E+01  0.28490562113E+02  0.39046960951E+02  0.51100000000E-03 0. -1.
        -11    1    3    3    0    0  0.41102711282E+01 -0.85342626821E+01 -0.40775373867E+01  0.10312821131E+02  0.51100000000E-03 0.  1.
        -12    1    3    3    0    0 -0.31791873094E+02  0.60790623341E+01 -0.24588445331E+02  0.40648122188E+02  0.00000000000E+00 0.  1.
</event>
<event>
 7    1  0.4096472E-015  0.9000776E+02  0.7816164E-02  0.1186339E+00
        -11   -1    0    0    0    0  0.00000000000E+00  0.00000000000E+00  0.45593999997E+02  0.45594000000E+02  0.51100000000E-03 0. -1.
         11   -1    0    0    0    0 -0.00000000000E+00 -0.00000000000E+00 -0.45593999997E+02  0.45594000000E+02  0.51100000000E-03 0.  1.
    9900012    2    1    2    0    0  0.11253783932E+01  0.11892850933E+00 -0.33518654876E+00  0.90007758270E+02  0.90000019879E+02 0.  0.
         12    1    1    2    0    0 -0.11253783932E+01 -0.11892850933E+00  0.33518654876E+00  0.11802417297E+01  0.00000000000E+00 0. -1.
         11    1    3    3    0    0  0.51417858906E+00  0.10857884056E+02 -0.15197660574E+01  0.10975778556E+02  0.51100000000E-03 0. -1.
        -11    1    3    3    0    0 -0.12336451980E+00  0.31737766879E+02 -0.12922460571E+02  0.34267930383E+02  0.51100000000E-03 0.  1.
         12    1    3    3    0    0  0.73456432390E+00 -0.42476722425E+02  0.14107040079E+02  0.44764049331E+02  0.00000000000E+00 0. -1.
</event>
<event>
 7    1  0.4096472E-015  0.9000771E+02  0.7816164E-02  0.1186339E+00
        -11   -1    0    0    0    0  0.00000000000E+00  0.00000000000E+00  0.45593999997E+02  0.45594000000E+02  0.51100000000E-03 0. -1.
         11   -1    0    0    0    0 -0.00000000000E+00 -0.00000000000E+00 -0.45593999997E+02  0.45594000000E+02  0.51100000000E-03 0.  1.
    9900012    2    1    2    0    0 -0.97539460848E+00 -0.21897581022E+00 -0.62748059559E+00  0.90007713194E+02  0.89999974208E+02 0.  0.
         12    1    1    2    0    0  0.97539460848E+00  0.21897581022E+00  0.62748059559E+00  0.11802868065E+01  0.00000000000E+00 0. -1.
         11    1    3    3    0    0  0.18105476779E+02 -0.13871738415E+02  0.10456306543E+02  0.25091188948E+02  0.51100000000E-03 0. -1.
        -11    1    3    3    0    0  0.21456311435E+01 -0.15404479172E+02  0.14101401545E+02  0.20994076244E+02  0.51100000000E-03 0.  1.
        -12    1    3    3    0    0 -0.21226502531E+02  0.29057241776E+02 -0.25185188683E+02  0.43922448001E+02  0.00000000000E+00 0.  1.
</event>
<event>
 7    1  0.4096472E-015  0.9000779E+02  0.7816164E-02  0.1186339E+00
        -11   -1    0    0    0    0  0.00000000000E+00  0.00000000000E+00  0.45593999997E+02  0.45594000000E+02  0.51100000000E-03 0. -1.
         11   -1    0    0    0    0 -0.00000000000E+00 -0.00000000000E+00 -0.45593999997E+02  0.45594000000E+02  0.51100000000E-03 0.  1.
    9900012    2    1    2    0    0  0.77943591752E+00  0.63348991533E+00 -0.61972454400E+00  0.90007793097E+02  0.90000055166E+02 0.  0.
         12    1    1    2    0    0 -0.77943591752E+00 -0.63348991533E+00  0.61972454400E+00  0.11802069025E+01  0.00000000000E+00 0. -1.
         11    1    3    3    0    0  0.23190547743E+02 -0.30484517673E+02 -0.45234832399E+01  0.38569018957E+02  0.51100000000E-03 0. -1.
        -11    1    3    3    0    0  0.80553492923E+01  0.50516030933E+00  0.12522831306E+01  0.81677446372E+01  0.51100000000E-03 0.  1.
        -12    1    3    3    0    0 -0.30466461118E+02  0.30612847279E+02  0.26514755653E+01  0.43271029503E+02  0.00000000000E+00 0.  1.
</event>
<event>
 7    1  0.4096472E-015  0.9000827E+02  0.7816164E-02  0.1186338E+00
        -11   -1    0    0    0    0  0.00000000000E+00  0.00000000000E+00  0.45593999997E+02  0.45594000000E+02  0.51100000000E-03 0.  1.
         11   -1    0    0    0    0 -0.00000000000E+00 -0.00000000000E+00 -0.45593999997E+02  0.45594000000E+02  0.51100000000E-03 0. -1.
    9900012    2    1    2    0    0 -0.94442554630E+00  0.59208161757E+00  0.38634975524E+00  0.90008268510E+02  0.90000536853E+02 0.  0.
         12    1    1    2    0    0  0.94442554630E+00 -0.59208161757E+00 -0.38634975524E+00  0.11797314897E+01  0.00000000000E+00 0. -1.
         11    1    3    3    0    0  0.23994857426E+01  0.51518703817E+01  0.48844880877E+01  0.74938324240E+01  0.51100000000E-03 0. -1.
        -11    1    3    3    0    0 -0.31374153542E+02  0.68368578830E+01  0.24664855816E+02  0.40489940095E+02  0.51100000000E-03 0.  1.
         12    1    3    3    0    0  0.28030242254E+02 -0.11396646647E+02 -0.29162994149E+02  0.42024495991E+02  0.00000000000E+00 0. -1.
</event>
<event>
 7    1  0.4096472E-015  0.9000775E+02  0.7816164E-02  0.1186339E+00
        -11   -1    0    0    0    0  0.00000000000E+00  0.00000000000E+00  0.45593999997E+02  0.45594000000E+02  0.51100000000E-03 0.  1.
         11   -1    0    0    0    0 -0.00000000000E+00 -0.00000000000E+00 -0.45593999997E+02  0.45594000000E+02  0.51100000000E-03 0. -1.
    9900012    2    1    2    0    0  0.84367996240E+00  0.79073580393E+00 -0.23651246050E+00  0.90007747004E+02  0.90000008464E+02 0.  0.
         12    1    1    2    0    0 -0.84367996240E+00 -0.79073580393E+00  0.23651246050E+00  0.11802529960E+01  0.00000000000E+00 0. -1.
         11    1    3    3    0    0  0.24710986785E+02 -0.26927981262E+02 -0.23605074924E+02  0.43508029203E+02  0.51100000000E-03 0. -1.
        -11    1    3    3    0    0 -0.55664706362E+01  0.17017690510E+01  0.10856568426E+02  0.12318550706E+02  0.51100000000E-03 0.  1.
        -12    1    3    3    0    0 -0.18300836186E+02  0.26016948015E+02  0.12511994037E+02  0.34181167094E+02  0.00000000000E+00 0.  1.
</event>
<event>
 7    1  0.4096472E-015  0.9000767E+02  0.7816164E-02  0.1186339E+00
        -11   -1    0    0    0    0  0.00000000000E+00  0.00000000000E+00  0.45593999997E+02  0.45594000000E+02  0.51100000000E-03 0.  1.
         11   -1    0    0    0    0 -0.00000000000E+00 -0.00000000000E+00 -0.45593999997E+02  0.45594000000E+02  0.51100000000E-03 0. -1.
    9900012    2    1    2    0    0  0.46037960165E+00 -0.33950904143E+00  0.10324581298E+01  0.90007667184E+02  0.89999927591E+02 0.  0.
         12    1    1    2    0    0 -0.46037960165E+00  0.33950904143E+00 -0.10324581298E+01  0.11803328160E+01  0.00000000000E+00 0. -1.
         11    1    3    3    0    0 -0.47489811318E+00 -0.10002146295E+02  0.19737525374E+00  0.10015359004E+02  0.51100000000E-03 0. -1.
        -11    1    3    3    0    0  0.33127107397E+02 -0.17304063224E+02 -0.45660324882E+01  0.37652151353E+02  0.51100000000E-03 0.  1.
         12    1    3    3    0    0 -0.32191829682E+02  0.26966700478E+02  0.54011153643E+01  0.42340156827E+02  0.00000000000E+00 0. -1.
</event>
<event>
 7    1  0.4096472E-015  0.9000770E+02  0.7816164E-02  0.1186339E+00
        -11   -1    0    0    0    0  0.00000000000E+00  0.00000000000E+00  0.45593999997E+02  0.45594000000E+02  0.51100000000E-03 0. -1.
         11   -1    0    0    0    0 -0.00000000000E+00 -0.00000000000E+00 -0.45593999997E+02  0.45594000000E+02  0.51100000000E-03 0.  1.
    9900012    2    1    2    0    0  0.11705673848E+01 -0.12582459650E+00 -0.83915590758E-01  0.90007702725E+02  0.89999963601E+02 0.  0.
         12    1    1    2    0    0 -0.11705673848E+01  0.12582459650E+00  0.83915590758E-01  0.11802972752E+01  0.00000000000E+00 0. -1.
         11    1    3    3    0    0  0.24866768388E+02  0.32697664366E+02  0.50261126296E+01  0.41385447122E+02  0.51100000000E-03 0. -1.
        -11    1    3    3    0    0 -0.93033570909E+01  0.29535599227E+01 -0.36422347429E+00  0.97677340452E+01  0.51100000000E-03 0.  1.
        -12    1    3    3    0    0 -0.14392843912E+02 -0.35777048885E+02 -0.47458047460E+01  0.38854521558E+02  0.00000000000E+00 0.  1.
</event>
<event>
 7    1  0.4096472E-015  0.9000774E+02  0.7816164E-02  0.1186339E+00
        -11   -1    0    0    0    0  0.00000000000E+00  0.00000000000E+00  0.45593999997E+02  0.45594000000E+02  0.51100000000E-03 0.  1.
         11   -1    0    0    0    0 -0.00000000000E+00 -0.00000000000E+00 -0.45593999997E+02  0.45594000000E+02  0.51100000000E-03 0. -1.
    9900012    2    1    2    0    0  0.42030343901E+00 -0.52066267277E+00  0.97224600636E+00  0.90007742868E+02  0.90000004274E+02 0.  0.
         12    1    1    2    0    0 -0.42030343901E+00  0.52066267277E+00 -0.97224600636E+00  0.11802571315E+01  0.00000000000E+00 0. -1.
         11    1    3    3    0    0 -0.16211386083E+02 -0.14382549873E+02 -0.24923349970E+02  0.33027869346E+02  0.51100000000E-03 0. -1.
        -11    1    3    3    0    0 -0.93731561955E+01 -0.80008130146E+01 -0.26503852350E+01  0.12605300794E+02  0.51100000000E-03 0.  1.
        -12    1    3    3    0    0  0.26004845718E+02  0.21862700214E+02  0.28545981211E+02  0.44374572728E+02  0.00000000000E+00 0.  1.
</event>
<event>
 7    1  0.4096472E-015  0.9000748E+02  0.7816164E-02  0.1186340E+00
        -11   -1    0    0    0    0  0.00000000000E+00  0.00000000000E+00  0.45593999997E+02  0.45594000000E+02  0.51100000000E-03 0.  1.
         11   -1    0    0    0    0 -0.00000000000E+00 -0.00000000000E+00 -0.45593999997E+02  0.45594000000E+02  0.51100000000E-03 0. -1.
    9900012    2    1    2    0    0 -0.17850801264E+00  0.71889825882E+00  0.91921258833E+00  0.90007478251E+02  0.89999736164E+02 0.  0.
         12    1    1    2    0    0  0.17850801264E+00 -0.71889825882E+00 -0.91921258833E+00  0.11805217489E+01  0.00000000000E+00 0. -1.
         11    1    3    3    0    0  0.30326488976E+02 -0.15476377140E+02 -0.10223771966E+02  0.35549116677E+02  0.51100000000E-03 0. -1.
        -11    1    3    3    0    0  0.16529938260E+01 -0.85537862094E+01 -0.58193468666E+01  0.10476852835E+02  0.51100000000E-03 0.  1.
        -12    1    3    3    0    0 -0.32157990815E+02  0.24749061609E+02  0.16962331421E+02  0.43981508740E+02  0.00000000000E+00 0.  1.
</event>
<event>
 7    1  0.4096472E-015  0.9000781E+02  0.7816164E-02  0.1186339E+00
        -11   -1    0    0    0    0  0.00000000000E+00  0.00000000000E+00  0.45593999997E+02  0.45594000000E+02  0.51100000000E-03 0. -1.
         11   -1    0    0    0    0 -0.00000000000E+00 -0.00000000000E+00 -0.45593999997E+02  0.45594000000E+02  0.51100000000E-03 0.  1.
    9900012    2    1    2    0    0  0.68433389451E+00 -0.25071881339E+00 -0.92827088906E+00  0.90007805251E+02  0.90000067480E+02 0.  0.
         12    1    1    2    0    0 -0.68433389451E+00  0.25071881339E+00  0.92827088906E+00  0.11801947492E+01  0.00000000000E+00 0. -1.
         11    1    3    3    0    0  0.29818929049E+02 -0.22403787058E+02  0.13407214227E+02  0.39633970250E+02  0.51100000000E-03 0. -1.
        -11    1    3    3    0    0  0.27889056448E+00  0.10155131303E+02  0.67945741287E+01  0.12221731038E+02  0.51100000000E-03 0.  1.
        -12    1    3    3    0    0 -0.29413485719E+02  0.11997936942E+02 -0.21130059245E+02  0.38152103962E+02  0.00000000000E+00 0.  1.
</event>
<event>
 7    1  0.4096472E-015  0.9000775E+02  0.7816164E-02  0.1186339E+00
        -11   -1    0    0    0    0  0.00000000000E+00  0.00000000000E+00  0.45593999997E+02  0.45594000000E+02  0.51100000000E-03 0. -1.
         11   -1    0    0    0    0 -0.00000000000E+00 -0.00000000000E+00 -0.45593999997E+02  0.45594000000E+02  0.51100000000E-03 0.  1.
    9900012    2    1    2    0    0 -0.11537024796E+01  0.13485775725E+00 -0.20920666782E+00  0.90007752799E+02  0.90000014336E+02 0.  0.
         12    1    1    2    0    0  0.11537024796E+01 -0.13485775725E+00  0.20920666782E+00  0.11802472012E+01  0.00000000000E+00 0. -1.
         11    1    3    3    0    0  0.18441961799E+01  0.33883776174E+02  0.19268061495E+02  0.39022679833E+02  0.51100000000E-03 0. -1.
        -11    1    3    3    0    0 -0.49079704162E+00  0.63238210109E+01 -0.57241014601E+01  0.85438241848E+01  0.51100000000E-03 0.  1.
        -12    1    3    3    0    0 -0.25071016179E+01 -0.40072739427E+02 -0.13753166702E+02  0.42441248781E+02  0.00000000000E+00 0.  1.
</event>
<event>
 7    1  0.4096472E-015  0.9000757E+02  0.7816164E-02  0.1186339E+00
        -11   -1    0    0    0    0  0.00000000000E+00  0.00000000000E+00  0.45593999997E+02  0.45594000000E+02  0.51100000000E-03 0.  1.
         11   -1    0    0    0    0 -0.00000000000E+00 -0.00000000000E+00 -0.45593999997E+02  0.45594000000E+02  0.51100000000E-03 0. -1.
    9900012    2    1    2    0    0 -0.83406177591E+00 -0.51009393692E+00  0.66148472377E+00  0.90007569184E+02  0.89999828298E+02 0.  0.
         12    1    1    2    0    0  0.83406177591E+00  0.51009393692E+00 -0.66148472377E+00  0.11804308155E+01  0.00000000000E+00 0. -1.
         11    1    3    3    0    0 -0.76525734074E+01  0.28638878029E+00  0.52349840806E+01  0.92762576977E+01  0.51100000000E-03 0. -1.
        -11    1    3    3    0    0  0.15644474664E+02  0.35030055548E+02  0.12119082729E+02  0.40233400871E+02  0.51100000000E-03 0.  1.
         12    1    3    3    0    0 -0.88259630327E+01 -0.35826538265E+02 -0.16692582085E+02  0.40497910615E+02  0.00000000000E+00 0. -1.
</event>
<event>
 7    1  0.4096472E-015  0.9000797E+02  0.7816164E-02  0.1186339E+00
        -11   -1    0    0    0    0  0.00000000000E+00  0.00000000000E+00  0.45593999997E+02  0.45594000000E+02  0.51100000000E-03 0.  1.
         11   -1    0    0    0    0 -0.00000000000E+00 -0.00000000000E+00 -0.45593999997E+02  0.45594000000E+02  0.51100000000E-03 0. -1.
    9900012    2    1    2    0    0  0.24587857955E+00 -0.36020756610E-01  0.11535717905E+01  0.90007965404E+02  0.90000229747E+02 0.  0.
         12    1    1    2    0    0 -0.24587857955E+00  0.36020756610E-01 -0.11535717905E+01  0.11800345956E+01  0.00000000000E+00 0. -1.
         11    1    3    3    0    0 -0.23748363890E+02 -0.33544742164E+02 -0.79531235576E+01  0.41862712393E+02  0.51100000000E-03 0. -1.
        -11    1    3    3    0    0  0.17607518635E+01 -0.75243465782E-01  0.76413289239E+01  0.78419268480E+01  0.51100000000E-03 0.  1.
        -12    1    3    3    0    0  0.22233490606E+02  0.33583964873E+02  0.14653664242E+01  0.40303326164E+02  0.00000000000E+00 0.  1.
</event>
<event>
 7    1  0.4096472E-015  0.9000778E+02  0.7816164E-02  0.1186339E+00
        -11   -1    0    0    0    0  0.00000000000E+00  0.00000000000E+00  0.45593999997E+02  0.45594000000E+02  0.51100000000E-03 0.  1.
         11   -1    0    0    0    0 -0.00000000000E+00 -0.00000000000E+00 -0.45593999997E+02  0.45594000000E+02  0.51100000000E-03 0. -1.
    9900012    2    1    2    0    0 -0.76895719055E+00  0.62258324545E+00 -0.64343839606E+00  0.90007780517E+02  0.90000042420E+02 0.  0.
         12    1    1    2    0    0  0.76895719055E+00 -0.62258324545E+00  0.64343839606E+00  0.11802194830E+01  0.00000000000E+00 0. -1.
         11    1    3    3    0    0 -0.35220731285E+02  0.21741715193E+01 -0.19458420466E+02  0.40297109839E+02  0.51100000000E-03 0. -1.
        -11    1    3    3    0    0  0.86233874107E+00 -0.10095627585E+02 -0.28655875816E+00  0.10136441221E+02  0.51100000000E-03 0.  1.
        -12    1    3    3    0    0  0.33589435353E+02  0.85440393114E+01  0.19101540828E+02  0.39574229457E+02  0.00000000000E+00 0.  1.
</event>
<event>
 7    1  0.4096472E-015  0.9000794E+02  0.7816164E-02  0.1186339E+00
        -11   -1    0    0    0    0  0.00000000000E+00  0.00000000000E+00  0.45593999997E+02  0.45594000000E+02  0.51100000000E-03 0. -1.
         11   -1    0    0    0    0 -0.00000000000E+00 -0.00000000000E+00 -0.45593999997E+02  0.45594000000E+02  0.51100000000E-03 0.  1.
    9900012    2    1    2    0    0 -0.92870042220E+00 -0.56144128026E+00 -0.46351414169E+00  0.90007938076E+02  0.90000202058E+02 0.  0.
         12    1    1    2    0    0  0.92870042220E+00  0.56144128026E+00  0.46351414169E+00  0.11800619242E+01  0.00000000000E+00 0. -1.
         11    1    3    3    0    0 -0.25659256729E+01  0.40391950078E+01  0.96769467462E+01  0.10795479121E+02  0.51100000000E-03 0. -1.
        -11    1    3    3    0    0 -0.22828374193E+01  0.19863118752E+02 -0.37379713027E+02  0.42391010598E+02  0.51100000000E-03 0.  1.
         12    1    3    3    0    0  0.39200626700E+01 -0.24463755040E+02  0.27239252139E+02  0.36821448357E+02  0.00000000000E+00 0. -1.
</event>
<event>
 7    1  0.4096472E-015  0.9000780E+02  0.7816164E-02  0.1186339E+00
        -11   -1    0    0    0    0  0.00000000000E+00  0.00000000000E+00  0.45593999997E+02  0.45594000000E+02  0.51100000000E-03 0.  1.
         11   -1    0    0    0    0 -0.00000000000E+00 -0.00000000000E+00 -0.45593999997E+02  0.45594000000E+02  0.51100000000E-03 0. -1.
    9900012    2    1    2    0    0 -0.64462914968E+00  0.69535999457E+00  0.70271041609E+00  0.90007799088E+02  0.90000061236E+02 0.  0.
         12    1    1    2    0    0  0.64462914968E+00 -0.69535999457E+00 -0.70271041609E+00  0.11802009115E+01  0.00000000000E+00 0. -1.
         11    1    3    3    0    0 -0.18075551777E+00  0.74910909562E+01 -0.58271444999E+01  0.94923511079E+01  0.51100000000E-03 0. -1.
        -11    1    3    3    0    0 -0.26465984176E+02  0.26172922937E+02  0.95214626267E+01  0.38420417284E+02  0.51100000000E-03 0.  1.
         12    1    3    3    0    0  0.26002110544E+02 -0.32968653899E+02 -0.29916077107E+01  0.42095030696E+02  0.00000000000E+00 0. -1.
</event>
<event>
 7    1  0.4096472E-015  0.9000803E+02  0.7816164E-02  0.1186338E+00
        -11   -1    0    0    0    0  0.00000000000E+00  0.00000000000E+00  0.45593999997E+02  0.45594000000E+02  0.51100000000E-03 0. -1.
         11   -1    0    0    0    0 -0.00000000000E+00 -0.00000000000E+00 -0.45593999997E+02  0.45594000000E+02  0.51100000000E-03 0.  1.
    9900012    2    1    2    0    0 -0.51251794141E+00 -0.50763979984E+00 -0.93378524467E+00  0.90008030640E+02  0.90000295844E+02 0.  0.
         12    1    1    2    0    0  0.51251794141E+00  0.50763979984E+00  0.93378524467E+00  0.11799693597E+01  0.00000000000E+00 0. -1.
         11    1    3    3    0    0  0.33259001599E+02  0.20216296062E+01  0.89974560168E+01  0.34513799974E+02  0.51100000000E-03 0. -1.
        -11    1    3    3    0    0  0.97168822980E+01 -0.44697284789E+01 -0.45796613254E+01  0.11634843032E+02  0.51100000000E-03 0.  1.
        -12    1    3    3    0    0 -0.43488401838E+02  0.19404590729E+01 -0.53515799360E+01  0.43859387634E+02  0.00000000000E+00 0.  1.
</event>
<event>
 7    1  0.4096472E-015  0.9000769E+02  0.7816164E-02  0.1186339E+00
        -11   -1    0    0    0    0  0.00000000000E+00  0.00000000000E+00  0.45593999997E+02  0.45594000000E+02  0.51100000000E-03 0. -1.
         11   -1    0    0    0    0 -0.00000000000E+00 -0.00000000000E+00 -0.45593999997E+02  0.45594000000E+02  0.51100000000E-03 0.  1.
    9900012    2    1    2    0    0  0.10934702369E+01 -0.19445263266E+00  0.39955944114E+00  0.90007687867E+02  0.89999948546E+02 0.  0.
         12    1    1    2    0    0 -0.10934702369E+01  0.19445263266E+00 -0.39955944114E+00  0.11803121334E+01  0.00000000000E+00 0. -1.
         11    1    3    3    0    0  0.13136966324E+01 -0.38918367142E+02 -0.63947763585E+01  0.39462111763E+02  0.51100000000E-03 0. -1.
        -11    1    3    3    0    0 -0.21789476844E+01 -0.17995447913E+01  0.94739118224E+01  0.98864139073E+01  0.51100000000E-03 0.  1.
        -12    1    3    3    0    0  0.19587212889E+01  0.40523459301E+02 -0.26795760228E+01  0.40659162196E+02  0.00000000000E+00 0.  1.
</event>
<event>
 7    1  0.4096472E-015  0.9000778E+02  0.7816164E-02  0.1186339E+00
        -11   -1    0    0    0    0  0.00000000000E+00  0.00000000000E+00  0.45593999997E+02  0.45594000000E+02  0.51100000000E-03 0.  1.
         11   -1    0    0    0    0 -0.00000000000E+00 -0.00000000000E+00 -0.45593999997E+02  0.45594000000E+02  0.51100000000E-03 0. -1.
    9900012    2    1    2    0    0 -0.35668905500E+00  0.63037483437E+00  0.93183490271E+00  0.90007781461E+02  0.90000043376E+02 0.  0.
         12    1    1    2    0    0  0.35668905500E+00 -0.63037483437E+00 -0.93183490271E+00  0.11802185389E+01  0.00000000000E+00 0. -1.
         11    1    3    3    0    0  0.85346088222E+01  0.17990951270E+02 -0.31574885978E+02  0.37329442805E+02  0.51100000000E-03 0. -1.
        -11    1    3    3    0    0 -0.14622089287E+02  0.45411862165E+01  0.31933882000E+01  0.15640511367E+02  0.51100000000E-03 0.  1.
        -12    1    3    3    0    0  0.57307914099E+01 -0.21901762653E+02  0.29313332680E+02  0.37037827289E+02  0.00000000000E+00 0.  1.
</event>
<event>
 7    1  0.4096472E-015  0.9000776E+02  0.7816164E-02  0.1186339E+00
        -11   -1    0    0    0    0  0.00000000000E+00  0.00000000000E+00  0.45593999997E+02  0.45594000000E+02  0.51100000000E-03 0.  1.
         11   -1    0    0    0    0 -0.00000000000E+00 -0.00000000000E+00 -0.45593999997E+02  0.45594000000E+02  0.51100000000E-03 0. -1.
    9900012    2    1    2    0    0 -0.11363909826E+01 -0.31788485518E+00  0.23268042888E-01  0.90007755683E+02  0.90000017258E+02 0.  0.
         12    1    1    2    0    0  0.11363909826E+01  0.31788485518E+00 -0.23268042888E-01  0.11802443172E+01  0.00000000000E+00 0. -1.
         11    1    3    3    0    0  0.13133437346E+02 -0.43883954701E+01 -0.18514397224E+02  0.23119863670E+02  0.51100000000E-03 0. -1.
        -11    1    3    3    0    0  0.57894103131E+01 -0.25624798024E+02  0.16440781789E+02  0.30991076968E+02  0.51100000000E-03 0.  1.
        -12    1    3    3    0    0 -0.20059238642E+02  0.29695308639E+02  0.20968834777E+01  0.35896815045E+02  0.00000000000E+00 0.  1.
</event>
<event>
 7    1  0.4096472E-015  0.9000659E+02  0.7816164E-02  0.1186341E+00
        -11   -1    0    0    0    0  0.00000000000E+00  0.00000000000E+00  0.45593999997E+02  0.45594000000E+02  0.51100000000E-03 0.  1.
         11   -1    0    0    0    0 -0.00000000000E+00 -0.00000000000E+00 -0.45593999997E+02  0.45594000000E+02  0.51100000000E-03 0. -1.
    9900012    2    1    2    0    0  0.29273618330E+00  0.11075085588E-01  0.11445112812E+01  0.90006592702E+02  0.89998838918E+02 0.  0.
         12    1    1    2    0    0 -0.29273618330E+00 -0.11075085588E-01 -0.11445112812E+01  0.11814072978E+01  0.00000000000E+00 0. -1.
         11    1    3    3    0    0  0.18628928320E+02  0.10123247297E+02 -0.34151614495E+02  0.40197635242E+02  0.51100000000E-03 0. -1.
        -11    1    3    3    0    0 -0.35868659274E+01  0.73757125470E+01  0.56605633307E+00  0.82211412097E+01  0.51100000000E-03 0.  1.
        -12    1    3    3    0    0 -0.14749326210E+02 -0.17487884758E+02  0.34730069443E+02  0.41587816250E+02  0.00000000000E+00 0.  1.
</event>
<event>
 7    1  0.4096472E-015  0.9000772E+02  0.7816164E-02  0.1186339E+00
        -11   -1    0    0    0    0  0.00000000000E+00  0.00000000000E+00  0.45593999997E+02  0.45594000000E+02  0.51100000000E-03 0. -1.
         11   -1    0    0    0    0 -0.00000000000E+00 -0.00000000000E+00 -0.45593999997E+02  0.45594000000E+02  0.51100000000E-03 0.  1.
    9900012    2    1    2    0    0 -0.52567593052E+00 -0.53794416893E+00 -0.90958289096E+00  0.90007720309E+02  0.89999981417E+02 0.  0.
         12    1    1    2    0    0  0.52567593052E+00  0.53794416893E+00  0.90958289096E+00  0.11802796907E+01  0.00000000000E+00 0. -1.
         11    1    3    3    0    0  0.21014032783E+02 -0.21243126643E+02  0.18211886279E+02  0.34993325156E+02  0.51100000000E-03 0. -1.
        -11    1    3    3    0    0  0.46182717661E+01 -0.68007192039E+01  0.53899631304E+01  0.98300518108E+01  0.51100000000E-03 0.  1.
        -12    1    3    3    0    0 -0.26157980480E+02  0.27505901678E+02 -0.24511432300E+02  0.45184343343E+02  0.00000000000E+00 0.  1.
</event>
<event>
 7    1  0.4096472E-015  0.9000775E+02  0.7816164E-02  0.1186339E+00
        -11   -1    0    0    0    0  0.00000000000E+00  0.00000000000E+00  0.45593999997E+02  0.45594000000E+02  0.51100000000E-03 0.  1.
         11   -1    0    0    0    0 -0.00000000000E+00 -0.00000000000E+00 -0.45593999997E+02  0.45594000000E+02  0.51100000000E-03 0. -1.
    9900012    2    1    2    0    0 -0.80956133984E+00  0.27983493727E+00  0.81197410259E+00  0.90007746172E+02  0.90000007622E+02 0.  0.
         12    1    1    2    0    0  0.80956133984E+00 -0.27983493727E+00 -0.81197410259E+00  0.11802538279E+01  0.00000000000E+00 0. -1.
         11    1    3    3    0    0  0.84516747167E+01  0.32888168691E+02 -0.17335209561E+02  0.38125738500E+02  0.51100000000E-03 0. -1.
        -11    1    3    3    0    0 -0.73715088742E+01  0.51315304496E+01 -0.17890985569E+01  0.91581997000E+01  0.51100000000E-03 0.  1.
        -12    1    3    3    0    0 -0.18897271824E+01 -0.37739864203E+02  0.19936282221E+02  0.42723807973E+02  0.00000000000E+00 0.  1.
</event>
<event>
 7    1  0.4303220E-015  0.9000775E+02  0.7816164E-02  0.1186339E+00
        -11   -1    0    0    0    0  0.00000000000E+00  0.00000000000E+00  0.45593999997E+02  0.45594000000E+02  0.51100000000E-03 0. -1.
         11   -1    0    0    0    0 -0.00000000000E+00 -0.00000000000E+00 -0.45593999997E+02  0.45594000000E+02  0.51100000000E-03 0.  1.
    9900012    2    1    2    0    0  0.64791444652E+00  0.79417278392E-01 -0.98330639166E+00  0.90007749309E+02  0.90000010800E+02 0.  0.
         12    1    1    2    0    0 -0.64791444652E+00 -0.79417278392E-01  0.98330639166E+00  0.11802506912E+01  0.00000000000E+00 0. -1.
         11    1    3    3    0    0 -0.11925049413E+01  0.67397206591E+01  0.52990687098E+01  0.86559824428E+01  0.51100000000E-03 0. -1.
        -11    1    3    3    0    0  0.13637199991E+02  0.28219530993E+02 -0.24958430174E+02  0.40065426369E+02  0.51100000000E-03 0.  1.
         12    1    3    3    0    0 -0.11796780604E+02 -0.34879834374E+02  0.18676055073E+02  0.41286340497E+02  0.00000000000E+00 0. -1.
</event>
<event>
 7    1  0.4096472E-015  0.9000803E+02  0.7816164E-02  0.1186338E+00
        -11   -1    0    0    0    0  0.00000000000E+00  0.00000000000E+00  0.45593999997E+02  0.45594000000E+02  0.51100000000E-03 0.  1.
         11   -1    0    0    0    0 -0.00000000000E+00 -0.00000000000E+00 -0.45593999997E+02  0.45594000000E+02  0.51100000000E-03 0. -1.
    9900012    2    1    2    0    0  0.82247292880E+00 -0.40596785677E+00  0.74233911723E+00  0.90008025854E+02  0.90000290995E+02 0.  0.
         12    1    1    2    0    0 -0.82247292880E+00  0.40596785677E+00 -0.74233911723E+00  0.11799741456E+01  0.00000000000E+00 0. -1.
         11    1    3    3    0    0 -0.78285432692E+01  0.63240538787E+01 -0.91328594630E+00  0.10105139220E+02  0.51100000000E-03 0. -1.
        -11    1    3    3    0    0 -0.33553618324E+00  0.36085324893E+02  0.21631939509E+01  0.36151662002E+02  0.51100000000E-03 0.  1.
         12    1    3    3    0    0  0.89865523812E+01 -0.42815346629E+02 -0.50756888734E+00  0.43751224632E+02  0.00000000000E+00 0. -1.
</event>
<event>
 7    1  0.4096472E-015  0.9000784E+02  0.7816164E-02  0.1186339E+00
        -11   -1    0    0    0    0  0.00000000000E+00  0.00000000000E+00  0.45593999997E+02  0.45594000000E+02  0.51100000000E-03 0.  1.
         11   -1    0    0    0    0 -0.00000000000E+00 -0.00000000000E+00 -0.45593999997E+02  0.45594000000E+02  0.51100000000E-03 0. -1.
    9900012    2    1    2    0    0 -0.69092229556E+00  0.78489017577E+00 -0.54711947006E+00  0.90007844959E+02  0.90000107712E+02 0.  0.
         12    1    1    2    0    0  0.69092229556E+00 -0.78489017577E+00  0.54711947006E+00  0.11801550411E+01  0.00000000000E+00 0. -1.
         11    1    3    3    0    0 -0.59049201803E+01  0.87931756012E+01  0.65533454857E+00  0.10612138480E+02  0.51100000000E-03 0. -1.
        -11    1    3    3    0    0 -0.36635692739E+02 -0.80663481567E+01  0.39954400078E+00  0.37515324745E+02  0.51100000000E-03 0.  1.
         12    1    3    3    0    0  0.41849690623E+02  0.58062731252E-01 -0.16019980194E+01  0.41880381734E+02  0.00000000000E+00 0. -1.
</event>
<event>
 7    1  0.4096472E-015  0.9000782E+02  0.7816164E-02  0.1186339E+00
        -11   -1    0    0    0    0  0.00000000000E+00  0.00000000000E+00  0.45593999997E+02  0.45594000000E+02  0.51100000000E-03 0.  1.
         11   -1    0    0    0    0 -0.00000000000E+00 -0.00000000000E+00 -0.45593999997E+02  0.45594000000E+02  0.51100000000E-03 0. -1.
    9900012    2    1    2    0    0 -0.10882965111E+01 -0.60905782258E-01  0.45246829308E+00  0.90007819350E+02  0.90000081765E+02 0.  0.
         12    1    1    2    0    0  0.10882965111E+01  0.60905782258E-01 -0.45246829308E+00  0.11801806500E+01  0.00000000000E+00 0. -1.
         11    1    3    3    0    0 -0.73280537385E+01  0.10165255895E+02  0.38673651442E+01  0.13114469582E+02  0.51100000000E-03 0. -1.
        -11    1    3    3    0    0  0.25917976799E+02  0.18317491471E+02  0.17660822812E+02  0.36320471883E+02  0.51100000000E-03 0.  1.
         12    1    3    3    0    0 -0.19678219572E+02 -0.28543653148E+02 -0.21075719663E+02  0.40572877885E+02  0.00000000000E+00 0. -1.
</event>
<event>
 7    1  0.4469313E-015  0.9000777E+02  0.7816164E-02  0.1186339E+00
        -11   -1    0    0    0    0  0.00000000000E+00  0.00000000000E+00  0.45593999997E+02  0.45594000000E+02  0.51100000000E-03 0.  1.
         11   -1    0    0    0    0 -0.00000000000E+00 -0.00000000000E+00 -0.45593999997E+02  0.45594000000E+02  0.51100000000E-03 0. -1.
    9900012    2    1    2    0    0 -0.11222449445E+01  0.36506270538E+00 -0.15450013796E-01  0.90007769854E+02  0.90000031616E+02 0.  0.
         12    1    1    2    0    0  0.11222449445E+01 -0.36506270538E+00  0.15450013796E-01  0.11802301459E+01  0.00000000000E+00 0. -1.
         11    1    3    3    0    0 -0.63098039045E+01 -0.11949218267E+02 -0.37657178571E+02  0.40008255907E+02  0.51100000000E-03 0. -1.
        -11    1    3    3    0    0 -0.81383856795E+01  0.52844340629E+01  0.27251450811E+00  0.97073595406E+01  0.51100000000E-03 0.  1.
        -12    1    3    3    0    0  0.13325944640E+02  0.70298469100E+01  0.37369214049E+02  0.40292154407E+02  0.00000000000E+00 0.  1.
</event>
<event>
 7    1  0.4096472E-015  0.9000783E+02  0.7816164E-02  0.1186339E+00
        -11   -1    0    0    0    0  0.00000000000E+00  0.00000000000E+00  0.45593999997E+02  0.45594000000E+02  0.51100000000E-03 0.  1.
         11   -1    0    0    0    0 -0.00000000000E+00 -0.00000000000E+00 -0.45593999997E+02  0.45594000000E+02  0.51100000000E-03 0. -1.
    9900012    2    1    2    0    0 -0.20033467560E+00 -0.87145476152E+00  0.77021875211E+00  0.90007828695E+02  0.90000091233E+02 0.  0.
         12    1    1    2    0    0  0.20033467560E+00  0.87145476152E+00 -0.77021875211E+00  0.11801713052E+01  0.00000000000E+00 0. -1.
         11    1    3    3    0    0  0.63156958847E+01 -0.76370832392E+01  0.23927440560E+01  0.10195012471E+02  0.51100000000E-03 0. -1.
        -11    1    3    3    0    0  0.32938591074E+02  0.89013735570E+01  0.14583478364E+02  0.37106105624E+02  0.51100000000E-03 0.  1.
         12    1    3    3    0    0 -0.39454621634E+02 -0.21357450793E+01 -0.16206003668E+02  0.42706710599E+02  0.00000000000E+00 0. -1.
</event>
<event>
 7    1  0.4096472E-015  0.9000779E+02  0.7816164E-02  0.1186339E+00
        -11   -1    0    0    0    0  0.00000000000E+00  0.00000000000E+00  0.45593999997E+02  0.45594000000E+02  0.51100000000E-03 0.  1.
         11   -1    0    0    0    0 -0.00000000000E+00 -0.00000000000E+00 -0.45593999997E+02  0.45594000000E+02  0.51100000000E-03 0. -1.
    9900012    2    1    2    0    0 -0.46194202153E+00  0.98708890802E+00  0.45294958751E+00  0.90007788887E+02  0.90000050900E+02 0.  0.
         12    1    1    2    0    0  0.46194202153E+00 -0.98708890802E+00 -0.45294958751E+00  0.11802111135E+01  0.00000000000E+00 0. -1.
         11    1    3    3    0    0 -0.58300207080E+01 -0.50026048432E+01  0.55788831916E+01  0.94941631858E+01  0.51100000000E-03 0. -1.
        -11    1    3    3    0    0  0.42392360418E+02 -0.30860768459E+00  0.12912776226E+01  0.42413144881E+02  0.51100000000E-03 0.  1.
         12    1    3    3    0    0 -0.37024281732E+02  0.62983014358E+01 -0.64172112266E+01  0.38100480819E+02  0.00000000000E+00 0. -1.
</event>
<event>
 7    1  0.4096472E-015  0.9000778E+02  0.7816164E-02  0.1186339E+00
        -11   -1    0    0    0    0  0.00000000000E+00  0.00000000000E+00  0.45593999997E+02  0.45594000000E+02  0.51100000000E-03 0. -1.
         11   -1    0    0    0    0 -0.00000000000E+00 -0.00000000000E+00 -0.45593999997E+02  0.45594000000E+02  0.51100000000E-03 0.  1.
    9900012    2    1    2    0    0 -0.75386901628E+00  0.80059735063E+00 -0.42853155639E+00  0.90007782263E+02  0.90000044189E+02 0.  0.
         12    1    1    2    0    0  0.75386901628E+00 -0.80059735063E+00  0.42853155639E+00  0.11802177368E+01  0.00000000000E+00 0. -1.
         11    1    3    3    0    0  0.29919903129E+02 -0.10837640723E+01  0.24800015669E+02  0.38876933074E+02  0.51100000000E-03 0. -1.
        -11    1    3    3    0    0 -0.10487046332E+00 -0.91396361952E+01  0.12340253720E+01  0.92231646670E+01  0.51100000000E-03 0.  1.
        -12    1    3    3    0    0 -0.30568901682E+02  0.11023997618E+02 -0.26462572598E+02  0.41907684522E+02  0.00000000000E+00 0.  1.
</event>
<event>
 7    1  0.4096472E-015  0.9000777E+02  0.7816164E-02  0.1186339E+00
        -11   -1    0    0    0    0  0.00000000000E+00  0.00000000000E+00  0.45593999997E+02  0.45594000000E+02  0.51100000000E-03 0.  1.
         11   -1    0    0    0    0 -0.00000000000E+00 -0.00000000000E+00 -0.45593999997E+02  0.45594000000E+02  0.51100000000E-03 0. -1.
    9900012    2    1    2    0    0  0.45728301545E+00 -0.72745863311E+00  0.80910045246E+00  0.90007768090E+02  0.90000029829E+02 0.  0.
         12    1    1    2    0    0 -0.45728301545E+00  0.72745863311E+00 -0.80910045246E+00  0.11802319100E+01  0.00000000000E+00 0. -1.
         11    1    3    3    0    0 -0.41841260715E+01  0.26926530406E+01 -0.12945173148E+02  0.13868482234E+02  0.51100000000E-03 0. -1.
        -11    1    3    3    0    0 -0.33172235866E+02  0.70072856095E+01 -0.17782761819E+01  0.33950869656E+02  0.51100000000E-03 0.  1.
         12    1    3    3    0    0  0.37813644953E+02 -0.10427397283E+02  0.15532549783E+02  0.42188416200E+02  0.00000000000E+00 0. -1.
</event>
<event>
 7    1  0.4096472E-015  0.9000776E+02  0.7816164E-02  0.1186339E+00
        -11   -1    0    0    0    0  0.00000000000E+00  0.00000000000E+00  0.45593999997E+02  0.45594000000E+02  0.51100000000E-03 0.  1.
         11   -1    0    0    0    0 -0.00000000000E+00 -0.00000000000E+00 -0.45593999997E+02  0.45594000000E+02  0.51100000000E-03 0. -1.
    9900012    2    1    2    0    0 -0.10784377851E+01 -0.31741298091E+00  0.35943023191E+00  0.90007758860E+02  0.90000020477E+02 0.  0.
         12    1    1    2    0    0  0.10784377851E+01  0.31741298091E+00 -0.35943023191E+00  0.11802411399E+01  0.00000000000E+00 0. -1.
         11    1    3    3    0    0  0.14998609159E+02  0.36149758024E+02 -0.10490026144E+01  0.39151803133E+02  0.51100000000E-03 0. -1.
        -11    1    3    3    0    0 -0.63915491833E+01  0.28392674370E+01 -0.65692406055E+01  0.95952208383E+01  0.51100000000E-03 0.  1.
        -12    1    3    3    0    0 -0.96854977605E+01 -0.39306438441E+02  0.79776734518E+01  0.41260734888E+02  0.00000000000E+00 0.  1.
</event>
<event>
 7    1  0.4096472E-015  0.9000776E+02  0.7816164E-02  0.1186339E+00
        -11   -1    0    0    0    0  0.00000000000E+00  0.00000000000E+00  0.45593999997E+02  0.45594000000E+02  0.51100000000E-03 0.  1.
         11   -1    0    0    0    0 -0.00000000000E+00 -0.00000000000E+00 -0.45593999997E+02  0.45594000000E+02  0.51100000000E-03 0. -1.
    9900012    2    1    2    0    0  0.38371381241E+00 -0.55575894712E+00  0.96791317942E+00  0.90007762643E+02  0.90000024309E+02 0.  0.
         12    1    1    2    0    0 -0.38371381241E+00  0.55575894712E+00 -0.96791317942E+00  0.11802373575E+01  0.00000000000E+00 0. -1.
         11    1    3    3    0    0  0.72158528794E+01 -0.90728154872E+00  0.69485353119E+01  0.10058520559E+02  0.51100000000E-03 0. -1.
        -11    1    3    3    0    0  0.16142408852E+02  0.32273254244E+02  0.10080069580E+02  0.37466626564E+02  0.51100000000E-03 0.  1.
         12    1    3    3    0    0 -0.22974547919E+02 -0.31921731643E+02 -0.16060691713E+02  0.42482615520E+02  0.00000000000E+00 0. -1.
</event>
<event>
 7    1  0.4096472E-015  0.9000776E+02  0.7816164E-02  0.1186339E+00
        -11   -1    0    0    0    0  0.00000000000E+00  0.00000000000E+00  0.45593999997E+02  0.45594000000E+02  0.51100000000E-03 0.  1.
         11   -1    0    0    0    0 -0.00000000000E+00 -0.00000000000E+00 -0.45593999997E+02  0.45594000000E+02  0.51100000000E-03 0. -1.
    9900012    2    1    2    0    0  0.75107513527E+00 -0.88537797286E+00  0.21204913759E+00  0.90007757292E+02  0.90000018888E+02 0.  0.
         12    1    1    2    0    0 -0.75107513527E+00  0.88537797286E+00 -0.21204913759E+00  0.11802427083E+01  0.00000000000E+00 0. -1.
         11    1    3    3    0    0  0.95933712533E+01  0.27523805681E+02  0.24416506959E+02  0.38023130638E+02  0.51100000000E-03 0. -1.
        -11    1    3    3    0    0  0.12626524286E+02 -0.10651621490E+02 -0.25871460402E+01  0.16720630395E+02  0.51100000000E-03 0.  1.
        -12    1    3    3    0    0 -0.21468820404E+02 -0.17757562163E+02 -0.21617311781E+02  0.35263996259E+02  0.00000000000E+00 0.  1.
</event>
<event>
 7    1  0.4096472E-015  0.9000774E+02  0.7816164E-02  0.1186339E+00
        -11   -1    0    0    0    0  0.00000000000E+00  0.00000000000E+00  0.45593999997E+02  0.45594000000E+02  0.51100000000E-03 0. -1.
         11   -1    0    0    0    0 -0.00000000000E+00 -0.00000000000E+00 -0.45593999997E+02  0.45594000000E+02  0.51100000000E-03 0.  1.
    9900012    2    1    2    0    0  0.45223141366E-01  0.96435970069E+00  0.67894601107E+00  0.90007744752E+02  0.90000006183E+02 0.  0.
         12    1    1    2    0    0 -0.45223141366E-01 -0.96435970069E+00 -0.67894601107E+00  0.11802552481E+01  0.00000000000E+00 0. -1.
         11    1    3    3    0    0 -0.77621473393E+01  0.18381642849E+01  0.56606854074E+01  0.97812646830E+01  0.51100000000E-03 0. -1.
        -11    1    3    3    0    0 -0.30482248968E+02  0.18987292588E+02  0.41035350400E+01  0.36145868118E+02  0.51100000000E-03 0.  1.
         12    1    3    3    0    0  0.38289619448E+02 -0.19861097172E+02 -0.90852744364E+01  0.44080611951E+02  0.00000000000E+00 0. -1.
</event>
<event>
 7    1  0.4096472E-015  0.9000787E+02  0.7816164E-02  0.1186339E+00
        -11   -1    0    0    0    0  0.00000000000E+00  0.00000000000E+00  0.45593999997E+02  0.45594000000E+02  0.51100000000E-03 0. -1.
         11   -1    0    0    0    0 -0.00000000000E+00 -0.00000000000E+00 -0.45593999997E+02  0.45594000000E+02  0.51100000000E-03 0.  1.
    9900012    2    1    2    0    0  0.49720275522E+00 -0.96175172233E+00 -0.46960244525E+00  0.90007871443E+02  0.90000134546E+02 0.  0.
         12    1    1    2    0    0 -0.49720275522E+00  0.96175172233E+00  0.46960244525E+00  0.11801285573E+01  0.00000000000E+00 0. -1.
         11    1    3    3    0    0 -0.78752032184E+01 -0.25041211602E+01 -0.43268139731E+01  0.93279562571E+01  0.51100000000E-03 0. -1.
        -11    1    3    3    0    0  0.10334494402E+02 -0.36644447826E+02 -0.11041702048E+02  0.39642609846E+02  0.51100000000E-03 0.  1.
         12    1    3    3    0    0 -0.19620884281E+01  0.38186817264E+02  0.14898913576E+02  0.41037305339E+02  0.00000000000E+00 0. -1.
</event>
<event>
 7    1  0.4096472E-015  0.9000778E+02  0.7816164E-02  0.1186339E+00
        -11   -1    0    0    0    0  0.00000000000E+00  0.00000000000E+00  0.45593999997E+02  0.45594000000E+02  0.51100000000E-03 0. -1.
         11   -1    0    0    0    0 -0.00000000000E+00 -0.00000000000E+00 -0.45593999997E+02  0.45594000000E+02  0.51100000000E-03 0.  1.
    9900012    2    1    2    0    0  0.46989946420E+00 -0.10257962712E+01  0.34621284673E+00  0.90007776787E+02  0.90000038641E+02 0.  0.
         12    1    1    2    0    0 -0.46989946420E+00  0.10257962712E+01 -0.34621284673E+00  0.11802232127E+01  0.00000000000E+00 0. -1.
         11    1    3    3    0    0 -0.33053910798E+02 -0.27914678745E+02  0.32819839687E+01  0.43388497641E+02  0.51100000000E-03 0. -1.
        -11    1    3    3    0    0 -0.40938432643E+00  0.73587164844E+01 -0.70275718974E+00  0.74035242793E+01  0.51100000000E-03 0.  1.
        -12    1    3    3    0    0  0.33933194589E+02  0.19530165990E+02 -0.22330139323E+01  0.39215754867E+02  0.00000000000E+00 0.  1.
</event>
<event>
 7    1  0.4096472E-015  0.9000760E+02  0.7816164E-02  0.1186339E+00
        -11   -1    0    0    0    0  0.00000000000E+00  0.00000000000E+00  0.45593999997E+02  0.45594000000E+02  0.51100000000E-03 0.  1.
         11   -1    0    0    0    0 -0.00000000000E+00 -0.00000000000E+00 -0.45593999997E+02  0.45594000000E+02  0.51100000000E-03 0. -1.
    9900012    2    1    2    0    0 -0.78032517246E+00  0.60761722787E+00  0.64439038703E+00  0.90007599627E+02  0.89999859142E+02 0.  0.
         12    1    1    2    0    0  0.78032517246E+00 -0.60761722787E+00 -0.64439038703E+00  0.11804003733E+01  0.00000000000E+00 0. -1.
         11    1    3    3    0    0  0.19104649414E+02  0.25917486328E+02 -0.12657739747E+02  0.34596562005E+02  0.51100000000E-03 0. -1.
        -11    1    3    3    0    0  0.18586255109E+01  0.10551246748E+02  0.74897113721E+01  0.13072072270E+02  0.51100000000E-03 0.  1.
        -12    1    3    3    0    0 -0.21743600097E+02 -0.35861115849E+02  0.58124187624E+01  0.42338965351E+02  0.00000000000E+00 0.  1.
</event>
<event>
 7    1  0.4096472E-015  0.9000775E+02  0.7816164E-02  0.1186339E+00
        -11   -1    0    0    0    0  0.00000000000E+00  0.00000000000E+00  0.45593999997E+02  0.45594000000E+02  0.51100000000E-03 0.  1.
         11   -1    0    0    0    0 -0.00000000000E+00 -0.00000000000E+00 -0.45593999997E+02  0.45594000000E+02  0.51100000000E-03 0. -1.
    9900012    2    1    2    0    0  0.39507149800E+00  0.10874105241E+01  0.23332723560E+00  0.90007752257E+02  0.90000013787E+02 0.  0.
         12    1    1    2    0    0 -0.39507149800E+00 -0.10874105241E+01 -0.23332723560E+00  0.11802477432E+01  0.00000000000E+00 0. -1.
         11    1    3    3    0    0  0.34972366703E+02  0.72706482620E+01  0.12105397082E+02  0.37715638636E+02  0.51100000000E-03 0. -1.
        -11    1    3    3    0    0  0.91512157120E+00  0.54564458253E+01  0.81972276235E+01  0.98896304030E+01  0.51100000000E-03 0.  1.
        -12    1    3    3    0    0 -0.35492416776E+02 -0.11639683563E+02 -0.20069297470E+02  0.42402483218E+02  0.00000000000E+00 0.  1.
</event>
<event>
 7    1  0.4096472E-015  0.9000757E+02  0.7816164E-02  0.1186339E+00
        -11   -1    0    0    0    0  0.00000000000E+00  0.00000000000E+00  0.45593999997E+02  0.45594000000E+02  0.51100000000E-03 0. -1.
         11   -1    0    0    0    0 -0.00000000000E+00 -0.00000000000E+00 -0.45593999997E+02  0.45594000000E+02  0.51100000000E-03 0.  1.
    9900012    2    1    2    0    0  0.90061706887E+00  0.35208941421E+00 -0.67700585977E+00  0.90007569996E+02  0.89999829120E+02 0.  0.
         12    1    1    2    0    0 -0.90061706887E+00 -0.35208941421E+00  0.67700585977E+00  0.11804300041E+01  0.00000000000E+00 0. -1.
         11    1    3    3    0    0 -0.13717913923E+01  0.25204236899E+01 -0.98635819654E+01  0.10272516568E+02  0.51100000000E-03 0. -1.
        -11    1    3    3    0    0  0.60607203302E+01  0.22787331089E+02 -0.26852338300E+02  0.35735736477E+02  0.51100000000E-03 0.  1.
         12    1    3    3    0    0 -0.37883118691E+01 -0.24955665365E+02  0.36038914406E+02  0.43999316951E+02  0.00000000000E+00 0. -1.
</event>
<event>
 7    1  0.4096472E-015  0.9000779E+02  0.7816164E-02  0.1186339E+00
        -11   -1    0    0    0    0  0.00000000000E+00  0.00000000000E+00  0.45593999997E+02  0.45594000000E+02  0.51100000000E-03 0.  1.
         11   -1    0    0    0    0 -0.00000000000E+00 -0.00000000000E+00 -0.45593999997E+02  0.45594000000E+02  0.51100000000E-03 0. -1.
    9900012    2    1    2    0    0  0.34018391935E+00  0.90180576403E+00  0.68111490679E+00  0.90007789743E+02  0.90000051767E+02 0.  0.
         12    1    1    2    0    0 -0.34018391935E+00 -0.90180576403E+00 -0.68111490679E+00  0.11802102572E+01  0.00000000000E+00 0. -1.
         11    1    3    3    0    0  0.91327796717E+00 -0.69429195614E+01 -0.87743248054E+01  0.11226174092E+02  0.51100000000E-03 0. -1.
        -11    1    3    3    0    0 -0.19207644874E+02 -0.12291462590E+01  0.38533474432E+02  0.43072880960E+02  0.51100000000E-03 0.  1.
         12    1    3    3    0    0  0.18634550826E+02  0.90738715844E+01 -0.29078034720E+02  0.35708734691E+02  0.00000000000E+00 0. -1.
</event>
<event>
 7    1  0.4096472E-015  0.9000758E+02  0.7816164E-02  0.1186339E+00
        -11   -1    0    0    0    0  0.00000000000E+00  0.00000000000E+00  0.45593999997E+02  0.45594000000E+02  0.51100000000E-03 0. -1.
         11   -1    0    0    0    0 -0.00000000000E+00 -0.00000000000E+00 -0.45593999997E+02  0.45594000000E+02  0.51100000000E-03 0.  1.
    9900012    2    1    2    0    0  0.11162396325E+01 -0.37571430972E+00  0.78923563928E-01  0.90007584358E+02  0.89999843671E+02 0.  0.
         12    1    1    2    0    0 -0.11162396325E+01  0.37571430972E+00 -0.78923563928E-01  0.11804156423E+01  0.00000000000E+00 0. -1.
         11    1    3    3    0    0 -0.28054505852E+02 -0.16747129741E+02  0.18250184832E+02  0.37424469266E+02  0.51100000000E-03 0. -1.
        -11    1    3    3    0    0 -0.15062283381E+01 -0.48762354416E+01  0.61868242594E+01  0.80201739736E+01  0.51100000000E-03 0.  1.
        -12    1    3    3    0    0  0.30676973823E+02  0.21247650873E+02 -0.24358085528E+02  0.44562941118E+02  0.00000000000E+00 0.  1.
</event>
<event>
 7    1  0.4096472E-015  0.9000772E+02  0.7816164E-02  0.1186339E+00
        -11   -1    0    0    0    0  0.00000000000E+00  0.00000000000E+00  0.45593999997E+02  0.45594000000E+02  0.51100000000E-03 0.  1.
         11   -1    0    0    0    0 -0.00000000000E+00 -0.00000000000E+00 -0.45593999997E+02  0.45594000000E+02  0.51100000000E-03 0. -1.
    9900012    2    1    2    0    0 -0.84786188142E-01  0.11619397486E+01  0.18913558507E+00  0.90007718277E+02  0.89999979358E+02 0.  0.
         12    1    1    2    0    0  0.84786188142E-01 -0.11619397486E+01 -0.18913558507E+00  0.11802817235E+01  0.00000000000E+00 0. -1.
         11    1    3    3    0    0  0.36216253536E+02 -0.28580431930E+01 -0.53989669589E+01  0.36727840606E+02  0.51100000000E-03 0. -1.
        -11    1    3    3    0    0  0.72552749501E+01  0.84543248142E+00 -0.43363316549E+01  0.84945596216E+01  0.51100000000E-03 0.  1.
        -12    1    3    3    0    0 -0.43556314674E+02  0.31745504602E+01  0.99244341989E+01  0.44785318049E+02  0.00000000000E+00 0.  1.
</event>
<event>
 7    1  0.4096472E-015  0.9000771E+02  0.7816164E-02  0.1186339E+00
        -11   -1    0    0    0    0  0.00000000000E+00  0.00000000000E+00  0.45593999997E+02  0.45594000000E+02  0.51100000000E-03 0. -1.
         11   -1    0    0    0    0 -0.00000000000E+00 -0.00000000000E+00 -0.45593999997E+02  0.45594000000E+02  0.51100000000E-03 0.  1.
    9900012    2    1    2    0    0 -0.78971016085E+00 -0.82444423944E+00 -0.29956436799E+00  0.90007707980E+02  0.89999968925E+02 0.  0.
         12    1    1    2    0    0  0.78971016085E+00  0.82444423944E+00  0.29956436799E+00  0.11802920201E+01  0.00000000000E+00 0. -1.
         11    1    3    3    0    0  0.77351804717E+01  0.72436701956E+00 -0.17443192861E+01  0.79624352143E+01  0.51100000000E-03 0. -1.
        -11    1    3    3    0    0  0.19840724063E+02 -0.47486748870E+01 -0.32077792494E+02  0.38015641729E+02  0.51100000000E-03 0.  1.
         12    1    3    3    0    0 -0.28365614695E+02  0.31998636281E+01  0.33522547412E+02  0.44029631037E+02  0.00000000000E+00 0. -1.
</event>
<event>
 7    1  0.4096472E-015  0.9000773E+02  0.7816164E-02  0.1186339E+00
        -11   -1    0    0    0    0  0.00000000000E+00  0.00000000000E+00  0.45593999997E+02  0.45594000000E+02  0.51100000000E-03 0.  1.
         11   -1    0    0    0    0 -0.00000000000E+00 -0.00000000000E+00 -0.45593999997E+02  0.45594000000E+02  0.51100000000E-03 0. -1.
    9900012    2    1    2    0    0 -0.50052627447E+00 -0.38351741695E+00  0.99770724445E+00  0.90007732274E+02  0.89999993540E+02 0.  0.
         12    1    1    2    0    0  0.50052627447E+00  0.38351741695E+00 -0.99770724445E+00  0.11802677265E+01  0.00000000000E+00 0. -1.
         11    1    3    3    0    0  0.89263124458E+01 -0.54554350352E+01 -0.19511031244E+01  0.10641786925E+02  0.51100000000E-03 0. -1.
        -11    1    3    3    0    0  0.23371968917E+02  0.13176051798E+02  0.26868279658E+02  0.37970537580E+02  0.51100000000E-03 0.  1.
         12    1    3    3    0    0 -0.32798807637E+02 -0.81041341797E+01 -0.23919469289E+02  0.41395407768E+02  0.00000000000E+00 0. -1.
</event>
<event>
 7    1  0.4096472E-015  0.9000755E+02  0.7816164E-02  0.1186339E+00
        -11   -1    0    0    0    0  0.00000000000E+00  0.00000000000E+00  0.45593999997E+02  0.45594000000E+02  0.51100000000E-03 0.  1.
         11   -1    0    0    0    0 -0.00000000000E+00 -0.00000000000E+00 -0.45593999997E+02  0.45594000000E+02  0.51100000000E-03 0. -1.
    9900012    2    1    2    0    0 -0.97679819006E+00 -0.23963552162E+00  0.61798431991E+00  0.90007549024E+02  0.89999807871E+02 0.  0.
         12    1    1    2    0    0  0.97679819006E+00  0.23963552162E+00 -0.61798431991E+00  0.11804509761E+01  0.00000000000E+00 0. -1.
         11    1    3    3    0    0  0.91646858438E+01 -0.11495334675E+02 -0.35433983424E+02  0.38362760165E+02  0.51100000000E-03 0. -1.
        -11    1    3    3    0    0  0.90125718499E+01 -0.10710524966E+01  0.90354406543E-01  0.90764403254E+01  0.51100000000E-03 0.  1.
        -12    1    3    3    0    0 -0.19154055884E+02  0.12326751650E+02  0.35961613337E+02  0.42568348534E+02  0.00000000000E+00 0.  1.
</event>
<event>
 7    1  0.4096472E-015  0.9000769E+02  0.7816164E-02  0.1186339E+00
        -11   -1    0    0    0    0  0.00000000000E+00  0.00000000000E+00  0.45593999997E+02  0.45594000000E+02  0.51100000000E-03 0.  1.
         11   -1    0    0    0    0 -0.00000000000E+00 -0.00000000000E+00 -0.45593999997E+02  0.45594000000E+02  0.51100000000E-03 0. -1.
    9900012    2    1    2    0    0  0.96071996807E+00 -0.68216902022E+00  0.69156369573E-01  0.90007694941E+02  0.89999955714E+02 0.  0.
         12    1    1    2    0    0 -0.96071996807E+00  0.68216902022E+00 -0.69156369573E-01  0.11803050592E+01  0.00000000000E+00 0. -1.
         11    1    3    3    0    0  0.61448580963E+01 -0.60527929018E+01 -0.30157844048E+00  0.86305580789E+01  0.51100000000E-03 0. -1.
        -11    1    3    3    0    0 -0.20220005765E+02  0.17736687211E+02  0.33493799315E+02  0.42956644412E+02  0.51100000000E-03 0.  1.
         12    1    3    3    0    0  0.15035867636E+02 -0.12366063329E+02 -0.33123064505E+02  0.38420492450E+02  0.00000000000E+00 0. -1.
</event>
<event>
 7    1  0.4096472E-015  0.9000774E+02  0.7816164E-02  0.1186339E+00
        -11   -1    0    0    0    0  0.00000000000E+00  0.00000000000E+00  0.45593999997E+02  0.45594000000E+02  0.51100000000E-03 0.  1.
         11   -1    0    0    0    0 -0.00000000000E+00 -0.00000000000E+00 -0.45593999997E+02  0.45594000000E+02  0.51100000000E-03 0. -1.
    9900012    2    1    2    0    0  0.68327818938E+00  0.93059014593E+00 -0.24522427279E+00  0.90007744923E+02  0.90000006356E+02 0.  0.
         12    1    1    2    0    0 -0.68327818938E+00 -0.93059014593E+00  0.24522427279E+00  0.11802550774E+01  0.00000000000E+00 0. -1.
         11    1    3    3    0    0  0.61596322183E+01 -0.66707249545E+01 -0.15122655051E+02  0.17639000440E+02  0.51100000000E-03 0. -1.
        -11    1    3    3    0    0 -0.20156163465E+02 -0.26607128145E+02  0.98689496726E+01  0.34808136429E+02  0.51100000000E-03 0.  1.
         12    1    3    3    0    0  0.14679809437E+02  0.34208443245E+02  0.50084811052E+01  0.37560608053E+02  0.00000000000E+00 0. -1.
</event>
<event>
 7    1  0.4096472E-015  0.9000776E+02  0.7816164E-02  0.1186339E+00
        -11   -1    0    0    0    0  0.00000000000E+00  0.00000000000E+00  0.45593999997E+02  0.45594000000E+02  0.51100000000E-03 0. -1.
         11   -1    0    0    0    0 -0.00000000000E+00 -0.00000000000E+00 -0.45593999997E+02  0.45594000000E+02  0.51100000000E-03 0.  1.
    9900012    2    1    2    0    0 -0.78093484852E+00 -0.69820042059E+00 -0.54371699752E+00  0.90007757975E+02  0.90000019580E+02 0.  0.
         12    1    1    2    0    0  0.78093484852E+00  0.69820042059E+00  0.54371699752E+00  0.11802420253E+01  0.00000000000E+00 0. -1.
         11    1    3    3    0    0  0.11059803993E+02  0.29113784651E+02  0.20551257905E+02  0.37313347784E+02  0.51100000000E-03 0. -1.
        -11    1    3    3    0    0  0.90812381663E+01 -0.25477453680E+01  0.38929308776E+01  0.10203666212E+02  0.51100000000E-03 0.  1.
        -12    1    3    3    0    0 -0.20921977008E+02 -0.27264239704E+02 -0.24987905780E+02  0.42490743978E+02  0.00000000000E+00 0.  1.
</event>
<event>
 7    1  0.4096472E-015  0.9000777E+02  0.7816164E-02  0.1186339E+00
        -11   -1    0    0    0    0  0.00000000000E+00  0.00000000000E+00  0.45593999997E+02  0.45594000000E+02  0.51100000000E-03 0. -1.
         11   -1    0    0    0    0 -0.00000000000E+00 -0.00000000000E+00 -0.45593999997E+02  0.45594000000E+02  0.51100000000E-03 0.  1.
    9900012    2    1    2    0    0  0.82664654527E+00  0.56005498597E-01 -0.84051637579E+00  0.90007767436E+02  0.90000029166E+02 0.  0.
         12    1    1    2    0    0 -0.82664654527E+00 -0.56005498597E-01  0.84051637579E+00  0.11802325638E+01  0.00000000000E+00 0. -1.
         11    1    3    3    0    0  0.50320778414E+01  0.58630506944E+01 -0.58965945284E+01  0.97194134669E+01  0.51100000000E-03 0. -1.
        -11    1    3    3    0    0 -0.38582422443E+02  0.10971009062E+02 -0.57898637832E+01  0.40527631121E+02  0.51100000000E-03 0.  1.
         12    1    3    3    0    0  0.34376991147E+02 -0.16778054257E+02  0.10845941936E+02  0.39760722848E+02  0.00000000000E+00 0. -1.
</event>
<event>
 7    1  0.4096472E-015  0.9000775E+02  0.7816164E-02  0.1186339E+00
        -11   -1    0    0    0    0  0.00000000000E+00  0.00000000000E+00  0.45593999997E+02  0.45594000000E+02  0.51100000000E-03 0.  1.
         11   -1    0    0    0    0 -0.00000000000E+00 -0.00000000000E+00 -0.45593999997E+02  0.45594000000E+02  0.51100000000E-03 0. -1.
    9900012    2    1    2    0    0 -0.73601231680E+00  0.82192675013E+00 -0.41919298463E+00  0.90007745590E+02  0.90000007032E+02 0.  0.
         12    1    1    2    0    0  0.73601231680E+00 -0.82192675013E+00  0.41919298463E+00  0.11802544096E+01  0.00000000000E+00 0. -1.
         11    1    3    3    0    0  0.15964978450E+02  0.37145717530E+02 -0.15861191368E+02  0.43431120865E+02  0.51100000000E-03 0. -1.
        -11    1    3    3    0    0  0.74351179412E+00 -0.27256329974E+01  0.73365079823E+01  0.78616941343E+01  0.51100000000E-03 0.  1.
        -12    1    3    3    0    0 -0.17444502561E+02 -0.33598157783E+02  0.81054904007E+01  0.38714930591E+02  0.00000000000E+00 0.  1.
</event>
<event>
 7    1  0.4096472E-015  0.9000782E+02  0.7816164E-02  0.1186339E+00
        -11   -1    0    0    0    0  0.00000000000E+00  0.00000000000E+00  0.45593999997E+02  0.45594000000E+02  0.51100000000E-03 0.  1.
         11   -1    0    0    0    0 -0.00000000000E+00 -0.00000000000E+00 -0.45593999997E+02  0.45594000000E+02  0.51100000000E-03 0. -1.
    9900012    2    1    2    0    0  0.53251596629E+00 -0.10051516285E+01  0.31452590863E+00  0.90007817981E+02  0.90000080378E+02 0.  0.
         12    1    1    2    0    0 -0.53251596629E+00  0.10051516285E+01 -0.31452590863E+00  0.11801820190E+01  0.00000000000E+00 0. -1.
         11    1    3    3    0    0 -0.22028066955E+01 -0.91233492878E+01  0.23524536431E+01  0.96758409438E+01  0.51100000000E-03 0. -1.
        -11    1    3    3    0    0 -0.91766311889E+01  0.40473603993E+02  0.11853086683E+02  0.43160385127E+02  0.51100000000E-03 0.  1.
         12    1    3    3    0    0  0.11911953851E+02 -0.32355406334E+02 -0.13891014418E+02  0.37171591910E+02  0.00000000000E+00 0. -1.
</event>
<event>
 7    1  0.4096472E-015  0.9000753E+02  0.7816164E-02  0.1186339E+00
        -11   -1    0    0    0    0  0.00000000000E+00  0.00000000000E+00  0.45593999997E+02  0.45594000000E+02  0.51100000000E-03 0. -1.
         11   -1    0    0    0    0 -0.00000000000E+00 -0.00000000000E+00 -0.45593999997E+02  0.45594000000E+02  0.51100000000E-03 0.  1.
    9900012    2    1    2    0    0  0.10491590096E+01  0.21249616448E+00 -0.49762453813E+00  0.90007525761E+02  0.89999784301E+02 0.  0.
         12    1    1    2    0    0 -0.10491590096E+01 -0.21249616448E+00  0.49762453813E+00  0.11804742387E+01  0.00000000000E+00 0. -1.
         11    1    3    3    0    0 -0.61912173344E+01 -0.43305827361E+01  0.52489872573E+01  0.91998362162E+01  0.51100000000E-03 0. -1.
        -11    1    3    3    0    0  0.40375605972E+02  0.20243683192E+01  0.13235096008E+02  0.42537693770E+02  0.51100000000E-03 0.  1.
         12    1    3    3    0    0 -0.33135229628E+02  0.25187105813E+01 -0.18981707803E+02  0.38269995775E+02  0.00000000000E+00 0. -1.
</event>
<event>
 7    1  0.4096472E-015  0.9000775E+02  0.7816164E-02  0.1186339E+00
        -11   -1    0    0    0    0  0.00000000000E+00  0.00000000000E+00  0.45593999997E+02  0.45594000000E+02  0.51100000000E-03 0. -1.
         11   -1    0    0    0    0 -0.00000000000E+00 -0.00000000000E+00 -0.45593999997E+02  0.45594000000E+02  0.51100000000E-03 0.  1.
    9900012    2    1    2    0    0 -0.90605630182E+00  0.42538374041E+00 -0.62537868013E+00  0.90007750941E+02  0.90000012453E+02 0.  0.
         12    1    1    2    0    0  0.90605630182E+00 -0.42538374041E+00  0.62537868013E+00  0.11802490594E+01  0.00000000000E+00 0. -1.
         11    1    3    3    0    0  0.13144227247E+02 -0.12724729272E+02  0.96439624071E+01  0.20680799214E+02  0.51100000000E-03 0. -1.
        -11    1    3    3    0    0 -0.36344170394E+02 -0.86191871709E+01 -0.69205109643E+01  0.37987926784E+02  0.51100000000E-03 0.  1.
         12    1    3    3    0    0  0.22293886845E+02  0.21769300183E+02 -0.33488301229E+01  0.31339024942E+02  0.00000000000E+00 0. -1.
</event>
<event>
 7    1  0.4096472E-015  0.9000763E+02  0.7816164E-02  0.1186339E+00
        -11   -1    0    0    0    0  0.00000000000E+00  0.00000000000E+00  0.45593999997E+02  0.45594000000E+02  0.51100000000E-03 0.  1.
         11   -1    0    0    0    0 -0.00000000000E+00 -0.00000000000E+00 -0.45593999997E+02  0.45594000000E+02  0.51100000000E-03 0. -1.
    9900012    2    1    2    0    0 -0.10563944613E+01 -0.45985970090E+00 -0.25656046708E+00  0.90007634177E+02  0.89999894148E+02 0.  0.
         12    1    1    2    0    0  0.10563944613E+01  0.45985970090E+00  0.25656046708E+00  0.11803658228E+01  0.00000000000E+00 0. -1.
         11    1    3    3    0    0  0.83863257265E+01  0.92302758894E+01 -0.54475645357E+01  0.13608982762E+02  0.51100000000E-03 0. -1.
        -11    1    3    3    0    0  0.31355220038E+01 -0.39468904528E+02 -0.97659115570E+01  0.40779884155E+02  0.51100000000E-03 0.  1.
         12    1    3    3    0    0 -0.12578242192E+02  0.29778768938E+02  0.14956915626E+02  0.35618767260E+02  0.00000000000E+00 0. -1.
</event>
<event>
 7    1  0.4096472E-015  0.9000744E+02  0.7816164E-02  0.1186340E+00
        -11   -1    0    0    0    0  0.00000000000E+00  0.00000000000E+00  0.45593999997E+02  0.45594000000E+02  0.51100000000E-03 0.  1.
         11   -1    0    0    0    0 -0.00000000000E+00 -0.00000000000E+00 -0.45593999997E+02  0.45594000000E+02  0.51100000000E-03 0. -1.
    9900012    2    1    2    0    0 -0.11789133760E+01 -0.26530580613E-02 -0.62293126639E-01  0.90007439023E+02  0.89999696418E+02 0.  0.
         12    1    1    2    0    0  0.11789133760E+01  0.26530580613E-02  0.62293126639E-01  0.11805609770E+01  0.00000000000E+00 0. -1.
         11    1    3    3    0    0  0.13176797603E+02 -0.11067944422E+01 -0.30186819628E+02  0.32955986839E+02  0.51100000000E-03 0. -1.
        -11    1    3    3    0    0 -0.72373888057E+01 -0.87041237088E+01 -0.10019941101E+02  0.15117565485E+02  0.51100000000E-03 0.  1.
        -12    1    3    3    0    0 -0.71183221737E+01  0.98082650929E+01  0.40144467602E+02  0.41933886700E+02  0.00000000000E+00 0.  1.
</event>
<event>
 7    1  0.4096472E-015  0.9000743E+02  0.7816164E-02  0.1186340E+00
        -11   -1    0    0    0    0  0.00000000000E+00  0.00000000000E+00  0.45593999997E+02  0.45594000000E+02  0.51100000000E-03 0. -1.
         11   -1    0    0    0    0 -0.00000000000E+00 -0.00000000000E+00 -0.45593999997E+02  0.45594000000E+02  0.51100000000E-03 0.  1.
    9900012    2    1    2    0    0  0.48469512291E+00  0.34485962419E+00 -0.10197485911E+01  0.90007430344E+02  0.89999687624E+02 0.  0.
         12    1    1    2    0    0 -0.48469512291E+00 -0.34485962419E+00  0.10197485911E+01  0.11805696556E+01  0.00000000000E+00 0. -1.
         11    1    3    3    0    0 -0.16643085543E+01 -0.13930511433E+02 -0.22169161784E+02  0.26235487535E+02  0.51100000000E-03 0. -1.
        -11    1    3    3    0    0  0.21176688770E+02  0.28759805981E+02  0.84735641039E+01  0.36706673456E+02  0.51100000000E-03 0.  1.
         12    1    3    3    0    0 -0.19027685093E+02 -0.14484434924E+02  0.12675849089E+02  0.27065269354E+02  0.00000000000E+00 0. -1.
</event>
<event>
 7    1  0.4096472E-015  0.9000773E+02  0.7816164E-02  0.1186339E+00
        -11   -1    0    0    0    0  0.00000000000E+00  0.00000000000E+00  0.45593999997E+02  0.45594000000E+02  0.51100000000E-03 0.  1.
         11   -1    0    0    0    0 -0.00000000000E+00 -0.00000000000E+00 -0.45593999997E+02  0.45594000000E+02  0.51100000000E-03 0. -1.
    9900012    2    1    2    0    0 -0.18919129142E+00 -0.88572688572E+00  0.75678824418E+00  0.90007731426E+02  0.89999992681E+02 0.  0.
         12    1    1    2    0    0  0.18919129142E+00  0.88572688572E+00 -0.75678824418E+00  0.11802685742E+01  0.00000000000E+00 0. -1.
         11    1    3    3    0    0  0.35114162986E+01 -0.12336170123E+02  0.11572489578E+02  0.17275232358E+02  0.51100000000E-03 0. -1.
        -11    1    3    3    0    0 -0.13767245151E+02 -0.27935214843E+02 -0.25394279717E+01  0.31246791228E+02  0.51100000000E-03 0.  1.
         12    1    3    3    0    0  0.10066637561E+02  0.39385658080E+02 -0.82762733621E+01  0.41485707840E+02  0.00000000000E+00 0. -1.
</event>
<event>
 7    1  0.4096472E-015  0.9000769E+02  0.7816164E-02  0.1186339E+00
        -11   -1    0    0    0    0  0.00000000000E+00  0.00000000000E+00  0.45593999997E+02  0.45594000000E+02  0.51100000000E-03 0.  1.
         11   -1    0    0    0    0 -0.00000000000E+00 -0.00000000000E+00 -0.45593999997E+02  0.45594000000E+02  0.51100000000E-03 0. -1.
    9900012    2    1    2    0    0  0.11598472585E+01 -0.19072798604E+00  0.10731148139E+00  0.90007687083E+02  0.89999947753E+02 0.  0.
         12    1    1    2    0    0 -0.11598472585E+01  0.19072798604E+00 -0.10731148139E+00  0.11803129169E+01  0.00000000000E+00 0. -1.
         11    1    3    3    0    0 -0.12706020031E+01 -0.85993764204E+01 -0.64967256945E+01  0.10852241671E+02  0.51100000000E-03 0. -1.
        -11    1    3    3    0    0 -0.30402538274E+02 -0.16631267935E+02  0.13689785635E+02  0.37260215212E+02  0.51100000000E-03 0.  1.
         12    1    3    3    0    0  0.32832987536E+02  0.25039916370E+02 -0.70857484595E+01  0.41895230200E+02  0.00000000000E+00 0. -1.
</event>
<event>
 7    1  0.4096472E-015  0.9000776E+02  0.7816164E-02  0.1186339E+00
        -11   -1    0    0    0    0  0.00000000000E+00  0.00000000000E+00  0.45593999997E+02  0.45594000000E+02  0.51100000000E-03 0.  1.
         11   -1    0    0    0    0 -0.00000000000E+00 -0.00000000000E+00 -0.45593999997E+02  0.45594000000E+02  0.51100000000E-03 0. -1.
    9900012    2    1    2    0    0  0.10490628247E+01 -0.21676562203E-01  0.54033170669E+00  0.90007762296E+02  0.90000023959E+02 0.  0.
         12    1    1    2    0    0 -0.10490628247E+01  0.21676562203E-01 -0.54033170669E+00  0.11802377035E+01  0.00000000000E+00 0. -1.
         11    1    3    3    0    0 -0.98175108921E+01 -0.32838586500E+02 -0.25395601800E+02  0.42657858297E+02  0.51100000000E-03 0. -1.
        -11    1    3    3    0    0 -0.42628035256E+01  0.32382278430E+01  0.79103802658E+01  0.95515302267E+01  0.51100000000E-03 0.  1.
        -12    1    3    3    0    0  0.15129377242E+02  0.29578682095E+02  0.18025553241E+02  0.37798373773E+02  0.00000000000E+00 0.  1.
</event>
<event>
 7    1  0.4096472E-015  0.9000778E+02  0.7816164E-02  0.1186339E+00
        -11   -1    0    0    0    0  0.00000000000E+00  0.00000000000E+00  0.45593999997E+02  0.45594000000E+02  0.51100000000E-03 0. -1.
         11   -1    0    0    0    0 -0.00000000000E+00 -0.00000000000E+00 -0.45593999997E+02  0.45594000000E+02  0.51100000000E-03 0.  1.
    9900012    2    1    2    0    0  0.91141966453E+00  0.71234899007E+00 -0.23409471197E+00  0.90007776622E+02  0.90000038473E+02 0.  0.
         12    1    1    2    0    0 -0.91141966453E+00 -0.71234899007E+00  0.23409471197E+00  0.11802233783E+01  0.00000000000E+00 0. -1.
         11    1    3    3    0    0 -0.43519356952E+01 -0.10841176978E+02  0.33523925994E+02  0.35501043322E+02  0.51100000000E-03 0. -1.
        -11    1    3    3    0    0 -0.55205647385E+01  0.64901541203E+00  0.81588279971E+01  0.98724024728E+01  0.51100000000E-03 0.  1.
        -12    1    3    3    0    0  0.10783920098E+02  0.10904510557E+02 -0.41916848704E+02  0.44634330827E+02  0.00000000000E+00 0.  1.
</event>
<event>
 7    1  0.4096472E-015  0.9000774E+02  0.7816164E-02  0.1186339E+00
        -11   -1    0    0    0    0  0.00000000000E+00  0.00000000000E+00  0.45593999997E+02  0.45594000000E+02  0.51100000000E-03 0.  1.
         11   -1    0    0    0    0 -0.00000000000E+00 -0.00000000000E+00 -0.45593999997E+02  0.45594000000E+02  0.51100000000E-03 0. -1.
    9900012    2    1    2    0    0  0.85793353219E+00 -0.78674560916E+00  0.19494580098E+00  0.90007736273E+02  0.89999997592E+02 0.  0.
         12    1    1    2    0    0 -0.85793353219E+00  0.78674560916E+00 -0.19494580098E+00  0.11802637267E+01  0.00000000000E+00 0. -1.
         11    1    3    3    0    0 -0.46272788819E+00 -0.54282013589E+01 -0.80554960866E+01  0.97247367344E+01  0.51100000000E-03 0. -1.
        -11    1    3    3    0    0  0.30817653414E+02 -0.21312872096E+02  0.15105029687E+02  0.40399606447E+02  0.51100000000E-03 0.  1.
         12    1    3    3    0    0 -0.29496991994E+02  0.25954327846E+02 -0.68545877997E+01  0.39883393092E+02  0.00000000000E+00 0. -1.
</event>
<event>
 7    1  0.4096472E-015  0.9000856E+02  0.7816164E-02  0.1186337E+00
        -11   -1    0    0    0    0  0.00000000000E+00  0.00000000000E+00  0.45593999997E+02  0.45594000000E+02  0.51100000000E-03 0. -1.
         11   -1    0    0    0    0 -0.00000000000E+00 -0.00000000000E+00 -0.45593999997E+02  0.45594000000E+02  0.51100000000E-03 0.  1.
    9900012    2    1    2    0    0  0.35339785094E+00 -0.17907100255E+00 -0.11109128663E+01  0.90008557818E+02  0.90000829977E+02 0.  0.
         12    1    1    2    0    0 -0.35339785094E+00  0.17907100255E+00  0.11109128663E+01  0.11794421824E+01  0.00000000000E+00 0. -1.
         11    1    3    3    0    0  0.21609058912E+01  0.30241362648E+01 -0.94757307506E+01  0.10178624069E+02  0.51100000000E-03 0. -1.
        -11    1    3    3    0    0 -0.47939700423E+01  0.14639728813E+02 -0.32044952842E+02  0.35555348562E+02  0.51100000000E-03 0.  1.
         12    1    3    3    0    0  0.29864620020E+01 -0.17842936080E+02  0.40409770726E+02  0.44274585186E+02  0.00000000000E+00 0. -1.
</event>
<event>
 7    1  0.4096472E-015  0.9000760E+02  0.7816164E-02  0.1186339E+00
        -11   -1    0    0    0    0  0.00000000000E+00  0.00000000000E+00  0.45593999997E+02  0.45594000000E+02  0.51100000000E-03 0. -1.
         11   -1    0    0    0    0 -0.00000000000E+00 -0.00000000000E+00 -0.45593999997E+02  0.45594000000E+02  0.51100000000E-03 0.  1.
    9900012    2    1    2    0    0  0.81800705477E+00  0.12367996703E+00 -0.84197160355E+00  0.90007598180E+02  0.89999857676E+02 0.  0.
         12    1    1    2    0    0 -0.81800705477E+00 -0.12367996703E+00  0.84197160355E+00  0.11804018202E+01  0.00000000000E+00 0. -1.
         11    1    3    3    0    0 -0.46709387345E+01 -0.34933494246E+02  0.71321081940E+01  0.35958777182E+02  0.51100000000E-03 0. -1.
        -11    1    3    3    0    0  0.29823087224E+01 -0.88531699176E+01 -0.28638795388E+01  0.97711099257E+01  0.51100000000E-03 0.  1.
        -12    1    3    3    0    0  0.25066370669E+01  0.43910344131E+02 -0.51102002587E+01  0.44277711072E+02  0.00000000000E+00 0.  1.
</event>
<event>
 7    1  0.4096472E-015  0.9000784E+02  0.7816164E-02  0.1186339E+00
        -11   -1    0    0    0    0  0.00000000000E+00  0.00000000000E+00  0.45593999997E+02  0.45594000000E+02  0.51100000000E-03 0. -1.
         11   -1    0    0    0    0 -0.00000000000E+00 -0.00000000000E+00 -0.45593999997E+02  0.45594000000E+02  0.51100000000E-03 0.  1.
    9900012    2    1    2    0    0  0.10818000733E+01  0.10532106074E+00 -0.45978781884E+00  0.90007835282E+02  0.90000097907E+02 0.  0.
         12    1    1    2    0    0 -0.10818000733E+01 -0.10532106074E+00  0.45978781884E+00  0.11801647185E+01  0.00000000000E+00 0. -1.
         11    1    3    3    0    0 -0.86737408919E+00  0.36368362194E+02 -0.70668151119E+01  0.37058736927E+02  0.51100000000E-03 0. -1.
        -11    1    3    3    0    0 -0.16860520931E+01 -0.10541164374E+01 -0.12546500131E+02  0.12703094069E+02  0.51100000000E-03 0.  1.
        -12    1    3    3    0    0  0.36352262555E+01 -0.35208924696E+02  0.19153527424E+02  0.40246004286E+02  0.00000000000E+00 0.  1.
</event>
<event>
 7    1  0.4096472E-015  0.9000774E+02  0.7816164E-02  0.1186339E+00
        -11   -1    0    0    0    0  0.00000000000E+00  0.00000000000E+00  0.45593999997E+02  0.45594000000E+02  0.51100000000E-03 0.  1.
         11   -1    0    0    0    0 -0.00000000000E+00 -0.00000000000E+00 -0.45593999997E+02  0.45594000000E+02  0.51100000000E-03 0. -1.
    9900012    2    1    2    0    0 -0.98403290798E+00 -0.64841732154E+00 -0.65169604064E-01  0.90007740340E+02  0.90000001713E+02 0.  0.
         12    1    1    2    0    0  0.98403290798E+00  0.64841732154E+00  0.65169604064E-01  0.11802596596E+01  0.00000000000E+00 0. -1.
         11    1    3    3    0    0  0.57168787999E+01  0.87878316729E+01  0.38003131051E+00  0.10490620229E+02  0.51100000000E-03 0. -1.
        -11    1    3    3    0    0 -0.14154598667E+02 -0.25360437693E+02  0.31628556802E+02  0.42940308208E+02  0.51100000000E-03 0.  1.
         12    1    3    3    0    0  0.74536869589E+01  0.15924188698E+02 -0.32073757717E+02  0.36576811904E+02  0.00000000000E+00 0. -1.
</event>
<event>
 7    1  0.4096472E-015  0.9000812E+02  0.7816164E-02  0.1186338E+00
        -11   -1    0    0    0    0  0.00000000000E+00  0.00000000000E+00  0.45593999997E+02  0.45594000000E+02  0.51100000000E-03 0.  1.
         11   -1    0    0    0    0 -0.00000000000E+00 -0.00000000000E+00 -0.45593999997E+02  0.45594000000E+02  0.51100000000E-03 0. -1.
    9900012    2    1    2    0    0  0.10068284161E+01 -0.59470438586E+00  0.15727512324E+00  0.90008121943E+02  0.90000388351E+02 0.  0.
         12    1    1    2    0    0 -0.10068284161E+01  0.59470438586E+00 -0.15727512324E+00  0.11798780574E+01  0.00000000000E+00 0. -1.
         11    1    3    3    0    0 -0.65287893353E+01  0.22432815852E+01 -0.31678478873E+01  0.75955686393E+01  0.51100000000E-03 0. -1.
        -11    1    3    3    0    0 -0.14563769275E+02  0.30281869422E+02 -0.17056524115E+02  0.37683152818E+02  0.51100000000E-03 0.  1.
         12    1    3    3    0    0  0.22099387027E+02 -0.33119855393E+02  0.20381647126E+02  0.44729400485E+02  0.00000000000E+00 0. -1.
</event>
<event>
 7    1  0.4096472E-015  0.9000771E+02  0.7816164E-02  0.1186339E+00
        -11   -1    0    0    0    0  0.00000000000E+00  0.00000000000E+00  0.45593999997E+02  0.45594000000E+02  0.51100000000E-03 0.  1.
         11   -1    0    0    0    0 -0.00000000000E+00 -0.00000000000E+00 -0.45593999997E+02  0.45594000000E+02  0.51100000000E-03 0. -1.
    9900012    2    1    2    0    0  0.20135373069E+00 -0.46204046985E+00  0.10672686685E+01  0.90007708878E+02  0.89999969836E+02 0.  0.
         12    1    1    2    0    0 -0.20135373069E+00  0.46204046985E+00 -0.10672686685E+01  0.11802911215E+01  0.00000000000E+00 0. -1.
         11    1    3    3    0    0 -0.61857314102E+01 -0.17349584351E+00  0.62957793297E+01  0.88278089873E+01  0.51100000000E-03 0. -1.
        -11    1    3    3    0    0  0.36416739545E+02  0.13928432030E+02  0.15568383563E+02  0.41982790581E+02  0.51100000000E-03 0.  1.
         12    1    3    3    0    0 -0.30029654405E+02 -0.14216976657E+02 -0.20796894224E+02  0.39197109310E+02  0.00000000000E+00 0. -1.
</event>
<event>
 7    1  0.4096472E-015  0.9000791E+02  0.7816164E-02  0.1186339E+00
        -11   -1    0    0    0    0  0.00000000000E+00  0.00000000000E+00  0.45593999997E+02  0.45594000000E+02  0.51100000000E-03 0. -1.
         11   -1    0    0    0    0 -0.00000000000E+00 -0.00000000000E+00 -0.45593999997E+02  0.45594000000E+02  0.51100000000E-03 0.  1.
    9900012    2    1    2    0    0 -0.55522030366E+00 -0.10226359367E+01  0.19638509676E+00  0.90007906380E+02  0.90000169945E+02 0.  0.
         12    1    1    2    0    0  0.55522030366E+00  0.10226359367E+01 -0.19638509676E+00  0.11800936196E+01  0.00000000000E+00 0. -1.
         11    1    3    3    0    0 -0.19663531946E+02  0.13364624733E+02  0.30369942535E+01  0.23968542242E+02  0.51100000000E-03 0. -1.
        -11    1    3    3    0    0 -0.22513039893E+02 -0.59419312938E+01 -0.36141194590E+01  0.23562796363E+02  0.51100000000E-03 0.  1.
         12    1    3    3    0    0  0.41621351535E+02 -0.84453293761E+01  0.77351030232E+00  0.42476567776E+02  0.00000000000E+00 0. -1.
</event>
<event>
 7    1  0.4096472E-015  0.9000781E+02  0.7816164E-02  0.1186339E+00
        -11   -1    0    0    0    0  0.00000000000E+00  0.00000000000E+00  0.45593999997E+02  0.45594000000E+02  0.51100000000E-03 0. -1.
         11   -1    0    0    0    0 -0.00000000000E+00 -0.00000000000E+00 -0.45593999997E+02  0.45594000000E+02  0.51100000000E-03 0.  1.
    9900012    2    1    2    0    0 -0.11349971437E+01 -0.32045029439E+00 -0.44062819062E-01  0.90007809999E+02  0.90000072291E+02 0.  0.
         12    1    1    2    0    0  0.11349971437E+01  0.32045029439E+00  0.44062819062E-01  0.11801900014E+01  0.00000000000E+00 0. -1.
         11    1    3    3    0    0 -0.81264477208E+01  0.94629963596E+01 -0.45232923134E+01  0.13268294023E+02  0.51100000000E-03 0. -1.
        -11    1    3    3    0    0  0.81882771187E+01  0.23561689573E+02 -0.22682717760E+02  0.33715082425E+02  0.51100000000E-03 0.  1.
         12    1    3    3    0    0 -0.11968265415E+01 -0.33345136227E+02  0.27161947254E+02  0.43024433551E+02  0.00000000000E+00 0. -1.
</event>
<event>
 7    1  0.4096472E-015  0.9000796E+02  0.7816164E-02  0.1186339E+00
        -11   -1    0    0    0    0  0.00000000000E+00  0.00000000000E+00  0.45593999997E+02  0.45594000000E+02  0.51100000000E-03 0. -1.
         11   -1    0    0    0    0 -0.00000000000E+00 -0.00000000000E+00 -0.45593999997E+02  0.45594000000E+02  0.51100000000E-03 0.  1.
    9900012    2    1    2    0    0  0.33548052039E+00  0.11311072468E+01 -0.23410560279E-01  0.90007958120E+02  0.90000222367E+02 0.  0.
         12    1    1    2    0    0 -0.33548052039E+00 -0.11311072468E+01  0.23410560279E-01  0.11800418796E+01  0.00000000000E+00 0. -1.
         11    1    3    3    0    0 -0.29628998625E+02  0.77366841944E+00  0.11821648111E+02  0.31909677006E+02  0.51100000000E-03 0. -1.
        -11    1    3    3    0    0 -0.24637311315E+01 -0.16534488237E+02 -0.13513989882E+02  0.21496213507E+02  0.51100000000E-03 0.  1.
         12    1    3    3    0    0  0.32428210277E+02  0.16891927065E+02  0.16689312111E+01  0.36602067607E+02  0.00000000000E+00 0. -1.
</event>
<event>
 7    1  0.4096472E-015  0.9000791E+02  0.7816164E-02  0.1186339E+00
        -11   -1    0    0    0    0  0.00000000000E+00  0.00000000000E+00  0.45593999997E+02  0.45594000000E+02  0.51100000000E-03 0.  1.
         11   -1    0    0    0    0 -0.00000000000E+00 -0.00000000000E+00 -0.45593999997E+02  0.45594000000E+02  0.51100000000E-03 0. -1.
    9900012    2    1    2    0    0  0.78479020009E-01 -0.41334972134E+00  0.11025382210E+01  0.90007912089E+02  0.90000175729E+02 0.  0.
         12    1    1    2    0    0 -0.78479020009E-01  0.41334972134E+00 -0.11025382210E+01  0.11800879109E+01  0.00000000000E+00 0. -1.
         11    1    3    3    0    0 -0.27661653640E+02  0.22599318907E+02 -0.16021508764E+02  0.39148244412E+02  0.51100000000E-03 0. -1.
        -11    1    3    3    0    0 -0.61107722794E+01 -0.31135873419E+01  0.80182037427E+01  0.10551187398E+02  0.51100000000E-03 0.  1.
        -12    1    3    3    0    0  0.33850904940E+02 -0.19899081287E+02  0.91058432421E+01  0.40308480279E+02  0.00000000000E+00 0.  1.
</event>
<event>
 7    1  0.4096472E-015  0.9000762E+02  0.7816164E-02  0.1186339E+00
        -11   -1    0    0    0    0  0.00000000000E+00  0.00000000000E+00  0.45593999997E+02  0.45594000000E+02  0.51100000000E-03 0. -1.
         11   -1    0    0    0    0 -0.00000000000E+00 -0.00000000000E+00 -0.45593999997E+02  0.45594000000E+02  0.51100000000E-03 0.  1.
    9900012    2    1    2    0    0  0.75754605701E-01 -0.79807069146E+00 -0.86639244822E+00  0.90007622322E+02  0.89999882136E+02 0.  0.
         12    1    1    2    0    0 -0.75754605701E-01  0.79807069146E+00  0.86639244822E+00  0.11803776782E+01  0.00000000000E+00 0. -1.
         11    1    3    3    0    0 -0.60508395822E+01 -0.19351535748E+01 -0.77508381854E+01  0.10021625210E+02  0.51100000000E-03 0. -1.
        -11    1    3    3    0    0 -0.15238542130E+02 -0.15194579074E+02 -0.28393498421E+02  0.35626944190E+02  0.51100000000E-03 0.  1.
         12    1    3    3    0    0  0.21365136318E+02  0.16331661957E+02  0.35277944158E+02  0.44359052922E+02  0.00000000000E+00 0. -1.
</event>
<event>
 7    1  0.4096472E-015  0.9000773E+02  0.7816164E-02  0.1186339E+00
        -11   -1    0    0    0    0  0.00000000000E+00  0.00000000000E+00  0.45593999997E+02  0.45594000000E+02  0.51100000000E-03 0.  1.
         11   -1    0    0    0    0 -0.00000000000E+00 -0.00000000000E+00 -0.45593999997E+02  0.45594000000E+02  0.51100000000E-03 0. -1.
    9900012    2    1    2    0    0 -0.25632448319E+00  0.11495681458E+01 -0.76379241297E-01  0.90007727595E+02  0.89999988799E+02 0.  0.
         12    1    1    2    0    0  0.25632448319E+00 -0.11495681458E+01  0.76379241297E-01  0.11802724055E+01  0.00000000000E+00 0. -1.
         11    1    3    3    0    0 -0.69927160289E+01 -0.33128162691E+01 -0.56471806620E+01  0.95793255913E+01  0.51100000000E-03 0. -1.
        -11    1    3    3    0    0 -0.17122047267E+02  0.36461028471E+02  0.15292149610E+01  0.40310167432E+02  0.51100000000E-03 0.  1.
         12    1    3    3    0    0  0.23858438812E+02 -0.31998644056E+02  0.40415864597E+01  0.40118234571E+02  0.00000000000E+00 0. -1.
</event>
<event>
 7    1  0.4096472E-015  0.9000780E+02  0.7816164E-02  0.1186339E+00
        -11   -1    0    0    0    0  0.00000000000E+00  0.00000000000E+00  0.45593999997E+02  0.45594000000E+02  0.51100000000E-03 0. -1.
         11   -1    0    0    0    0 -0.00000000000E+00 -0.00000000000E+00 -0.45593999997E+02  0.45594000000E+02  0.51100000000E-03 0.  1.
    9900012    2    1    2    0    0  0.36994642666E+00  0.11129189887E+01  0.13201265338E+00  0.90007798164E+02  0.90000060299E+02 0.  0.
         12    1    1    2    0    0 -0.36994642666E+00 -0.11129189887E+01 -0.13201265338E+00  0.11802018364E+01  0.00000000000E+00 0. -1.
         11    1    3    3    0    0  0.25406130669E+01  0.42128918707E+02  0.67332615627E+01  0.42739177785E+02  0.51100000000E-03 0. -1.
        -11    1    3    3    0    0  0.39185675864E+01 -0.40420016370E+01 -0.79861769774E+01  0.97709760075E+01  0.51100000000E-03 0.  1.
        -12    1    3    3    0    0 -0.60892342266E+01 -0.36973998082E+02  0.13849280681E+01  0.37497644371E+02  0.00000000000E+00 0.  1.
</event>
<event>
 7    1  0.4096472E-015  0.9000772E+02  0.7816164E-02  0.1186339E+00
        -11   -1    0    0    0    0  0.00000000000E+00  0.00000000000E+00  0.45593999997E+02  0.45594000000E+02  0.51100000000E-03 0. -1.
         11   -1    0    0    0    0 -0.00000000000E+00 -0.00000000000E+00 -0.45593999997E+02  0.45594000000E+02  0.51100000000E-03 0.  1.
    9900012    2    1    2    0    0  0.44212844182E+00  0.69588431921E+00  0.84458228290E+00  0.90007723855E+02  0.89999985010E+02 0.  0.
         12    1    1    2    0    0 -0.44212844182E+00 -0.69588431921E+00 -0.84458228290E+00  0.11802761445E+01  0.00000000000E+00 0. -1.
         11    1    3    3    0    0 -0.39643697903E+01  0.12979789359E+02  0.23135777051E+02  0.26822664663E+02  0.51100000000E-03 0. -1.
        -11    1    3    3    0    0 -0.20819906908E+02  0.11780359317E+02 -0.57831785682E+01  0.24610781050E+02  0.51100000000E-03 0.  1.
        -12    1    3    3    0    0  0.25226405140E+02 -0.24064264357E+02 -0.16508016200E+02  0.38574278142E+02  0.00000000000E+00 0.  1.
</event>
<event>
 7    1  0.4096472E-015  0.9000773E+02  0.7816164E-02  0.1186339E+00
        -11   -1    0    0    0    0  0.00000000000E+00  0.00000000000E+00  0.45593999997E+02  0.45594000000E+02  0.51100000000E-03 0.  1.
         11   -1    0    0    0    0 -0.00000000000E+00 -0.00000000000E+00 -0.45593999997E+02  0.45594000000E+02  0.51100000000E-03 0. -1.
    9900012    2    1    2    0    0 -0.93774408021E+00  0.57914819918E+00  0.42220320720E+00  0.90007732172E+02  0.89999993437E+02 0.  0.
         12    1    1    2    0    0  0.93774408021E+00 -0.57914819918E+00 -0.42220320720E+00  0.11802678275E+01  0.00000000000E+00 0. -1.
         11    1    3    3    0    0  0.45836503328E+00 -0.86183489376E+00  0.91819741904E+01  0.92337158383E+01  0.51100000000E-03 0. -1.
        -11    1    3    3    0    0  0.21295771871E+01  0.32387488631E+02  0.20211833697E+02  0.38236144424E+02  0.51100000000E-03 0.  1.
         12    1    3    3    0    0 -0.35256863005E+01 -0.30946505538E+02 -0.28971604680E+02  0.42537871910E+02  0.00000000000E+00 0. -1.
</event>
<event>
 7    1  0.4096472E-015  0.9000772E+02  0.7816164E-02  0.1186339E+00
        -11   -1    0    0    0    0  0.00000000000E+00  0.00000000000E+00  0.45593999997E+02  0.45594000000E+02  0.51100000000E-03 0. -1.
         11   -1    0    0    0    0 -0.00000000000E+00 -0.00000000000E+00 -0.45593999997E+02  0.45594000000E+02  0.51100000000E-03 0.  1.
    9900012    2    1    2    0    0 -0.76954392810E+00 -0.83560165574E+00 -0.32036619405E+00  0.90007719320E+02  0.89999980415E+02 0.  0.
         12    1    1    2    0    0  0.76954392810E+00  0.83560165574E+00  0.32036619405E+00  0.11802806796E+01  0.00000000000E+00 0. -1.
         11    1    3    3    0    0 -0.11916296742E+01  0.72163338257E+00  0.10764293512E+02  0.10854066108E+02  0.51100000000E-03 0. -1.
        -11    1    3    3    0    0 -0.19046787283E+02  0.20442517937E+02 -0.32455346636E+02  0.42825531765E+02  0.51100000000E-03 0.  1.
         12    1    3    3    0    0  0.19468873029E+02 -0.21999752975E+02  0.21370686931E+02  0.36328121447E+02  0.00000000000E+00 0. -1.
</event>
<event>
 7    1  0.4096472E-015  0.9000771E+02  0.7816164E-02  0.1186339E+00
        -11   -1    0    0    0    0  0.00000000000E+00  0.00000000000E+00  0.45593999997E+02  0.45594000000E+02  0.51100000000E-03 0.  1.
         11   -1    0    0    0    0 -0.00000000000E+00 -0.00000000000E+00 -0.45593999997E+02  0.45594000000E+02  0.51100000000E-03 0. -1.
    9900012    2    1    2    0    0  0.45735605499E+00  0.99731799958E+00 -0.43503794155E+00  0.90007713694E+02  0.89999974715E+02 0.  0.
         12    1    1    2    0    0 -0.45735605499E+00 -0.99731799958E+00  0.43503794155E+00  0.11802863059E+01  0.00000000000E+00 0. -1.
         11    1    3    3    0    0  0.89124560321E+01  0.32560427471E+01 -0.50271403825E+01  0.10738055112E+02  0.51100000000E-03 0. -1.
        -11    1    3    3    0    0  0.30354026498E+02 -0.49100639231E+01  0.20805883767E+02  0.37126277109E+02  0.51100000000E-03 0.  1.
         12    1    3    3    0    0 -0.38809126475E+02  0.26513391756E+01 -0.16213781326E+02  0.42143381474E+02  0.00000000000E+00 0. -1.
</event>
<event>
 7    1  0.4096472E-015  0.9000835E+02  0.7816164E-02  0.1186338E+00
        -11   -1    0    0    0    0  0.00000000000E+00  0.00000000000E+00  0.45593999997E+02  0.45594000000E+02  0.51100000000E-03 0.  1.
         11   -1    0    0    0    0 -0.00000000000E+00 -0.00000000000E+00 -0.45593999997E+02  0.45594000000E+02  0.51100000000E-03 0. -1.
    9900012    2    1    2    0    0 -0.67644086233E+00 -0.60942128045E+00 -0.75007644464E+00  0.90008346996E+02  0.90000616374E+02 0.  0.
         12    1    1    2    0    0  0.67644086233E+00  0.60942128045E+00  0.75007644464E+00  0.11796530041E+01  0.00000000000E+00 0. -1.
         11    1    3    3    0    0  0.99682616003E+01  0.49879153450E+01  0.79393812791E+00  0.11174787552E+02  0.51100000000E-03 0. -1.
        -11    1    3    3    0    0  0.17704219669E+02 -0.88912333031E+01  0.30217769181E+02  0.36133184170E+02  0.51100000000E-03 0.  1.
         12    1    3    3    0    0 -0.28348922132E+02  0.32938966777E+01 -0.31761783753E+02  0.42700375274E+02  0.00000000000E+00 0. -1.
</event>
<event>
 7    1  0.4096472E-015  0.9000761E+02  0.7816164E-02  0.1186339E+00
        -11   -1    0    0    0    0  0.00000000000E+00  0.00000000000E+00  0.45593999997E+02  0.45594000000E+02  0.51100000000E-03 0.  1.
         11   -1    0    0    0    0 -0.00000000000E+00 -0.00000000000E+00 -0.45593999997E+02  0.45594000000E+02  0.51100000000E-03 0. -1.
    9900012    2    1    2    0    0  0.31530870854E+00  0.97187968414E-01  0.11333404265E+01  0.90007607860E+02  0.89999867483E+02 0.  0.
         12    1    1    2    0    0 -0.31530870854E+00 -0.97187968414E-01 -0.11333404265E+01  0.11803921405E+01  0.00000000000E+00 0. -1.
         11    1    3    3    0    0  0.18119094619E+02  0.86644139615E+01 -0.14482631413E+02  0.24761265558E+02  0.51100000000E-03 0. -1.
        -11    1    3    3    0    0  0.17613015712E+02 -0.13782323028E+02  0.18922051173E+02  0.29295302889E+02  0.51100000000E-03 0.  1.
         12    1    3    3    0    0 -0.35416801623E+02  0.52150970348E+01 -0.33060793330E+01  0.35951039412E+02  0.00000000000E+00 0. -1.
</event>
<event>
 7    1  0.4096472E-015  0.9000772E+02  0.7816164E-02  0.1186339E+00
        -11   -1    0    0    0    0  0.00000000000E+00  0.00000000000E+00  0.45593999997E+02  0.45594000000E+02  0.51100000000E-03 0.  1.
         11   -1    0    0    0    0 -0.00000000000E+00 -0.00000000000E+00 -0.45593999997E+02  0.45594000000E+02  0.51100000000E-03 0. -1.
    9900012    2    1    2    0    0 -0.20800729421E+00  0.11092821941E+01  0.34536996167E+00  0.90007722731E+02  0.89999983871E+02 0.  0.
         12    1    1    2    0    0  0.20800729421E+00 -0.11092821941E+01 -0.34536996167E+00  0.11802772687E+01  0.00000000000E+00 0. -1.
         11    1    3    3    0    0  0.35598291364E+02 -0.18177130309E+02  0.16858298973E+02  0.43380279608E+02  0.51100000000E-03 0. -1.
        -11    1    3    3    0    0 -0.44298887847E+01 -0.71502507110E+00 -0.68414317972E+01  0.81817091610E+01  0.51100000000E-03 0.  1.
        -12    1    3    3    0    0 -0.31376409874E+02  0.20001437574E+02 -0.96714972145E+01  0.38445733963E+02  0.00000000000E+00 0.  1.
</event>
<event>
 7    1  0.4096472E-015  0.9000780E+02  0.7816164E-02  0.1186339E+00
        -11   -1    0    0    0    0  0.00000000000E+00  0.00000000000E+00  0.45593999997E+02  0.45594000000E+02  0.51100000000E-03 0.  1.
         11   -1    0    0    0    0 -0.00000000000E+00 -0.00000000000E+00 -0.45593999997E+02  0.45594000000E+02  0.51100000000E-03 0. -1.
    9900012    2    1    2    0    0  0.13584453036E+00  0.92050614115E+00  0.72600861554E+00  0.90007799253E+02  0.90000061404E+02 0.  0.
         12    1    1    2    0    0 -0.13584453036E+00 -0.92050614115E+00 -0.72600861554E+00  0.11802007466E+01  0.00000000000E+00 0. -1.
         11    1    3    3    0    0  0.24914571819E+01 -0.23349768215E+02 -0.26700031451E+02  0.35557147162E+02  0.51100000000E-03 0. -1.
        -11    1    3    3    0    0  0.47841052263E+01 -0.81557843738E+00 -0.86590911816E+01  0.99263634508E+01  0.51100000000E-03 0.  1.
        -12    1    3    3    0    0 -0.71397178778E+01  0.25085852793E+02  0.36085131248E+02  0.44524288640E+02  0.00000000000E+00 0.  1.
</event>
<event>
 7    1  0.4096472E-015  0.9000798E+02  0.7816164E-02  0.1186339E+00
        -11   -1    0    0    0    0  0.00000000000E+00  0.00000000000E+00  0.45593999997E+02  0.45594000000E+02  0.51100000000E-03 0.  1.
         11   -1    0    0    0    0 -0.00000000000E+00 -0.00000000000E+00 -0.45593999997E+02  0.45594000000E+02  0.51100000000E-03 0. -1.
    9900012    2    1    2    0    0  0.66558780110E+00 -0.42806454531E+00 -0.87532521841E+00  0.90007982791E+02  0.90000247363E+02 0.  0.
         12    1    1    2    0    0 -0.66558780110E+00  0.42806454531E+00  0.87532521841E+00  0.11800172092E+01  0.00000000000E+00 0. -1.
         11    1    3    3    0    0  0.27032734645E+01  0.45496686900E+01 -0.14184571792E+02  0.15139658180E+02  0.51100000000E-03 0. -1.
        -11    1    3    3    0    0  0.16196276448E+02  0.66656720355E+01  0.38119375463E+02  0.41950415259E+02  0.51100000000E-03 0.  1.
         12    1    3    3    0    0 -0.18233962111E+02 -0.11643405271E+02 -0.24810128889E+02  0.32917909352E+02  0.00000000000E+00 0. -1.
</event>
<event>
 7    1  0.4096472E-015  0.9000768E+02  0.7816164E-02  0.1186339E+00
        -11   -1    0    0    0    0  0.00000000000E+00  0.00000000000E+00  0.45593999997E+02  0.45594000000E+02  0.51100000000E-03 0. -1.
         11   -1    0    0    0    0 -0.00000000000E+00 -0.00000000000E+00 -0.45593999997E+02  0.45594000000E+02  0.51100000000E-03 0.  1.
    9900012    2    1    2    0    0 -0.39056577681E+00  0.20918265690E+00 -0.10940045710E+01  0.90007684359E+02  0.89999944993E+02 0.  0.
         12    1    1    2    0    0  0.39056577681E+00 -0.20918265690E+00  0.10940045710E+01  0.11803156405E+01  0.00000000000E+00 0. -1.
         11    1    3    3    0    0  0.13405851281E+02  0.36536193617E+02  0.78714912408E+01  0.39706053281E+02  0.51100000000E-03 0. -1.
        -11    1    3    3    0    0  0.77726886041E+01 -0.10756401076E+01 -0.35827179015E+01  0.86259815442E+01  0.51100000000E-03 0.  1.
        -12    1    3    3    0    0 -0.21569105662E+02 -0.35251370852E+02 -0.53827779103E+01  0.41675649534E+02  0.00000000000E+00 0.  1.
</event>
<event>
 7    1  0.4096472E-015  0.9000771E+02  0.7816164E-02  0.1186339E+00
        -11   -1    0    0    0    0  0.00000000000E+00  0.00000000000E+00  0.45593999997E+02  0.45594000000E+02  0.51100000000E-03 0.  1.
         11   -1    0    0    0    0 -0.00000000000E+00 -0.00000000000E+00 -0.45593999997E+02  0.45594000000E+02  0.51100000000E-03 0. -1.
    9900012    2    1    2    0    0 -0.33837100568E+00  0.94288879132E+00  0.62413745033E+00  0.90007711151E+02  0.89999972138E+02 0.  0.
         12    1    1    2    0    0  0.33837100568E+00 -0.94288879132E+00 -0.62413745033E+00  0.11802888490E+01  0.00000000000E+00 0. -1.
         11    1    3    3    0    0  0.25247601497E+02  0.14055933045E+02 -0.26342695659E+02  0.39101767862E+02  0.51100000000E-03 0. -1.
        -11    1    3    3    0    0 -0.96049429523E+01  0.60484347707E+01 -0.31658185222E+01  0.11783925469E+02  0.51100000000E-03 0.  1.
        -12    1    3    3    0    0 -0.15981029550E+02 -0.19161479025E+02  0.30132651632E+02  0.39122017819E+02  0.00000000000E+00 0.  1.
</event>
<event>
 7    1  0.4096472E-015  0.9000789E+02  0.7816164E-02  0.1186339E+00
        -11   -1    0    0    0    0  0.00000000000E+00  0.00000000000E+00  0.45593999997E+02  0.45594000000E+02  0.51100000000E-03 0. -1.
         11   -1    0    0    0    0 -0.00000000000E+00 -0.00000000000E+00 -0.45593999997E+02  0.45594000000E+02  0.51100000000E-03 0.  1.
    9900012    2    1    2    0    0 -0.10743495995E+01  0.47624680760E+00 -0.10779492021E+00  0.90007890756E+02  0.90000154113E+02 0.  0.
         12    1    1    2    0    0  0.10743495995E+01 -0.47624680760E+00  0.10779492021E+00  0.11801092443E+01  0.00000000000E+00 0. -1.
         11    1    3    3    0    0 -0.11025765540E+02 -0.19412196774E+01 -0.32293928091E+01  0.11651816072E+02  0.51100000000E-03 0. -1.
        -11    1    3    3    0    0  0.11202915742E+02 -0.23508736286E+02 -0.27727913431E+02  0.38039495086E+02  0.51100000000E-03 0.  1.
         12    1    3    3    0    0 -0.12514998014E+01  0.25926202771E+02  0.30849511320E+02  0.40316579599E+02  0.00000000000E+00 0. -1.
</event>
<event>
 7    1  0.4096472E-015  0.9000774E+02  0.7816164E-02  0.1186339E+00
        -11   -1    0    0    0    0  0.00000000000E+00  0.00000000000E+00  0.45593999997E+02  0.45594000000E+02  0.51100000000E-03 0.  1.
         11   -1    0    0    0    0 -0.00000000000E+00 -0.00000000000E+00 -0.45593999997E+02  0.45594000000E+02  0.51100000000E-03 0. -1.
    9900012    2    1    2    0    0  0.10648230622E+01 -0.18740118982E+00  0.47334350760E+00  0.90007736709E+02  0.89999998034E+02 0.  0.
         12    1    1    2    0    0 -0.10648230622E+01  0.18740118982E+00 -0.47334350760E+00  0.11802632909E+01  0.00000000000E+00 0. -1.
         11    1    3    3    0    0 -0.12508805154E+02 -0.19804902067E+02  0.34404444071E+02  0.41621750616E+02  0.51100000000E-03 0. -1.
        -11    1    3    3    0    0 -0.24906489871E+01 -0.47020418288E+01 -0.59558869649E+01  0.79865586792E+01  0.51100000000E-03 0.  1.
        -12    1    3    3    0    0  0.16064277204E+02  0.24319542705E+02 -0.27975213599E+02  0.40399427414E+02  0.00000000000E+00 0.  1.
</event>
<event>
 7    1  0.4096472E-015  0.9000774E+02  0.7816164E-02  0.1186339E+00
        -11   -1    0    0    0    0  0.00000000000E+00  0.00000000000E+00  0.45593999997E+02  0.45594000000E+02  0.51100000000E-03 0.  1.
         11   -1    0    0    0    0 -0.00000000000E+00 -0.00000000000E+00 -0.45593999997E+02  0.45594000000E+02  0.51100000000E-03 0. -1.
    9900012    2    1    2    0    0  0.93075270677E+00  0.67638161946E+00  0.26309489397E+00  0.90007740868E+02  0.90000002247E+02 0.  0.
         12    1    1    2    0    0 -0.93075270677E+00 -0.67638161946E+00 -0.26309489397E+00  0.11802591324E+01  0.00000000000E+00 0. -1.
         11    1    3    3    0    0 -0.51447096377E+01  0.32214338826E+01  0.68021065971E+01  0.91167059805E+01  0.51100000000E-03 0. -1.
        -11    1    3    3    0    0 -0.49432695770E+00  0.72658242525E+01  0.36007467545E+02  0.36736552376E+02  0.51100000000E-03 0.  1.
         12    1    3    3    0    0  0.65697893022E+01 -0.98108765156E+01 -0.42546479248E+02  0.44154482511E+02  0.00000000000E+00 0. -1.
</event>
<event>
 7    1  0.4096472E-015  0.9000767E+02  0.7816164E-02  0.1186339E+00
        -11   -1    0    0    0    0  0.00000000000E+00  0.00000000000E+00  0.45593999997E+02  0.45594000000E+02  0.51100000000E-03 0.  1.
         11   -1    0    0    0    0 -0.00000000000E+00 -0.00000000000E+00 -0.45593999997E+02  0.45594000000E+02  0.51100000000E-03 0. -1.
    9900012    2    1    2    0    0  0.38504021673E+00 -0.11104803851E+01 -0.10841393507E+00  0.90007671133E+02  0.89999931591E+02 0.  0.
         12    1    1    2    0    0 -0.38504021673E+00  0.11104803851E+01  0.10841393507E+00  0.11803288675E+01  0.00000000000E+00 0. -1.
         11    1    3    3    0    0 -0.93300240109E+01  0.49066876755E+01  0.54143791077E+00  0.10555476648E+02  0.51100000000E-03 0. -1.
        -11    1    3    3    0    0 -0.28136090862E+02 -0.24456368115E+02 -0.19275944130E+01  0.37329199976E+02  0.51100000000E-03 0.  1.
         12    1    3    3    0    0  0.37851155090E+02  0.18439200055E+02  0.12777425672E+01  0.42122994508E+02  0.00000000000E+00 0. -1.
</event>
