<event>
 7    1  0.5714431E-011  0.5052886E+02  0.7816164E-02  0.1300439E+00
        -11   -1    0    0    0    0  0.00000000000E+00  0.00000000000E+00  0.45593999997E+02  0.45594000000E+02  0.51100000000E-03 0. -1.
         11   -1    0    0    0    0 -0.00000000000E+00 -0.00000000000E+00 -0.45593999997E+02  0.45594000000E+02  0.51100000000E-03 0.  1.
    9900012    2    1    2    0    0  0.25100487209E+02 -0.37791050041E+01  0.31762387831E+02  0.50528863591E+02  0.30000011372E+02 0.  0.
        -12    1    1    2    0    0 -0.25100487209E+02  0.37791050041E+01 -0.31762387831E+02  0.40659136409E+02  0.00000000000E+00 0.  1.
         11    1    3    3    0    0 -0.87131673277E+00 -0.38953009100E+01  0.12587633989E+02  0.13205343302E+02  0.51100000000E-03 0. -1.
        -11    1    3    3    0    0  0.25883034139E+02  0.24348300846E+01  0.21722063134E+02  0.33877837605E+02  0.51100000000E-03 0.  1.
        -12    1    3    3    0    0  0.88769802753E-01 -0.23186341787E+01 -0.25473092911E+01  0.34456826838E+01  0.00000000000E+00 0.  1.
</event>
<event>
 7    1  0.5714431E-011  0.5052885E+02  0.7816164E-02  0.1300439E+00
        -11   -1    0    0    0    0  0.00000000000E+00  0.00000000000E+00  0.45593999997E+02  0.45594000000E+02  0.51100000000E-03 0. -1.
         11   -1    0    0    0    0 -0.00000000000E+00 -0.00000000000E+00 -0.45593999997E+02  0.45594000000E+02  0.51100000000E-03 0.  1.
    9900012    2    1    2    0    0  0.36562345793E+02 -0.12755697587E+01 -0.17740742078E+02  0.50528854195E+02  0.29999982811E+02 0.  0.
        -12    1    1    2    0    0 -0.36562345793E+02  0.12755697587E+01  0.17740742078E+02  0.40659145805E+02  0.00000000000E+00 0.  1.
         11    1    3    3    0    0  0.20431775426E+01 -0.23356866658E+01  0.48952987817E+01  0.57960294249E+01  0.51100000000E-03 0.  1.
        -11    1    3    3    0    0  0.34994774722E+02  0.57231362520E+00 -0.24517023649E+02  0.42732262397E+02  0.51100000000E-03 0. -1.
         12    1    3    3    0    0 -0.47560647072E+00  0.48780328190E+00  0.18809827889E+01  0.20005623731E+01  0.00000000000E+00 0. -1.
</event>
<event>
 7    1  0.5714431E-011  0.5052887E+02  0.7816164E-02  0.1300439E+00
        -11   -1    0    0    0    0  0.00000000000E+00  0.00000000000E+00  0.45593999997E+02  0.45594000000E+02  0.51100000000E-03 0.  1.
         11   -1    0    0    0    0 -0.00000000000E+00 -0.00000000000E+00 -0.45593999997E+02  0.45594000000E+02  0.51100000000E-03 0. -1.
    9900012    2    1    2    0    0  0.10429888801E+02  0.11823447545E+02 -0.37477843504E+02  0.50528865160E+02  0.30000016141E+02 0.  0.
        -12    1    1    2    0    0 -0.10429888801E+02 -0.11823447545E+02  0.37477843504E+02  0.40659134840E+02  0.00000000000E+00 0.  1.
         11    1    3    3    0    0  0.12803226349E+02  0.13354471386E+02 -0.10766625419E+02  0.21405250153E+02  0.51100000000E-03 0. -1.
        -11    1    3    3    0    0 -0.54368599818E+01  0.11333874377E+00 -0.58996354094E+01  0.80235896179E+01  0.51100000000E-03 0.  1.
         12    1    3    3    0    0  0.30635224338E+01 -0.16443625840E+01 -0.20811582675E+02  0.21100025389E+02  0.00000000000E+00 0. -1.
</event>
<event>
 7    1  0.5714431E-011  0.5052886E+02  0.7816164E-02  0.1300439E+00
        -11   -1    0    0    0    0  0.00000000000E+00  0.00000000000E+00  0.45593999997E+02  0.45594000000E+02  0.51100000000E-03 0. -1.
         11   -1    0    0    0    0 -0.00000000000E+00 -0.00000000000E+00 -0.45593999997E+02  0.45594000000E+02  0.51100000000E-03 0.  1.
    9900012    2    1    2    0    0 -0.73606818576E+01  0.34496148733E+02  0.20223786686E+02  0.50528862494E+02  0.30000008038E+02 0.  0.
        -12    1    1    2    0    0  0.73606818576E+01 -0.34496148733E+02 -0.20223786686E+02  0.40659137506E+02  0.00000000000E+00 0.  1.
         11    1    3    3    0    0  0.40640723138E+01  0.27053180399E+02  0.18332038032E+02  0.32931062421E+02  0.51100000000E-03 0. -1.
        -11    1    3    3    0    0 -0.62947330721E+01  0.99524028762E+01  0.15372927051E+01  0.11875910769E+02  0.51100000000E-03 0.  1.
         12    1    3    3    0    0 -0.51300210992E+01 -0.25094345423E+01  0.35445594802E+00  0.57218893051E+01  0.00000000000E+00 0. -1.
</event>
<event>
 7    1  0.5714431E-011  0.5052887E+02  0.7816164E-02  0.1300439E+00
        -11   -1    0    0    0    0  0.00000000000E+00  0.00000000000E+00  0.45593999997E+02  0.45594000000E+02  0.51100000000E-03 0.  1.
         11   -1    0    0    0    0 -0.00000000000E+00 -0.00000000000E+00 -0.45593999997E+02  0.45594000000E+02  0.51100000000E-03 0. -1.
    9900012    2    1    2    0    0 -0.27297061771E+02 -0.37444322142E+01 -0.29900074761E+02  0.50528870341E+02  0.30000031887E+02 0.  0.
        -12    1    1    2    0    0  0.27297061771E+02  0.37444322142E+01  0.29900074761E+02  0.40659129659E+02  0.00000000000E+00 0.  1.
         11    1    3    3    0    0 -0.10077361300E+02  0.88171547606E+01 -0.52166149549E+01  0.14370403637E+02  0.51100000000E-03 0. -1.
        -11    1    3    3    0    0 -0.47323089487E+01 -0.12673801965E+02 -0.96642130900E+01  0.16625793790E+02  0.51100000000E-03 0.  1.
         12    1    3    3    0    0 -0.12487391523E+02  0.11221498975E+00 -0.15019246716E+02  0.19532672914E+02  0.00000000000E+00 0. -1.
</event>
<event>
 7    1  0.5714431E-011  0.5052886E+02  0.7816164E-02  0.1300439E+00
        -11   -1    0    0    0    0  0.00000000000E+00  0.00000000000E+00  0.45593999997E+02  0.45594000000E+02  0.51100000000E-03 0.  1.
         11   -1    0    0    0    0 -0.00000000000E+00 -0.00000000000E+00 -0.45593999997E+02  0.45594000000E+02  0.51100000000E-03 0. -1.
    9900012    2    1    2    0    0  0.56940031447E+01 -0.15268109126E+02 -0.37250889101E+02  0.50528861213E+02  0.30000004143E+02 0.  0.
        -12    1    1    2    0    0 -0.56940031447E+01  0.15268109126E+02  0.37250889101E+02  0.40659138787E+02  0.00000000000E+00 0.  1.
         11    1    3    3    0    0  0.86788769424E+01  0.38935214655E+01 -0.23780233532E+02  0.25612144024E+02  0.51100000000E-03 0. -1.
        -11    1    3    3    0    0  0.91173350929E+00 -0.14260434243E+02 -0.11530903125E+02  0.18361725679E+02  0.51100000000E-03 0.  1.
         12    1    3    3    0    0 -0.38966073070E+01 -0.49011963492E+01 -0.19397524439E+01  0.65549915104E+01  0.00000000000E+00 0. -1.
</event>
<event>
 7    1  0.5714431E-011  0.5052886E+02  0.7816164E-02  0.1300439E+00
        -11   -1    0    0    0    0  0.00000000000E+00  0.00000000000E+00  0.45593999997E+02  0.45594000000E+02  0.51100000000E-03 0.  1.
         11   -1    0    0    0    0 -0.00000000000E+00 -0.00000000000E+00 -0.45593999997E+02  0.45594000000E+02  0.51100000000E-03 0. -1.
    9900012    2    1    2    0    0 -0.35983307361E+02  0.46004272032E+01 -0.18363093621E+02  0.50528861464E+02  0.30000004907E+02 0.  0.
        -12    1    1    2    0    0  0.35983307361E+02 -0.46004272032E+01  0.18363093621E+02  0.40659138536E+02  0.00000000000E+00 0.  1.
         11    1    3    3    0    0 -0.15091580825E+02  0.11026973144E+02 -0.17562613730E+02  0.25647521319E+02  0.51100000000E-03 0. -1.
        -11    1    3    3    0    0 -0.15188402205E+02 -0.87916118735E+01  0.27431221507E+01  0.17762452541E+02  0.51100000000E-03 0.  1.
        -12    1    3    3    0    0 -0.57033243318E+01  0.23650659329E+01 -0.35436020415E+01  0.71188876048E+01  0.00000000000E+00 0.  1.
</event>
<event>
 7    1  0.5714431E-011  0.5052886E+02  0.7816164E-02  0.1300439E+00
        -11   -1    0    0    0    0  0.00000000000E+00  0.00000000000E+00  0.45593999997E+02  0.45594000000E+02  0.51100000000E-03 0.  1.
         11   -1    0    0    0    0 -0.00000000000E+00 -0.00000000000E+00 -0.45593999997E+02  0.45594000000E+02  0.51100000000E-03 0. -1.
    9900012    2    1    2    0    0  0.19207870941E+02 -0.27949047065E+02 -0.22429313089E+02  0.50528860516E+02  0.30000002024E+02 0.  0.
        -12    1    1    2    0    0 -0.19207870941E+02  0.27949047065E+02  0.22429313089E+02  0.40659139484E+02  0.00000000000E+00 0.  1.
         11    1    3    3    0    0  0.63208485440E+01 -0.28385425944E+02 -0.16198716498E+02  0.33287894929E+02  0.51100000000E-03 0. -1.
        -11    1    3    3    0    0  0.66557556439E+01 -0.33437090912E-01  0.19603138623E+01  0.69385179923E+01  0.51100000000E-03 0.  1.
         12    1    3    3    0    0  0.62312667532E+01  0.46981596946E+00 -0.81909104529E+01  0.10302447595E+02  0.00000000000E+00 0. -1.
</event>
<event>
 7    1  0.5714431E-011  0.5052886E+02  0.7816164E-02  0.1300439E+00
        -11   -1    0    0    0    0  0.00000000000E+00  0.00000000000E+00  0.45593999997E+02  0.45594000000E+02  0.51100000000E-03 0.  1.
         11   -1    0    0    0    0 -0.00000000000E+00 -0.00000000000E+00 -0.45593999997E+02  0.45594000000E+02  0.51100000000E-03 0. -1.
    9900012    2    1    2    0    0  0.35842110208E+02 -0.80663670871E+01 -0.17419601238E+02  0.50528860198E+02  0.30000001057E+02 0.  0.
        -12    1    1    2    0    0 -0.35842110208E+02  0.80663670871E+01  0.17419601238E+02  0.40659139802E+02  0.00000000000E+00 0.  1.
         11    1    3    3    0    0  0.50825589408E+01 -0.63210534915E+01 -0.76983631027E+01  0.11182706173E+02  0.51100000000E-03 0. -1.
        -11    1    3    3    0    0  0.27639294922E+02  0.70907775342E+01 -0.91186785683E+01  0.29955968502E+02  0.51100000000E-03 0.  1.
         12    1    3    3    0    0  0.31202563458E+01 -0.88360911298E+01 -0.60255956687E+00  0.93901855226E+01  0.00000000000E+00 0. -1.
</event>
<event>
 7    1  0.5714431E-011  0.5052886E+02  0.7816164E-02  0.1300439E+00
        -11   -1    0    0    0    0  0.00000000000E+00  0.00000000000E+00  0.45593999997E+02  0.45594000000E+02  0.51100000000E-03 0.  1.
         11   -1    0    0    0    0 -0.00000000000E+00 -0.00000000000E+00 -0.45593999997E+02  0.45594000000E+02  0.51100000000E-03 0. -1.
    9900012    2    1    2    0    0  0.55981846226E+01 -0.10394618656E+02 -0.38907296790E+02  0.50528861893E+02  0.30000006210E+02 0.  0.
        -12    1    1    2    0    0 -0.55981846226E+01  0.10394618656E+02  0.38907296790E+02  0.40659138107E+02  0.00000000000E+00 0.  1.
         11    1    3    3    0    0  0.22851425434E+01  0.71942733338E+01 -0.25680953357E+01  0.79733656106E+01  0.51100000000E-03 0. -1.
        -11    1    3    3    0    0 -0.43520374795E+01 -0.75455034078E+01 -0.20647675092E+02  0.22409849148E+02  0.51100000000E-03 0.  1.
         12    1    3    3    0    0  0.76650795587E+01 -0.10043388582E+02 -0.15691526363E+02  0.20145647134E+02  0.00000000000E+00 0. -1.
</event>
<event>
 7    1  0.5714431E-011  0.5052887E+02  0.7816164E-02  0.1300439E+00
        -11   -1    0    0    0    0  0.00000000000E+00  0.00000000000E+00  0.45593999997E+02  0.45594000000E+02  0.51100000000E-03 0. -1.
         11   -1    0    0    0    0 -0.00000000000E+00 -0.00000000000E+00 -0.45593999997E+02  0.45594000000E+02  0.51100000000E-03 0.  1.
    9900012    2    1    2    0    0 -0.31600634096E+02 -0.22799865991E+02 -0.11607377906E+02  0.50528865893E+02  0.30000018367E+02 0.  0.
        -12    1    1    2    0    0  0.31600634096E+02  0.22799865991E+02  0.11607377906E+02  0.40659134107E+02  0.00000000000E+00 0.  1.
         11    1    3    3    0    0 -0.26263502405E+02 -0.13715191588E+02 -0.18284958234E+02  0.34816917393E+02  0.51100000000E-03 0. -1.
        -11    1    3    3    0    0 -0.77017857200E+01 -0.56376274687E+01  0.64616852354E+01  0.11526218942E+02  0.51100000000E-03 0.  1.
        -12    1    3    3    0    0  0.23646540286E+01 -0.34470469346E+01  0.21589509199E+00  0.41857295583E+01  0.00000000000E+00 0.  1.
</event>
<event>
 7    1  0.5714431E-011  0.5052886E+02  0.7816164E-02  0.1300439E+00
        -11   -1    0    0    0    0  0.00000000000E+00  0.00000000000E+00  0.45593999997E+02  0.45594000000E+02  0.51100000000E-03 0.  1.
         11   -1    0    0    0    0 -0.00000000000E+00 -0.00000000000E+00 -0.45593999997E+02  0.45594000000E+02  0.51100000000E-03 0. -1.
    9900012    2    1    2    0    0  0.32131689645E+02  0.23458516413E+02 -0.83915395584E+01  0.50528863168E+02  0.30000010087E+02 0.  0.
        -12    1    1    2    0    0 -0.32131689645E+02 -0.23458516413E+02  0.83915395584E+01  0.40659136832E+02  0.00000000000E+00 0.  1.
         11    1    3    3    0    0  0.18368146612E+02  0.69040680369E+01 -0.11676870152E+02  0.22834278229E+02  0.51100000000E-03 0. -1.
        -11    1    3    3    0    0  0.81712074592E+01  0.27164559735E+01  0.82896739476E+01  0.11952675801E+02  0.51100000000E-03 0.  1.
        -12    1    3    3    0    0  0.55923355732E+01  0.13837992403E+02 -0.50043433534E+01  0.15741909138E+02  0.00000000000E+00 0.  1.
</event>
<event>
 7    1  0.5714431E-011  0.5052886E+02  0.7816164E-02  0.1300439E+00
        -11   -1    0    0    0    0  0.00000000000E+00  0.00000000000E+00  0.45593999997E+02  0.45594000000E+02  0.51100000000E-03 0. -1.
         11   -1    0    0    0    0 -0.00000000000E+00 -0.00000000000E+00 -0.45593999997E+02  0.45594000000E+02  0.51100000000E-03 0.  1.
    9900012    2    1    2    0    0 -0.18689320178E+01 -0.40467459768E+02  0.34723807965E+01  0.50528860371E+02  0.30000001584E+02 0.  0.
        -12    1    1    2    0    0  0.18689320178E+01  0.40467459768E+02 -0.34723807965E+01  0.40659139629E+02  0.00000000000E+00 0.  1.
         11    1    3    3    0    0  0.48274344023E+01 -0.83693352067E+01  0.83835366323E+01  0.12791934234E+02  0.51100000000E-03 0. -1.
        -11    1    3    3    0    0  0.38798077826E+01 -0.17710901803E+02 -0.76371992527E+01  0.19673732838E+02  0.51100000000E-03 0.  1.
         12    1    3    3    0    0 -0.10576174203E+02 -0.14387222758E+02  0.27260434169E+01  0.18063193299E+02  0.00000000000E+00 0. -1.
</event>
<event>
 7    1  0.5714431E-011  0.5052885E+02  0.7816164E-02  0.1300439E+00
        -11   -1    0    0    0    0  0.00000000000E+00  0.00000000000E+00  0.45593999997E+02  0.45594000000E+02  0.51100000000E-03 0.  1.
         11   -1    0    0    0    0 -0.00000000000E+00 -0.00000000000E+00 -0.45593999997E+02  0.45594000000E+02  0.51100000000E-03 0. -1.
    9900012    2    1    2    0    0 -0.34849706613E+02  0.16204371935E+02 -0.13269614334E+02  0.50528851147E+02  0.29999973547E+02 0.  0.
        -12    1    1    2    0    0  0.34849706613E+02 -0.16204371935E+02  0.13269614334E+02  0.40659148853E+02  0.00000000000E+00 0.  1.
         11    1    3    3    0    0 -0.32303688015E+00  0.22273574666E+01  0.67838458297E+01  0.71474497978E+01  0.51100000000E-03 0.  1.
        -11    1    3    3    0    0 -0.27997196751E+02  0.11031302733E+02 -0.11475578980E+02  0.32205924596E+02  0.51100000000E-03 0. -1.
         12    1    3    3    0    0 -0.65294729820E+01  0.29457117359E+01 -0.85778811838E+01  0.11175476753E+02  0.00000000000E+00 0. -1.
</event>
<event>
 7    1  0.5714431E-011  0.5052886E+02  0.7816164E-02  0.1300439E+00
        -11   -1    0    0    0    0  0.00000000000E+00  0.00000000000E+00  0.45593999997E+02  0.45594000000E+02  0.51100000000E-03 0.  1.
         11   -1    0    0    0    0 -0.00000000000E+00 -0.00000000000E+00 -0.45593999997E+02  0.45594000000E+02  0.51100000000E-03 0. -1.
    9900012    2    1    2    0    0  0.19898764461E+02  0.21451717112E+02 -0.28231693369E+02  0.50528861979E+02  0.30000006473E+02 0.  0.
        -12    1    1    2    0    0 -0.19898764461E+02 -0.21451717112E+02  0.28231693369E+02  0.40659138021E+02  0.00000000000E+00 0.  1.
         11    1    3    3    0    0 -0.37538900758E+01  0.27962157140E+01 -0.14627196093E+02  0.15357909325E+02  0.51100000000E-03 0. -1.
        -11    1    3    3    0    0  0.61123549502E+01  0.10511867988E+02 -0.12522696136E+01  0.12224092239E+02  0.51100000000E-03 0.  1.
         12    1    3    3    0    0  0.17540299586E+02  0.81436334097E+01 -0.12352227662E+02  0.22946860415E+02  0.00000000000E+00 0. -1.
</event>
<event>
 7    1  0.5714431E-011  0.5052886E+02  0.7816164E-02  0.1300439E+00
        -11   -1    0    0    0    0  0.00000000000E+00  0.00000000000E+00  0.45593999997E+02  0.45594000000E+02  0.51100000000E-03 0.  1.
         11   -1    0    0    0    0 -0.00000000000E+00 -0.00000000000E+00 -0.45593999997E+02  0.45594000000E+02  0.51100000000E-03 0. -1.
    9900012    2    1    2    0    0  0.15174970095E+02  0.10806584437E+02 -0.36140051791E+02  0.50528864150E+02  0.30000013070E+02 0.  0.
        -12    1    1    2    0    0 -0.15174970095E+02 -0.10806584437E+02  0.36140051791E+02  0.40659135850E+02  0.00000000000E+00 0.  1.
         11    1    3    3    0    0  0.11558769463E+02 -0.12266630956E+01 -0.78075741718E+01  0.14002430809E+02  0.51100000000E-03 0. -1.
        -11    1    3    3    0    0  0.17103618816E+01  0.17220315771E+02 -0.23508499179E+02  0.29190994278E+02  0.51100000000E-03 0.  1.
        -12    1    3    3    0    0  0.19058387507E+01 -0.51870682383E+01 -0.48239784402E+01  0.73354390628E+01  0.00000000000E+00 0.  1.
</event>
<event>
 7    1  0.5714431E-011  0.5052883E+02  0.7816164E-02  0.1300439E+00
        -11   -1    0    0    0    0  0.00000000000E+00  0.00000000000E+00  0.45593999997E+02  0.45594000000E+02  0.51100000000E-03 0.  1.
         11   -1    0    0    0    0 -0.00000000000E+00 -0.00000000000E+00 -0.45593999997E+02  0.45594000000E+02  0.51100000000E-03 0. -1.
    9900012    2    1    2    0    0  0.97027138723E+01 -0.28486390537E+02 -0.27341383388E+02  0.50528827014E+02  0.29999900192E+02 0.  0.
        -12    1    1    2    0    0 -0.97027138723E+01  0.28486390537E+02  0.27341383388E+02  0.40659172986E+02  0.00000000000E+00 0.  1.
         11    1    3    3    0    0 -0.57391338147E+01 -0.89700828579E+01 -0.19019008426E+02  0.21797310045E+02  0.51100000000E-03 0. -1.
        -11    1    3    3    0    0  0.68626222810E+01 -0.10820328895E+01 -0.37343376804E+01  0.78874367140E+01  0.51100000000E-03 0.  1.
         12    1    3    3    0    0  0.85792254060E+01 -0.18434274790E+02 -0.45880372819E+01  0.20844080255E+02  0.00000000000E+00 0. -1.
</event>
<event>
 7    1  0.5714431E-011  0.5052887E+02  0.7816164E-02  0.1300439E+00
        -11   -1    0    0    0    0  0.00000000000E+00  0.00000000000E+00  0.45593999997E+02  0.45594000000E+02  0.51100000000E-03 0.  1.
         11   -1    0    0    0    0 -0.00000000000E+00 -0.00000000000E+00 -0.45593999997E+02  0.45594000000E+02  0.51100000000E-03 0. -1.
    9900012    2    1    2    0    0  0.16024821619E+02 -0.31947956126E+02 -0.19382931241E+02  0.50528870250E+02  0.30000031612E+02 0.  0.
        -12    1    1    2    0    0 -0.16024821619E+02  0.31947956126E+02  0.19382931241E+02  0.40659129750E+02  0.00000000000E+00 0.  1.
         11    1    3    3    0    0  0.88543208295E+01 -0.10910797272E+02 -0.13157662058E+02  0.19250157546E+02  0.51100000000E-03 0. -1.
        -11    1    3    3    0    0  0.93753073845E+00  0.14317089432E+01  0.50833980388E+01  0.53637384599E+01  0.51100000000E-03 0.  1.
        -12    1    3    3    0    0  0.62329700514E+01 -0.22468867797E+02 -0.11308667222E+02  0.25914974244E+02  0.00000000000E+00 0.  1.
</event>
<event>
 7    1  0.5714431E-011  0.5052886E+02  0.7816164E-02  0.1300439E+00
        -11   -1    0    0    0    0  0.00000000000E+00  0.00000000000E+00  0.45593999997E+02  0.45594000000E+02  0.51100000000E-03 0. -1.
         11   -1    0    0    0    0 -0.00000000000E+00 -0.00000000000E+00 -0.45593999997E+02  0.45594000000E+02  0.51100000000E-03 0.  1.
    9900012    2    1    2    0    0  0.86168517392E+01  0.35832796279E+02  0.17173427771E+02  0.50528855340E+02  0.29999986292E+02 0.  0.
        -12    1    1    2    0    0 -0.86168517392E+01 -0.35832796279E+02 -0.17173427771E+02  0.40659144660E+02  0.00000000000E+00 0.  1.
         11    1    3    3    0    0  0.10667398559E+01  0.78987443593E+01  0.70448927365E+01  0.10637603598E+02  0.51100000000E-03 0. -1.
        -11    1    3    3    0    0  0.10841278862E+02  0.27204343237E+02  0.72342535204E-01  0.29285061926E+02  0.51100000000E-03 0.  1.
        -12    1    3    3    0    0 -0.32911669788E+01  0.72970868275E+00  0.10056192499E+02  0.10606189816E+02  0.00000000000E+00 0.  1.
</event>
<event>
 7    1  0.5714431E-011  0.5052882E+02  0.7816164E-02  0.1300439E+00
        -11   -1    0    0    0    0  0.00000000000E+00  0.00000000000E+00  0.45593999997E+02  0.45594000000E+02  0.51100000000E-03 0.  1.
         11   -1    0    0    0    0 -0.00000000000E+00 -0.00000000000E+00 -0.45593999997E+02  0.45594000000E+02  0.51100000000E-03 0. -1.
    9900012    2    1    2    0    0  0.29310815381E+01  0.34706941798E+01 -0.40404605695E+02  0.50528817539E+02  0.29999871390E+02 0.  0.
        -12    1    1    2    0    0 -0.29310815381E+01 -0.34706941798E+01  0.40404605695E+02  0.40659182461E+02  0.00000000000E+00 0.  1.
         11    1    3    3    0    0  0.89511305469E+00  0.57879819708E+01 -0.43873952377E+01  0.73178685358E+01  0.51100000000E-03 0. -1.
        -11    1    3    3    0    0  0.10880851004E+02 -0.78247724500E+01 -0.21666411045E+02  0.25476525475E+02  0.51100000000E-03 0.  1.
        -12    1    3    3    0    0 -0.88448825209E+01  0.55074846589E+01 -0.14350799412E+02  0.17734423527E+02  0.00000000000E+00 0.  1.
</event>
<event>
 7    1  0.5714431E-011  0.5052887E+02  0.7816164E-02  0.1300439E+00
        -11   -1    0    0    0    0  0.00000000000E+00  0.00000000000E+00  0.45593999997E+02  0.45594000000E+02  0.51100000000E-03 0.  1.
         11   -1    0    0    0    0 -0.00000000000E+00 -0.00000000000E+00 -0.45593999997E+02  0.45594000000E+02  0.51100000000E-03 0. -1.
    9900012    2    1    2    0    0 -0.33578458273E+02  0.17275140411E+02 -0.15073873505E+02  0.50528868201E+02  0.30000025384E+02 0.  0.
        -12    1    1    2    0    0  0.33578458273E+02 -0.17275140411E+02  0.15073873505E+02  0.40659131799E+02  0.00000000000E+00 0.  1.
         11    1    3    3    0    0 -0.18762689744E+02  0.11701685659E+02 -0.64905287145E+01  0.23045497108E+02  0.51100000000E-03 0. -1.
        -11    1    3    3    0    0 -0.48184073549E+01 -0.11213223603E+01  0.65129614180E+01  0.81788189836E+01  0.51100000000E-03 0.  1.
        -12    1    3    3    0    0 -0.99973611740E+01  0.66947771119E+01 -0.15096306208E+02  0.19304552109E+02  0.00000000000E+00 0.  1.
</event>
<event>
 7    1  0.5714431E-011  0.5052886E+02  0.7816164E-02  0.1300439E+00
        -11   -1    0    0    0    0  0.00000000000E+00  0.00000000000E+00  0.45593999997E+02  0.45594000000E+02  0.51100000000E-03 0.  1.
         11   -1    0    0    0    0 -0.00000000000E+00 -0.00000000000E+00 -0.45593999997E+02  0.45594000000E+02  0.51100000000E-03 0. -1.
    9900012    2    1    2    0    0  0.13832096042E+02 -0.31801990224E+02 -0.21224327836E+02  0.50528861357E+02  0.30000004580E+02 0.  0.
        -12    1    1    2    0    0 -0.13832096042E+02  0.31801990224E+02  0.21224327836E+02  0.40659138643E+02  0.00000000000E+00 0.  1.
         11    1    3    3    0    0  0.10535025478E+02 -0.24136538519E+01 -0.13133608255E+02  0.17008943318E+02  0.51100000000E-03 0.  1.
        -11    1    3    3    0    0  0.38744787024E+01 -0.28326093103E+02 -0.35362571400E+01  0.28807711650E+02  0.51100000000E-03 0. -1.
         12    1    3    3    0    0 -0.57740813827E+00 -0.10622432693E+01 -0.45544624413E+01  0.47122063888E+01  0.00000000000E+00 0. -1.
</event>
<event>
 7    1  0.5714431E-011  0.5052886E+02  0.7816164E-02  0.1300439E+00
        -11   -1    0    0    0    0  0.00000000000E+00  0.00000000000E+00  0.45593999997E+02  0.45594000000E+02  0.51100000000E-03 0.  1.
         11   -1    0    0    0    0 -0.00000000000E+00 -0.00000000000E+00 -0.45593999997E+02  0.45594000000E+02  0.51100000000E-03 0. -1.
    9900012    2    1    2    0    0 -0.38391128418E+02 -0.12777667123E+02 -0.40022746530E+01  0.50528859322E+02  0.29999998394E+02 0.  0.
        -12    1    1    2    0    0  0.38391128418E+02  0.12777667123E+02  0.40022746530E+01  0.40659140678E+02  0.00000000000E+00 0.  1.
         11    1    3    3    0    0  0.22282753171E+00 -0.84784884848E+01 -0.56384435699E+01  0.10184619053E+02  0.51100000000E-03 0. -1.
        -11    1    3    3    0    0 -0.18635552051E+02  0.29782048354E+01 -0.11122292338E+01  0.18904776074E+02  0.51100000000E-03 0.  1.
         12    1    3    3    0    0 -0.19978403898E+02 -0.72773834735E+01  0.27483981508E+01  0.21439464194E+02  0.00000000000E+00 0. -1.
</event>
<event>
 7    1  0.5714431E-011  0.5052883E+02  0.7816164E-02  0.1300439E+00
        -11   -1    0    0    0    0  0.00000000000E+00  0.00000000000E+00  0.45593999997E+02  0.45594000000E+02  0.51100000000E-03 0. -1.
         11   -1    0    0    0    0 -0.00000000000E+00 -0.00000000000E+00 -0.45593999997E+02  0.45594000000E+02  0.51100000000E-03 0.  1.
    9900012    2    1    2    0    0  0.22222542504E+02 -0.30414144552E+02  0.15307079450E+02  0.50528828028E+02  0.29999903273E+02 0.  0.
        -12    1    1    2    0    0 -0.22222542504E+02  0.30414144552E+02 -0.15307079450E+02  0.40659171972E+02  0.00000000000E+00 0.  1.
         11    1    3    3    0    0  0.11893358982E+02 -0.93538758432E+01  0.97850769450E+01  0.18019287229E+02  0.51100000000E-03 0. -1.
        -11    1    3    3    0    0 -0.50616349203E+01 -0.12193794731E+02 -0.17468570121E+01  0.13317668253E+02  0.51100000000E-03 0.  1.
        -12    1    3    3    0    0  0.15390818442E+02 -0.88664739775E+01  0.72688595170E+01  0.19191872545E+02  0.00000000000E+00 0.  1.
</event>
<event>
 7    1  0.5714431E-011  0.5052883E+02  0.7816164E-02  0.1300439E+00
        -11   -1    0    0    0    0  0.00000000000E+00  0.00000000000E+00  0.45593999997E+02  0.45594000000E+02  0.51100000000E-03 0.  1.
         11   -1    0    0    0    0 -0.00000000000E+00 -0.00000000000E+00 -0.45593999997E+02  0.45594000000E+02  0.51100000000E-03 0. -1.
    9900012    2    1    2    0    0 -0.96277824484E+01  0.14320254223E+02 -0.36815810571E+02  0.50528833950E+02  0.29999921275E+02 0.  0.
        -12    1    1    2    0    0  0.96277824484E+01 -0.14320254223E+02  0.36815810571E+02  0.40659166050E+02  0.00000000000E+00 0.  1.
         11    1    3    3    0    0 -0.76336305660E+01  0.83089967032E+01 -0.45979082004E+01  0.12184108581E+02  0.51100000000E-03 0. -1.
        -11    1    3    3    0    0 -0.87943244984E+01 -0.22093277991E+01 -0.20946393378E+02  0.22824825706E+02  0.51100000000E-03 0.  1.
        -12    1    3    3    0    0  0.68001726160E+01  0.82205853190E+01 -0.11271508993E+02  0.15519899663E+02  0.00000000000E+00 0.  1.
</event>
<event>
 7    1  0.5714431E-011  0.5052886E+02  0.7816164E-02  0.1300439E+00
        -11   -1    0    0    0    0  0.00000000000E+00  0.00000000000E+00  0.45593999997E+02  0.45594000000E+02  0.51100000000E-03 0. -1.
         11   -1    0    0    0    0 -0.00000000000E+00 -0.00000000000E+00 -0.45593999997E+02  0.45594000000E+02  0.51100000000E-03 0.  1.
    9900012    2    1    2    0    0  0.32798640645E+02  0.75698497963E+01  0.22805973124E+02  0.50528857557E+02  0.29999993031E+02 0.  0.
        -12    1    1    2    0    0 -0.32798640645E+02 -0.75698497963E+01 -0.22805973124E+02  0.40659142443E+02  0.00000000000E+00 0.  1.
         11    1    3    3    0    0  0.13615199229E+02  0.97691502489E+01  0.24314602482E+02  0.29529812745E+02  0.51100000000E-03 0. -1.
        -11    1    3    3    0    0  0.16109025918E+02  0.49739840561E-01  0.14522320728E+01  0.16174429459E+02  0.51100000000E-03 0.  1.
         12    1    3    3    0    0  0.30744154980E+01 -0.22490402932E+01 -0.29608614310E+01  0.48246153534E+01  0.00000000000E+00 0. -1.
</event>
<event>
 7    1  0.5714431E-011  0.5052887E+02  0.7816164E-02  0.1300439E+00
        -11   -1    0    0    0    0  0.00000000000E+00  0.00000000000E+00  0.45593999997E+02  0.45594000000E+02  0.51100000000E-03 0.  1.
         11   -1    0    0    0    0 -0.00000000000E+00 -0.00000000000E+00 -0.45593999997E+02  0.45594000000E+02  0.51100000000E-03 0. -1.
    9900012    2    1    2    0    0 -0.63339686445E+01  0.40087078548E+02 -0.24640929390E+01  0.50528870898E+02  0.30000033582E+02 0.  0.
        -12    1    1    2    0    0  0.63339686445E+01 -0.40087078548E+02  0.24640929390E+01  0.40659129102E+02  0.00000000000E+00 0.  1.
         11    1    3    3    0    0 -0.13421108026E+02  0.22905286575E+02  0.54541276090E+01  0.27102136483E+02  0.51100000000E-03 0.  1.
        -11    1    3    3    0    0 -0.15391697196E-01  0.65255953040E+01 -0.83691218877E+01  0.10612531857E+02  0.51100000000E-03 0. -1.
        -12    1    3    3    0    0  0.71025310791E+01  0.10656196669E+02  0.45090133971E+00  0.12814202558E+02  0.00000000000E+00 0.  1.
</event>
<event>
 7    1  0.5714431E-011  0.5052885E+02  0.7816164E-02  0.1300439E+00
        -11   -1    0    0    0    0  0.00000000000E+00  0.00000000000E+00  0.45593999997E+02  0.45594000000E+02  0.51100000000E-03 0.  1.
         11   -1    0    0    0    0 -0.00000000000E+00 -0.00000000000E+00 -0.45593999997E+02  0.45594000000E+02  0.51100000000E-03 0. -1.
    9900012    2    1    2    0    0 -0.11250560559E+02 -0.37126994251E+02 -0.12172817207E+02  0.50528852275E+02  0.29999976974E+02 0.  0.
        -12    1    1    2    0    0  0.11250560559E+02  0.37126994251E+02  0.12172817207E+02  0.40659147725E+02  0.00000000000E+00 0.  1.
         11    1    3    3    0    0 -0.14424574259E+02 -0.19673076372E+02 -0.59699775365E+01  0.25114515893E+02  0.51100000000E-03 0. -1.
        -11    1    3    3    0    0  0.30804583828E+01 -0.13820237789E+02  0.38923961829E+01  0.14684649968E+02  0.51100000000E-03 0.  1.
         12    1    3    3    0    0  0.93555316761E-01 -0.36336800897E+01 -0.10095235854E+02  0.10729686413E+02  0.00000000000E+00 0. -1.
</event>
<event>
 7    1  0.5714431E-011  0.5052886E+02  0.7816164E-02  0.1300439E+00
        -11   -1    0    0    0    0  0.00000000000E+00  0.00000000000E+00  0.45593999997E+02  0.45594000000E+02  0.51100000000E-03 0. -1.
         11   -1    0    0    0    0 -0.00000000000E+00 -0.00000000000E+00 -0.45593999997E+02  0.45594000000E+02  0.51100000000E-03 0.  1.
    9900012    2    1    2    0    0  0.37701304323E+02  0.80808804590E+01 -0.12902593949E+02  0.50528857028E+02  0.29999991421E+02 0.  0.
        -12    1    1    2    0    0 -0.37701304323E+02 -0.80808804590E+01  0.12902593949E+02  0.40659142972E+02  0.00000000000E+00 0.  1.
         11    1    3    3    0    0  0.11267991403E+02  0.10840963808E+02  0.27837447718E-01  0.15636332746E+02  0.51100000000E-03 0. -1.
        -11    1    3    3    0    0  0.41780630937E+01 -0.66338303429E+01  0.16423077056E+01  0.80100618659E+01  0.51100000000E-03 0.  1.
        -12    1    3    3    0    0  0.22255249826E+02  0.38737469935E+01 -0.14572739103E+02  0.26882462416E+02  0.00000000000E+00 0.  1.
</event>
<event>
 7    1  0.5714431E-011  0.5052878E+02  0.7816164E-02  0.1300439E+00
        -11   -1    0    0    0    0  0.00000000000E+00  0.00000000000E+00  0.45593999997E+02  0.45594000000E+02  0.51100000000E-03 0.  1.
         11   -1    0    0    0    0 -0.00000000000E+00 -0.00000000000E+00 -0.45593999997E+02  0.45594000000E+02  0.51100000000E-03 0. -1.
    9900012    2    1    2    0    0 -0.19963620555E+02 -0.65375480918E+01 -0.34812157789E+02  0.50528781972E+02  0.29999763282E+02 0.  0.
        -12    1    1    2    0    0  0.19963620555E+02  0.65375480918E+01  0.34812157789E+02  0.40659218028E+02  0.00000000000E+00 0.  1.
         11    1    3    3    0    0 -0.76580830974E+01 -0.75182270122E+01 -0.31584860102E+02  0.33358257779E+02  0.51100000000E-03 0.  1.
        -11    1    3    3    0    0 -0.13154916612E+02  0.27574866682E+01 -0.51731502929E+01  0.14401980698E+02  0.51100000000E-03 0. -1.
        -12    1    3    3    0    0  0.84937915488E+00 -0.17768077478E+01  0.19458526063E+01  0.27685434956E+01  0.00000000000E+00 0.  1.
</event>
<event>
 7    1  0.5714431E-011  0.5052886E+02  0.7816164E-02  0.1300439E+00
        -11   -1    0    0    0    0  0.00000000000E+00  0.00000000000E+00  0.45593999997E+02  0.45594000000E+02  0.51100000000E-03 0.  1.
         11   -1    0    0    0    0 -0.00000000000E+00 -0.00000000000E+00 -0.45593999997E+02  0.45594000000E+02  0.51100000000E-03 0. -1.
    9900012    2    1    2    0    0 -0.22472861413E+02  0.20544716615E+02 -0.26945326495E+02  0.50528862026E+02  0.30000006614E+02 0.  0.
        -12    1    1    2    0    0  0.22472861413E+02 -0.20544716615E+02  0.26945326495E+02  0.40659137974E+02  0.00000000000E+00 0.  1.
         11    1    3    3    0    0  0.11631895442E+00  0.14142219080E+02 -0.20124057088E+02  0.24596616933E+02  0.51100000000E-03 0. -1.
        -11    1    3    3    0    0 -0.23047384203E+01 -0.19737001014E+01 -0.13094518454E+01  0.33048412477E+01  0.51100000000E-03 0.  1.
         12    1    3    3    0    0 -0.20284441947E+02  0.83761976362E+01 -0.55118175613E+01  0.22627403845E+02  0.00000000000E+00 0. -1.
</event>
<event>
 7    1  0.5714431E-011  0.5052887E+02  0.7816164E-02  0.1300439E+00
        -11   -1    0    0    0    0  0.00000000000E+00  0.00000000000E+00  0.45593999997E+02  0.45594000000E+02  0.51100000000E-03 0.  1.
         11   -1    0    0    0    0 -0.00000000000E+00 -0.00000000000E+00 -0.45593999997E+02  0.45594000000E+02  0.51100000000E-03 0. -1.
    9900012    2    1    2    0    0  0.32045271830E+02 -0.17808594025E+02 -0.17581787448E+02  0.50528871656E+02  0.30000035887E+02 0.  0.
        -12    1    1    2    0    0 -0.32045271830E+02  0.17808594025E+02  0.17581787448E+02  0.40659128344E+02  0.00000000000E+00 0.  1.
         11    1    3    3    0    0  0.13821261561E+01 -0.51079908507E-01  0.55178551987E+01  0.56885506171E+01  0.51100000000E-03 0. -1.
        -11    1    3    3    0    0  0.19449265902E+02 -0.26823879212E+01 -0.11277041097E+02  0.22641572500E+02  0.51100000000E-03 0.  1.
         12    1    3    3    0    0  0.11213879772E+02 -0.15075126195E+02 -0.11822601550E+02  0.22198748540E+02  0.00000000000E+00 0. -1.
</event>
<event>
 7    1  0.5714431E-011  0.5052888E+02  0.7816164E-02  0.1300439E+00
        -11   -1    0    0    0    0  0.00000000000E+00  0.00000000000E+00  0.45593999997E+02  0.45594000000E+02  0.51100000000E-03 0. -1.
         11   -1    0    0    0    0 -0.00000000000E+00 -0.00000000000E+00 -0.45593999997E+02  0.45594000000E+02  0.51100000000E-03 0.  1.
    9900012    2    1    2    0    0  0.29685505956E+02  0.22720194383E+02  0.15991483138E+02  0.50528880118E+02  0.30000061606E+02 0.  0.
        -12    1    1    2    0    0 -0.29685505956E+02 -0.22720194383E+02 -0.15991483138E+02  0.40659119882E+02  0.00000000000E+00 0.  1.
         11    1    3    3    0    0  0.12168679130E+00 -0.15359405181E+01  0.15491503207E+01  0.21848999812E+01  0.51100000000E-03 0. -1.
        -11    1    3    3    0    0  0.29523009207E+02  0.26843283890E+02  0.70605663167E+01  0.40521865204E+02  0.51100000000E-03 0.  1.
        -12    1    3    3    0    0  0.40809957315E-01 -0.25871489891E+01  0.73817665010E+01  0.78221149326E+01  0.00000000000E+00 0.  1.
</event>
<event>
 7    1  0.5714431E-011  0.5052885E+02  0.7816164E-02  0.1300439E+00
        -11   -1    0    0    0    0  0.00000000000E+00  0.00000000000E+00  0.45593999997E+02  0.45594000000E+02  0.51100000000E-03 0.  1.
         11   -1    0    0    0    0 -0.00000000000E+00 -0.00000000000E+00 -0.45593999997E+02  0.45594000000E+02  0.51100000000E-03 0. -1.
    9900012    2    1    2    0    0 -0.50230389786E+01 -0.16168897234E+02 -0.36966228194E+02  0.50528853609E+02  0.29999981031E+02 0.  0.
        -12    1    1    2    0    0  0.50230389786E+01  0.16168897234E+02  0.36966228194E+02  0.40659146391E+02  0.00000000000E+00 0.  1.
         11    1    3    3    0    0  0.33542743463E+00 -0.18804520047E+02 -0.33472413559E+02  0.38394334940E+02  0.51100000000E-03 0. -1.
        -11    1    3    3    0    0 -0.32452266728E+01  0.28862714972E+01  0.30147765585E+01  0.52868645975E+01  0.51100000000E-03 0.  1.
         12    1    3    3    0    0 -0.21132397405E+01 -0.25064868428E+00 -0.65085911936E+01  0.68476540720E+01  0.00000000000E+00 0. -1.
</event>
<event>
 7    1  0.5714431E-011  0.5052886E+02  0.7816164E-02  0.1300439E+00
        -11   -1    0    0    0    0  0.00000000000E+00  0.00000000000E+00  0.45593999997E+02  0.45594000000E+02  0.51100000000E-03 0.  1.
         11   -1    0    0    0    0 -0.00000000000E+00 -0.00000000000E+00 -0.45593999997E+02  0.45594000000E+02  0.51100000000E-03 0. -1.
    9900012    2    1    2    0    0 -0.23832220431E+02  0.23437944568E+02 -0.23148522182E+02  0.50528855205E+02  0.29999985881E+02 0.  0.
        -12    1    1    2    0    0  0.23832220431E+02 -0.23437944568E+02  0.23148522182E+02  0.40659144795E+02  0.00000000000E+00 0.  1.
         11    1    3    3    0    0 -0.92129923122E+01  0.20273506734E+02 -0.47032207759E+01  0.22759933843E+02  0.51100000000E-03 0. -1.
        -11    1    3    3    0    0 -0.27110336736E+01  0.11991590581E+01 -0.14896683200E+02  0.15188774034E+02  0.51100000000E-03 0.  1.
         12    1    3    3    0    0 -0.11908194445E+02  0.19652787763E+01 -0.35486182053E+01  0.12580147328E+02  0.00000000000E+00 0. -1.
</event>
<event>
 7    1  0.5714431E-011  0.5052885E+02  0.7816164E-02  0.1300439E+00
        -11   -1    0    0    0    0  0.00000000000E+00  0.00000000000E+00  0.45593999997E+02  0.45594000000E+02  0.51100000000E-03 0.  1.
         11   -1    0    0    0    0 -0.00000000000E+00 -0.00000000000E+00 -0.45593999997E+02  0.45594000000E+02  0.51100000000E-03 0. -1.
    9900012    2    1    2    0    0 -0.17600915321E+02 -0.15605664863E+02 -0.33163800096E+02  0.50528848105E+02  0.29999964301E+02 0.  0.
        -12    1    1    2    0    0  0.17600915321E+02  0.15605664863E+02  0.33163800096E+02  0.40659151895E+02  0.00000000000E+00 0.  1.
         11    1    3    3    0    0 -0.42498256299E+01 -0.10490356340E+01 -0.18616634812E+02  0.19124345364E+02  0.51100000000E-03 0. -1.
        -11    1    3    3    0    0 -0.77059734110E+01 -0.92721580912E+00  0.31400367693E+01  0.83726690213E+01  0.51100000000E-03 0.  1.
        -12    1    3    3    0    0 -0.56451162804E+01 -0.13629413420E+02 -0.17687202054E+02  0.23031833720E+02  0.00000000000E+00 0.  1.
</event>
<event>
 7    1  0.5714431E-011  0.5052885E+02  0.7816164E-02  0.1300439E+00
        -11   -1    0    0    0    0  0.00000000000E+00  0.00000000000E+00  0.45593999997E+02  0.45594000000E+02  0.51100000000E-03 0. -1.
         11   -1    0    0    0    0 -0.00000000000E+00 -0.00000000000E+00 -0.45593999997E+02  0.45594000000E+02  0.51100000000E-03 0.  1.
    9900012    2    1    2    0    0  0.26232068821E+02 -0.25914608135E+02  0.17131214504E+02  0.50528845314E+02  0.29999955816E+02 0.  0.
        -12    1    1    2    0    0 -0.26232068821E+02  0.25914608135E+02 -0.17131214504E+02  0.40659154686E+02  0.00000000000E+00 0.  1.
         11    1    3    3    0    0  0.31913791682E+02 -0.19704669690E+02  0.17286102499E+02  0.41298588923E+02  0.51100000000E-03 0. -1.
        -11    1    3    3    0    0 -0.42689390706E+01 -0.20904594586E+01 -0.82386594024E+00  0.48241700722E+01  0.51100000000E-03 0.  1.
         12    1    3    3    0    0 -0.14127837911E+01 -0.41194789863E+01  0.66897794610E+00  0.44060863191E+01  0.00000000000E+00 0. -1.
</event>
<event>
 7    1  0.5714431E-011  0.5052887E+02  0.7816164E-02  0.1300439E+00
        -11   -1    0    0    0    0  0.00000000000E+00  0.00000000000E+00  0.45593999997E+02  0.45594000000E+02  0.51100000000E-03 0.  1.
         11   -1    0    0    0    0 -0.00000000000E+00 -0.00000000000E+00 -0.45593999997E+02  0.45594000000E+02  0.51100000000E-03 0. -1.
    9900012    2    1    2    0    0  0.14014018497E+02  0.24556706052E+02 -0.29218837032E+02  0.50528868626E+02  0.30000026677E+02 0.  0.
        -12    1    1    2    0    0 -0.14014018497E+02 -0.24556706052E+02  0.29218837032E+02  0.40659131374E+02  0.00000000000E+00 0.  1.
         11    1    3    3    0    0  0.35950017346E+01  0.32339064097E+01 -0.56845715327E+01  0.74630115844E+01  0.51100000000E-03 0. -1.
        -11    1    3    3    0    0  0.67464551914E+01 -0.40816171910E+01  0.50106658270E+00  0.79009698471E+01  0.51100000000E-03 0.  1.
        -12    1    3    3    0    0  0.36725615709E+01  0.25404416834E+02 -0.24035332082E+02  0.35164887195E+02  0.00000000000E+00 0.  1.
</event>
<event>
 7    1  0.5714431E-011  0.5052887E+02  0.7816164E-02  0.1300439E+00
        -11   -1    0    0    0    0  0.00000000000E+00  0.00000000000E+00  0.45593999997E+02  0.45594000000E+02  0.51100000000E-03 0.  1.
         11   -1    0    0    0    0 -0.00000000000E+00 -0.00000000000E+00 -0.45593999997E+02  0.45594000000E+02  0.51100000000E-03 0. -1.
    9900012    2    1    2    0    0  0.84328426237E+01 -0.35687049140E+02  0.17563785677E+02  0.50528869680E+02  0.30000029880E+02 0.  0.
        -12    1    1    2    0    0 -0.84328426237E+01  0.35687049140E+02 -0.17563785677E+02  0.40659130320E+02  0.00000000000E+00 0.  1.
         11    1    3    3    0    0  0.29066780494E+01 -0.30677402714E+02  0.17521199746E+02  0.35447767989E+02  0.51100000000E-03 0. -1.
        -11    1    3    3    0    0  0.27231711197E+01  0.42104968086E+01  0.17164549430E+01  0.53000152976E+01  0.51100000000E-03 0.  1.
         12    1    3    3    0    0  0.28029934546E+01 -0.92201432346E+01 -0.16738690120E+01  0.97810863937E+01  0.00000000000E+00 0. -1.
</event>
<event>
 7    1  0.5714431E-011  0.5052887E+02  0.7816164E-02  0.1300439E+00
        -11   -1    0    0    0    0  0.00000000000E+00  0.00000000000E+00  0.45593999997E+02  0.45594000000E+02  0.51100000000E-03 0. -1.
         11   -1    0    0    0    0 -0.00000000000E+00 -0.00000000000E+00 -0.45593999997E+02  0.45594000000E+02  0.51100000000E-03 0.  1.
    9900012    2    1    2    0    0  0.31318665681E+02  0.20756370530E+02  0.15539600727E+02  0.50528869065E+02  0.30000028010E+02 0.  0.
        -12    1    1    2    0    0 -0.31318665681E+02 -0.20756370530E+02 -0.15539600727E+02  0.40659130935E+02  0.00000000000E+00 0.  1.
         11    1    3    3    0    0  0.25623897777E+02  0.24031975320E+02  0.42200850278E+01  0.35382610036E+02  0.51100000000E-03 0. -1.
        -11    1    3    3    0    0  0.45023067523E+01 -0.38586671345E+01  0.12192239504E+02  0.13557683524E+02  0.51100000000E-03 0.  1.
        -12    1    3    3    0    0  0.11924611525E+01  0.58306234383E+00 -0.87272380451E+00  0.15885755052E+01  0.00000000000E+00 0.  1.
</event>
<event>
 7    1  0.5714431E-011  0.5052887E+02  0.7816164E-02  0.1300439E+00
        -11   -1    0    0    0    0  0.00000000000E+00  0.00000000000E+00  0.45593999997E+02  0.45594000000E+02  0.51100000000E-03 0. -1.
         11   -1    0    0    0    0 -0.00000000000E+00 -0.00000000000E+00 -0.45593999997E+02  0.45594000000E+02  0.51100000000E-03 0.  1.
    9900012    2    1    2    0    0 -0.38366093957E+02 -0.45068190810E+01  0.12684474221E+02  0.50528874702E+02  0.30000045143E+02 0.  0.
        -12    1    1    2    0    0  0.38366093957E+02  0.45068190810E+01 -0.12684474221E+02  0.40659125298E+02  0.00000000000E+00 0.  1.
         11    1    3    3    0    0 -0.32257853765E+02  0.73843849390E+01  0.16836310270E+01  0.33135070305E+02  0.51100000000E-03 0. -1.
        -11    1    3    3    0    0 -0.19999858952E+01 -0.55615440504E+01  0.52659101044E+01  0.79158401508E+01  0.51100000000E-03 0.  1.
         12    1    3    3    0    0 -0.41082542976E+01 -0.63296599696E+01  0.57349330893E+01  0.94779642457E+01  0.00000000000E+00 0. -1.
</event>
<event>
 7    1  0.5714431E-011  0.5052887E+02  0.7816164E-02  0.1300439E+00
        -11   -1    0    0    0    0  0.00000000000E+00  0.00000000000E+00  0.45593999997E+02  0.45594000000E+02  0.51100000000E-03 0. -1.
         11   -1    0    0    0    0 -0.00000000000E+00 -0.00000000000E+00 -0.45593999997E+02  0.45594000000E+02  0.51100000000E-03 0.  1.
    9900012    2    1    2    0    0  0.29145305250E+02  0.26698902953E+02  0.95333586826E+01  0.50528866158E+02  0.30000019174E+02 0.  0.
        -12    1    1    2    0    0 -0.29145305250E+02 -0.26698902953E+02 -0.95333586826E+01  0.40659133842E+02  0.00000000000E+00 0.  1.
         11    1    3    3    0    0  0.11201189195E+01 -0.73886643580E+00  0.11178184287E+01  0.17464559268E+01  0.51100000000E-03 0. -1.
        -11    1    3    3    0    0  0.10937448097E+02 -0.36349882650E+01 -0.22679844845E+01  0.11746687382E+02  0.51100000000E-03 0.  1.
        -12    1    3    3    0    0  0.17087738233E+02  0.31072757654E+02  0.10683524738E+02  0.37035722849E+02  0.00000000000E+00 0.  1.
</event>
<event>
 7    1  0.6922188E-011  0.5052884E+02  0.7816164E-02  0.1300439E+00
        -11   -1    0    0    0    0  0.00000000000E+00  0.00000000000E+00  0.45593999997E+02  0.45594000000E+02  0.51100000000E-03 0.  1.
         11   -1    0    0    0    0 -0.00000000000E+00 -0.00000000000E+00 -0.45593999997E+02  0.45594000000E+02  0.51100000000E-03 0. -1.
    9900012    2    1    2    0    0 -0.18830183889E+02 -0.31355616476E+02 -0.17759967052E+02  0.50528844333E+02  0.29999952834E+02 0.  0.
        -12    1    1    2    0    0  0.18830183889E+02  0.31355616476E+02  0.17759967052E+02  0.40659155667E+02  0.00000000000E+00 0.  1.
         11    1    3    3    0    0  0.31930597990E+01 -0.30107036850E+01 -0.11428448653E+02  0.12242116093E+02  0.51100000000E-03 0. -1.
        -11    1    3    3    0    0 -0.86227349078E+01 -0.61705149157E+01  0.25360521200E+01  0.10902218684E+02  0.51100000000E-03 0.  1.
         12    1    3    3    0    0 -0.13400508780E+02 -0.22174397875E+02 -0.88675705188E+01  0.27384509556E+02  0.00000000000E+00 0. -1.
</event>
<event>
 7    1  0.5714431E-011  0.5052886E+02  0.7816164E-02  0.1300439E+00
        -11   -1    0    0    0    0  0.00000000000E+00  0.00000000000E+00  0.45593999997E+02  0.45594000000E+02  0.51100000000E-03 0. -1.
         11   -1    0    0    0    0 -0.00000000000E+00 -0.00000000000E+00 -0.45593999997E+02  0.45594000000E+02  0.51100000000E-03 0.  1.
    9900012    2    1    2    0    0  0.37738575256E+02  0.14856437359E+02  0.28726064423E+01  0.50528860054E+02  0.30000000619E+02 0.  0.
        -12    1    1    2    0    0 -0.37738575256E+02 -0.14856437359E+02 -0.28726064423E+01  0.40659139946E+02  0.00000000000E+00 0.  1.
         11    1    3    3    0    0  0.11363512545E+02  0.12186940654E+02  0.65418719537E+00  0.16675697916E+02  0.51100000000E-03 0. -1.
        -11    1    3    3    0    0  0.13120591473E+02 -0.84170884150E+01 -0.28468851872E+01  0.15846199971E+02  0.51100000000E-03 0.  1.
        -12    1    3    3    0    0  0.13254471239E+02  0.11086585121E+02  0.50653044341E+01  0.18006962167E+02  0.00000000000E+00 0.  1.
</event>
<event>
 7    1  0.5714431E-011  0.5052885E+02  0.7816164E-02  0.1300439E+00
        -11   -1    0    0    0    0  0.00000000000E+00  0.00000000000E+00  0.45593999997E+02  0.45594000000E+02  0.51100000000E-03 0. -1.
         11   -1    0    0    0    0 -0.00000000000E+00 -0.00000000000E+00 -0.45593999997E+02  0.45594000000E+02  0.51100000000E-03 0.  1.
    9900012    2    1    2    0    0  0.10803607598E+02 -0.16934037943E+02  0.35350905546E+02  0.50528854643E+02  0.29999984174E+02 0.  0.
        -12    1    1    2    0    0 -0.10803607598E+02  0.16934037943E+02 -0.35350905546E+02  0.40659145357E+02  0.00000000000E+00 0.  1.
         11    1    3    3    0    0  0.18417966083E+02 -0.49761757632E+01  0.20766900095E+02  0.28200140774E+02  0.51100000000E-03 0. -1.
        -11    1    3    3    0    0 -0.41994339723E+01 -0.97424876875E+01  0.14849028002E+02  0.18249519032E+02  0.51100000000E-03 0.  1.
         12    1    3    3    0    0 -0.34149245126E+01 -0.22153744920E+01 -0.26502255078E+00  0.40791948371E+01  0.00000000000E+00 0. -1.
</event>
<event>
 7    1  0.5714431E-011  0.5052886E+02  0.7816164E-02  0.1300439E+00
        -11   -1    0    0    0    0  0.00000000000E+00  0.00000000000E+00  0.45593999997E+02  0.45594000000E+02  0.51100000000E-03 0.  1.
         11   -1    0    0    0    0 -0.00000000000E+00 -0.00000000000E+00 -0.45593999997E+02  0.45594000000E+02  0.51100000000E-03 0. -1.
    9900012    2    1    2    0    0  0.43816066409E+01  0.14538353881E+02 -0.37717413095E+02  0.50528862516E+02  0.30000008105E+02 0.  0.
        -12    1    1    2    0    0 -0.43816066409E+01 -0.14538353881E+02  0.37717413095E+02  0.40659137484E+02  0.00000000000E+00 0.  1.
         11    1    3    3    0    0 -0.89758061516E+00  0.13783808470E+02 -0.34734337292E+02  0.37380117900E+02  0.51100000000E-03 0. -1.
        -11    1    3    3    0    0  0.69571235441E+01 -0.33541810578E+01 -0.38450687332E+01  0.86276678425E+01  0.51100000000E-03 0.  1.
         12    1    3    3    0    0 -0.16779362880E+01  0.41087264688E+01  0.86199292953E+00  0.45210767736E+01  0.00000000000E+00 0. -1.
</event>
<event>
 7    1  0.5714431E-011  0.5052886E+02  0.7816164E-02  0.1300439E+00
        -11   -1    0    0    0    0  0.00000000000E+00  0.00000000000E+00  0.45593999997E+02  0.45594000000E+02  0.51100000000E-03 0. -1.
         11   -1    0    0    0    0 -0.00000000000E+00 -0.00000000000E+00 -0.45593999997E+02  0.45594000000E+02  0.51100000000E-03 0.  1.
    9900012    2    1    2    0    0 -0.31128872533E+02 -0.17222533290E+02  0.19686119138E+02  0.50528860254E+02  0.30000001230E+02 0.  0.
        -12    1    1    2    0    0  0.31128872533E+02  0.17222533290E+02 -0.19686119138E+02  0.40659139746E+02  0.00000000000E+00 0.  1.
         11    1    3    3    0    0 -0.29176287629E+02 -0.65781144537E+01  0.16850653751E+02  0.34328878247E+02  0.51100000000E-03 0. -1.
        -11    1    3    3    0    0 -0.18167622478E+01 -0.10655076176E+02  0.64472432944E+01  0.12585635453E+02  0.51100000000E-03 0.  1.
         12    1    3    3    0    0 -0.13582265648E+00  0.10657340049E-01 -0.36117779069E+01  0.36143465552E+01  0.00000000000E+00 0. -1.
</event>
<event>
 7    1  0.5714431E-011  0.5052889E+02  0.7816164E-02  0.1300439E+00
        -11   -1    0    0    0    0  0.00000000000E+00  0.00000000000E+00  0.45593999997E+02  0.45594000000E+02  0.51100000000E-03 0.  1.
         11   -1    0    0    0    0 -0.00000000000E+00 -0.00000000000E+00 -0.45593999997E+02  0.45594000000E+02  0.51100000000E-03 0. -1.
    9900012    2    1    2    0    0  0.28344466360E+02  0.11557265721E+01 -0.29127623154E+02  0.50528893914E+02  0.30000103541E+02 0.  0.
        -12    1    1    2    0    0 -0.28344466360E+02 -0.11557265721E+01  0.29127623154E+02  0.40659106086E+02  0.00000000000E+00 0.  1.
         11    1    3    3    0    0  0.35714018829E+01  0.42330214452E+01  0.39770966994E+01  0.68184074667E+01  0.51100000000E-03 0. -1.
        -11    1    3    3    0    0  0.10262210155E+02 -0.82179078649E+01 -0.15435046736E+02  0.20275296174E+02  0.51100000000E-03 0.  1.
         12    1    3    3    0    0  0.14510854322E+02  0.51406129918E+01 -0.17669673117E+02  0.23435190273E+02  0.00000000000E+00 0. -1.
</event>
<event>
 7    1  0.5714431E-011  0.5052886E+02  0.7816164E-02  0.1300439E+00
        -11   -1    0    0    0    0  0.00000000000E+00  0.00000000000E+00  0.45593999997E+02  0.45594000000E+02  0.51100000000E-03 0.  1.
         11   -1    0    0    0    0 -0.00000000000E+00 -0.00000000000E+00 -0.45593999997E+02  0.45594000000E+02  0.51100000000E-03 0. -1.
    9900012    2    1    2    0    0 -0.22974836544E+02  0.13368060045E+02 -0.30767151577E+02  0.50528858841E+02  0.29999996934E+02 0.  0.
        -12    1    1    2    0    0  0.22974836544E+02 -0.13368060045E+02  0.30767151577E+02  0.40659141159E+02  0.00000000000E+00 0.  1.
         11    1    3    3    0    0 -0.15694384490E+02  0.45149376634E+01 -0.31959500491E+02  0.35890222046E+02  0.51100000000E-03 0. -1.
        -11    1    3    3    0    0  0.12139952072E+01  0.24289838161E+01 -0.21638802794E+01  0.34721930918E+01  0.51100000000E-03 0.  1.
         12    1    3    3    0    0 -0.84944472614E+01  0.64241385656E+01  0.33562291935E+01  0.11166443704E+02  0.00000000000E+00 0. -1.
</event>
<event>
 7    1  0.5714431E-011  0.5052886E+02  0.7816164E-02  0.1300439E+00
        -11   -1    0    0    0    0  0.00000000000E+00  0.00000000000E+00  0.45593999997E+02  0.45594000000E+02  0.51100000000E-03 0.  1.
         11   -1    0    0    0    0 -0.00000000000E+00 -0.00000000000E+00 -0.45593999997E+02  0.45594000000E+02  0.51100000000E-03 0. -1.
    9900012    2    1    2    0    0 -0.19279735579E+02  0.25551994941E+02 -0.25070963223E+02  0.50528857776E+02  0.29999993696E+02 0.  0.
        -12    1    1    2    0    0  0.19279735579E+02 -0.25551994941E+02  0.25070963223E+02  0.40659142224E+02  0.00000000000E+00 0.  1.
         11    1    3    3    0    0 -0.66323929303E+01  0.14446724879E+02 -0.76565194010E+01  0.17644228102E+02  0.51100000000E-03 0. -1.
        -11    1    3    3    0    0 -0.93953474250E+01  0.31008845344E+01 -0.21243427702E+02  0.23434403319E+02  0.51100000000E-03 0.  1.
        -12    1    3    3    0    0 -0.32519952241E+01  0.80043855274E+01  0.38289838799E+01  0.94502263551E+01  0.00000000000E+00 0.  1.
</event>
<event>
 7    1  0.5714431E-011  0.5052886E+02  0.7816164E-02  0.1300439E+00
        -11   -1    0    0    0    0  0.00000000000E+00  0.00000000000E+00  0.45593999997E+02  0.45594000000E+02  0.51100000000E-03 0.  1.
         11   -1    0    0    0    0 -0.00000000000E+00 -0.00000000000E+00 -0.45593999997E+02  0.45594000000E+02  0.51100000000E-03 0. -1.
    9900012    2    1    2    0    0  0.11703857345E+02  0.15206099355E+02 -0.35846332710E+02  0.50528864457E+02  0.30000014005E+02 0.  0.
        -12    1    1    2    0    0 -0.11703857345E+02 -0.15206099355E+02  0.35846332710E+02  0.40659135543E+02  0.00000000000E+00 0.  1.
         11    1    3    3    0    0  0.13744711960E+02  0.14752884744E+02 -0.19767406431E+02  0.28236768094E+02  0.51100000000E-03 0. -1.
        -11    1    3    3    0    0 -0.42166139894E+01  0.17336918902E+01 -0.18342941431E+02  0.18901032292E+02  0.51100000000E-03 0.  1.
        -12    1    3    3    0    0  0.21757593745E+01 -0.12804772799E+01  0.22640151527E+01  0.33910640707E+01  0.00000000000E+00 0.  1.
</event>
<event>
 7    1  0.5714431E-011  0.5052886E+02  0.7816164E-02  0.1300439E+00
        -11   -1    0    0    0    0  0.00000000000E+00  0.00000000000E+00  0.45593999997E+02  0.45594000000E+02  0.51100000000E-03 0.  1.
         11   -1    0    0    0    0 -0.00000000000E+00 -0.00000000000E+00 -0.45593999997E+02  0.45594000000E+02  0.51100000000E-03 0. -1.
    9900012    2    1    2    0    0  0.40407679831E+00  0.30958718841E+02 -0.26354514014E+02  0.50528856388E+02  0.29999989477E+02 0.  0.
        -12    1    1    2    0    0 -0.40407679831E+00 -0.30958718841E+02  0.26354514014E+02  0.40659143612E+02  0.00000000000E+00 0.  1.
         11    1    3    3    0    0  0.50040400507E+00  0.49435760629E+00 -0.16346721487E+01  0.17795917807E+01  0.51100000000E-03 0. -1.
        -11    1    3    3    0    0 -0.10679951306E+02  0.29507911214E+02 -0.18901864159E+02  0.36634118702E+02  0.51100000000E-03 0.  1.
        -12    1    3    3    0    0  0.10583624099E+02  0.95645002021E+00 -0.58179777068E+01  0.12115145905E+02  0.00000000000E+00 0.  1.
</event>
<event>
 7    1  0.5714431E-011  0.5052887E+02  0.7816164E-02  0.1300439E+00
        -11   -1    0    0    0    0  0.00000000000E+00  0.00000000000E+00  0.45593999997E+02  0.45594000000E+02  0.51100000000E-03 0.  1.
         11   -1    0    0    0    0 -0.00000000000E+00 -0.00000000000E+00 -0.45593999997E+02  0.45594000000E+02  0.51100000000E-03 0. -1.
    9900012    2    1    2    0    0  0.39876919529E+02  0.31321113833E+00  0.79308302814E+01  0.50528869644E+02  0.30000029769E+02 0.  0.
        -12    1    1    2    0    0 -0.39876919529E+02 -0.31321113833E+00 -0.79308302814E+01  0.40659130356E+02  0.00000000000E+00 0.  1.
         11    1    3    3    0    0  0.78306044208E+01  0.72297044337E+01  0.66581458286E+01  0.12566538821E+02  0.51100000000E-03 0. -1.
        -11    1    3    3    0    0  0.30651667209E+01 -0.82910194081E+01  0.13917295584E+01  0.89483608151E+01  0.51100000000E-03 0.  1.
         12    1    3    3    0    0  0.28981148388E+02  0.13745261127E+01 -0.11904510562E+00  0.29013970008E+02  0.00000000000E+00 0. -1.
</event>
<event>
 7    1  0.5714431E-011  0.5052884E+02  0.7816164E-02  0.1300439E+00
        -11   -1    0    0    0    0  0.00000000000E+00  0.00000000000E+00  0.45593999997E+02  0.45594000000E+02  0.51100000000E-03 0. -1.
         11   -1    0    0    0    0 -0.00000000000E+00 -0.00000000000E+00 -0.45593999997E+02  0.45594000000E+02  0.51100000000E-03 0.  1.
    9900012    2    1    2    0    0  0.19056415834E+02 -0.29137691915E+02  0.21000357674E+02  0.50528842397E+02  0.29999946949E+02 0.  0.
        -12    1    1    2    0    0 -0.19056415834E+02  0.29137691915E+02 -0.21000357674E+02  0.40659157603E+02  0.00000000000E+00 0.  1.
         11    1    3    3    0    0 -0.24847548614E+01 -0.17559244194E+01  0.33839160892E+01  0.45506225561E+01  0.51100000000E-03 0. -1.
        -11    1    3    3    0    0  0.14255571101E+02 -0.26249838909E+02  0.22270460976E+02  0.37259210707E+02  0.51100000000E-03 0.  1.
        -12    1    3    3    0    0  0.72855995949E+01 -0.11319285861E+01 -0.46540193909E+01  0.87190091336E+01  0.00000000000E+00 0.  1.
</event>
<event>
 7    1  0.5714431E-011  0.5052886E+02  0.7816164E-02  0.1300439E+00
        -11   -1    0    0    0    0  0.00000000000E+00  0.00000000000E+00  0.45593999997E+02  0.45594000000E+02  0.51100000000E-03 0. -1.
         11   -1    0    0    0    0 -0.00000000000E+00 -0.00000000000E+00 -0.45593999997E+02  0.45594000000E+02  0.51100000000E-03 0.  1.
    9900012    2    1    2    0    0 -0.13110990771E+02  0.12048254297E+02  0.36552796941E+02  0.50528862346E+02  0.30000007587E+02 0.  0.
        -12    1    1    2    0    0  0.13110990771E+02 -0.12048254297E+02 -0.36552796941E+02  0.40659137654E+02  0.00000000000E+00 0.  1.
         11    1    3    3    0    0 -0.11288300620E+02  0.11966750147E+02  0.21011538014E+02  0.26685456150E+02  0.51100000000E-03 0. -1.
        -11    1    3    3    0    0  0.23826850034E+01 -0.46387097809E+01 -0.16957648535E+01  0.54836516078E+01  0.51100000000E-03 0.  1.
         12    1    3    3    0    0 -0.42053751547E+01  0.47202139308E+01  0.17237023780E+02  0.18359754588E+02  0.00000000000E+00 0. -1.
</event>
<event>
 7    1  0.5714431E-011  0.5052887E+02  0.7816164E-02  0.1300439E+00
        -11   -1    0    0    0    0  0.00000000000E+00  0.00000000000E+00  0.45593999997E+02  0.45594000000E+02  0.51100000000E-03 0. -1.
         11   -1    0    0    0    0 -0.00000000000E+00 -0.00000000000E+00 -0.45593999997E+02  0.45594000000E+02  0.51100000000E-03 0.  1.
    9900012    2    1    2    0    0 -0.39132849515E+02 -0.89935807390E+01  0.63953184376E+01  0.50528874289E+02  0.30000043889E+02 0.  0.
        -12    1    1    2    0    0  0.39132849515E+02  0.89935807390E+01 -0.63953184376E+01  0.40659125711E+02  0.00000000000E+00 0.  1.
         11    1    3    3    0    0 -0.57158969916E+01  0.30107845173E+01 -0.71590099284E+01  0.96430143236E+01  0.51100000000E-03 0. -1.
        -11    1    3    3    0    0 -0.25180999696E+02 -0.14852257762E+02  0.72217937768E+01  0.30113561927E+02  0.51100000000E-03 0.  1.
        -12    1    3    3    0    0 -0.82359528273E+01  0.28478925059E+01  0.63325345892E+01  0.10772298038E+02  0.00000000000E+00 0.  1.
</event>
<event>
 7    1  0.5714431E-011  0.5052886E+02  0.7816164E-02  0.1300439E+00
        -11   -1    0    0    0    0  0.00000000000E+00  0.00000000000E+00  0.45593999997E+02  0.45594000000E+02  0.51100000000E-03 0.  1.
         11   -1    0    0    0    0 -0.00000000000E+00 -0.00000000000E+00 -0.45593999997E+02  0.45594000000E+02  0.51100000000E-03 0. -1.
    9900012    2    1    2    0    0 -0.16294006498E+02  0.36740835563E+02 -0.61467243979E+01  0.50528857530E+02  0.29999992948E+02 0.  0.
        -12    1    1    2    0    0  0.16294006498E+02 -0.36740835563E+02  0.61467243979E+01  0.40659142470E+02  0.00000000000E+00 0.  1.
         11    1    3    3    0    0  0.83261489935E+01  0.13773990822E+02 -0.28120438052E+01  0.16338762831E+02  0.51100000000E-03 0. -1.
        -11    1    3    3    0    0 -0.54587280533E+01  0.37304228656E+01 -0.23632042953E+01  0.70212891635E+01  0.51100000000E-03 0.  1.
         12    1    3    3    0    0 -0.19161427438E+02  0.19236421875E+02 -0.97147629741E+00  0.27168805535E+02  0.00000000000E+00 0. -1.
</event>
<event>
 7    1  0.5714431E-011  0.5052885E+02  0.7816164E-02  0.1300439E+00
        -11   -1    0    0    0    0  0.00000000000E+00  0.00000000000E+00  0.45593999997E+02  0.45594000000E+02  0.51100000000E-03 0.  1.
         11   -1    0    0    0    0 -0.00000000000E+00 -0.00000000000E+00 -0.45593999997E+02  0.45594000000E+02  0.51100000000E-03 0. -1.
    9900012    2    1    2    0    0 -0.26171957893E+02 -0.10283275467E+02 -0.29367489905E+02  0.50528848538E+02  0.29999965617E+02 0.  0.
        -12    1    1    2    0    0  0.26171957893E+02  0.10283275467E+02  0.29367489905E+02  0.40659151462E+02  0.00000000000E+00 0.  1.
         11    1    3    3    0    0 -0.11832488235E+02 -0.17591476143E+02 -0.72988382090E+01  0.22421883288E+02  0.51100000000E-03 0. -1.
        -11    1    3    3    0    0 -0.10261075957E+02  0.21514497127E+01 -0.10740890725E+02  0.15009501973E+02  0.51100000000E-03 0.  1.
         12    1    3    3    0    0 -0.40783937014E+01  0.51567509634E+01 -0.11327760971E+02  0.13097463277E+02  0.00000000000E+00 0. -1.
</event>
<event>
 7    1  0.5714431E-011  0.5052887E+02  0.7816164E-02  0.1300439E+00
        -11   -1    0    0    0    0  0.00000000000E+00  0.00000000000E+00  0.45593999997E+02  0.45594000000E+02  0.51100000000E-03 0.  1.
         11   -1    0    0    0    0 -0.00000000000E+00 -0.00000000000E+00 -0.45593999997E+02  0.45594000000E+02  0.51100000000E-03 0. -1.
    9900012    2    1    2    0    0 -0.95661610115E+01  0.57091218612E+01 -0.39103192284E+02  0.50528866269E+02  0.30000019512E+02 0.  0.
        -12    1    1    2    0    0  0.95661610115E+01 -0.57091218612E+01  0.39103192284E+02  0.40659133731E+02  0.00000000000E+00 0.  1.
         11    1    3    3    0    0 -0.34727332902E+01 -0.11839688379E+02 -0.14259593387E+02  0.18856672592E+02  0.51100000000E-03 0. -1.
        -11    1    3    3    0    0  0.11954901339E+01  0.46401186512E+01 -0.53491202847E+01  0.71814334112E+01  0.51100000000E-03 0.  1.
         12    1    3    3    0    0 -0.72889178551E+01  0.12908691589E+02 -0.19494478612E+02  0.24490760266E+02  0.00000000000E+00 0. -1.
</event>
<event>
 7    1  0.5714431E-011  0.5052885E+02  0.7816164E-02  0.1300439E+00
        -11   -1    0    0    0    0  0.00000000000E+00  0.00000000000E+00  0.45593999997E+02  0.45594000000E+02  0.51100000000E-03 0. -1.
         11   -1    0    0    0    0 -0.00000000000E+00 -0.00000000000E+00 -0.45593999997E+02  0.45594000000E+02  0.51100000000E-03 0.  1.
    9900012    2    1    2    0    0  0.29283937730E+02  0.27805886570E+02 -0.47381298588E+01  0.50528853286E+02  0.29999980049E+02 0.  0.
        -12    1    1    2    0    0 -0.29283937730E+02 -0.27805886570E+02  0.47381298588E+01  0.40659146714E+02  0.00000000000E+00 0.  1.
         11    1    3    3    0    0  0.15120731629E+02  0.79337571063E+01  0.78343266826E+00  0.17093706264E+02  0.51100000000E-03 0. -1.
        -11    1    3    3    0    0  0.53154640569E+01  0.18126503016E+02 -0.11957049178E+02  0.22356101964E+02  0.51100000000E-03 0.  1.
        -12    1    3    3    0    0  0.88477420443E+01  0.17456264472E+01  0.64354866508E+01  0.11079045059E+02  0.00000000000E+00 0.  1.
</event>
<event>
 7    1  0.5714431E-011  0.5052886E+02  0.7816164E-02  0.1300439E+00
        -11   -1    0    0    0    0  0.00000000000E+00  0.00000000000E+00  0.45593999997E+02  0.45594000000E+02  0.51100000000E-03 0.  1.
         11   -1    0    0    0    0 -0.00000000000E+00 -0.00000000000E+00 -0.45593999997E+02  0.45594000000E+02  0.51100000000E-03 0. -1.
    9900012    2    1    2    0    0 -0.39413796001E+02 -0.92625638165E+01 -0.37314233664E+01  0.50528856822E+02  0.29999990796E+02 0.  0.
        -12    1    1    2    0    0  0.39413796001E+02  0.92625638165E+01  0.37314233664E+01  0.40659143178E+02  0.00000000000E+00 0.  1.
         11    1    3    3    0    0 -0.18990902047E+02 -0.62448801415E+01  0.81581608586E+01  0.21591861370E+02  0.51100000000E-03 0.  1.
        -11    1    3    3    0    0 -0.18026769093E+02 -0.21048482952E+01 -0.15931953899E+02  0.24149988521E+02  0.51100000000E-03 0. -1.
         12    1    3    3    0    0 -0.23961248606E+01 -0.91283537973E+00  0.40423696739E+01  0.47870069311E+01  0.00000000000E+00 0. -1.
</event>
<event>
 7    1  0.5714431E-011  0.5052884E+02  0.7816164E-02  0.1300439E+00
        -11   -1    0    0    0    0  0.00000000000E+00  0.00000000000E+00  0.45593999997E+02  0.45594000000E+02  0.51100000000E-03 0.  1.
         11   -1    0    0    0    0 -0.00000000000E+00 -0.00000000000E+00 -0.45593999997E+02  0.45594000000E+02  0.51100000000E-03 0. -1.
    9900012    2    1    2    0    0  0.12498789448E+01  0.19869411799E+02 -0.35451540942E+02  0.50528837715E+02  0.29999932717E+02 0.  0.
        -12    1    1    2    0    0 -0.12498789448E+01 -0.19869411799E+02  0.35451540942E+02  0.40659162285E+02  0.00000000000E+00 0.  1.
         11    1    3    3    0    0  0.46932608299E+01  0.31856745112E+01 -0.14595880380E+02  0.15659340460E+02  0.51100000000E-03 0. -1.
        -11    1    3    3    0    0 -0.92163538566E+01 -0.47537962375E+00 -0.37469773829E+01  0.99602712797E+01  0.51100000000E-03 0.  1.
        -12    1    3    3    0    0  0.57729719715E+01  0.17159116912E+02 -0.17108683178E+02  0.24909225975E+02  0.00000000000E+00 0.  1.
</event>
<event>
 7    1  0.5714431E-011  0.5052876E+02  0.7816164E-02  0.1300439E+00
        -11   -1    0    0    0    0  0.00000000000E+00  0.00000000000E+00  0.45593999997E+02  0.45594000000E+02  0.51100000000E-03 0.  1.
         11   -1    0    0    0    0 -0.00000000000E+00 -0.00000000000E+00 -0.45593999997E+02  0.45594000000E+02  0.51100000000E-03 0. -1.
    9900012    2    1    2    0    0  0.27153980079E+02 -0.24796856259E+02 -0.17347951787E+02  0.50528755717E+02  0.29999683475E+02 0.  0.
        -12    1    1    2    0    0 -0.27153980079E+02  0.24796856259E+02  0.17347951787E+02  0.40659244283E+02  0.00000000000E+00 0.  1.
         11    1    3    3    0    0 -0.14592634630E+01 -0.93642321787E+01 -0.93961451333E+01  0.13345629913E+02  0.51100000000E-03 0.  1.
        -11    1    3    3    0    0  0.21194451795E+02 -0.18476804517E+02 -0.45982476843E+01  0.28491068321E+02  0.51100000000E-03 0. -1.
        -12    1    3    3    0    0  0.74187917471E+01  0.30441804367E+01 -0.33535589696E+01  0.86920574825E+01  0.00000000000E+00 0.  1.
</event>
<event>
 7    1  0.5714431E-011  0.5052885E+02  0.7816164E-02  0.1300439E+00
        -11   -1    0    0    0    0  0.00000000000E+00  0.00000000000E+00  0.45593999997E+02  0.45594000000E+02  0.51100000000E-03 0. -1.
         11   -1    0    0    0    0 -0.00000000000E+00 -0.00000000000E+00 -0.45593999997E+02  0.45594000000E+02  0.51100000000E-03 0.  1.
    9900012    2    1    2    0    0  0.30209702848E+02 -0.26311645755E+02  0.69453050734E+01  0.50528854521E+02  0.29999983802E+02 0.  0.
        -12    1    1    2    0    0 -0.30209702848E+02  0.26311645755E+02 -0.69453050734E+01  0.40659145479E+02  0.00000000000E+00 0.  1.
         11    1    3    3    0    0  0.12863042758E+02 -0.17030940895E+02  0.11666589249E+02  0.24323242418E+02  0.51100000000E-03 0. -1.
        -11    1    3    3    0    0  0.16943118703E+02 -0.78869720761E+00 -0.50511923369E+01  0.17697622975E+02  0.51100000000E-03 0.  1.
        -12    1    3    3    0    0  0.40354138754E+00 -0.84920076517E+01  0.32990816145E+00  0.85079891281E+01  0.00000000000E+00 0.  1.
</event>
<event>
 7    1  0.5714431E-011  0.5052886E+02  0.7816164E-02  0.1300439E+00
        -11   -1    0    0    0    0  0.00000000000E+00  0.00000000000E+00  0.45593999997E+02  0.45594000000E+02  0.51100000000E-03 0.  1.
         11   -1    0    0    0    0 -0.00000000000E+00 -0.00000000000E+00 -0.45593999997E+02  0.45594000000E+02  0.51100000000E-03 0. -1.
    9900012    2    1    2    0    0 -0.14616316761E+02 -0.36727598806E+02 -0.95190551469E+01  0.50528860306E+02  0.30000001387E+02 0.  0.
        -12    1    1    2    0    0  0.14616316761E+02  0.36727598806E+02  0.95190551469E+01  0.40659139694E+02  0.00000000000E+00 0.  1.
         11    1    3    3    0    0 -0.11486070571E+02  0.47193742802E+00 -0.29649715051E+01  0.11871966913E+02  0.51100000000E-03 0. -1.
        -11    1    3    3    0    0  0.24691811559E+01 -0.96861567583E+01 -0.23255405899E+01  0.10262876187E+02  0.51100000000E-03 0.  1.
         12    1    3    3    0    0 -0.55994273460E+01 -0.27513379476E+02 -0.42285430519E+01  0.28394017207E+02  0.00000000000E+00 0. -1.
</event>
<event>
 7    1  0.5714431E-011  0.5052887E+02  0.7816164E-02  0.1300439E+00
        -11   -1    0    0    0    0  0.00000000000E+00  0.00000000000E+00  0.45593999997E+02  0.45594000000E+02  0.51100000000E-03 0.  1.
         11   -1    0    0    0    0 -0.00000000000E+00 -0.00000000000E+00 -0.45593999997E+02  0.45594000000E+02  0.51100000000E-03 0. -1.
    9900012    2    1    2    0    0  0.31831486841E+02  0.77312039394E+01 -0.24086305868E+02  0.50528865734E+02  0.30000017886E+02 0.  0.
        -12    1    1    2    0    0 -0.31831486841E+02 -0.77312039394E+01  0.24086305868E+02  0.40659134266E+02  0.00000000000E+00 0.  1.
         11    1    3    3    0    0  0.18846302021E+02  0.14413599169E+02 -0.14406555578E+02  0.27757589679E+02  0.51100000000E-03 0. -1.
        -11    1    3    3    0    0  0.12695844558E+02 -0.76125939735E+01 -0.18929579457E+01  0.14923784577E+02  0.51100000000E-03 0.  1.
        -12    1    3    3    0    0  0.28934026128E+00  0.93019874374E+00 -0.77867923445E+01  0.78474914785E+01  0.00000000000E+00 0.  1.
</event>
<event>
 7    1  0.5714431E-011  0.5052886E+02  0.7816164E-02  0.1300439E+00
        -11   -1    0    0    0    0  0.00000000000E+00  0.00000000000E+00  0.45593999997E+02  0.45594000000E+02  0.51100000000E-03 0.  1.
         11   -1    0    0    0    0 -0.00000000000E+00 -0.00000000000E+00 -0.45593999997E+02  0.45594000000E+02  0.51100000000E-03 0. -1.
    9900012    2    1    2    0    0 -0.34591162750E+02 -0.14485241083E+02 -0.15709710713E+02  0.50528858835E+02  0.29999996914E+02 0.  0.
        -12    1    1    2    0    0  0.34591162750E+02  0.14485241083E+02  0.15709710713E+02  0.40659141165E+02  0.00000000000E+00 0.  1.
         11    1    3    3    0    0 -0.71260988595E+01 -0.15737525841E+02 -0.14682161090E+02  0.22671939905E+02  0.51100000000E-03 0. -1.
        -11    1    3    3    0    0 -0.11036813223E+01 -0.33192766889E+00  0.77128587573E+00  0.13867842665E+01  0.51100000000E-03 0.  1.
         12    1    3    3    0    0 -0.26361382568E+02  0.15842124264E+01 -0.17988354987E+01  0.26470134663E+02  0.00000000000E+00 0. -1.
</event>
<event>
 7    1  0.5714431E-011  0.5052883E+02  0.7816164E-02  0.1300439E+00
        -11   -1    0    0    0    0  0.00000000000E+00  0.00000000000E+00  0.45593999997E+02  0.45594000000E+02  0.51100000000E-03 0. -1.
         11   -1    0    0    0    0 -0.00000000000E+00 -0.00000000000E+00 -0.45593999997E+02  0.45594000000E+02  0.51100000000E-03 0.  1.
    9900012    2    1    2    0    0 -0.13051448010E+02 -0.30878706732E+02  0.23007244079E+02  0.50528830005E+02  0.29999909284E+02 0.  0.
        -12    1    1    2    0    0  0.13051448010E+02  0.30878706732E+02 -0.23007244079E+02  0.40659169995E+02  0.00000000000E+00 0.  1.
         11    1    3    3    0    0  0.43975332758E+01 -0.90410937214E+01  0.10193746063E+02  0.14317546356E+02  0.51100000000E-03 0. -1.
        -11    1    3    3    0    0 -0.18891332498E+02 -0.21219518955E+02  0.57639509149E+01  0.28989197275E+02  0.51100000000E-03 0.  1.
        -12    1    3    3    0    0  0.14423512126E+01 -0.61809405555E+00  0.70495471008E+01  0.72220863750E+01  0.00000000000E+00 0.  1.
</event>
<event>
 7    1  0.5714431E-011  0.5052885E+02  0.7816164E-02  0.1300439E+00
        -11   -1    0    0    0    0  0.00000000000E+00  0.00000000000E+00  0.45593999997E+02  0.45594000000E+02  0.51100000000E-03 0.  1.
         11   -1    0    0    0    0 -0.00000000000E+00 -0.00000000000E+00 -0.45593999997E+02  0.45594000000E+02  0.51100000000E-03 0. -1.
    9900012    2    1    2    0    0  0.12601313671E+02 -0.30528319869E+02 -0.23714873762E+02  0.50528847798E+02  0.29999963366E+02 0.  0.
        -12    1    1    2    0    0 -0.12601313671E+02  0.30528319869E+02  0.23714873762E+02  0.40659152202E+02  0.00000000000E+00 0.  1.
         11    1    3    3    0    0  0.21236209969E+01 -0.10224422147E+02 -0.23662223212E+02  0.25864055791E+02  0.51100000000E-03 0. -1.
        -11    1    3    3    0    0 -0.96197142191E+00 -0.37437414672E+01  0.21404846372E+01  0.44184458731E+01  0.51100000000E-03 0.  1.
         12    1    3    3    0    0  0.11439664096E+02 -0.16560156255E+02 -0.21931351873E+01  0.20246346134E+02  0.00000000000E+00 0. -1.
</event>
<event>
 7    1  0.5714431E-011  0.5052892E+02  0.7816164E-02  0.1300439E+00
        -11   -1    0    0    0    0  0.00000000000E+00  0.00000000000E+00  0.45593999997E+02  0.45594000000E+02  0.51100000000E-03 0.  1.
         11   -1    0    0    0    0 -0.00000000000E+00 -0.00000000000E+00 -0.45593999997E+02  0.45594000000E+02  0.51100000000E-03 0. -1.
    9900012    2    1    2    0    0 -0.98158606094E+01 -0.45279331669E+01 -0.39195759757E+02  0.50528918835E+02  0.30000179291E+02 0.  0.
        -12    1    1    2    0    0  0.98158606094E+01  0.45279331669E+01  0.39195759757E+02  0.40659081165E+02  0.00000000000E+00 0.  1.
         11    1    3    3    0    0 -0.22624302430E+01 -0.26126008349E+00 -0.37824421089E+02  0.37892923857E+02  0.51100000000E-03 0. -1.
        -11    1    3    3    0    0  0.73207378432E+00 -0.81752446486E+00  0.25997961174E+01  0.28219175022E+01  0.51100000000E-03 0.  1.
         12    1    3    3    0    0 -0.82855041507E+01 -0.34491486186E+01 -0.39711347849E+01  0.98140774759E+01  0.00000000000E+00 0. -1.
</event>
<event>
 7    1  0.5714431E-011  0.5052886E+02  0.7816164E-02  0.1300439E+00
        -11   -1    0    0    0    0  0.00000000000E+00  0.00000000000E+00  0.45593999997E+02  0.45594000000E+02  0.51100000000E-03 0.  1.
         11   -1    0    0    0    0 -0.00000000000E+00 -0.00000000000E+00 -0.45593999997E+02  0.45594000000E+02  0.51100000000E-03 0. -1.
    9900012    2    1    2    0    0  0.73565581078E+01 -0.17182731551E+02 -0.36108171941E+02  0.50528864598E+02  0.30000014431E+02 0.  0.
        -12    1    1    2    0    0 -0.73565581078E+01  0.17182731551E+02  0.36108171941E+02  0.40659135402E+02  0.00000000000E+00 0.  1.
         11    1    3    3    0    0  0.11623838642E+02 -0.22097393424E+02 -0.29682350189E+02  0.38787244474E+02  0.51100000000E-03 0. -1.
        -11    1    3    3    0    0 -0.29253306908E+01  0.22263082011E+01  0.93327689406E+00  0.37927580833E+01  0.51100000000E-03 0.  1.
         12    1    3    3    0    0 -0.13419498433E+01  0.26883536720E+01 -0.73590986461E+01  0.79488620400E+01  0.00000000000E+00 0. -1.
</event>
<event>
 7    1  0.5714431E-011  0.5052886E+02  0.7816164E-02  0.1300439E+00
        -11   -1    0    0    0    0  0.00000000000E+00  0.00000000000E+00  0.45593999997E+02  0.45594000000E+02  0.51100000000E-03 0.  1.
         11   -1    0    0    0    0 -0.00000000000E+00 -0.00000000000E+00 -0.45593999997E+02  0.45594000000E+02  0.51100000000E-03 0. -1.
    9900012    2    1    2    0    0  0.73586290850E+00 -0.18529219370E+02 -0.36184145903E+02  0.50528857370E+02  0.29999992463E+02 0.  0.
        -12    1    1    2    0    0 -0.73586290850E+00  0.18529219370E+02  0.36184145903E+02  0.40659142630E+02  0.00000000000E+00 0.  1.
         11    1    3    3    0    0  0.39255294306E+01 -0.24132623514E+01 -0.32272718956E+02  0.32600030760E+02  0.51100000000E-03 0. -1.
        -11    1    3    3    0    0 -0.29609597379E+01 -0.16026956026E+02 -0.24911021976E+01  0.16487455609E+02  0.51100000000E-03 0.  1.
        -12    1    3    3    0    0 -0.22870678423E+00 -0.89000991950E-01 -0.14203247495E+01  0.14413710014E+01  0.00000000000E+00 0.  1.
</event>
<event>
 7    1  0.5714431E-011  0.5052886E+02  0.7816164E-02  0.1300439E+00
        -11   -1    0    0    0    0  0.00000000000E+00  0.00000000000E+00  0.45593999997E+02  0.45594000000E+02  0.51100000000E-03 0. -1.
         11   -1    0    0    0    0 -0.00000000000E+00 -0.00000000000E+00 -0.45593999997E+02  0.45594000000E+02  0.51100000000E-03 0.  1.
    9900012    2    1    2    0    0  0.33602810551E+02 -0.24993017482E+01  0.22754571981E+02  0.50528856721E+02  0.29999990489E+02 0.  0.
        -12    1    1    2    0    0 -0.33602810551E+02  0.24993017482E+01 -0.22754571981E+02  0.40659143279E+02  0.00000000000E+00 0.  1.
         11    1    3    3    0    0  0.26396363679E+02 -0.19819346212E+01  0.66533035831E+01  0.27294001706E+02  0.51100000000E-03 0. -1.
        -11    1    3    3    0    0 -0.23107260228E+01  0.51073181547E+01  0.65868476692E+01  0.86493188150E+01  0.51100000000E-03 0.  1.
        -12    1    3    3    0    0  0.95171728950E+01 -0.56246852818E+01  0.95144207289E+01  0.14585536200E+02  0.00000000000E+00 0.  1.
</event>
<event>
 7    1  0.5714431E-011  0.5052885E+02  0.7816164E-02  0.1300439E+00
        -11   -1    0    0    0    0  0.00000000000E+00  0.00000000000E+00  0.45593999997E+02  0.45594000000E+02  0.51100000000E-03 0.  1.
         11   -1    0    0    0    0 -0.00000000000E+00 -0.00000000000E+00 -0.45593999997E+02  0.45594000000E+02  0.51100000000E-03 0. -1.
    9900012    2    1    2    0    0 -0.37067632285E+02 -0.13853623185E+02 -0.93399262189E+01  0.50528850226E+02  0.29999970746E+02 0.  0.
        -12    1    1    2    0    0  0.37067632285E+02  0.13853623185E+02  0.93399262189E+01  0.40659149774E+02  0.00000000000E+00 0.  1.
         11    1    3    3    0    0 -0.27746615035E+01 -0.53772463578E+01  0.24892068211E+01  0.65429103395E+01  0.51100000000E-03 0. -1.
        -11    1    3    3    0    0 -0.35207457347E+02 -0.11201366550E+02 -0.59238565432E+01  0.37418280853E+02  0.51100000000E-03 0.  1.
        -12    1    3    3    0    0  0.91448656472E+00  0.27249897236E+01 -0.59052764968E+01  0.65676590331E+01  0.00000000000E+00 0.  1.
</event>
<event>
 7    1  0.5714431E-011  0.5052886E+02  0.7816164E-02  0.1300439E+00
        -11   -1    0    0    0    0  0.00000000000E+00  0.00000000000E+00  0.45593999997E+02  0.45594000000E+02  0.51100000000E-03 0.  1.
         11   -1    0    0    0    0 -0.00000000000E+00 -0.00000000000E+00 -0.45593999997E+02  0.45594000000E+02  0.51100000000E-03 0. -1.
    9900012    2    1    2    0    0  0.94927532584E+01  0.23264047625E+01 -0.39466962984E+02  0.50528859690E+02  0.29999999515E+02 0.  0.
        -12    1    1    2    0    0 -0.94927532584E+01 -0.23264047625E+01  0.39466962984E+02  0.40659140310E+02  0.00000000000E+00 0.  1.
         11    1    3    3    0    0  0.57156780145E+01 -0.28708492340E+01 -0.38375550327E+02  0.38904930454E+02  0.51100000000E-03 0. -1.
        -11    1    3    3    0    0  0.10322488405E+01 -0.17099014646E+00  0.37488706495E+01  0.38921467992E+01  0.51100000000E-03 0.  1.
         12    1    3    3    0    0  0.27448264034E+01  0.53682441430E+01 -0.48402833065E+01  0.77317824369E+01  0.00000000000E+00 0. -1.
</event>
<event>
 7    1  0.5714431E-011  0.5052886E+02  0.7816164E-02  0.1300439E+00
        -11   -1    0    0    0    0  0.00000000000E+00  0.00000000000E+00  0.45593999997E+02  0.45594000000E+02  0.51100000000E-03 0.  1.
         11   -1    0    0    0    0 -0.00000000000E+00 -0.00000000000E+00 -0.45593999997E+02  0.45594000000E+02  0.51100000000E-03 0. -1.
    9900012    2    1    2    0    0 -0.18122764159E+01  0.20501858380E+02 -0.35065008538E+02  0.50528863676E+02  0.30000011631E+02 0.  0.
        -12    1    1    2    0    0  0.18122764159E+01 -0.20501858380E+02  0.35065008538E+02  0.40659136324E+02  0.00000000000E+00 0.  1.
         11    1    3    3    0    0  0.98161945180E+01  0.45322524405E+01 -0.45985281054E+01  0.11749274360E+02  0.51100000000E-03 0.  1.
        -11    1    3    3    0    0 -0.64861318123E+01  0.44359763799E+01 -0.27558548563E+01  0.83272161362E+01  0.51100000000E-03 0. -1.
         12    1    3    3    0    0 -0.51423391216E+01  0.11533629560E+02 -0.27710625576E+02  0.30452373180E+02  0.00000000000E+00 0. -1.
</event>
<event>
 7    1  0.5714431E-011  0.5052886E+02  0.7816164E-02  0.1300439E+00
        -11   -1    0    0    0    0  0.00000000000E+00  0.00000000000E+00  0.45593999997E+02  0.45594000000E+02  0.51100000000E-03 0.  1.
         11   -1    0    0    0    0 -0.00000000000E+00 -0.00000000000E+00 -0.45593999997E+02  0.45594000000E+02  0.51100000000E-03 0. -1.
    9900012    2    1    2    0    0  0.11096454701E+02  0.18349099039E+02 -0.34544825079E+02  0.50528859795E+02  0.29999999832E+02 0.  0.
        -12    1    1    2    0    0 -0.11096454701E+02 -0.18349099039E+02  0.34544825079E+02  0.40659140205E+02  0.00000000000E+00 0.  1.
         11    1    3    3    0    0 -0.58261071713E+01 -0.20507446435E+01 -0.10277512186E+02  0.11990677019E+02  0.51100000000E-03 0. -1.
        -11    1    3    3    0    0  0.15586181888E+02  0.87489016839E+01 -0.11775232107E+02  0.21403935104E+02  0.51100000000E-03 0.  1.
         12    1    3    3    0    0  0.13363799848E+01  0.11650941999E+02 -0.12492080786E+02  0.17134247672E+02  0.00000000000E+00 0. -1.
</event>
<event>
 7    1  0.5714431E-011  0.5052886E+02  0.7816164E-02  0.1300439E+00
        -11   -1    0    0    0    0  0.00000000000E+00  0.00000000000E+00  0.45593999997E+02  0.45594000000E+02  0.51100000000E-03 0. -1.
         11   -1    0    0    0    0 -0.00000000000E+00 -0.00000000000E+00 -0.45593999997E+02  0.45594000000E+02  0.51100000000E-03 0.  1.
    9900012    2    1    2    0    0 -0.26826896044E+02 -0.29280935339E+02  0.87240911910E+01  0.50528864584E+02  0.30000014389E+02 0.  0.
        -12    1    1    2    0    0  0.26826896044E+02  0.29280935339E+02 -0.87240911910E+01  0.40659135416E+02  0.00000000000E+00 0.  1.
         11    1    3    3    0    0 -0.15779467612E+02 -0.28032501249E+02  0.15736034653E+01  0.32206970558E+02  0.51100000000E-03 0. -1.
        -11    1    3    3    0    0 -0.31512874647E+01  0.36950139251E+01  0.75730475474E+01  0.89963764932E+01  0.51100000000E-03 0.  1.
        -12    1    3    3    0    0 -0.78961409670E+01 -0.49434480146E+01 -0.42255982170E+00  0.93255175324E+01  0.00000000000E+00 0.  1.
</event>
<event>
 7    1  0.5714431E-011  0.5052886E+02  0.7816164E-02  0.1300439E+00
        -11   -1    0    0    0    0  0.00000000000E+00  0.00000000000E+00  0.45593999997E+02  0.45594000000E+02  0.51100000000E-03 0.  1.
         11   -1    0    0    0    0 -0.00000000000E+00 -0.00000000000E+00 -0.45593999997E+02  0.45594000000E+02  0.51100000000E-03 0. -1.
    9900012    2    1    2    0    0  0.34915209337E+02  0.73034635458E+01 -0.19512899101E+02  0.50528860140E+02  0.30000000882E+02 0.  0.
        -12    1    1    2    0    0 -0.34915209337E+02 -0.73034635458E+01  0.19512899101E+02  0.40659139860E+02  0.00000000000E+00 0.  1.
         11    1    3    3    0    0  0.13420767791E+02 -0.45448325239E+01 -0.14886101270E+02  0.20551606313E+02  0.51100000000E-03 0. -1.
        -11    1    3    3    0    0  0.23226815889E+02  0.74453837512E+01 -0.17809778794E+01  0.24455890866E+02  0.51100000000E-03 0.  1.
         12    1    3    3    0    0 -0.17323743436E+01  0.44029123185E+01 -0.28458199516E+01  0.55213629611E+01  0.00000000000E+00 0. -1.
</event>
<event>
 7    1  0.5714431E-011  0.5052886E+02  0.7816164E-02  0.1300439E+00
        -11   -1    0    0    0    0  0.00000000000E+00  0.00000000000E+00  0.45593999997E+02  0.45594000000E+02  0.51100000000E-03 0.  1.
         11   -1    0    0    0    0 -0.00000000000E+00 -0.00000000000E+00 -0.45593999997E+02  0.45594000000E+02  0.51100000000E-03 0. -1.
    9900012    2    1    2    0    0  0.40506300466E+02 -0.77343146882E+00 -0.34361985858E+01  0.50528855464E+02  0.29999986668E+02 0.  0.
        -12    1    1    2    0    0 -0.40506300466E+02  0.77343146882E+00  0.34361985858E+01  0.40659144536E+02  0.00000000000E+00 0.  1.
         11    1    3    3    0    0  0.35723701409E+02 -0.28765638293E+01  0.12865408336E+00  0.35839559344E+02  0.51100000000E-03 0. -1.
        -11    1    3    3    0    0  0.30861330095E+01 -0.18987492340E+01  0.43487926432E+01  0.56605179375E+01  0.51100000000E-03 0.  1.
         12    1    3    3    0    0  0.16964660477E+01  0.40018815945E+01 -0.79136453123E+01  0.90287781829E+01  0.00000000000E+00 0. -1.
</event>
<event>
 7    1  0.5714431E-011  0.5052886E+02  0.7816164E-02  0.1300439E+00
        -11   -1    0    0    0    0  0.00000000000E+00  0.00000000000E+00  0.45593999997E+02  0.45594000000E+02  0.51100000000E-03 0.  1.
         11   -1    0    0    0    0 -0.00000000000E+00 -0.00000000000E+00 -0.45593999997E+02  0.45594000000E+02  0.51100000000E-03 0. -1.
    9900012    2    1    2    0    0  0.13495821106E+02 -0.10340507020E+02 -0.36933757513E+02  0.50528859370E+02  0.29999998540E+02 0.  0.
        -12    1    1    2    0    0 -0.13495821106E+02  0.10340507020E+02  0.36933757513E+02  0.40659140630E+02  0.00000000000E+00 0.  1.
         11    1    3    3    0    0  0.26439303261E+01 -0.13457738208E+02 -0.31629549008E+02  0.34475055561E+02  0.51100000000E-03 0. -1.
        -11    1    3    3    0    0  0.11327308180E+02 -0.65294623863E+00 -0.41695591706E+01  0.12087988805E+02  0.51100000000E-03 0.  1.
         12    1    3    3    0    0 -0.47541740076E+00  0.37701774264E+01 -0.11346493343E+01  0.39658150037E+01  0.00000000000E+00 0. -1.
</event>
<event>
 7    1  0.5714431E-011  0.5052886E+02  0.7816164E-02  0.1300439E+00
        -11   -1    0    0    0    0  0.00000000000E+00  0.00000000000E+00  0.45593999997E+02  0.45594000000E+02  0.51100000000E-03 0. -1.
         11   -1    0    0    0    0 -0.00000000000E+00 -0.00000000000E+00 -0.45593999997E+02  0.45594000000E+02  0.51100000000E-03 0.  1.
    9900012    2    1    2    0    0 -0.44794672216E+01 -0.82286093465E+01  0.39565006840E+02  0.50528863208E+02  0.30000010208E+02 0.  0.
        -12    1    1    2    0    0  0.44794672216E+01  0.82286093465E+01 -0.39565006840E+02  0.40659136792E+02  0.00000000000E+00 0.  1.
         11    1    3    3    0    0 -0.82560498653E+01 -0.14198260478E+01  0.25224930304E+02  0.26579604483E+02  0.51100000000E-03 0. -1.
        -11    1    3    3    0    0  0.12761038501E+01  0.27696963640E+01 -0.28102206723E+01  0.41469265093E+01  0.51100000000E-03 0.  1.
        -12    1    3    3    0    0  0.25004787936E+01 -0.95784796628E+01  0.17150297208E+02  0.19802332216E+02  0.00000000000E+00 0.  1.
</event>
<event>
 7    1  0.5714431E-011  0.5052886E+02  0.7816164E-02  0.1300439E+00
        -11   -1    0    0    0    0  0.00000000000E+00  0.00000000000E+00  0.45593999997E+02  0.45594000000E+02  0.51100000000E-03 0.  1.
         11   -1    0    0    0    0 -0.00000000000E+00 -0.00000000000E+00 -0.45593999997E+02  0.45594000000E+02  0.51100000000E-03 0. -1.
    9900012    2    1    2    0    0  0.18025911797E+02  0.12323353439E+02 -0.34298207404E+02  0.50528861209E+02  0.30000004131E+02 0.  0.
        -12    1    1    2    0    0 -0.18025911797E+02 -0.12323353439E+02  0.34298207404E+02  0.40659138791E+02  0.00000000000E+00 0.  1.
         11    1    3    3    0    0  0.21455874971E+02  0.13346288083E+02 -0.17035605941E+02  0.30474412979E+02  0.51100000000E-03 0. -1.
        -11    1    3    3    0    0 -0.43243934757E+01  0.61287878576E+00 -0.17622482909E+02  0.18155657616E+02  0.51100000000E-03 0.  1.
        -12    1    3    3    0    0  0.89443030235E+00 -0.16358134297E+01  0.35988144581E+00  0.18987906145E+01  0.00000000000E+00 0.  1.
</event>
<event>
 7    1  0.5714431E-011  0.5052886E+02  0.7816164E-02  0.1300439E+00
        -11   -1    0    0    0    0  0.00000000000E+00  0.00000000000E+00  0.45593999997E+02  0.45594000000E+02  0.51100000000E-03 0. -1.
         11   -1    0    0    0    0 -0.00000000000E+00 -0.00000000000E+00 -0.45593999997E+02  0.45594000000E+02  0.51100000000E-03 0.  1.
    9900012    2    1    2    0    0  0.23954617327E+02 -0.23811078514E+02  0.22635698448E+02  0.50528855943E+02  0.29999988124E+02 0.  0.
        -12    1    1    2    0    0 -0.23954617327E+02  0.23811078514E+02 -0.22635698448E+02  0.40659144057E+02  0.00000000000E+00 0.  1.
         11    1    3    3    0    0  0.29390818935E+02 -0.12855228332E+02  0.18302278840E+02  0.36933054899E+02  0.51100000000E-03 0. -1.
        -11    1    3    3    0    0 -0.28456803488E+01 -0.25426937823E+01  0.74933393172E-01  0.38169102154E+01  0.51100000000E-03 0.  1.
         12    1    3    3    0    0 -0.25905212597E+01 -0.84131563994E+01  0.42584862141E+01  0.97788908284E+01  0.00000000000E+00 0. -1.
</event>
<event>
 7    1  0.5714431E-011  0.5052887E+02  0.7816164E-02  0.1300439E+00
        -11   -1    0    0    0    0  0.00000000000E+00  0.00000000000E+00  0.45593999997E+02  0.45594000000E+02  0.51100000000E-03 0. -1.
         11   -1    0    0    0    0 -0.00000000000E+00 -0.00000000000E+00 -0.45593999997E+02  0.45594000000E+02  0.51100000000E-03 0.  1.
    9900012    2    1    2    0    0  0.34231246858E+02  0.58559799931E+01  0.21144607275E+02  0.50528865971E+02  0.30000018606E+02 0.  0.
        -12    1    1    2    0    0 -0.34231246858E+02 -0.58559799931E+01 -0.21144607275E+02  0.40659134029E+02  0.00000000000E+00 0.  1.
         11    1    3    3    0    0  0.15225002146E+01  0.98221658579E+01  0.54637376062E+01  0.11342194582E+02  0.51100000000E-03 0.  1.
        -11    1    3    3    0    0  0.22348492012E+02  0.17300947766E+01  0.43956353653E+01  0.22842283898E+02  0.51100000000E-03 0. -1.
        -12    1    3    3    0    0  0.10360254631E+02 -0.56962806413E+01  0.11285234304E+02  0.16344387491E+02  0.00000000000E+00 0.  1.
</event>
<event>
 7    1  0.5714431E-011  0.5052886E+02  0.7816164E-02  0.1300439E+00
        -11   -1    0    0    0    0  0.00000000000E+00  0.00000000000E+00  0.45593999997E+02  0.45594000000E+02  0.51100000000E-03 0.  1.
         11   -1    0    0    0    0 -0.00000000000E+00 -0.00000000000E+00 -0.45593999997E+02  0.45594000000E+02  0.51100000000E-03 0. -1.
    9900012    2    1    2    0    0 -0.16134893484E+02  0.31504190069E+02 -0.20007925688E+02  0.50528857486E+02  0.29999992814E+02 0.  0.
        -12    1    1    2    0    0  0.16134893484E+02 -0.31504190069E+02  0.20007925688E+02  0.40659142514E+02  0.00000000000E+00 0.  1.
         11    1    3    3    0    0 -0.47334245818E+01  0.17839170151E+02 -0.12071151062E+02  0.22053434838E+02  0.51100000000E-03 0. -1.
        -11    1    3    3    0    0 -0.65989105066E+01 -0.45139082089E+01  0.17663071513E+00  0.79970110581E+01  0.51100000000E-03 0.  1.
        -12    1    3    3    0    0 -0.48025583952E+01  0.18178928127E+02 -0.81134053419E+01  0.20478411590E+02  0.00000000000E+00 0.  1.
</event>
<event>
 7    1  0.5714431E-011  0.5052887E+02  0.7816164E-02  0.1300439E+00
        -11   -1    0    0    0    0  0.00000000000E+00  0.00000000000E+00  0.45593999997E+02  0.45594000000E+02  0.51100000000E-03 0. -1.
         11   -1    0    0    0    0 -0.00000000000E+00 -0.00000000000E+00 -0.45593999997E+02  0.45594000000E+02  0.51100000000E-03 0.  1.
    9900012    2    1    2    0    0  0.28591116135E+01 -0.33991982719E+02 -0.22125451165E+02  0.50528868213E+02  0.30000025422E+02 0.  0.
        -12    1    1    2    0    0 -0.28591116135E+01  0.33991982719E+02  0.22125451165E+02  0.40659131787E+02  0.00000000000E+00 0.  1.
         11    1    3    3    0    0 -0.10985283600E+02 -0.89527599522E+01 -0.71147596146E+01  0.15857117366E+02  0.51100000000E-03 0.  1.
        -11    1    3    3    0    0  0.11385578054E+02 -0.23734951188E+02 -0.86177439317E+01  0.27699184216E+02  0.51100000000E-03 0. -1.
        -12    1    3    3    0    0  0.24588171592E+01 -0.13042715792E+01 -0.63929476184E+01  0.69725666312E+01  0.00000000000E+00 0.  1.
</event>
<event>
 7    1  0.5714431E-011  0.5052886E+02  0.7816164E-02  0.1300439E+00
        -11   -1    0    0    0    0  0.00000000000E+00  0.00000000000E+00  0.45593999997E+02  0.45594000000E+02  0.51100000000E-03 0. -1.
         11   -1    0    0    0    0 -0.00000000000E+00 -0.00000000000E+00 -0.45593999997E+02  0.45594000000E+02  0.51100000000E-03 0.  1.
    9900012    2    1    2    0    0 -0.10868561554E+02  0.20687150792E+01  0.39124933674E+02  0.50528860224E+02  0.30000001137E+02 0.  0.
        -12    1    1    2    0    0  0.10868561554E+02 -0.20687150792E+01 -0.39124933674E+02  0.40659139776E+02  0.00000000000E+00 0.  1.
         11    1    3    3    0    0 -0.32770082249E+01 -0.31444471869E+00 -0.34925643391E+01  0.47995483445E+01  0.51100000000E-03 0.  1.
        -11    1    3    3    0    0  0.14238325479E+01  0.65105067430E+01  0.17382737262E+02  0.18616486032E+02  0.51100000000E-03 0. -1.
         12    1    3    3    0    0 -0.90153858770E+01 -0.41273469451E+01  0.25234760751E+02  0.27112825848E+02  0.00000000000E+00 0. -1.
</event>
<event>
 7    1  0.5714431E-011  0.5052887E+02  0.7816164E-02  0.1300439E+00
        -11   -1    0    0    0    0  0.00000000000E+00  0.00000000000E+00  0.45593999997E+02  0.45594000000E+02  0.51100000000E-03 0. -1.
         11   -1    0    0    0    0 -0.00000000000E+00 -0.00000000000E+00 -0.45593999997E+02  0.45594000000E+02  0.51100000000E-03 0.  1.
    9900012    2    1    2    0    0 -0.27103366648E+02  0.25068801566E+02 -0.17033127920E+02  0.50528871353E+02  0.30000034965E+02 0.  0.
        -12    1    1    2    0    0  0.27103366648E+02 -0.25068801566E+02  0.17033127920E+02  0.40659128647E+02  0.00000000000E+00 0.  1.
         11    1    3    3    0    0 -0.13569230419E+02  0.94069964229E+01  0.43795214235E+01  0.17082031613E+02  0.51100000000E-03 0. -1.
        -11    1    3    3    0    0 -0.36254326771E+01  0.14707741427E+02 -0.16314977724E+02  0.22262971913E+02  0.51100000000E-03 0.  1.
        -12    1    3    3    0    0 -0.99087035511E+01  0.95406371619E+00 -0.50976716195E+01  0.11183867827E+02  0.00000000000E+00 0.  1.
</event>
<event>
 7    1  0.5714431E-011  0.5052888E+02  0.7816164E-02  0.1300439E+00
        -11   -1    0    0    0    0  0.00000000000E+00  0.00000000000E+00  0.45593999997E+02  0.45594000000E+02  0.51100000000E-03 0.  1.
         11   -1    0    0    0    0 -0.00000000000E+00 -0.00000000000E+00 -0.45593999997E+02  0.45594000000E+02  0.51100000000E-03 0. -1.
    9900012    2    1    2    0    0  0.28229539160E+02 -0.29222228165E+02 -0.15226437842E+01  0.50528881168E+02  0.30000064798E+02 0.  0.
        -12    1    1    2    0    0 -0.28229539160E+02  0.29222228165E+02  0.15226437842E+01  0.40659118832E+02  0.00000000000E+00 0.  1.
         11    1    3    3    0    0  0.55869659900E+01 -0.12636819295E+02 -0.10299192588E+02  0.17233013639E+02  0.51100000000E-03 0. -1.
        -11    1    3    3    0    0  0.24079235480E+02 -0.17934283163E+02  0.74960787840E+01  0.30945747548E+02  0.51100000000E-03 0.  1.
        -12    1    3    3    0    0 -0.14366623101E+01  0.13488742936E+01  0.12804700196E+01  0.23501199809E+01  0.00000000000E+00 0.  1.
</event>
<event>
 7    1  0.5714431E-011  0.5052886E+02  0.7816164E-02  0.1300439E+00
        -11   -1    0    0    0    0  0.00000000000E+00  0.00000000000E+00  0.45593999997E+02  0.45594000000E+02  0.51100000000E-03 0.  1.
         11   -1    0    0    0    0 -0.00000000000E+00 -0.00000000000E+00 -0.45593999997E+02  0.45594000000E+02  0.51100000000E-03 0. -1.
    9900012    2    1    2    0    0  0.35369805937E+02 -0.16491863067E+02  0.11408814988E+02  0.50528858606E+02  0.29999996218E+02 0.  0.
        -12    1    1    2    0    0 -0.35369805937E+02  0.16491863067E+02 -0.11408814988E+02  0.40659141394E+02  0.00000000000E+00 0.  1.
         11    1    3    3    0    0  0.14979113872E+02 -0.14280635020E+01 -0.73155132939E+01  0.16731107339E+02  0.51100000000E-03 0. -1.
        -11    1    3    3    0    0  0.11755598462E+02 -0.87887989126E+01  0.17818046106E+02  0.23085056829E+02  0.51100000000E-03 0.  1.
         12    1    3    3    0    0  0.86350936034E+01 -0.62750006527E+01  0.90628217563E+00  0.10712694438E+02  0.00000000000E+00 0. -1.
</event>
<event>
 7    1  0.5714431E-011  0.5052885E+02  0.7816164E-02  0.1300439E+00
        -11   -1    0    0    0    0  0.00000000000E+00  0.00000000000E+00  0.45593999997E+02  0.45594000000E+02  0.51100000000E-03 0. -1.
         11   -1    0    0    0    0 -0.00000000000E+00 -0.00000000000E+00 -0.45593999997E+02  0.45594000000E+02  0.51100000000E-03 0.  1.
    9900012    2    1    2    0    0 -0.22978039744E+02 -0.10165644981E+02  0.31966162733E+02  0.50528853326E+02  0.29999980170E+02 0.  0.
        -12    1    1    2    0    0  0.22978039744E+02  0.10165644981E+02 -0.31966162733E+02  0.40659146674E+02  0.00000000000E+00 0.  1.
         11    1    3    3    0    0 -0.63105998778E+01 -0.12595027357E+02  0.31161644993E+01  0.14428058303E+02  0.51100000000E-03 0. -1.
        -11    1    3    3    0    0 -0.97816082542E+01 -0.10640094039E+01  0.26118878260E+02  0.27910710810E+02  0.51100000000E-03 0.  1.
        -12    1    3    3    0    0 -0.68858316122E+01  0.34933917796E+01  0.27311199733E+01  0.81900842136E+01  0.00000000000E+00 0.  1.
</event>
<event>
 7    1  0.5714431E-011  0.5052886E+02  0.7816164E-02  0.1300439E+00
        -11   -1    0    0    0    0  0.00000000000E+00  0.00000000000E+00  0.45593999997E+02  0.45594000000E+02  0.51100000000E-03 0.  1.
         11   -1    0    0    0    0 -0.00000000000E+00 -0.00000000000E+00 -0.45593999997E+02  0.45594000000E+02  0.51100000000E-03 0. -1.
    9900012    2    1    2    0    0 -0.17842144783E+02 -0.29246314815E+01 -0.36417993262E+02  0.50528857940E+02  0.29999994195E+02 0.  0.
        -12    1    1    2    0    0  0.17842144783E+02  0.29246314815E+01  0.36417993262E+02  0.40659142060E+02  0.00000000000E+00 0.  1.
         11    1    3    3    0    0 -0.94630493529E+01 -0.76890708389E+01 -0.22552441400E+02  0.25637545257E+02  0.51100000000E-03 0. -1.
        -11    1    3    3    0    0  0.57454375718E+01  0.23532025349E+01 -0.29247857479E+01  0.68630887357E+01  0.51100000000E-03 0.  1.
         12    1    3    3    0    0 -0.14124533002E+02  0.24112368224E+01 -0.10940766114E+02  0.18028223948E+02  0.00000000000E+00 0. -1.
</event>
<event>
 7    1  0.5714431E-011  0.5052886E+02  0.7816164E-02  0.1300439E+00
        -11   -1    0    0    0    0  0.00000000000E+00  0.00000000000E+00  0.45593999997E+02  0.45594000000E+02  0.51100000000E-03 0.  1.
         11   -1    0    0    0    0 -0.00000000000E+00 -0.00000000000E+00 -0.45593999997E+02  0.45594000000E+02  0.51100000000E-03 0. -1.
    9900012    2    1    2    0    0 -0.19378033533E+02  0.15409312029E+02 -0.32252298700E+02  0.50528857704E+02  0.29999993478E+02 0.  0.
        -12    1    1    2    0    0  0.19378033533E+02 -0.15409312029E+02  0.32252298700E+02  0.40659142296E+02  0.00000000000E+00 0.  1.
         11    1    3    3    0    0 -0.16527890794E+02  0.31448646808E+01 -0.78564502646E+01  0.18568391394E+02  0.51100000000E-03 0. -1.
        -11    1    3    3    0    0 -0.21420057684E+01  0.51416505955E+01 -0.24165217514E+02  0.24798840644E+02  0.51100000000E-03 0.  1.
        -12    1    3    3    0    0 -0.70813697088E+00  0.71227967529E+01 -0.23063092146E+00  0.71616256657E+01  0.00000000000E+00 0.  1.
</event>
<event>
 7    1  0.5714431E-011  0.5052886E+02  0.7816164E-02  0.1300439E+00
        -11   -1    0    0    0    0  0.00000000000E+00  0.00000000000E+00  0.45593999997E+02  0.45594000000E+02  0.51100000000E-03 0. -1.
         11   -1    0    0    0    0 -0.00000000000E+00 -0.00000000000E+00 -0.45593999997E+02  0.45594000000E+02  0.51100000000E-03 0.  1.
    9900012    2    1    2    0    0  0.10062199509E+02  0.35884547168E+02  0.16254762303E+02  0.50528857339E+02  0.29999992367E+02 0.  0.
        -12    1    1    2    0    0 -0.10062199509E+02 -0.35884547168E+02 -0.16254762303E+02  0.40659142661E+02  0.00000000000E+00 0.  1.
         11    1    3    3    0    0  0.14265685774E+01  0.69457468701E+01  0.85875301006E+01  0.11136613982E+02  0.51100000000E-03 0. -1.
        -11    1    3    3    0    0  0.58476327512E+01  0.12728099064E+02 -0.84540431841E+01  0.16360628381E+02  0.51100000000E-03 0.  1.
        -12    1    3    3    0    0  0.27879981808E+01  0.16210701233E+02  0.16121275387E+02  0.23031614976E+02  0.00000000000E+00 0.  1.
</event>
<event>
 7    1  0.5714431E-011  0.5052883E+02  0.7816164E-02  0.1300439E+00
        -11   -1    0    0    0    0  0.00000000000E+00  0.00000000000E+00  0.45593999997E+02  0.45594000000E+02  0.51100000000E-03 0.  1.
         11   -1    0    0    0    0 -0.00000000000E+00 -0.00000000000E+00 -0.45593999997E+02  0.45594000000E+02  0.51100000000E-03 0. -1.
    9900012    2    1    2    0    0  0.12813224440E+02 -0.10882682452E+02 -0.37021030791E+02  0.50528828603E+02  0.29999905022E+02 0.  0.
        -12    1    1    2    0    0 -0.12813224440E+02  0.10882682452E+02  0.37021030791E+02  0.40659171397E+02  0.00000000000E+00 0.  1.
         11    1    3    3    0    0  0.80578079137E+01 -0.53189905409E+01 -0.32522518737E+02  0.33925420469E+02  0.51100000000E-03 0. -1.
        -11    1    3    3    0    0 -0.11892836414E+01  0.29503012975E+01  0.25299496057E+01  0.40643964613E+01  0.51100000000E-03 0.  1.
        -12    1    3    3    0    0  0.59447001677E+01 -0.85139932084E+01 -0.70284616597E+01  0.12539011673E+02  0.00000000000E+00 0.  1.
</event>
<event>
 7    1  0.5714431E-011  0.5052886E+02  0.7816164E-02  0.1300439E+00
        -11   -1    0    0    0    0  0.00000000000E+00  0.00000000000E+00  0.45593999997E+02  0.45594000000E+02  0.51100000000E-03 0.  1.
         11   -1    0    0    0    0 -0.00000000000E+00 -0.00000000000E+00 -0.45593999997E+02  0.45594000000E+02  0.51100000000E-03 0. -1.
    9900012    2    1    2    0    0  0.24208213096E+02  0.32274374459E+02  0.50490737133E+01  0.50528856214E+02  0.29999988948E+02 0.  0.
        -12    1    1    2    0    0 -0.24208213096E+02 -0.32274374459E+02 -0.50490737133E+01  0.40659143786E+02  0.00000000000E+00 0.  1.
         11    1    3    3    0    0  0.15678387246E+02  0.18379340282E+02  0.99632738433E+01  0.26131949827E+02  0.51100000000E-03 0. -1.
        -11    1    3    3    0    0 -0.52173393360E+01  0.18322882808E+01 -0.31711108543E+00  0.55388148365E+01  0.51100000000E-03 0.  1.
         12    1    3    3    0    0  0.13747165187E+02  0.12062745896E+02 -0.45970890445E+01  0.18858091550E+02  0.00000000000E+00 0. -1.
</event>
<event>
 7    1  0.5714431E-011  0.5052886E+02  0.7816164E-02  0.1300439E+00
        -11   -1    0    0    0    0  0.00000000000E+00  0.00000000000E+00  0.45593999997E+02  0.45594000000E+02  0.51100000000E-03 0.  1.
         11   -1    0    0    0    0 -0.00000000000E+00 -0.00000000000E+00 -0.45593999997E+02  0.45594000000E+02  0.51100000000E-03 0. -1.
    9900012    2    1    2    0    0 -0.16878196504E+02 -0.31191409307E+02 -0.19884377080E+02  0.50528856089E+02  0.29999988567E+02 0.  0.
        -12    1    1    2    0    0  0.16878196504E+02  0.31191409307E+02  0.19884377080E+02  0.40659143911E+02  0.00000000000E+00 0.  1.
         11    1    3    3    0    0  0.19822022509E+01 -0.33035943413E+01 -0.38255525875E+01  0.54293382834E+01  0.51100000000E-03 0. -1.
        -11    1    3    3    0    0 -0.24043789046E+02 -0.16125166032E+02 -0.84330748525E+01  0.30153632003E+02  0.51100000000E-03 0.  1.
        -12    1    3    3    0    0  0.51833902912E+01 -0.11762648934E+02 -0.76257496397E+01  0.14945885802E+02  0.00000000000E+00 0.  1.
</event>
<event>
 7    1  0.5714431E-011  0.5052888E+02  0.7816164E-02  0.1300439E+00
        -11   -1    0    0    0    0  0.00000000000E+00  0.00000000000E+00  0.45593999997E+02  0.45594000000E+02  0.51100000000E-03 0.  1.
         11   -1    0    0    0    0 -0.00000000000E+00 -0.00000000000E+00 -0.45593999997E+02  0.45594000000E+02  0.51100000000E-03 0. -1.
    9900012    2    1    2    0    0 -0.17607833684E+02  0.11910044514E+02 -0.34659477941E+02  0.50528875827E+02  0.30000048563E+02 0.  0.
        -12    1    1    2    0    0  0.17607833684E+02 -0.11910044514E+02  0.34659477941E+02  0.40659124173E+02  0.00000000000E+00 0.  1.
         11    1    3    3    0    0 -0.12640956749E+02  0.20156788124E+02 -0.30204556070E+02  0.38450033844E+02  0.51100000000E-03 0. -1.
        -11    1    3    3    0    0 -0.17533324120E+01 -0.11047199963E+01  0.12222343570E+01  0.24059172682E+01  0.51100000000E-03 0.  1.
         12    1    3    3    0    0 -0.32135445230E+01 -0.71420236129E+01 -0.56771562280E+01  0.96729247142E+01  0.00000000000E+00 0. -1.
</event>
<event>
 7    1  0.5714431E-011  0.5052887E+02  0.7816164E-02  0.1300439E+00
        -11   -1    0    0    0    0  0.00000000000E+00  0.00000000000E+00  0.45593999997E+02  0.45594000000E+02  0.51100000000E-03 0. -1.
         11   -1    0    0    0    0 -0.00000000000E+00 -0.00000000000E+00 -0.45593999997E+02  0.45594000000E+02  0.51100000000E-03 0.  1.
    9900012    2    1    2    0    0 -0.28691419121E+02 -0.28341404702E+02  0.51702983043E+01  0.50528871429E+02  0.30000035194E+02 0.  0.
        -12    1    1    2    0    0  0.28691419121E+02  0.28341404702E+02 -0.51702983043E+01  0.40659128571E+02  0.00000000000E+00 0.  1.
         11    1    3    3    0    0 -0.73797673466E+01 -0.25241189555E+02  0.37897647876E+01  0.26569548992E+02  0.51100000000E-03 0.  1.
        -11    1    3    3    0    0 -0.20053265155E+02 -0.56299108924E+01  0.23760707140E+01  0.20963660279E+02  0.51100000000E-03 0. -1.
        -12    1    3    3    0    0 -0.12583866196E+01  0.25296957453E+01 -0.99553719729E+00  0.29956621570E+01  0.00000000000E+00 0.  1.
</event>
<event>
 7    1  0.5714431E-011  0.5052885E+02  0.7816164E-02  0.1300439E+00
        -11   -1    0    0    0    0  0.00000000000E+00  0.00000000000E+00  0.45593999997E+02  0.45594000000E+02  0.51100000000E-03 0.  1.
         11   -1    0    0    0    0 -0.00000000000E+00 -0.00000000000E+00 -0.45593999997E+02  0.45594000000E+02  0.51100000000E-03 0. -1.
    9900012    2    1    2    0    0  0.13120513352E+00 -0.16364422950E+02 -0.37220351410E+02  0.50528854505E+02  0.29999983754E+02 0.  0.
        -12    1    1    2    0    0 -0.13120513352E+00  0.16364422950E+02  0.37220351410E+02  0.40659145495E+02  0.00000000000E+00 0.  1.
         11    1    3    3    0    0 -0.34428393632E+01  0.59128246736E+01 -0.10363461238E+02  0.12418372180E+02  0.51100000000E-03 0. -1.
        -11    1    3    3    0    0  0.51078517253E+01 -0.12671591587E+02 -0.56602850705E+01  0.14788448531E+02  0.51100000000E-03 0.  1.
         12    1    3    3    0    0 -0.15338072286E+01 -0.96056560365E+01 -0.21196605101E+02  0.23322033794E+02  0.00000000000E+00 0. -1.
</event>
<event>
 7    1  0.5714431E-011  0.5052886E+02  0.7816164E-02  0.1300439E+00
        -11   -1    0    0    0    0  0.00000000000E+00  0.00000000000E+00  0.45593999997E+02  0.45594000000E+02  0.51100000000E-03 0. -1.
         11   -1    0    0    0    0 -0.00000000000E+00 -0.00000000000E+00 -0.45593999997E+02  0.45594000000E+02  0.51100000000E-03 0.  1.
    9900012    2    1    2    0    0 -0.28451613018E+02 -0.10127727075E+02  0.27223168199E+02  0.50528855569E+02  0.29999986989E+02 0.  0.
        -12    1    1    2    0    0  0.28451613018E+02  0.10127727075E+02 -0.27223168199E+02  0.40659144431E+02  0.00000000000E+00 0.  1.
         11    1    3    3    0    0 -0.22109942067E+02  0.25914151084E+01  0.26336925009E+02  0.34484758802E+02  0.51100000000E-03 0. -1.
        -11    1    3    3    0    0  0.11972669336E+01 -0.41781109851E+01  0.15951519989E+01  0.46297483381E+01  0.51100000000E-03 0.  1.
         12    1    3    3    0    0 -0.75389378849E+01 -0.85410311986E+01 -0.70890880848E+00  0.11414348429E+02  0.00000000000E+00 0. -1.
</event>
<event>
 7    1  0.5714431E-011  0.5052887E+02  0.7816164E-02  0.1300439E+00
        -11   -1    0    0    0    0  0.00000000000E+00  0.00000000000E+00  0.45593999997E+02  0.45594000000E+02  0.51100000000E-03 0.  1.
         11   -1    0    0    0    0 -0.00000000000E+00 -0.00000000000E+00 -0.45593999997E+02  0.45594000000E+02  0.51100000000E-03 0. -1.
    9900012    2    1    2    0    0 -0.25370257678E+02  0.29577739540E+02 -0.11604844581E+02  0.50528867340E+02  0.30000022766E+02 0.  0.
        -12    1    1    2    0    0  0.25370257678E+02 -0.29577739540E+02  0.11604844581E+02  0.40659132660E+02  0.00000000000E+00 0.  1.
         11    1    3    3    0    0 -0.73908469776E+01 -0.38962112092E+01 -0.73427776670E+01  0.11123015102E+02  0.51100000000E-03 0. -1.
        -11    1    3    3    0    0 -0.15203652824E+02  0.22680038826E+02 -0.64311169007E+01  0.28051639617E+02  0.51100000000E-03 0.  1.
         12    1    3    3    0    0 -0.27757578763E+01  0.10793911923E+02  0.21690499869E+01  0.11354212620E+02  0.00000000000E+00 0. -1.
</event>
<event>
 7    1  0.5714431E-011  0.5052886E+02  0.7816164E-02  0.1300439E+00
        -11   -1    0    0    0    0  0.00000000000E+00  0.00000000000E+00  0.45593999997E+02  0.45594000000E+02  0.51100000000E-03 0. -1.
         11   -1    0    0    0    0 -0.00000000000E+00 -0.00000000000E+00 -0.45593999997E+02  0.45594000000E+02  0.51100000000E-03 0.  1.
    9900012    2    1    2    0    0 -0.88983732295E+01  0.15010507224E+02  0.36724231151E+02  0.50528861705E+02  0.30000005638E+02 0.  0.
        -12    1    1    2    0    0  0.88983732295E+01 -0.15010507224E+02 -0.36724231151E+02  0.40659138295E+02  0.00000000000E+00 0.  1.
         11    1    3    3    0    0 -0.21967928297E+01  0.12578229303E+02  0.13765232164E+02  0.18775499139E+02  0.51100000000E-03 0.  1.
        -11    1    3    3    0    0 -0.12354525753E+02 -0.22126561034E+01  0.20495568847E+02  0.24033278932E+02  0.51100000000E-03 0. -1.
        -12    1    3    3    0    0  0.56529453528E+01  0.46449340242E+01  0.24634301398E+01  0.77200836333E+01  0.00000000000E+00 0.  1.
</event>
<event>
 7    1  0.5714431E-011  0.5052886E+02  0.7816164E-02  0.1300439E+00
        -11   -1    0    0    0    0  0.00000000000E+00  0.00000000000E+00  0.45593999997E+02  0.45594000000E+02  0.51100000000E-03 0. -1.
         11   -1    0    0    0    0 -0.00000000000E+00 -0.00000000000E+00 -0.45593999997E+02  0.45594000000E+02  0.51100000000E-03 0.  1.
    9900012    2    1    2    0    0 -0.10759936839E+02  0.31860318722E+02  0.22854095656E+02  0.50528857878E+02  0.29999994007E+02 0.  0.
        -12    1    1    2    0    0  0.10759936839E+02 -0.31860318722E+02 -0.22854095656E+02  0.40659142122E+02  0.00000000000E+00 0.  1.
         11    1    3    3    0    0 -0.17181205188E+02  0.22113408464E+02  0.20114784318E+02  0.34478996418E+02  0.51100000000E-03 0. -1.
        -11    1    3    3    0    0  0.35690269810E+01 -0.74382629880E+00 -0.20360528071E+01  0.41757325642E+01  0.51100000000E-03 0.  1.
         12    1    3    3    0    0  0.28522413681E+01  0.10490736557E+02  0.47753641447E+01  0.11874128896E+02  0.00000000000E+00 0. -1.
</event>
<event>
 7    1  0.5714431E-011  0.5052886E+02  0.7816164E-02  0.1300439E+00
        -11   -1    0    0    0    0  0.00000000000E+00  0.00000000000E+00  0.45593999997E+02  0.45594000000E+02  0.51100000000E-03 0.  1.
         11   -1    0    0    0    0 -0.00000000000E+00 -0.00000000000E+00 -0.45593999997E+02  0.45594000000E+02  0.51100000000E-03 0. -1.
    9900012    2    1    2    0    0 -0.36223238461E+02  0.71480620511E+01 -0.17027850186E+02  0.50528862310E+02  0.30000007478E+02 0.  0.
        -12    1    1    2    0    0  0.36223238461E+02 -0.71480620511E+01  0.17027850186E+02  0.40659137690E+02  0.00000000000E+00 0.  1.
         11    1    3    3    0    0 -0.56405646766E+01 -0.28279610757E+01 -0.92652278249E+01  0.11209718133E+02  0.51100000000E-03 0. -1.
        -11    1    3    3    0    0 -0.17811559568E+02  0.15080007913E+02 -0.99909155160E+01  0.25386545374E+02  0.51100000000E-03 0.  1.
        -12    1    3    3    0    0 -0.12771114216E+02 -0.51039847861E+01  0.22282931552E+01  0.13932598803E+02  0.00000000000E+00 0.  1.
</event>
<event>
 7    1  0.5714431E-011  0.5052886E+02  0.7816164E-02  0.1300439E+00
        -11   -1    0    0    0    0  0.00000000000E+00  0.00000000000E+00  0.45593999997E+02  0.45594000000E+02  0.51100000000E-03 0.  1.
         11   -1    0    0    0    0 -0.00000000000E+00 -0.00000000000E+00 -0.45593999997E+02  0.45594000000E+02  0.51100000000E-03 0. -1.
    9900012    2    1    2    0    0  0.91859133360E+01 -0.39567375140E+02  0.17910418036E+01  0.50528855764E+02  0.29999987580E+02 0.  0.
        -12    1    1    2    0    0 -0.91859133360E+01  0.39567375140E+02 -0.17910418036E+01  0.40659144236E+02  0.00000000000E+00 0.  1.
         11    1    3    3    0    0  0.73838343870E+01 -0.11436244401E+02  0.29383057626E+01  0.13926318152E+02  0.51100000000E-03 0. -1.
        -11    1    3    3    0    0 -0.52876487541E+01  0.17093366412E+01  0.16692524709E+01  0.58023672042E+01  0.51100000000E-03 0.  1.
        -12    1    3    3    0    0  0.70897277030E+01 -0.29840467380E+02 -0.28165164299E+01  0.30800170408E+02  0.00000000000E+00 0.  1.
</event>
<event>
 7    1  0.5714431E-011  0.5052890E+02  0.7816164E-02  0.1300439E+00
        -11   -1    0    0    0    0  0.00000000000E+00  0.00000000000E+00  0.45593999997E+02  0.45594000000E+02  0.51100000000E-03 0.  1.
         11   -1    0    0    0    0 -0.00000000000E+00 -0.00000000000E+00 -0.45593999997E+02  0.45594000000E+02  0.51100000000E-03 0. -1.
    9900012    2    1    2    0    0  0.10222225128E+02  0.20602933997E+02 -0.33528902457E+02  0.50528904144E+02  0.30000134636E+02 0.  0.
        -12    1    1    2    0    0 -0.10222225128E+02 -0.20602933997E+02  0.33528902457E+02  0.40659095856E+02  0.00000000000E+00 0.  1.
         11    1    3    3    0    0  0.17010033422E+01  0.37558196411E+01 -0.28583338807E+02  0.28879176774E+02  0.51100000000E-03 0. -1.
        -11    1    3    3    0    0  0.18979183577E+01  0.33962055394E+01  0.27814467354E+01  0.47825466398E+01  0.51100000000E-03 0.  1.
        -12    1    3    3    0    0  0.66233034283E+01  0.13450908816E+02 -0.77270103859E+01  0.16867180730E+02  0.00000000000E+00 0.  1.
</event>
<event>
 7    1  0.5714431E-011  0.5052886E+02  0.7816164E-02  0.1300439E+00
        -11   -1    0    0    0    0  0.00000000000E+00  0.00000000000E+00  0.45593999997E+02  0.45594000000E+02  0.51100000000E-03 0.  1.
         11   -1    0    0    0    0 -0.00000000000E+00 -0.00000000000E+00 -0.45593999997E+02  0.45594000000E+02  0.51100000000E-03 0. -1.
    9900012    2    1    2    0    0  0.17699092221E+01  0.27257865643E+02 -0.30117133814E+02  0.50528861209E+02  0.30000004131E+02 0.  0.
        -12    1    1    2    0    0 -0.17699092221E+01 -0.27257865643E+02  0.30117133814E+02  0.40659138791E+02  0.00000000000E+00 0.  1.
         11    1    3    3    0    0 -0.48255638884E+01  0.81428044632E+01 -0.27176828285E+01  0.98476967655E+01  0.51100000000E-03 0. -1.
        -11    1    3    3    0    0  0.50833277034E+01  0.69634019695E+01 -0.27093299402E+02  0.28431954915E+02  0.51100000000E-03 0.  1.
        -12    1    3    3    0    0  0.15121454071E+01  0.12151659210E+02 -0.30615158330E+00  0.12249209529E+02  0.00000000000E+00 0.  1.
</event>
<event>
 7    1  0.5714431E-011  0.5052886E+02  0.7816164E-02  0.1300439E+00
        -11   -1    0    0    0    0  0.00000000000E+00  0.00000000000E+00  0.45593999997E+02  0.45594000000E+02  0.51100000000E-03 0. -1.
         11   -1    0    0    0    0 -0.00000000000E+00 -0.00000000000E+00 -0.45593999997E+02  0.45594000000E+02  0.51100000000E-03 0.  1.
    9900012    2    1    2    0    0 -0.26996476854E+02 -0.95229319865E+01  0.28873334644E+02  0.50528862655E+02  0.30000008527E+02 0.  0.
        -12    1    1    2    0    0  0.26996476854E+02  0.95229319865E+01 -0.28873334644E+02  0.40659137345E+02  0.00000000000E+00 0.  1.
         11    1    3    3    0    0 -0.13127669068E+02 -0.10789609188E+01  0.16952751271E+01  0.13280580178E+02  0.51100000000E-03 0.  1.
        -11    1    3    3    0    0  0.13037825370E+01 -0.54495130085E+01  0.18887192429E+02  0.19700839552E+02  0.51100000000E-03 0. -1.
         12    1    3    3    0    0 -0.15172590322E+02 -0.29944580591E+01  0.82908670881E+01  0.17547442926E+02  0.00000000000E+00 0. -1.
</event>
<event>
 7    1  0.5714431E-011  0.5052886E+02  0.7816164E-02  0.1300439E+00
        -11   -1    0    0    0    0  0.00000000000E+00  0.00000000000E+00  0.45593999997E+02  0.45594000000E+02  0.51100000000E-03 0.  1.
         11   -1    0    0    0    0 -0.00000000000E+00 -0.00000000000E+00 -0.45593999997E+02  0.45594000000E+02  0.51100000000E-03 0. -1.
    9900012    2    1    2    0    0  0.33438689868E+02  0.44646544479E+01 -0.22695523416E+02  0.50528857085E+02  0.29999991596E+02 0.  0.
        -12    1    1    2    0    0 -0.33438689868E+02 -0.44646544479E+01  0.22695523416E+02  0.40659142915E+02  0.00000000000E+00 0.  1.
         11    1    3    3    0    0  0.27976362592E+02 -0.64699405808E+01 -0.19748775518E+02  0.34850410754E+02  0.51100000000E-03 0. -1.
        -11    1    3    3    0    0  0.14973236260E+01  0.24372428900E+01  0.33336367438E+01  0.43926376070E+01  0.51100000000E-03 0.  1.
         12    1    3    3    0    0  0.39650036506E+01  0.84973521387E+01 -0.62803846413E+01  0.11285808724E+02  0.00000000000E+00 0. -1.
</event>
<event>
 7    1  0.5714431E-011  0.5052886E+02  0.7816164E-02  0.1300439E+00
        -11   -1    0    0    0    0  0.00000000000E+00  0.00000000000E+00  0.45593999997E+02  0.45594000000E+02  0.51100000000E-03 0. -1.
         11   -1    0    0    0    0 -0.00000000000E+00 -0.00000000000E+00 -0.45593999997E+02  0.45594000000E+02  0.51100000000E-03 0.  1.
    9900012    2    1    2    0    0 -0.40056118064E+02 -0.74223710508E+00  0.69370224169E+01  0.50528858466E+02  0.29999995794E+02 0.  0.
        -12    1    1    2    0    0  0.40056118064E+02  0.74223710508E+00 -0.69370224169E+01  0.40659141534E+02  0.00000000000E+00 0.  1.
         11    1    3    3    0    0 -0.23228713213E+02 -0.71262627666E+01  0.35904614524E+01  0.24561110567E+02  0.51100000000E-03 0. -1.
        -11    1    3    3    0    0 -0.80666575706E+01  0.12000614409E+02 -0.14046703949E+01  0.14527863220E+02  0.51100000000E-03 0.  1.
        -12    1    3    3    0    0 -0.87607472799E+01 -0.56165887473E+01  0.47512313593E+01  0.11439884680E+02  0.00000000000E+00 0.  1.
</event>
<event>
 7    1  0.5714431E-011  0.5052886E+02  0.7816164E-02  0.1300439E+00
        -11   -1    0    0    0    0  0.00000000000E+00  0.00000000000E+00  0.45593999997E+02  0.45594000000E+02  0.51100000000E-03 0. -1.
         11   -1    0    0    0    0 -0.00000000000E+00 -0.00000000000E+00 -0.45593999997E+02  0.45594000000E+02  0.51100000000E-03 0.  1.
    9900012    2    1    2    0    0 -0.20045811239E+02 -0.25398317103E+02  0.24622276104E+02  0.50528861538E+02  0.30000005132E+02 0.  0.
        -12    1    1    2    0    0  0.20045811239E+02  0.25398317103E+02 -0.24622276104E+02  0.40659138462E+02  0.00000000000E+00 0.  1.
         11    1    3    3    0    0  0.24845240296E+01  0.11743443176E+01 -0.39564565097E+01  0.48172079677E+01  0.51100000000E-03 0.  1.
        -11    1    3    3    0    0 -0.12932379436E+02 -0.20729426390E+02  0.19996518812E+02  0.31572398091E+02  0.51100000000E-03 0. -1.
        -12    1    3    3    0    0 -0.95979558329E+01 -0.58432350313E+01  0.85822138011E+01  0.14139255480E+02  0.00000000000E+00 0.  1.
</event>
<event>
 7    1  0.5714431E-011  0.5052897E+02  0.7816164E-02  0.1300438E+00
        -11   -1    0    0    0    0  0.00000000000E+00  0.00000000000E+00  0.45593999997E+02  0.45594000000E+02  0.51100000000E-03 0.  1.
         11   -1    0    0    0    0 -0.00000000000E+00 -0.00000000000E+00 -0.45593999997E+02  0.45594000000E+02  0.51100000000E-03 0. -1.
    9900012    2    1    2    0    0 -0.33436112176E+02  0.23134001061E+02 -0.36927967622E-01  0.50528966979E+02  0.30000325627E+02 0.  0.
        -12    1    1    2    0    0  0.33436112176E+02 -0.23134001061E+02  0.36927967622E-01  0.40659033021E+02  0.00000000000E+00 0.  1.
         11    1    3    3    0    0 -0.14806456648E+02  0.12887699785E+02 -0.12041170966E+02  0.23028542349E+02  0.51100000000E-03 0. -1.
        -11    1    3    3    0    0 -0.43287693036E+01 -0.25671295684E+01  0.36340088266E+00  0.50458357451E+01  0.51100000000E-03 0.  1.
         12    1    3    3    0    0 -0.14300886224E+02  0.12813430845E+02  0.11640842116E+02  0.22454588885E+02  0.00000000000E+00 0. -1.
</event>
<event>
 7    1  0.5714431E-011  0.5052886E+02  0.7816164E-02  0.1300439E+00
        -11   -1    0    0    0    0  0.00000000000E+00  0.00000000000E+00  0.45593999997E+02  0.45594000000E+02  0.51100000000E-03 0. -1.
         11   -1    0    0    0    0 -0.00000000000E+00 -0.00000000000E+00 -0.45593999997E+02  0.45594000000E+02  0.51100000000E-03 0.  1.
    9900012    2    1    2    0    0  0.59410272844E+00 -0.25980793812E+02  0.31269968727E+02  0.50528861429E+02  0.30000004800E+02 0.  0.
        -12    1    1    2    0    0 -0.59410272844E+00  0.25980793812E+02 -0.31269968727E+02  0.40659138571E+02  0.00000000000E+00 0.  1.
         11    1    3    3    0    0  0.42276446507E+01 -0.20884720330E+02  0.14353862004E+02  0.25691980796E+02  0.51100000000E-03 0. -1.
        -11    1    3    3    0    0  0.18443351621E+01  0.49134585609E+01  0.11463189281E+01  0.53719358304E+01  0.51100000000E-03 0.  1.
        -12    1    3    3    0    0 -0.54778770843E+01 -0.10009532043E+02  0.15769787795E+02  0.19464944802E+02  0.00000000000E+00 0.  1.
</event>
<event>
 7    1  0.5714431E-011  0.5052886E+02  0.7816164E-02  0.1300439E+00
        -11   -1    0    0    0    0  0.00000000000E+00  0.00000000000E+00  0.45593999997E+02  0.45594000000E+02  0.51100000000E-03 0.  1.
         11   -1    0    0    0    0 -0.00000000000E+00 -0.00000000000E+00 -0.45593999997E+02  0.45594000000E+02  0.51100000000E-03 0. -1.
    9900012    2    1    2    0    0 -0.21750760896E+02 -0.90215554713E+01 -0.33146362390E+02  0.50528863236E+02  0.30000010294E+02 0.  0.
        -12    1    1    2    0    0  0.21750760896E+02  0.90215554713E+01  0.33146362390E+02  0.40659136764E+02  0.00000000000E+00 0.  1.
         11    1    3    3    0    0  0.17177026745E+01 -0.33605144160E+01 -0.12596914252E+02  0.13150125800E+02  0.51100000000E-03 0. -1.
        -11    1    3    3    0    0 -0.10124943797E+02 -0.39706625109E+01  0.20619031133E+01  0.11069421502E+02  0.51100000000E-03 0.  1.
         12    1    3    3    0    0 -0.13343519774E+02 -0.16903785443E+01 -0.22611351251E+02  0.26309315935E+02  0.00000000000E+00 0. -1.
</event>
<event>
 7    1  0.5714431E-011  0.5052893E+02  0.7816164E-02  0.1300439E+00
        -11   -1    0    0    0    0  0.00000000000E+00  0.00000000000E+00  0.45593999997E+02  0.45594000000E+02  0.51100000000E-03 0.  1.
         11   -1    0    0    0    0 -0.00000000000E+00 -0.00000000000E+00 -0.45593999997E+02  0.45594000000E+02  0.51100000000E-03 0. -1.
    9900012    2    1    2    0    0 -0.38452057260E+01  0.18484094316E+02 -0.36009890812E+02  0.50528934761E+02  0.30000227699E+02 0.  0.
        -12    1    1    2    0    0  0.38452057260E+01 -0.18484094316E+02  0.36009890812E+02  0.40659065239E+02  0.00000000000E+00 0.  1.
         11    1    3    3    0    0  0.12732088313E+02  0.60788284821E+01 -0.16873111003E+02  0.21994547136E+02  0.51100000000E-03 0.  1.
        -11    1    3    3    0    0 -0.10038062273E+02  0.84602999165E+01 -0.14673098498E+02  0.19688554763E+02  0.51100000000E-03 0. -1.
         12    1    3    3    0    0 -0.65392317655E+01  0.39449659177E+01 -0.44636813118E+01  0.88458328623E+01  0.00000000000E+00 0. -1.
</event>
<event>
 7    1  0.5714431E-011  0.5052886E+02  0.7816164E-02  0.1300439E+00
        -11   -1    0    0    0    0  0.00000000000E+00  0.00000000000E+00  0.45593999997E+02  0.45594000000E+02  0.51100000000E-03 0.  1.
         11   -1    0    0    0    0 -0.00000000000E+00 -0.00000000000E+00 -0.45593999997E+02  0.45594000000E+02  0.51100000000E-03 0. -1.
    9900012    2    1    2    0    0  0.25463789429E+02 -0.27824307760E+02  0.15184499176E+02  0.50528859704E+02  0.29999999556E+02 0.  0.
        -12    1    1    2    0    0 -0.25463789429E+02  0.27824307760E+02 -0.15184499176E+02  0.40659140296E+02  0.00000000000E+00 0.  1.
         11    1    3    3    0    0  0.18958781157E+02 -0.30628864544E+02  0.16618459486E+02  0.39670340585E+02  0.51100000000E-03 0. -1.
        -11    1    3    3    0    0  0.69384218704E+01 -0.85154854499E+00 -0.16067571083E+01  0.71727610891E+01  0.51100000000E-03 0.  1.
         12    1    3    3    0    0 -0.43341359921E+00  0.36561053283E+01  0.17279679813E+00  0.36857580296E+01  0.00000000000E+00 0. -1.
</event>
<event>
 7    1  0.5714431E-011  0.5052886E+02  0.7816164E-02  0.1300439E+00
        -11   -1    0    0    0    0  0.00000000000E+00  0.00000000000E+00  0.45593999997E+02  0.45594000000E+02  0.51100000000E-03 0.  1.
         11   -1    0    0    0    0 -0.00000000000E+00 -0.00000000000E+00 -0.45593999997E+02  0.45594000000E+02  0.51100000000E-03 0. -1.
    9900012    2    1    2    0    0  0.24035844423E+02  0.29825426786E+02 -0.13634076600E+02  0.50528856565E+02  0.29999990016E+02 0.  0.
        -12    1    1    2    0    0 -0.24035844423E+02 -0.29825426786E+02  0.13634076600E+02  0.40659143435E+02  0.00000000000E+00 0.  1.
         11    1    3    3    0    0  0.43950438378E+01  0.63870989695E+01 -0.33142384321E+01  0.84318218807E+01  0.51100000000E-03 0. -1.
        -11    1    3    3    0    0  0.80450141668E+00  0.17787618906E+02 -0.13276182884E+02  0.22210439912E+02  0.51100000000E-03 0.  1.
        -12    1    3    3    0    0  0.18836299169E+02  0.56507089107E+01  0.29563447160E+01  0.19886594772E+02  0.00000000000E+00 0.  1.
</event>
<event>
 7    1  0.5714431E-011  0.5052886E+02  0.7816164E-02  0.1300439E+00
        -11   -1    0    0    0    0  0.00000000000E+00  0.00000000000E+00  0.45593999997E+02  0.45594000000E+02  0.51100000000E-03 0.  1.
         11   -1    0    0    0    0 -0.00000000000E+00 -0.00000000000E+00 -0.45593999997E+02  0.45594000000E+02  0.51100000000E-03 0. -1.
    9900012    2    1    2    0    0  0.12364502635E+02 -0.31017087383E+02 -0.23199672267E+02  0.50528862916E+02  0.30000009320E+02 0.  0.
        -12    1    1    2    0    0 -0.12364502635E+02  0.31017087383E+02  0.23199672267E+02  0.40659137084E+02  0.00000000000E+00 0.  1.
         11    1    3    3    0    0 -0.23330516932E+00  0.41177914807E+01  0.81785299760E+00  0.42047023400E+01  0.51100000000E-03 0. -1.
        -11    1    3    3    0    0  0.15538158490E+01 -0.19588886563E+02 -0.72944480924E+01  0.20960624840E+02  0.51100000000E-03 0.  1.
         12    1    3    3    0    0  0.11043991955E+02 -0.15545992301E+02 -0.16723077172E+02  0.25363535736E+02  0.00000000000E+00 0. -1.
</event>
<event>
 7    1  0.5714431E-011  0.5052885E+02  0.7816164E-02  0.1300439E+00
        -11   -1    0    0    0    0  0.00000000000E+00  0.00000000000E+00  0.45593999997E+02  0.45594000000E+02  0.51100000000E-03 0.  1.
         11   -1    0    0    0    0 -0.00000000000E+00 -0.00000000000E+00 -0.45593999997E+02  0.45594000000E+02  0.51100000000E-03 0. -1.
    9900012    2    1    2    0    0  0.27271798944E+02 -0.13890082396E+00 -0.30156200243E+02  0.50528846981E+02  0.29999960884E+02 0.  0.
        -12    1    1    2    0    0 -0.27271798944E+02  0.13890082396E+00  0.30156200243E+02  0.40659153019E+02  0.00000000000E+00 0.  1.
         11    1    3    3    0    0  0.17282205981E+02 -0.23384010607E+01 -0.12659480285E+02  0.21550062748E+02  0.51100000000E-03 0. -1.
        -11    1    3    3    0    0  0.32278396872E+01 -0.53701806618E+00 -0.20739434954E+02  0.20995987710E+02  0.51100000000E-03 0.  1.
        -12    1    3    3    0    0  0.67617532756E+01  0.27365183029E+01  0.32427149960E+01  0.79827965230E+01  0.00000000000E+00 0.  1.
</event>
<event>
 7    1  0.5714431E-011  0.5052886E+02  0.7816164E-02  0.1300439E+00
        -11   -1    0    0    0    0  0.00000000000E+00  0.00000000000E+00  0.45593999997E+02  0.45594000000E+02  0.51100000000E-03 0.  1.
         11   -1    0    0    0    0 -0.00000000000E+00 -0.00000000000E+00 -0.45593999997E+02  0.45594000000E+02  0.51100000000E-03 0. -1.
    9900012    2    1    2    0    0  0.13072534941E+02 -0.37767031732E+02 -0.74783409254E+01  0.50528862791E+02  0.30000008939E+02 0.  0.
        -12    1    1    2    0    0 -0.13072534941E+02  0.37767031732E+02  0.74783409254E+01  0.40659137209E+02  0.00000000000E+00 0.  1.
         11    1    3    3    0    0  0.10118765066E+02 -0.86017094433E+01 -0.94100805140E+01  0.16276622111E+02  0.51100000000E-03 0. -1.
        -11    1    3    3    0    0 -0.50759270433E+01 -0.99072945399E+01  0.65032519603E+01  0.12892315803E+02  0.51100000000E-03 0.  1.
        -12    1    3    3    0    0  0.80296969188E+01 -0.19258027748E+02 -0.45715123717E+01  0.21359924876E+02  0.00000000000E+00 0.  1.
</event>
<event>
 7    1  0.5714431E-011  0.5052884E+02  0.7816164E-02  0.1300439E+00
        -11   -1    0    0    0    0  0.00000000000E+00  0.00000000000E+00  0.45593999997E+02  0.45594000000E+02  0.51100000000E-03 0.  1.
         11   -1    0    0    0    0 -0.00000000000E+00 -0.00000000000E+00 -0.45593999997E+02  0.45594000000E+02  0.51100000000E-03 0. -1.
    9900012    2    1    2    0    0 -0.24457629317E+02 -0.29471231468E+02 -0.13654234265E+02  0.50528840769E+02  0.29999942001E+02 0.  0.
        -12    1    1    2    0    0  0.24457629317E+02  0.29471231468E+02  0.13654234265E+02  0.40659159231E+02  0.00000000000E+00 0.  1.
         11    1    3    3    0    0 -0.20560735851E+02 -0.24778748408E+02 -0.16334490242E+02  0.36104650713E+02  0.51100000000E-03 0. -1.
        -11    1    3    3    0    0  0.36038258013E+01  0.94666598506E+00  0.33576113224E+01  0.50157044317E+01  0.51100000000E-03 0.  1.
        -12    1    3    3    0    0 -0.75007192668E+01 -0.56391490453E+01 -0.67735534520E+00  0.94084856240E+01  0.00000000000E+00 0.  1.
</event>
<event>
 7    1  0.5714431E-011  0.5052886E+02  0.7816164E-02  0.1300439E+00
        -11   -1    0    0    0    0  0.00000000000E+00  0.00000000000E+00  0.45593999997E+02  0.45594000000E+02  0.51100000000E-03 0.  1.
         11   -1    0    0    0    0 -0.00000000000E+00 -0.00000000000E+00 -0.45593999997E+02  0.45594000000E+02  0.51100000000E-03 0. -1.
    9900012    2    1    2    0    0 -0.10575239354E+01  0.33297656339E+02 -0.23309087416E+02  0.50528857968E+02  0.29999994281E+02 0.  0.
        -12    1    1    2    0    0  0.10575239354E+01 -0.33297656339E+02  0.23309087416E+02  0.40659142032E+02  0.00000000000E+00 0.  1.
         11    1    3    3    0    0  0.50447613669E+01  0.26251142832E+02 -0.10236411554E+02  0.28624399365E+02  0.51100000000E-03 0. -1.
        -11    1    3    3    0    0 -0.94767483993E+01  0.33900412781E+01 -0.27320840879E+01  0.10429066296E+02  0.51100000000E-03 0.  1.
        -12    1    3    3    0    0  0.33744630970E+01  0.36564722287E+01 -0.10340591774E+02  0.11475392307E+02  0.00000000000E+00 0.  1.
</event>
<event>
 7    1  0.5714431E-011  0.5052883E+02  0.7816164E-02  0.1300439E+00
        -11   -1    0    0    0    0  0.00000000000E+00  0.00000000000E+00  0.45593999997E+02  0.45594000000E+02  0.51100000000E-03 0.  1.
         11   -1    0    0    0    0 -0.00000000000E+00 -0.00000000000E+00 -0.45593999997E+02  0.45594000000E+02  0.51100000000E-03 0. -1.
    9900012    2    1    2    0    0 -0.14518035734E+02  0.36029061312E+02  0.12012539187E+02  0.50528834757E+02  0.29999923726E+02 0.  0.
        -12    1    1    2    0    0  0.14518035734E+02 -0.36029061312E+02 -0.12012539187E+02  0.40659165243E+02  0.00000000000E+00 0.  1.
         11    1    3    3    0    0 -0.23749506792E-01  0.58193938003E+01  0.10533264579E+02  0.12033934153E+02  0.51100000000E-03 0.  1.
        -11    1    3    3    0    0  0.63043011651E+00  0.20222039940E+02 -0.67079423323E+00  0.20242981664E+02  0.51100000000E-03 0. -1.
        -12    1    3    3    0    0 -0.15124716344E+02  0.99876275712E+01  0.21500688414E+01  0.18251918940E+02  0.00000000000E+00 0.  1.
</event>
<event>
 7    1  0.5714431E-011  0.5052886E+02  0.7816164E-02  0.1300439E+00
        -11   -1    0    0    0    0  0.00000000000E+00  0.00000000000E+00  0.45593999997E+02  0.45594000000E+02  0.51100000000E-03 0.  1.
         11   -1    0    0    0    0 -0.00000000000E+00 -0.00000000000E+00 -0.45593999997E+02  0.45594000000E+02  0.51100000000E-03 0. -1.
    9900012    2    1    2    0    0 -0.22609763493E+02 -0.14510510472E+02 -0.30519001658E+02  0.50528858574E+02  0.29999996120E+02 0.  0.
        -12    1    1    2    0    0  0.22609763493E+02  0.14510510472E+02  0.30519001658E+02  0.40659141426E+02  0.00000000000E+00 0.  1.
         11    1    3    3    0    0 -0.44832154782E+01 -0.43038717679E+01 -0.35231672399E+01  0.71438953576E+01  0.51100000000E-03 0. -1.
        -11    1    3    3    0    0  0.51082851094E+01  0.38099893006E+01 -0.81573342522E+01  0.10351458718E+02  0.51100000000E-03 0.  1.
        -12    1    3    3    0    0 -0.23234833124E+02 -0.14016628004E+02 -0.18838500166E+02  0.33033504498E+02  0.00000000000E+00 0.  1.
</event>
<event>
 7    1  0.5714431E-011  0.5052889E+02  0.7816164E-02  0.1300439E+00
        -11   -1    0    0    0    0  0.00000000000E+00  0.00000000000E+00  0.45593999997E+02  0.45594000000E+02  0.51100000000E-03 0.  1.
         11   -1    0    0    0    0 -0.00000000000E+00 -0.00000000000E+00 -0.45593999997E+02  0.45594000000E+02  0.51100000000E-03 0. -1.
    9900012    2    1    2    0    0 -0.23758879660E+02  0.32565615448E+01 -0.32834037316E+02  0.50528885865E+02  0.30000079076E+02 0.  0.
        -12    1    1    2    0    0  0.23758879660E+02 -0.32565615448E+01  0.32834037316E+02  0.40659114135E+02  0.00000000000E+00 0.  1.
         11    1    3    3    0    0  0.13031918537E+01 -0.44834797792E+01 -0.63564382631E+01  0.78869644092E+01  0.51100000000E-03 0. -1.
        -11    1    3    3    0    0 -0.23632821492E+02  0.33067743506E+01 -0.10629326376E+02  0.26123315022E+02  0.51100000000E-03 0.  1.
         12    1    3    3    0    0 -0.14292500212E+01  0.44332669734E+01 -0.15848272676E+02  0.16518606434E+02  0.00000000000E+00 0. -1.
</event>
<event>
 7    1  0.5714431E-011  0.5052895E+02  0.7816164E-02  0.1300438E+00
        -11   -1    0    0    0    0  0.00000000000E+00  0.00000000000E+00  0.45593999997E+02  0.45594000000E+02  0.51100000000E-03 0. -1.
         11   -1    0    0    0    0 -0.00000000000E+00 -0.00000000000E+00 -0.45593999997E+02  0.45594000000E+02  0.51100000000E-03 0.  1.
    9900012    2    1    2    0    0 -0.11384631075E+02  0.36108713108E+02  0.14822591593E+02  0.50528951701E+02  0.30000279188E+02 0.  0.
        -12    1    1    2    0    0  0.11384631075E+02 -0.36108713108E+02 -0.14822591593E+02  0.40659048299E+02  0.00000000000E+00 0.  1.
         11    1    3    3    0    0 -0.88597836639E+01  0.16319595147E+02 -0.31342968685E+01  0.18832120684E+02  0.51100000000E-03 0.  1.
        -11    1    3    3    0    0  0.49316612719E+00 -0.17247864756E+00  0.99735339028E+01  0.99872088435E+01  0.51100000000E-03 0. -1.
        -12    1    3    3    0    0 -0.30180135387E+01  0.19961596609E+02  0.79833545589E+01  0.21709622173E+02  0.00000000000E+00 0.  1.
</event>
<event>
 7    1  0.5714431E-011  0.5052887E+02  0.7816164E-02  0.1300439E+00
        -11   -1    0    0    0    0  0.00000000000E+00  0.00000000000E+00  0.45593999997E+02  0.45594000000E+02  0.51100000000E-03 0.  1.
         11   -1    0    0    0    0 -0.00000000000E+00 -0.00000000000E+00 -0.45593999997E+02  0.45594000000E+02  0.51100000000E-03 0. -1.
    9900012    2    1    2    0    0 -0.26368277782E+02 -0.99931065908E+01 -0.29291915105E+02  0.50528873803E+02  0.30000042412E+02 0.  0.
        -12    1    1    2    0    0  0.26368277782E+02  0.99931065908E+01  0.29291915105E+02  0.40659126197E+02  0.00000000000E+00 0.  1.
         11    1    3    3    0    0 -0.49542070689E+01 -0.38760108525E+01  0.51860297715E+01  0.81524556339E+01  0.51100000000E-03 0. -1.
        -11    1    3    3    0    0 -0.57071345998E+01  0.74411618750E-02 -0.17676657641E+02  0.18575135702E+02  0.51100000000E-03 0.  1.
         12    1    3    3    0    0 -0.15706936114E+02 -0.61245369003E+01 -0.16801287236E+02  0.23801282467E+02  0.00000000000E+00 0. -1.
</event>
<event>
 7    1  0.5714431E-011  0.5052886E+02  0.7816164E-02  0.1300439E+00
        -11   -1    0    0    0    0  0.00000000000E+00  0.00000000000E+00  0.45593999997E+02  0.45594000000E+02  0.51100000000E-03 0. -1.
         11   -1    0    0    0    0 -0.00000000000E+00 -0.00000000000E+00 -0.45593999997E+02  0.45594000000E+02  0.51100000000E-03 0.  1.
    9900012    2    1    2    0    0 -0.19562600095E+02  0.34871047981E+02  0.73811045019E+01  0.50528855722E+02  0.29999987453E+02 0.  0.
        -12    1    1    2    0    0  0.19562600095E+02 -0.34871047981E+02 -0.73811045019E+01  0.40659144278E+02  0.00000000000E+00 0.  1.
         11    1    3    3    0    0 -0.46144029388E+01 -0.43561448411E+01  0.12037900378E+01  0.64589335865E+01  0.51100000000E-03 0. -1.
        -11    1    3    3    0    0 -0.10806575447E+02  0.26830374197E+02 -0.14058179320E+01  0.28959063810E+02  0.51100000000E-03 0.  1.
         12    1    3    3    0    0 -0.41416217094E+01  0.12396818625E+02  0.75831323962E+01  0.15110858326E+02  0.00000000000E+00 0. -1.
</event>
<event>
 7    1  0.5714431E-011  0.5052880E+02  0.7816164E-02  0.1300439E+00
        -11   -1    0    0    0    0  0.00000000000E+00  0.00000000000E+00  0.45593999997E+02  0.45594000000E+02  0.51100000000E-03 0. -1.
         11   -1    0    0    0    0 -0.00000000000E+00 -0.00000000000E+00 -0.45593999997E+02  0.45594000000E+02  0.51100000000E-03 0.  1.
    9900012    2    1    2    0    0 -0.58609717307E+01 -0.25272565750E+02  0.31306817995E+02  0.50528801506E+02  0.29999822656E+02 0.  0.
        -12    1    1    2    0    0  0.58609717307E+01  0.25272565750E+02 -0.31306817995E+02  0.40659198494E+02  0.00000000000E+00 0.  1.
         11    1    3    3    0    0  0.30019937755E+00 -0.70743597592E+01  0.64201927953E-01  0.70810174281E+01  0.51100000000E-03 0. -1.
        -11    1    3    3    0    0 -0.52159563651E+01 -0.14349823349E+02  0.34875805005E+02  0.38071582656E+02  0.51100000000E-03 0.  1.
        -12    1    3    3    0    0 -0.94521474308E+00 -0.38483826420E+01 -0.36331889373E+01  0.53762014214E+01  0.00000000000E+00 0.  1.
</event>
<event>
 7    1  0.5714431E-011  0.5052886E+02  0.7816164E-02  0.1300439E+00
        -11   -1    0    0    0    0  0.00000000000E+00  0.00000000000E+00  0.45593999997E+02  0.45594000000E+02  0.51100000000E-03 0.  1.
         11   -1    0    0    0    0 -0.00000000000E+00 -0.00000000000E+00 -0.45593999997E+02  0.45594000000E+02  0.51100000000E-03 0. -1.
    9900012    2    1    2    0    0 -0.33496368828E+01 -0.30846842481E+02 -0.26275808039E+02  0.50528857776E+02  0.29999993697E+02 0.  0.
        -12    1    1    2    0    0  0.33496368828E+01  0.30846842481E+02  0.26275808039E+02  0.40659142224E+02  0.00000000000E+00 0.  1.
         11    1    3    3    0    0 -0.11884318154E+02 -0.11610588402E+02 -0.31557599887E+01  0.16911581901E+02  0.51100000000E-03 0.  1.
        -11    1    3    3    0    0  0.10599474118E+02 -0.17095624456E+02 -0.15366331145E+02  0.25312711437E+02  0.51100000000E-03 0. -1.
        -12    1    3    3    0    0 -0.20647928474E+01 -0.21406296223E+01 -0.77537169044E+01  0.83045644387E+01  0.00000000000E+00 0.  1.
</event>
<event>
 7    1  0.5714431E-011  0.5052885E+02  0.7816164E-02  0.1300439E+00
        -11   -1    0    0    0    0  0.00000000000E+00  0.00000000000E+00  0.45593999997E+02  0.45594000000E+02  0.51100000000E-03 0. -1.
         11   -1    0    0    0    0 -0.00000000000E+00 -0.00000000000E+00 -0.45593999997E+02  0.45594000000E+02  0.51100000000E-03 0.  1.
    9900012    2    1    2    0    0  0.38543695206E+02  0.12389454505E+02  0.37484789610E+01  0.50528854441E+02  0.29999983560E+02 0.  0.
        -12    1    1    2    0    0 -0.38543695206E+02 -0.12389454505E+02 -0.37484789610E+01  0.40659145559E+02  0.00000000000E+00 0.  1.
         11    1    3    3    0    0 -0.81501873472E+00  0.65881669798E+01  0.55528634090E+01  0.86546225794E+01  0.51100000000E-03 0. -1.
        -11    1    3    3    0    0  0.18475066371E+02  0.63964625307E+00 -0.69600655120E+01  0.19752967800E+02  0.51100000000E-03 0.  1.
         12    1    3    3    0    0  0.20883647570E+02  0.51616412726E+01  0.51556810640E+01  0.22121264062E+02  0.00000000000E+00 0. -1.
</event>
<event>
 7    1  0.5714431E-011  0.5052886E+02  0.7816164E-02  0.1300439E+00
        -11   -1    0    0    0    0  0.00000000000E+00  0.00000000000E+00  0.45593999997E+02  0.45594000000E+02  0.51100000000E-03 0. -1.
         11   -1    0    0    0    0 -0.00000000000E+00 -0.00000000000E+00 -0.45593999997E+02  0.45594000000E+02  0.51100000000E-03 0.  1.
    9900012    2    1    2    0    0 -0.39389238528E+02 -0.55332596543E+01  0.84283283623E+01  0.50528858430E+02  0.29999995685E+02 0.  0.
        -12    1    1    2    0    0  0.39389238528E+02  0.55332596543E+01 -0.84283283623E+01  0.40659141570E+02  0.00000000000E+00 0.  1.
         11    1    3    3    0    0 -0.21159849679E+02 -0.48316922155E+00  0.14957432586E+02  0.25917127170E+02  0.51100000000E-03 0. -1.
        -11    1    3    3    0    0 -0.19157758732E+02 -0.33423702289E+01 -0.90324203120E+01  0.21442382688E+02  0.51100000000E-03 0.  1.
        -12    1    3    3    0    0  0.92836988294E+00 -0.17077202039E+01  0.25033160885E+01  0.31693485724E+01  0.00000000000E+00 0.  1.
</event>
<event>
 7    1  0.5714431E-011  0.5052886E+02  0.7816164E-02  0.1300439E+00
        -11   -1    0    0    0    0  0.00000000000E+00  0.00000000000E+00  0.45593999997E+02  0.45594000000E+02  0.51100000000E-03 0. -1.
         11   -1    0    0    0    0 -0.00000000000E+00 -0.00000000000E+00 -0.45593999997E+02  0.45594000000E+02  0.51100000000E-03 0.  1.
    9900012    2    1    2    0    0 -0.34239580017E+02  0.10832731948E+02  0.19064851140E+02  0.50528862403E+02  0.30000007759E+02 0.  0.
        -12    1    1    2    0    0  0.34239580017E+02 -0.10832731948E+02 -0.19064851140E+02  0.40659137597E+02  0.00000000000E+00 0.  1.
         11    1    3    3    0    0 -0.93818859742E+01 -0.22846298939E+01  0.18825714798E+02  0.21157666603E+02  0.51100000000E-03 0. -1.
        -11    1    3    3    0    0 -0.16445493783E+02  0.65092169750E+01  0.38120302946E+01  0.18092975063E+02  0.51100000000E-03 0.  1.
         12    1    3    3    0    0 -0.84122002593E+01  0.66081448669E+01 -0.35728939525E+01  0.11278220736E+02  0.00000000000E+00 0. -1.
</event>
<event>
 7    1  0.5714431E-011  0.5052876E+02  0.7816164E-02  0.1300439E+00
        -11   -1    0    0    0    0  0.00000000000E+00  0.00000000000E+00  0.45593999997E+02  0.45594000000E+02  0.51100000000E-03 0. -1.
         11   -1    0    0    0    0 -0.00000000000E+00 -0.00000000000E+00 -0.45593999997E+02  0.45594000000E+02  0.51100000000E-03 0.  1.
    9900012    2    1    2    0    0 -0.21179667080E+02 -0.30094377896E+02  0.17289422895E+02  0.50528757231E+02  0.29999688076E+02 0.  0.
        -12    1    1    2    0    0  0.21179667080E+02  0.30094377896E+02 -0.17289422895E+02  0.40659242769E+02  0.00000000000E+00 0.  1.
         11    1    3    3    0    0 -0.21163913565E+02 -0.16226670671E+02  0.18590172967E+02  0.32508623619E+02  0.51100000000E-03 0. -1.
        -11    1    3    3    0    0  0.48773261685E+01 -0.11502506712E+02 -0.32214368334E+00  0.12497989759E+02  0.51100000000E-03 0.  1.
         12    1    3    3    0    0 -0.48930796837E+01 -0.23652005133E+01 -0.97860638850E+00  0.55221438521E+01  0.00000000000E+00 0. -1.
</event>
<event>
 7    1  0.5714431E-011  0.5052886E+02  0.7816164E-02  0.1300439E+00
        -11   -1    0    0    0    0  0.00000000000E+00  0.00000000000E+00  0.45593999997E+02  0.45594000000E+02  0.51100000000E-03 0. -1.
         11   -1    0    0    0    0 -0.00000000000E+00 -0.00000000000E+00 -0.45593999997E+02  0.45594000000E+02  0.51100000000E-03 0.  1.
    9900012    2    1    2    0    0 -0.26968015768E+02  0.17628392618E+02 -0.24801845444E+02  0.50528860337E+02  0.30000001480E+02 0.  0.
        -12    1    1    2    0    0  0.26968015768E+02 -0.17628392618E+02  0.24801845444E+02  0.40659139663E+02  0.00000000000E+00 0.  1.
         11    1    3    3    0    0 -0.25730616287E+02  0.14142043697E+01 -0.16655876287E+02  0.30683591766E+02  0.51100000000E-03 0. -1.
        -11    1    3    3    0    0  0.28420774737E+01  0.63419840058E+01 -0.10681651660E+01  0.70312973611E+01  0.51100000000E-03 0.  1.
         12    1    3    3    0    0 -0.40794769542E+01  0.98722042427E+01 -0.70778039904E+01  0.12813971209E+02  0.00000000000E+00 0. -1.
</event>
<event>
 7    1  0.5714431E-011  0.5052886E+02  0.7816164E-02  0.1300439E+00
        -11   -1    0    0    0    0  0.00000000000E+00  0.00000000000E+00  0.45593999997E+02  0.45594000000E+02  0.51100000000E-03 0.  1.
         11   -1    0    0    0    0 -0.00000000000E+00 -0.00000000000E+00 -0.45593999997E+02  0.45594000000E+02  0.51100000000E-03 0. -1.
    9900012    2    1    2    0    0 -0.58383571177E+00 -0.14557206543E+01 -0.40628882114E+02  0.50528855289E+02  0.29999986137E+02 0.  0.
        -12    1    1    2    0    0  0.58383571177E+00  0.14557206543E+01  0.40628882114E+02  0.40659144711E+02  0.00000000000E+00 0.  1.
         11    1    3    3    0    0 -0.82647982182E+01  0.11898953017E+01 -0.34684063110E+02  0.35675018914E+02  0.51100000000E-03 0. -1.
        -11    1    3    3    0    0  0.21216380232E+01 -0.23751106544E+00  0.32224520216E+01  0.38654827254E+01  0.51100000000E-03 0.  1.
         12    1    3    3    0    0  0.55593244831E+01 -0.24081048906E+01 -0.91672710257E+01  0.10988353650E+02  0.00000000000E+00 0. -1.
</event>
<event>
 7    1  0.5714431E-011  0.5052890E+02  0.7816164E-02  0.1300439E+00
        -11   -1    0    0    0    0  0.00000000000E+00  0.00000000000E+00  0.45593999997E+02  0.45594000000E+02  0.51100000000E-03 0. -1.
         11   -1    0    0    0    0 -0.00000000000E+00 -0.00000000000E+00 -0.45593999997E+02  0.45594000000E+02  0.51100000000E-03 0.  1.
    9900012    2    1    2    0    0 -0.91185992560E+01  0.19638961331E+02  0.34414021378E+02  0.50528898658E+02  0.30000117960E+02 0.  0.
        -12    1    1    2    0    0  0.91185992560E+01 -0.19638961331E+02 -0.34414021378E+02  0.40659101342E+02  0.00000000000E+00 0.  1.
         11    1    3    3    0    0 -0.34947975391E+01  0.20108794414E+02  0.13570305805E+02  0.24509802580E+02  0.51100000000E-03 0. -1.
        -11    1    3    3    0    0  0.43854688974E+01  0.18583292951E+00  0.11505816164E+02  0.12314652947E+02  0.51100000000E-03 0.  1.
         12    1    3    3    0    0 -0.10009270614E+02 -0.65566601312E+00  0.93378994089E+01  0.13704443131E+02  0.00000000000E+00 0. -1.
</event>
<event>
 7    1  0.5714431E-011  0.5052886E+02  0.7816164E-02  0.1300439E+00
        -11   -1    0    0    0    0  0.00000000000E+00  0.00000000000E+00  0.45593999997E+02  0.45594000000E+02  0.51100000000E-03 0. -1.
         11   -1    0    0    0    0 -0.00000000000E+00 -0.00000000000E+00 -0.45593999997E+02  0.45594000000E+02  0.51100000000E-03 0.  1.
    9900012    2    1    2    0    0  0.30121109119E+02 -0.26029867714E+02  0.82662013906E+01  0.50528864333E+02  0.30000013627E+02 0.  0.
        -12    1    1    2    0    0 -0.30121109119E+02  0.26029867714E+02 -0.82662013906E+01  0.40659135667E+02  0.00000000000E+00 0.  1.
         11    1    3    3    0    0  0.58821679313E+01 -0.42500229644E+01  0.62491329904E+01  0.95767561398E+01  0.51100000000E-03 0. -1.
        -11    1    3    3    0    0  0.56418926780E+01  0.45827022882E+01 -0.37497394083E+01  0.81787932572E+01  0.51100000000E-03 0.  1.
        -12    1    3    3    0    0  0.18597048509E+02 -0.26362547038E+02  0.57668078086E+01  0.32773314936E+02  0.00000000000E+00 0.  1.
</event>
<event>
 7    1  0.5714431E-011  0.5052885E+02  0.7816164E-02  0.1300439E+00
        -11   -1    0    0    0    0  0.00000000000E+00  0.00000000000E+00  0.45593999997E+02  0.45594000000E+02  0.51100000000E-03 0.  1.
         11   -1    0    0    0    0 -0.00000000000E+00 -0.00000000000E+00 -0.45593999997E+02  0.45594000000E+02  0.51100000000E-03 0. -1.
    9900012    2    1    2    0    0  0.28918500037E+01  0.36169398050E+00 -0.40554562976E+02  0.50528853463E+02  0.29999980585E+02 0.  0.
        -12    1    1    2    0    0 -0.28918500037E+01 -0.36169398050E+00  0.40554562976E+02  0.40659146537E+02  0.00000000000E+00 0.  1.
         11    1    3    3    0    0  0.34207214840E+01 -0.31409307895E+01  0.29725210711E+01  0.55138610315E+01  0.51100000000E-03 0.  1.
        -11    1    3    3    0    0  0.18847674300E+01  0.62807720019E+01 -0.36481443752E+02  0.37066105591E+02  0.51100000000E-03 0. -1.
        -12    1    3    3    0    0 -0.24136389103E+01 -0.27781472319E+01 -0.70456402954E+01  0.79488868405E+01  0.00000000000E+00 0.  1.
</event>
<event>
 7    1  0.5714431E-011  0.5052885E+02  0.7816164E-02  0.1300439E+00
        -11   -1    0    0    0    0  0.00000000000E+00  0.00000000000E+00  0.45593999997E+02  0.45594000000E+02  0.51100000000E-03 0.  1.
         11   -1    0    0    0    0 -0.00000000000E+00 -0.00000000000E+00 -0.45593999997E+02  0.45594000000E+02  0.51100000000E-03 0. -1.
    9900012    2    1    2    0    0 -0.13843286643E+02 -0.49908063427E+01 -0.37902789918E+02  0.50528853223E+02  0.29999979858E+02 0.  0.
        -12    1    1    2    0    0  0.13843286643E+02  0.49908063427E+01  0.37902789918E+02  0.40659146777E+02  0.00000000000E+00 0.  1.
         11    1    3    3    0    0 -0.59467634297E+01 -0.77875557663E+01 -0.13098623998E+02  0.16357994100E+02  0.51100000000E-03 0. -1.
        -11    1    3    3    0    0  0.14099440126E+01  0.73632552052E+01 -0.23100979523E+00  0.75005889850E+01  0.51100000000E-03 0.  1.
        -12    1    3    3    0    0 -0.93064672260E+01 -0.45665057816E+01 -0.24573156125E+02  0.26670270138E+02  0.00000000000E+00 0.  1.
</event>
<event>
 7    1  0.5714431E-011  0.5052887E+02  0.7816164E-02  0.1300439E+00
        -11   -1    0    0    0    0  0.00000000000E+00  0.00000000000E+00  0.45593999997E+02  0.45594000000E+02  0.51100000000E-03 0.  1.
         11   -1    0    0    0    0 -0.00000000000E+00 -0.00000000000E+00 -0.45593999997E+02  0.45594000000E+02  0.51100000000E-03 0. -1.
    9900012    2    1    2    0    0 -0.29381661307E+02 -0.24357500141E+02 -0.14021246676E+02  0.50528865816E+02  0.30000018133E+02 0.  0.
        -12    1    1    2    0    0  0.29381661307E+02  0.24357500141E+02  0.14021246676E+02  0.40659134184E+02  0.00000000000E+00 0.  1.
         11    1    3    3    0    0 -0.67669477433E+01  0.22551128315E+01 -0.91600034796E+01  0.11609598600E+02  0.51100000000E-03 0. -1.
        -11    1    3    3    0    0 -0.10332284191E+02 -0.19539759271E+02 -0.94255422648E+01  0.24029130992E+02  0.51100000000E-03 0.  1.
         12    1    3    3    0    0 -0.12282429372E+02 -0.70728537014E+01  0.45642990686E+01  0.14890136224E+02  0.00000000000E+00 0. -1.
</event>
<event>
 7    1  0.5714431E-011  0.5052885E+02  0.7816164E-02  0.1300439E+00
        -11   -1    0    0    0    0  0.00000000000E+00  0.00000000000E+00  0.45593999997E+02  0.45594000000E+02  0.51100000000E-03 0.  1.
         11   -1    0    0    0    0 -0.00000000000E+00 -0.00000000000E+00 -0.45593999997E+02  0.45594000000E+02  0.51100000000E-03 0. -1.
    9900012    2    1    2    0    0  0.71086145190E+01  0.57284164880E+00 -0.40028818817E+02  0.50528845018E+02  0.29999954918E+02 0.  0.
        -12    1    1    2    0    0 -0.71086145190E+01 -0.57284164880E+00  0.40028818817E+02  0.40659154982E+02  0.00000000000E+00 0.  1.
         11    1    3    3    0    0 -0.48275756024E+01 -0.70921375249E+01 -0.20656021369E+02  0.22366830797E+02  0.51100000000E-03 0. -1.
        -11    1    3    3    0    0  0.12486583696E+02  0.44246107367E+01 -0.20733859067E+02  0.24604569995E+02  0.51100000000E-03 0.  1.
        -12    1    3    3    0    0 -0.55039357435E+00  0.32403684371E+01  0.13610616186E+01  0.35574442264E+01  0.00000000000E+00 0.  1.
</event>
<event>
 7    1  0.5714431E-011  0.5052874E+02  0.7816164E-02  0.1300439E+00
        -11   -1    0    0    0    0  0.00000000000E+00  0.00000000000E+00  0.45593999997E+02  0.45594000000E+02  0.51100000000E-03 0.  1.
         11   -1    0    0    0    0 -0.00000000000E+00 -0.00000000000E+00 -0.45593999997E+02  0.45594000000E+02  0.51100000000E-03 0. -1.
    9900012    2    1    2    0    0 -0.10105123371E+02 -0.86157154998E+01 -0.38429565485E+02  0.50528738137E+02  0.29999630038E+02 0.  0.
        -12    1    1    2    0    0  0.10105123371E+02  0.86157154998E+01  0.38429565485E+02  0.40659261863E+02  0.00000000000E+00 0.  1.
         11    1    3    3    0    0 -0.48656270597E+01 -0.53449844856E+01 -0.24458129513E+02  0.25503789627E+02  0.51100000000E-03 0. -1.
        -11    1    3    3    0    0  0.58647952645E+01  0.32717892304E+01 -0.10911306777E+01  0.68037485756E+01  0.51100000000E-03 0.  1.
        -12    1    3    3    0    0 -0.11104291576E+02 -0.65425202447E+01 -0.12880305294E+02  0.18221199934E+02  0.00000000000E+00 0.  1.
</event>
<event>
 7    1  0.5714431E-011  0.5052884E+02  0.7816164E-02  0.1300439E+00
        -11   -1    0    0    0    0  0.00000000000E+00  0.00000000000E+00  0.45593999997E+02  0.45594000000E+02  0.51100000000E-03 0.  1.
         11   -1    0    0    0    0 -0.00000000000E+00 -0.00000000000E+00 -0.45593999997E+02  0.45594000000E+02  0.51100000000E-03 0. -1.
    9900012    2    1    2    0    0 -0.50272622353E+01  0.33008954829E+02 -0.23201350220E+02  0.50528842157E+02  0.29999946219E+02 0.  0.
        -12    1    1    2    0    0  0.50272622353E+01 -0.33008954829E+02  0.23201350220E+02  0.40659157843E+02  0.00000000000E+00 0.  1.
         11    1    3    3    0    0 -0.18603612682E+00  0.28075259759E+02 -0.12036651451E+02  0.30547271538E+02  0.51100000000E-03 0. -1.
        -11    1    3    3    0    0 -0.28412025739E+01 -0.27163315023E+01  0.21616530455E+01  0.44859372540E+01  0.51100000000E-03 0.  1.
        -12    1    3    3    0    0 -0.20000235346E+01  0.76500265723E+01 -0.13326351815E+02  0.15495633365E+02  0.00000000000E+00 0.  1.
</event>
<event>
 7    1  0.5714431E-011  0.5052886E+02  0.7816164E-02  0.1300439E+00
        -11   -1    0    0    0    0  0.00000000000E+00  0.00000000000E+00  0.45593999997E+02  0.45594000000E+02  0.51100000000E-03 0.  1.
         11   -1    0    0    0    0 -0.00000000000E+00 -0.00000000000E+00 -0.45593999997E+02  0.45594000000E+02  0.51100000000E-03 0. -1.
    9900012    2    1    2    0    0  0.26143583045E+02 -0.15443829537E+02 -0.27040095441E+02  0.50528861216E+02  0.30000004152E+02 0.  0.
        -12    1    1    2    0    0 -0.26143583045E+02  0.15443829537E+02  0.27040095441E+02  0.40659138784E+02  0.00000000000E+00 0.  1.
         11    1    3    3    0    0  0.15448872968E+02 -0.18761772902E+02 -0.25811526564E+02  0.35452880028E+02  0.51100000000E-03 0. -1.
        -11    1    3    3    0    0  0.73749803652E+01  0.48925089705E+00  0.38891103006E+01  0.83519387580E+01  0.51100000000E-03 0.  1.
         12    1    3    3    0    0  0.33197297124E+01  0.28286924688E+01 -0.51176791772E+01  0.67240424305E+01  0.00000000000E+00 0. -1.
</event>
<event>
 7    1  0.5714431E-011  0.5052882E+02  0.7816164E-02  0.1300439E+00
        -11   -1    0    0    0    0  0.00000000000E+00  0.00000000000E+00  0.45593999997E+02  0.45594000000E+02  0.51100000000E-03 0. -1.
         11   -1    0    0    0    0 -0.00000000000E+00 -0.00000000000E+00 -0.45593999997E+02  0.45594000000E+02  0.51100000000E-03 0.  1.
    9900012    2    1    2    0    0  0.25346195356E+02 -0.13432364493E+02 -0.28815122364E+02  0.50528815161E+02  0.29999864164E+02 0.  0.
        -12    1    1    2    0    0 -0.25346195356E+02  0.13432364493E+02  0.28815122364E+02  0.40659184839E+02  0.00000000000E+00 0.  1.
         11    1    3    3    0    0  0.37394322148E+01  0.53562987118E+01 -0.12826902291E+02  0.14394537569E+02  0.51100000000E-03 0.  1.
        -11    1    3    3    0    0  0.12023516208E+02 -0.18354261043E+02 -0.71146504384E+01  0.23066471155E+02  0.51100000000E-03 0. -1.
         12    1    3    3    0    0  0.95832469331E+01 -0.43440216247E+00 -0.88735696339E+01  0.13067806437E+02  0.00000000000E+00 0. -1.
</event>
<event>
 7    1  0.5714431E-011  0.5052886E+02  0.7816164E-02  0.1300439E+00
        -11   -1    0    0    0    0  0.00000000000E+00  0.00000000000E+00  0.45593999997E+02  0.45594000000E+02  0.51100000000E-03 0. -1.
         11   -1    0    0    0    0 -0.00000000000E+00 -0.00000000000E+00 -0.45593999997E+02  0.45594000000E+02  0.51100000000E-03 0.  1.
    9900012    2    1    2    0    0 -0.73420581697E+01 -0.39808289197E+02  0.38157556210E+01  0.50528859602E+02  0.29999999246E+02 0.  0.
        -12    1    1    2    0    0  0.73420581697E+01  0.39808289197E+02 -0.38157556210E+01  0.40659140398E+02  0.00000000000E+00 0.  1.
         11    1    3    3    0    0 -0.15248214989E+02 -0.13336100108E+02  0.50267727437E+01  0.20871705031E+02  0.51100000000E-03 0. -1.
        -11    1    3    3    0    0  0.61158533723E+01 -0.21363931556E+02  0.34818166422E+01  0.22493205227E+02  0.51100000000E-03 0.  1.
        -12    1    3    3    0    0  0.17903034469E+01 -0.51082575333E+01 -0.46928337648E+01  0.71639493439E+01  0.00000000000E+00 0.  1.
</event>
<event>
 7    1  0.5714431E-011  0.5052879E+02  0.7816164E-02  0.1300439E+00
        -11   -1    0    0    0    0  0.00000000000E+00  0.00000000000E+00  0.45593999997E+02  0.45594000000E+02  0.51100000000E-03 0. -1.
         11   -1    0    0    0    0 -0.00000000000E+00 -0.00000000000E+00 -0.45593999997E+02  0.45594000000E+02  0.51100000000E-03 0.  1.
    9900012    2    1    2    0    0  0.24846681587E+02  0.82034142193E+01  0.31121018306E+02  0.50528789836E+02  0.29999787185E+02 0.  0.
        -12    1    1    2    0    0 -0.24846681587E+02 -0.82034142193E+01 -0.31121018306E+02  0.40659210164E+02  0.00000000000E+00 0.  1.
         11    1    3    3    0    0  0.11634821164E+02  0.13541603805E+02  0.90106079668E+01  0.19998378767E+02  0.51100000000E-03 0. -1.
        -11    1    3    3    0    0  0.11746339891E+02 -0.10437480802E+02  0.15759544526E+02  0.22254903960E+02  0.51100000000E-03 0.  1.
        -12    1    3    3    0    0  0.14655205325E+01  0.50992912163E+01  0.63508658129E+01  0.82755071091E+01  0.00000000000E+00 0.  1.
</event>
<event>
 7    1  0.5714431E-011  0.5052886E+02  0.7816164E-02  0.1300439E+00
        -11   -1    0    0    0    0  0.00000000000E+00  0.00000000000E+00  0.45593999997E+02  0.45594000000E+02  0.51100000000E-03 0.  1.
         11   -1    0    0    0    0 -0.00000000000E+00 -0.00000000000E+00 -0.45593999997E+02  0.45594000000E+02  0.51100000000E-03 0. -1.
    9900012    2    1    2    0    0  0.18649446840E+02 -0.34650342503E+02  0.10233159746E+02  0.50528860051E+02  0.30000000610E+02 0.  0.
        -12    1    1    2    0    0 -0.18649446840E+02  0.34650342503E+02 -0.10233159746E+02  0.40659139949E+02  0.00000000000E+00 0.  1.
         11    1    3    3    0    0 -0.78660868757E+00 -0.45722196835E+01  0.11900587186E+02  0.12772937082E+02  0.51100000000E-03 0.  1.
        -11    1    3    3    0    0  0.17516189735E+01 -0.29997750349E+01 -0.40392542059E+01  0.53275129366E+01  0.51100000000E-03 0. -1.
         12    1    3    3    0    0  0.17684436554E+02 -0.27078347785E+02  0.23718267658E+01  0.32428410032E+02  0.00000000000E+00 0. -1.
</event>
<event>
 7    1  0.5714431E-011  0.5052883E+02  0.7816164E-02  0.1300439E+00
        -11   -1    0    0    0    0  0.00000000000E+00  0.00000000000E+00  0.45593999997E+02  0.45594000000E+02  0.51100000000E-03 0.  1.
         11   -1    0    0    0    0 -0.00000000000E+00 -0.00000000000E+00 -0.45593999997E+02  0.45594000000E+02  0.51100000000E-03 0. -1.
    9900012    2    1    2    0    0 -0.25807504853E+02 -0.21030438541E+02 -0.23342261106E+02  0.50528833684E+02  0.29999920466E+02 0.  0.
        -12    1    1    2    0    0  0.25807504853E+02  0.21030438541E+02  0.23342261106E+02  0.40659166316E+02  0.00000000000E+00 0.  1.
         11    1    3    3    0    0 -0.11092529002E+02 -0.83955782532E+01 -0.23057648941E+02  0.26929261201E+02  0.51100000000E-03 0. -1.
        -11    1    3    3    0    0  0.16004610148E+00  0.14522561196E+01  0.25286649968E+01  0.29204125596E+01  0.51100000000E-03 0.  1.
         12    1    3    3    0    0 -0.14875021953E+02 -0.14087116407E+02 -0.28132771619E+01  0.20679159924E+02  0.00000000000E+00 0. -1.
</event>
<event>
 7    1  0.5714431E-011  0.5052886E+02  0.7816164E-02  0.1300439E+00
        -11   -1    0    0    0    0  0.00000000000E+00  0.00000000000E+00  0.45593999997E+02  0.45594000000E+02  0.51100000000E-03 0.  1.
         11   -1    0    0    0    0 -0.00000000000E+00 -0.00000000000E+00 -0.45593999997E+02  0.45594000000E+02  0.51100000000E-03 0. -1.
    9900012    2    1    2    0    0 -0.39305381901E+02 -0.76754179839E+01  0.70242984321E+01  0.50528857657E+02  0.29999993334E+02 0.  0.
        -12    1    1    2    0    0  0.39305381901E+02  0.76754179839E+01 -0.70242984321E+01  0.40659142343E+02  0.00000000000E+00 0.  1.
         11    1    3    3    0    0 -0.11600699832E+02 -0.15406564117E+01 -0.11477959137E+01  0.11758711430E+02  0.51100000000E-03 0. -1.
        -11    1    3    3    0    0  0.25167798192E+01  0.84730302414E+00 -0.45312489602E+01  0.52520777291E+01  0.51100000000E-03 0.  1.
        -12    1    3    3    0    0 -0.30221461888E+02 -0.69820645963E+01  0.12703343306E+02  0.33518068498E+02  0.00000000000E+00 0.  1.
</event>
<event>
 7    1  0.5714431E-011  0.5052887E+02  0.7816164E-02  0.1300439E+00
        -11   -1    0    0    0    0  0.00000000000E+00  0.00000000000E+00  0.45593999997E+02  0.45594000000E+02  0.51100000000E-03 0. -1.
         11   -1    0    0    0    0 -0.00000000000E+00 -0.00000000000E+00 -0.45593999997E+02  0.45594000000E+02  0.51100000000E-03 0.  1.
    9900012    2    1    2    0    0  0.24269150745E+02  0.36308642117E+01  0.32418981367E+02  0.50528865655E+02  0.30000017644E+02 0.  0.
        -12    1    1    2    0    0 -0.24269150745E+02 -0.36308642117E+01 -0.32418981367E+02  0.40659134345E+02  0.00000000000E+00 0.  1.
         11    1    3    3    0    0  0.38052334937E+01 -0.51528097294E+01  0.19375039503E+01  0.66921724326E+01  0.51100000000E-03 0. -1.
        -11    1    3    3    0    0  0.25270821169E+02  0.62550042113E+01  0.24362887099E+02  0.35655150376E+02  0.51100000000E-03 0.  1.
        -12    1    3    3    0    0 -0.48069039176E+01  0.25286697297E+01  0.61185903177E+01  0.81815428466E+01  0.00000000000E+00 0.  1.
</event>
<event>
 7    1  0.5714431E-011  0.5052886E+02  0.7816164E-02  0.1300439E+00
        -11   -1    0    0    0    0  0.00000000000E+00  0.00000000000E+00  0.45593999997E+02  0.45594000000E+02  0.51100000000E-03 0.  1.
         11   -1    0    0    0    0 -0.00000000000E+00 -0.00000000000E+00 -0.45593999997E+02  0.45594000000E+02  0.51100000000E-03 0. -1.
    9900012    2    1    2    0    0 -0.12144743053E+02 -0.11495284116E+02 -0.37061153208E+02  0.50528863046E+02  0.30000009715E+02 0.  0.
        -12    1    1    2    0    0  0.12144743053E+02  0.11495284116E+02  0.37061153208E+02  0.40659136954E+02  0.00000000000E+00 0.  1.
         11    1    3    3    0    0  0.89790395737E+01 -0.60315355445E+01 -0.11169168540E+02  0.15548405025E+02  0.51100000000E-03 0. -1.
        -11    1    3    3    0    0 -0.10878186748E+02 -0.43009092197E+01 -0.75007708641E+01  0.13895838616E+02  0.51100000000E-03 0.  1.
         12    1    3    3    0    0 -0.10245595879E+02 -0.11628393523E+01 -0.18391213803E+02  0.21084619404E+02  0.00000000000E+00 0. -1.
</event>
<event>
 7    1  0.5714431E-011  0.5052886E+02  0.7816164E-02  0.1300439E+00
        -11   -1    0    0    0    0  0.00000000000E+00  0.00000000000E+00  0.45593999997E+02  0.45594000000E+02  0.51100000000E-03 0. -1.
         11   -1    0    0    0    0 -0.00000000000E+00 -0.00000000000E+00 -0.45593999997E+02  0.45594000000E+02  0.51100000000E-03 0.  1.
    9900012    2    1    2    0    0  0.18992909538E+02  0.28953310819E+02 -0.21310582892E+02  0.50528858798E+02  0.29999996803E+02 0.  0.
        -12    1    1    2    0    0 -0.18992909538E+02 -0.28953310819E+02  0.21310582892E+02  0.40659141202E+02  0.00000000000E+00 0.  1.
         11    1    3    3    0    0  0.13506515683E+02  0.13285388440E+02  0.20270740474E+01  0.19053517821E+02  0.51100000000E-03 0.  1.
        -11    1    3    3    0    0  0.71094110113E+01  0.77567420435E+01 -0.20266586927E+02  0.22835177205E+02  0.51100000000E-03 0. -1.
         12    1    3    3    0    0 -0.16230171561E+01  0.79111803356E+01 -0.30710700117E+01  0.86401637720E+01  0.00000000000E+00 0. -1.
</event>
<event>
 7    1  0.6543350E-011  0.5052886E+02  0.7816164E-02  0.1300439E+00
        -11   -1    0    0    0    0  0.00000000000E+00  0.00000000000E+00  0.45593999997E+02  0.45594000000E+02  0.51100000000E-03 0.  1.
         11   -1    0    0    0    0 -0.00000000000E+00 -0.00000000000E+00 -0.45593999997E+02  0.45594000000E+02  0.51100000000E-03 0. -1.
    9900012    2    1    2    0    0 -0.38278520423E+02 -0.13225871191E+02  0.36050948124E+01  0.50528861997E+02  0.30000006526E+02 0.  0.
        -12    1    1    2    0    0  0.38278520423E+02  0.13225871191E+02 -0.36050948124E+01  0.40659138003E+02  0.00000000000E+00 0.  1.
         11    1    3    3    0    0 -0.24112332168E+02 -0.11092073555E+02  0.67998068351E+01  0.27398467687E+02  0.51100000000E-03 0. -1.
        -11    1    3    3    0    0 -0.48640298000E+01 -0.40899550308E+01 -0.97110644779E+01  0.11605657741E+02  0.51100000000E-03 0.  1.
        -12    1    3    3    0    0 -0.93021584550E+01  0.19561573940E+01  0.65163524552E+01  0.11524736569E+02  0.00000000000E+00 0.  1.
</event>
<event>
 7    1  0.5714431E-011  0.5052886E+02  0.7816164E-02  0.1300439E+00
        -11   -1    0    0    0    0  0.00000000000E+00  0.00000000000E+00  0.45593999997E+02  0.45594000000E+02  0.51100000000E-03 0.  1.
         11   -1    0    0    0    0 -0.00000000000E+00 -0.00000000000E+00 -0.45593999997E+02  0.45594000000E+02  0.51100000000E-03 0. -1.
    9900012    2    1    2    0    0  0.11323066115E+01 -0.35074261154E+02 -0.20534844239E+02  0.50528859064E+02  0.29999997612E+02 0.  0.
        -12    1    1    2    0    0 -0.11323066115E+01  0.35074261154E+02  0.20534844239E+02  0.40659140936E+02  0.00000000000E+00 0.  1.
         11    1    3    3    0    0  0.10462415348E+02 -0.33523073957E+02 -0.13848428075E+02  0.37749669970E+02  0.51100000000E-03 0. -1.
        -11    1    3    3    0    0 -0.94167660606E+01 -0.22642420191E+01 -0.49007694553E+01  0.10854483704E+02  0.51100000000E-03 0.  1.
         12    1    3    3    0    0  0.86657323718E-01  0.71305482248E+00 -0.17856467087E+01  0.19247053904E+01  0.00000000000E+00 0. -1.
</event>
<event>
 7    1  0.5714431E-011  0.5052886E+02  0.7816164E-02  0.1300439E+00
        -11   -1    0    0    0    0  0.00000000000E+00  0.00000000000E+00  0.45593999997E+02  0.45594000000E+02  0.51100000000E-03 0. -1.
         11   -1    0    0    0    0 -0.00000000000E+00 -0.00000000000E+00 -0.45593999997E+02  0.45594000000E+02  0.51100000000E-03 0.  1.
    9900012    2    1    2    0    0  0.40156592783E+01 -0.38385188868E+02  0.12791293769E+02  0.50528862771E+02  0.30000008879E+02 0.  0.
        -12    1    1    2    0    0 -0.40156592783E+01  0.38385188868E+02 -0.12791293769E+02  0.40659137229E+02  0.00000000000E+00 0.  1.
         11    1    3    3    0    0 -0.26990271522E+00  0.59895140072E+00  0.49608255079E+01  0.50041363128E+01  0.51100000000E-03 0. -1.
        -11    1    3    3    0    0  0.88008811456E+01 -0.36249707836E+02  0.15700103707E+01  0.37335797299E+02  0.51100000000E-03 0.  1.
        -12    1    3    3    0    0 -0.45153191521E+01 -0.27344324332E+01  0.62604578906E+01  0.81889291594E+01  0.00000000000E+00 0.  1.
</event>
<event>
 7    1  0.5714431E-011  0.5052886E+02  0.7816164E-02  0.1300439E+00
        -11   -1    0    0    0    0  0.00000000000E+00  0.00000000000E+00  0.45593999997E+02  0.45594000000E+02  0.51100000000E-03 0.  1.
         11   -1    0    0    0    0 -0.00000000000E+00 -0.00000000000E+00 -0.45593999997E+02  0.45594000000E+02  0.51100000000E-03 0. -1.
    9900012    2    1    2    0    0  0.14261238749E+02  0.12251642362E+02 -0.36051071303E+02  0.50528863102E+02  0.30000009884E+02 0.  0.
        -12    1    1    2    0    0 -0.14261238749E+02 -0.12251642362E+02  0.36051071303E+02  0.40659136898E+02  0.00000000000E+00 0.  1.
         11    1    3    3    0    0  0.12684999966E+02  0.18579035735E+02 -0.31924928442E+02  0.39054972145E+02  0.51100000000E-03 0. -1.
        -11    1    3    3    0    0 -0.54215233420E+00 -0.68973838866E+00 -0.52710087796E+01  0.53435196280E+01  0.51100000000E-03 0.  1.
         12    1    3    3    0    0  0.21183911167E+01 -0.56376549849E+01  0.11448659187E+01  0.61303713284E+01  0.00000000000E+00 0. -1.
</event>
<event>
 7    1  0.5714431E-011  0.5052883E+02  0.7816164E-02  0.1300439E+00
        -11   -1    0    0    0    0  0.00000000000E+00  0.00000000000E+00  0.45593999997E+02  0.45594000000E+02  0.51100000000E-03 0.  1.
         11   -1    0    0    0    0 -0.00000000000E+00 -0.00000000000E+00 -0.45593999997E+02  0.45594000000E+02  0.51100000000E-03 0. -1.
    9900012    2    1    2    0    0 -0.36916585923E+01 -0.24968031052E+02 -0.31876909121E+02  0.50528828183E+02  0.29999903744E+02 0.  0.
        -12    1    1    2    0    0  0.36916585923E+01  0.24968031052E+02  0.31876909121E+02  0.40659171817E+02  0.00000000000E+00 0.  1.
         11    1    3    3    0    0  0.40625368611E+01 -0.19264698717E+02 -0.30141461312E+02  0.36001951512E+02  0.51100000000E-03 0. -1.
        -11    1    3    3    0    0 -0.20805889421E+01 -0.79058703871E+01 -0.20649804162E+01  0.84318314323E+01  0.51100000000E-03 0.  1.
         12    1    3    3    0    0 -0.56736065113E+01  0.22025380522E+01  0.32953260724E+00  0.60950452382E+01  0.00000000000E+00 0. -1.
</event>
<event>
 7    1  0.5714431E-011  0.5052882E+02  0.7816164E-02  0.1300439E+00
        -11   -1    0    0    0    0  0.00000000000E+00  0.00000000000E+00  0.45593999997E+02  0.45594000000E+02  0.51100000000E-03 0.  1.
         11   -1    0    0    0    0 -0.00000000000E+00 -0.00000000000E+00 -0.45593999997E+02  0.45594000000E+02  0.51100000000E-03 0. -1.
    9900012    2    1    2    0    0  0.38129089370E+02  0.55042585960E+01  0.13001703026E+02  0.50528823908E+02  0.29999890751E+02 0.  0.
        -12    1    1    2    0    0 -0.38129089370E+02 -0.55042585960E+01 -0.13001703026E+02  0.40659176092E+02  0.00000000000E+00 0.  1.
         11    1    3    3    0    0  0.22892772102E+02  0.10767969495E+02  0.15460819215E+02  0.29649032238E+02  0.51100000000E-03 0. -1.
        -11    1    3    3    0    0  0.91720504957E+01 -0.54552509566E+01  0.45571238501E+01  0.11604035994E+02  0.51100000000E-03 0.  1.
         12    1    3    3    0    0  0.60642667721E+01  0.19154005765E+00 -0.70162400397E+01  0.92757556766E+01  0.00000000000E+00 0. -1.
</event>
<event>
 7    1  0.5714431E-011  0.5052886E+02  0.7816164E-02  0.1300439E+00
        -11   -1    0    0    0    0  0.00000000000E+00  0.00000000000E+00  0.45593999997E+02  0.45594000000E+02  0.51100000000E-03 0. -1.
         11   -1    0    0    0    0 -0.00000000000E+00 -0.00000000000E+00 -0.45593999997E+02  0.45594000000E+02  0.51100000000E-03 0.  1.
    9900012    2    1    2    0    0  0.57502677130E+01 -0.37980542055E+02  0.13325845772E+02  0.50528864260E+02  0.30000013404E+02 0.  0.
        -12    1    1    2    0    0 -0.57502677130E+01  0.37980542055E+02 -0.13325845772E+02  0.40659135740E+02  0.00000000000E+00 0.  1.
         11    1    3    3    0    0  0.11461298386E+02 -0.13491111246E+02 -0.59993770196E+01  0.18691280540E+02  0.51100000000E-03 0. -1.
        -11    1    3    3    0    0 -0.46520413875E+01 -0.13902074741E+02  0.11372365565E+02  0.18553702326E+02  0.51100000000E-03 0.  1.
         12    1    3    3    0    0 -0.10589892855E+01 -0.10587356068E+02  0.79528572271E+01  0.13283881394E+02  0.00000000000E+00 0. -1.
</event>
<event>
 7    1  0.5714431E-011  0.5052886E+02  0.7816164E-02  0.1300439E+00
        -11   -1    0    0    0    0  0.00000000000E+00  0.00000000000E+00  0.45593999997E+02  0.45594000000E+02  0.51100000000E-03 0. -1.
         11   -1    0    0    0    0 -0.00000000000E+00 -0.00000000000E+00 -0.45593999997E+02  0.45594000000E+02  0.51100000000E-03 0.  1.
    9900012    2    1    2    0    0 -0.20527951714E+02 -0.32512075700E+02  0.13218683920E+02  0.50528862375E+02  0.30000007674E+02 0.  0.
        -12    1    1    2    0    0  0.20527951714E+02  0.32512075700E+02 -0.13218683920E+02  0.40659137625E+02  0.00000000000E+00 0.  1.
         11    1    3    3    0    0 -0.11416592249E+02 -0.12439624193E+01  0.10394880866E+02  0.15489982878E+02  0.51100000000E-03 0. -1.
        -11    1    3    3    0    0 -0.32648882319E+01 -0.19867408039E+02 -0.39928452620E+01  0.20525988671E+02  0.51100000000E-03 0.  1.
         12    1    3    3    0    0 -0.58464712328E+01 -0.11400705241E+02  0.68166483157E+01  0.14512890826E+02  0.00000000000E+00 0. -1.
</event>
<event>
 7    1  0.5714431E-011  0.5052886E+02  0.7816164E-02  0.1300439E+00
        -11   -1    0    0    0    0  0.00000000000E+00  0.00000000000E+00  0.45593999997E+02  0.45594000000E+02  0.51100000000E-03 0. -1.
         11   -1    0    0    0    0 -0.00000000000E+00 -0.00000000000E+00 -0.45593999997E+02  0.45594000000E+02  0.51100000000E-03 0.  1.
    9900012    2    1    2    0    0 -0.35468675833E+01 -0.18691151336E+02  0.35933640603E+02  0.50528856688E+02  0.29999990388E+02 0.  0.
        -12    1    1    2    0    0  0.35468675833E+01  0.18691151336E+02 -0.35933640603E+02  0.40659143312E+02  0.00000000000E+00 0.  1.
         11    1    3    3    0    0 -0.16742020459E+01 -0.14604464937E+02  0.18398795245E+01  0.14814806969E+02  0.51100000000E-03 0. -1.
        -11    1    3    3    0    0 -0.10758866282E+01  0.26270154724E+01  0.18517150587E+02  0.18733488956E+02  0.51100000000E-03 0.  1.
         12    1    3    3    0    0 -0.79677890921E+00 -0.67137018715E+01  0.15576610491E+02  0.16980560763E+02  0.00000000000E+00 0. -1.
</event>
<event>
 7    1  0.5714431E-011  0.5052895E+02  0.7816164E-02  0.1300438E+00
        -11   -1    0    0    0    0  0.00000000000E+00  0.00000000000E+00  0.45593999997E+02  0.45594000000E+02  0.51100000000E-03 0.  1.
         11   -1    0    0    0    0 -0.00000000000E+00 -0.00000000000E+00 -0.45593999997E+02  0.45594000000E+02  0.51100000000E-03 0. -1.
    9900012    2    1    2    0    0 -0.82064154473E+01 -0.18124230329E+01 -0.39780999654E+02  0.50528953464E+02  0.30000284547E+02 0.  0.
        -12    1    1    2    0    0  0.82064154473E+01  0.18124230329E+01  0.39780999654E+02  0.40659046536E+02  0.00000000000E+00 0.  1.
         11    1    3    3    0    0 -0.10382034741E+02 -0.12636657334E+01 -0.34655705584E+02  0.36199467209E+02  0.51100000000E-03 0. -1.
        -11    1    3    3    0    0 -0.27889842614E+00  0.22152244202E+01  0.39460452760E+01  0.45339030807E+01  0.51100000000E-03 0.  1.
         12    1    3    3    0    0  0.24545177196E+01 -0.27639817197E+01 -0.90713393466E+01  0.97955831743E+01  0.00000000000E+00 0. -1.
</event>
<event>
 7    1  0.5714431E-011  0.5052886E+02  0.7816164E-02  0.1300439E+00
        -11   -1    0    0    0    0  0.00000000000E+00  0.00000000000E+00  0.45593999997E+02  0.45594000000E+02  0.51100000000E-03 0. -1.
         11   -1    0    0    0    0 -0.00000000000E+00 -0.00000000000E+00 -0.45593999997E+02  0.45594000000E+02  0.51100000000E-03 0.  1.
    9900012    2    1    2    0    0 -0.24244581589E+02  0.18630508998E+02  0.26800558972E+02  0.50528861259E+02  0.30000004283E+02 0.  0.
        -12    1    1    2    0    0  0.24244581589E+02 -0.18630508998E+02 -0.26800558972E+02  0.40659138741E+02  0.00000000000E+00 0.  1.
         11    1    3    3    0    0 -0.31145222175E+01  0.34541935921E+01  0.22229550202E+02  0.22710891758E+02  0.51100000000E-03 0. -1.
        -11    1    3    3    0    0 -0.18914523187E+02  0.10388632235E+02  0.13173891574E+01  0.21619860812E+02  0.51100000000E-03 0.  1.
         12    1    3    3    0    0 -0.22155361852E+01  0.47876831704E+01  0.32536196127E+01  0.61981086883E+01  0.00000000000E+00 0. -1.
</event>
<event>
 7    1  0.5714431E-011  0.5052886E+02  0.7816164E-02  0.1300439E+00
        -11   -1    0    0    0    0  0.00000000000E+00  0.00000000000E+00  0.45593999997E+02  0.45594000000E+02  0.51100000000E-03 0.  1.
         11   -1    0    0    0    0 -0.00000000000E+00 -0.00000000000E+00 -0.45593999997E+02  0.45594000000E+02  0.51100000000E-03 0. -1.
    9900012    2    1    2    0    0 -0.69653108449E+01  0.21914554961E+02 -0.33532108089E+02  0.50528861455E+02  0.30000004879E+02 0.  0.
        -12    1    1    2    0    0  0.69653108449E+01 -0.21914554961E+02  0.33532108089E+02  0.40659138545E+02  0.00000000000E+00 0.  1.
         11    1    3    3    0    0 -0.10387218220E+01 -0.35467554533E+01 -0.11789236617E+02  0.12354938993E+02  0.51100000000E-03 0. -1.
        -11    1    3    3    0    0 -0.91874567095E+01  0.15124100271E+02 -0.20777057081E+02  0.27291644711E+02  0.51100000000E-03 0.  1.
        -12    1    3    3    0    0  0.32608676865E+01  0.10337210143E+02 -0.96581439130E+00  0.10882277751E+02  0.00000000000E+00 0.  1.
</event>
<event>
 7    1  0.5714431E-011  0.5052888E+02  0.7816164E-02  0.1300439E+00
        -11   -1    0    0    0    0  0.00000000000E+00  0.00000000000E+00  0.45593999997E+02  0.45594000000E+02  0.51100000000E-03 0. -1.
         11   -1    0    0    0    0 -0.00000000000E+00 -0.00000000000E+00 -0.45593999997E+02  0.45594000000E+02  0.51100000000E-03 0.  1.
    9900012    2    1    2    0    0 -0.31253803009E+02 -0.18566803114E+02  0.18210921713E+02  0.50528879866E+02  0.30000060842E+02 0.  0.
        -12    1    1    2    0    0  0.31253803009E+02  0.18566803114E+02 -0.18210921713E+02  0.40659120134E+02  0.00000000000E+00 0.  1.
         11    1    3    3    0    0 -0.93649021807E+01  0.23567752129E+01  0.16971191142E+02  0.19526318427E+02  0.51100000000E-03 0. -1.
        -11    1    3    3    0    0 -0.19272602584E+02 -0.20137407372E+02 -0.28248821038E+00  0.27875225306E+02  0.51100000000E-03 0.  1.
         12    1    3    3    0    0 -0.26162982444E+01 -0.78617095451E+00  0.15222187814E+01  0.31273361335E+01  0.00000000000E+00 0. -1.
</event>
<event>
 7    1  0.5714431E-011  0.5052887E+02  0.7816164E-02  0.1300439E+00
        -11   -1    0    0    0    0  0.00000000000E+00  0.00000000000E+00  0.45593999997E+02  0.45594000000E+02  0.51100000000E-03 0. -1.
         11   -1    0    0    0    0 -0.00000000000E+00 -0.00000000000E+00 -0.45593999997E+02  0.45594000000E+02  0.51100000000E-03 0.  1.
    9900012    2    1    2    0    0  0.33828753642E+02  0.21023688487E+02  0.81721917978E+01  0.50528871021E+02  0.30000033956E+02 0.  0.
        -12    1    1    2    0    0 -0.33828753642E+02 -0.21023688487E+02 -0.81721917978E+01  0.40659128979E+02  0.00000000000E+00 0.  1.
         11    1    3    3    0    0  0.29085465402E+02  0.14823307741E+02  0.39489913956E+01  0.32882963420E+02  0.51100000000E-03 0. -1.
        -11    1    3    3    0    0 -0.37750102308E+01  0.46686800781E+01 -0.26802146607E+01  0.65750153462E+01  0.51100000000E-03 0.  1.
         12    1    3    3    0    0  0.85182984712E+01  0.15317006676E+01  0.69034150628E+01  0.11070892254E+02  0.00000000000E+00 0. -1.
</event>
<event>
 7    1  0.5714431E-011  0.5052885E+02  0.7816164E-02  0.1300439E+00
        -11   -1    0    0    0    0  0.00000000000E+00  0.00000000000E+00  0.45593999997E+02  0.45594000000E+02  0.51100000000E-03 0. -1.
         11   -1    0    0    0    0 -0.00000000000E+00 -0.00000000000E+00 -0.45593999997E+02  0.45594000000E+02  0.51100000000E-03 0.  1.
    9900012    2    1    2    0    0 -0.84193211968E+01  0.27791224058E+02  0.28459257882E+02  0.50528850190E+02  0.29999970639E+02 0.  0.
        -12    1    1    2    0    0  0.84193211968E+01 -0.27791224058E+02 -0.28459257882E+02  0.40659149810E+02  0.00000000000E+00 0.  1.
         11    1    3    3    0    0 -0.35875001908E+01  0.23123901344E+02  0.25098162099E+02  0.34314759390E+02  0.51100000000E-03 0. -1.
        -11    1    3    3    0    0 -0.77463066750E+01 -0.88214299711E+00  0.55550555410E+01  0.95729872921E+01  0.51100000000E-03 0.  1.
        -12    1    3    3    0    0  0.29144856689E+01  0.55494657113E+01 -0.21939597578E+01  0.66411035087E+01  0.00000000000E+00 0.  1.
</event>
<event>
 7    1  0.5714431E-011  0.5052885E+02  0.7816164E-02  0.1300439E+00
        -11   -1    0    0    0    0  0.00000000000E+00  0.00000000000E+00  0.45593999997E+02  0.45594000000E+02  0.51100000000E-03 0. -1.
         11   -1    0    0    0    0 -0.00000000000E+00 -0.00000000000E+00 -0.45593999997E+02  0.45594000000E+02  0.51100000000E-03 0.  1.
    9900012    2    1    2    0    0  0.28455629952E+02 -0.23169815722E+02 -0.17510078344E+02  0.50528854901E+02  0.29999984958E+02 0.  0.
        -12    1    1    2    0    0 -0.28455629952E+02  0.23169815722E+02  0.17510078344E+02  0.40659145099E+02  0.00000000000E+00 0.  1.
         11    1    3    3    0    0  0.14910174634E+02 -0.11422408637E+02 -0.18508537624E+02  0.26369503066E+02  0.51100000000E-03 0. -1.
        -11    1    3    3    0    0  0.11733726164E+02 -0.84169871986E+00  0.44507526523E+01  0.12577678079E+02  0.51100000000E-03 0.  1.
         12    1    3    3    0    0  0.18117291533E+01 -0.10905708365E+02 -0.34522933726E+01  0.11581673756E+02  0.00000000000E+00 0. -1.
</event>
<event>
 7    1  0.5714431E-011  0.5052887E+02  0.7816164E-02  0.1300439E+00
        -11   -1    0    0    0    0  0.00000000000E+00  0.00000000000E+00  0.45593999997E+02  0.45594000000E+02  0.51100000000E-03 0. -1.
         11   -1    0    0    0    0 -0.00000000000E+00 -0.00000000000E+00 -0.45593999997E+02  0.45594000000E+02  0.51100000000E-03 0.  1.
    9900012    2    1    2    0    0  0.36081000822E+02 -0.13851606293E+02  0.12627731004E+02  0.50528865632E+02  0.30000017575E+02 0.  0.
        -12    1    1    2    0    0 -0.36081000822E+02  0.13851606293E+02 -0.12627731004E+02  0.40659134368E+02  0.00000000000E+00 0.  1.
         11    1    3    3    0    0  0.25806006607E+01 -0.98250865645E+01 -0.13253502149E+01  0.10244431620E+02  0.51100000000E-03 0.  1.
        -11    1    3    3    0    0  0.26521144798E+02 -0.85635057110E+01  0.15390920693E+02  0.31836852726E+02  0.51100000000E-03 0. -1.
        -12    1    3    3    0    0  0.69792553635E+01  0.45369859821E+01 -0.14378394737E+01  0.84475812860E+01  0.00000000000E+00 0.  1.
</event>
<event>
 7    1  0.5714431E-011  0.5052887E+02  0.7816164E-02  0.1300439E+00
        -11   -1    0    0    0    0  0.00000000000E+00  0.00000000000E+00  0.45593999997E+02  0.45594000000E+02  0.51100000000E-03 0.  1.
         11   -1    0    0    0    0 -0.00000000000E+00 -0.00000000000E+00 -0.45593999997E+02  0.45594000000E+02  0.51100000000E-03 0. -1.
    9900012    2    1    2    0    0  0.54933415201E+01 -0.12000855045E+02 -0.38457351586E+02  0.50528865554E+02  0.30000017339E+02 0.  0.
        -12    1    1    2    0    0 -0.54933415201E+01  0.12000855045E+02  0.38457351586E+02  0.40659134446E+02  0.00000000000E+00 0.  1.
         11    1    3    3    0    0  0.15354954869E+02 -0.50775789445E+01 -0.20040551871E+02  0.25752284685E+02  0.51100000000E-03 0. -1.
        -11    1    3    3    0    0 -0.48022204802E+01 -0.37799302112E+01 -0.77980187802E+00  0.61609483988E+01  0.51100000000E-03 0.  1.
         12    1    3    3    0    0 -0.50593928683E+01 -0.31433458895E+01 -0.17636997837E+02  0.18615632470E+02  0.00000000000E+00 0. -1.
</event>
<event>
 7    1  0.5714431E-011  0.5052887E+02  0.7816164E-02  0.1300439E+00
        -11   -1    0    0    0    0  0.00000000000E+00  0.00000000000E+00  0.45593999997E+02  0.45594000000E+02  0.51100000000E-03 0. -1.
         11   -1    0    0    0    0 -0.00000000000E+00 -0.00000000000E+00 -0.45593999997E+02  0.45594000000E+02  0.51100000000E-03 0.  1.
    9900012    2    1    2    0    0 -0.16292798181E+02 -0.12108311328E+02  0.35229224541E+02  0.50528871412E+02  0.30000035143E+02 0.  0.
        -12    1    1    2    0    0  0.16292798181E+02  0.12108311328E+02 -0.35229224541E+02  0.40659128588E+02  0.00000000000E+00 0.  1.
         11    1    3    3    0    0 -0.46003894417E+01 -0.11992587325E+02  0.30877736129E+01  0.13210604828E+02  0.51100000000E-03 0. -1.
        -11    1    3    3    0    0 -0.61885119116E+01 -0.17762033240E+01  0.30731883838E+02  0.31399064675E+02  0.51100000000E-03 0.  1.
         12    1    3    3    0    0 -0.55038968275E+01  0.16604793214E+01  0.14095670900E+01  0.59192019095E+01  0.00000000000E+00 0. -1.
</event>
<event>
 7    1  0.6594974E-011  0.5052885E+02  0.7816164E-02  0.1300439E+00
        -11   -1    0    0    0    0  0.00000000000E+00  0.00000000000E+00  0.45593999997E+02  0.45594000000E+02  0.51100000000E-03 0.  1.
         11   -1    0    0    0    0 -0.00000000000E+00 -0.00000000000E+00 -0.45593999997E+02  0.45594000000E+02  0.51100000000E-03 0. -1.
    9900012    2    1    2    0    0  0.24199053939E+02  0.24315077781E+02 -0.21825429245E+02  0.50528848745E+02  0.29999966246E+02 0.  0.
        -12    1    1    2    0    0 -0.24199053939E+02 -0.24315077781E+02  0.21825429245E+02  0.40659151255E+02  0.00000000000E+00 0.  1.
         11    1    3    3    0    0  0.10562520844E+02  0.21302506838E+02 -0.87831150027E+01  0.25347716930E+02  0.51100000000E-03 0. -1.
        -11    1    3    3    0    0  0.54805849326E+00 -0.30759837620E+00 -0.11582373161E+02  0.11599411760E+02  0.51100000000E-03 0.  1.
        -12    1    3    3    0    0  0.13088474601E+02  0.33201693193E+01 -0.14599410811E+01  0.13581720055E+02  0.00000000000E+00 0.  1.
</event>
<event>
 7    1  0.5714431E-011  0.5052885E+02  0.7816164E-02  0.1300439E+00
        -11   -1    0    0    0    0  0.00000000000E+00  0.00000000000E+00  0.45593999997E+02  0.45594000000E+02  0.51100000000E-03 0.  1.
         11   -1    0    0    0    0 -0.00000000000E+00 -0.00000000000E+00 -0.45593999997E+02  0.45594000000E+02  0.51100000000E-03 0. -1.
    9900012    2    1    2    0    0  0.49515595393E+01  0.12960471277E+02 -0.38218770060E+02  0.50528854135E+02  0.29999982629E+02 0.  0.
        -12    1    1    2    0    0 -0.49515595393E+01 -0.12960471277E+02  0.38218770060E+02  0.40659145865E+02  0.00000000000E+00 0.  1.
         11    1    3    3    0    0 -0.63384275919E+01 -0.98827529455E+00 -0.85985809738E+00  0.64723804434E+01  0.51100000000E-03 0. -1.
        -11    1    3    3    0    0  0.92865199179E+01  0.12703864814E+02 -0.15559233802E+02  0.22129559195E+02  0.51100000000E-03 0.  1.
         12    1    3    3    0    0  0.20034672133E+01  0.12448817580E+01 -0.21799678160E+02  0.21926914497E+02  0.00000000000E+00 0. -1.
</event>
<event>
 7    1  0.5714431E-011  0.5052889E+02  0.7816164E-02  0.1300439E+00
        -11   -1    0    0    0    0  0.00000000000E+00  0.00000000000E+00  0.45593999997E+02  0.45594000000E+02  0.51100000000E-03 0.  1.
         11   -1    0    0    0    0 -0.00000000000E+00 -0.00000000000E+00 -0.45593999997E+02  0.45594000000E+02  0.51100000000E-03 0. -1.
    9900012    2    1    2    0    0 -0.16169130836E+02  0.36108525915E+02  0.93753211527E+01  0.50528891765E+02  0.30000097009E+02 0.  0.
        -12    1    1    2    0    0  0.16169130836E+02 -0.36108525915E+02 -0.93753211527E+01  0.40659108235E+02  0.00000000000E+00 0.  1.
         11    1    3    3    0    0 -0.18848439733E+01  0.28179087074E+02  0.16225569904E+02  0.32571194391E+02  0.51100000000E-03 0. -1.
        -11    1    3    3    0    0 -0.37546314063E+01  0.10495791327E+01 -0.25783501887E+01  0.46740521295E+01  0.51100000000E-03 0.  1.
         12    1    3    3    0    0 -0.10529655457E+02  0.68798597082E+01 -0.42718985625E+01  0.13283645244E+02  0.00000000000E+00 0. -1.
</event>
<event>
 7    1  0.5714431E-011  0.5052886E+02  0.7816164E-02  0.1300439E+00
        -11   -1    0    0    0    0  0.00000000000E+00  0.00000000000E+00  0.45593999997E+02  0.45594000000E+02  0.51100000000E-03 0.  1.
         11   -1    0    0    0    0 -0.00000000000E+00 -0.00000000000E+00 -0.45593999997E+02  0.45594000000E+02  0.51100000000E-03 0. -1.
    9900012    2    1    2    0    0  0.33476670173E+01 -0.40335823115E+02  0.38704480667E+01  0.50528857497E+02  0.29999992849E+02 0.  0.
        -12    1    1    2    0    0 -0.33476670173E+01  0.40335823115E+02 -0.38704480667E+01  0.40659142503E+02  0.00000000000E+00 0.  1.
         11    1    3    3    0    0 -0.35510129770E-02 -0.23007264465E+02 -0.10623189997E+02  0.25341396898E+02  0.51100000000E-03 0.  1.
        -11    1    3    3    0    0  0.29688786862E+00 -0.97991597834E+01  0.13941522187E+02  0.17043406820E+02  0.51100000000E-03 0. -1.
         12    1    3    3    0    0  0.30543301617E+01 -0.75293988664E+01  0.55211587679E+00  0.81440537797E+01  0.00000000000E+00 0. -1.
</event>
<event>
 7    1  0.5714431E-011  0.5052886E+02  0.7816164E-02  0.1300439E+00
        -11   -1    0    0    0    0  0.00000000000E+00  0.00000000000E+00  0.45593999997E+02  0.45594000000E+02  0.51100000000E-03 0.  1.
         11   -1    0    0    0    0 -0.00000000000E+00 -0.00000000000E+00 -0.45593999997E+02  0.45594000000E+02  0.51100000000E-03 0. -1.
    9900012    2    1    2    0    0 -0.14728495239E+02  0.15461247967E+02 -0.34600392060E+02  0.50528857222E+02  0.29999992013E+02 0.  0.
        -12    1    1    2    0    0  0.14728495239E+02 -0.15461247967E+02  0.34600392060E+02  0.40659142778E+02  0.00000000000E+00 0.  1.
         11    1    3    3    0    0 -0.20322558188E+01  0.80317476651E+01 -0.12876805735E+02  0.15311798081E+02  0.51100000000E-03 0. -1.
        -11    1    3    3    0    0 -0.57986282024E+01 -0.61084199980E+01  0.33852694583E+00  0.84292042718E+01  0.51100000000E-03 0.  1.
        -12    1    3    3    0    0 -0.68976112175E+01  0.13537920300E+02 -0.22062113271E+02  0.26787854870E+02  0.00000000000E+00 0.  1.
</event>
<event>
 7    1  0.5714431E-011  0.5052886E+02  0.7816164E-02  0.1300439E+00
        -11   -1    0    0    0    0  0.00000000000E+00  0.00000000000E+00  0.45593999997E+02  0.45594000000E+02  0.51100000000E-03 0. -1.
         11   -1    0    0    0    0 -0.00000000000E+00 -0.00000000000E+00 -0.45593999997E+02  0.45594000000E+02  0.51100000000E-03 0.  1.
    9900012    2    1    2    0    0  0.18087236411E+02 -0.36011424378E+02 -0.54032625672E+01  0.50528855234E+02  0.29999985969E+02 0.  0.
        -12    1    1    2    0    0 -0.18087236411E+02  0.36011424378E+02  0.54032625672E+01  0.40659144766E+02  0.00000000000E+00 0.  1.
         11    1    3    3    0    0  0.13270926990E+02 -0.58343305161E+01  0.46002216881E+01  0.15209173403E+02  0.51100000000E-03 0.  1.
        -11    1    3    3    0    0 -0.61100853088E+00 -0.18127300627E+02  0.93894590150E+00  0.18161882587E+02  0.51100000000E-03 0. -1.
        -12    1    3    3    0    0  0.54273179520E+01 -0.12049793235E+02 -0.10942430157E+02  0.17157799244E+02  0.00000000000E+00 0.  1.
</event>
<event>
 7    1  0.5714431E-011  0.5052886E+02  0.7816164E-02  0.1300439E+00
        -11   -1    0    0    0    0  0.00000000000E+00  0.00000000000E+00  0.45593999997E+02  0.45594000000E+02  0.51100000000E-03 0.  1.
         11   -1    0    0    0    0 -0.00000000000E+00 -0.00000000000E+00 -0.45593999997E+02  0.45594000000E+02  0.51100000000E-03 0. -1.
    9900012    2    1    2    0    0 -0.13353015220E+02  0.22520032063E+01 -0.38337857303E+02  0.50528857898E+02  0.29999994066E+02 0.  0.
        -12    1    1    2    0    0  0.13353015220E+02 -0.22520032063E+01  0.38337857303E+02  0.40659142102E+02  0.00000000000E+00 0.  1.
         11    1    3    3    0    0 -0.82984162428E+01 -0.77037741574E+01 -0.31551738257E+02  0.33521993314E+02  0.51100000000E-03 0. -1.
        -11    1    3    3    0    0 -0.85258414729E+01  0.70900498590E+01 -0.46451286393E+01  0.12022312596E+02  0.51100000000E-03 0.  1.
         12    1    3    3    0    0  0.34712424961E+01  0.28657275046E+01 -0.21409904066E+01  0.49845519878E+01  0.00000000000E+00 0. -1.
</event>
<event>
 7    1  0.5714431E-011  0.5052885E+02  0.7816164E-02  0.1300439E+00
        -11   -1    0    0    0    0  0.00000000000E+00  0.00000000000E+00  0.45593999997E+02  0.45594000000E+02  0.51100000000E-03 0.  1.
         11   -1    0    0    0    0 -0.00000000000E+00 -0.00000000000E+00 -0.45593999997E+02  0.45594000000E+02  0.51100000000E-03 0. -1.
    9900012    2    1    2    0    0  0.25942315231E+01 -0.36406759279E+02 -0.17916045687E+02  0.50528845417E+02  0.29999956129E+02 0.  0.
        -12    1    1    2    0    0 -0.25942315231E+01  0.36406759279E+02  0.17916045687E+02  0.40659154583E+02  0.00000000000E+00 0.  1.
         11    1    3    3    0    0  0.29756812766E+01 -0.65726458032E+01 -0.39891625327E+01  0.82442567820E+01  0.51100000000E-03 0. -1.
        -11    1    3    3    0    0 -0.32467360423E+01 -0.62443093696E+01  0.75018883306E+01  0.10286448523E+02  0.51100000000E-03 0.  1.
        -12    1    3    3    0    0  0.28652862888E+01 -0.23589804106E+02 -0.21428771485E+02  0.31998140112E+02  0.00000000000E+00 0.  1.
</event>
<event>
 7    1  0.5714431E-011  0.5052887E+02  0.7816164E-02  0.1300439E+00
        -11   -1    0    0    0    0  0.00000000000E+00  0.00000000000E+00  0.45593999997E+02  0.45594000000E+02  0.51100000000E-03 0.  1.
         11   -1    0    0    0    0 -0.00000000000E+00 -0.00000000000E+00 -0.45593999997E+02  0.45594000000E+02  0.51100000000E-03 0. -1.
    9900012    2    1    2    0    0 -0.30549968642E+02  0.19633290862E+02 -0.18286565053E+02  0.50528866271E+02  0.30000019519E+02 0.  0.
        -12    1    1    2    0    0  0.30549968642E+02 -0.19633290862E+02  0.18286565053E+02  0.40659133729E+02  0.00000000000E+00 0.  1.
         11    1    3    3    0    0 -0.83763386520E+01  0.64011708033E+01 -0.71195147814E+01  0.12721066302E+02  0.51100000000E-03 0. -1.
        -11    1    3    3    0    0  0.28066563927E+01 -0.28495855784E+01 -0.66457945943E+01  0.77565484673E+01  0.51100000000E-03 0.  1.
        -12    1    3    3    0    0 -0.24980286383E+02  0.16081705637E+02 -0.45212556777E+01  0.30051251502E+02  0.00000000000E+00 0.  1.
</event>
<event>
 7    1  0.5714431E-011  0.5052885E+02  0.7816164E-02  0.1300439E+00
        -11   -1    0    0    0    0  0.00000000000E+00  0.00000000000E+00  0.45593999997E+02  0.45594000000E+02  0.51100000000E-03 0.  1.
         11   -1    0    0    0    0 -0.00000000000E+00 -0.00000000000E+00 -0.45593999997E+02  0.45594000000E+02  0.51100000000E-03 0. -1.
    9900012    2    1    2    0    0 -0.23499336792E+02  0.15696557774E+02 -0.29232949973E+02  0.50528854414E+02  0.29999983478E+02 0.  0.
        -12    1    1    2    0    0  0.23499336792E+02 -0.15696557774E+02  0.29232949973E+02  0.40659145586E+02  0.00000000000E+00 0.  1.
         11    1    3    3    0    0 -0.71820676898E+01  0.60155644022E+00 -0.82475967509E+01  0.10952936541E+02  0.51100000000E-03 0. -1.
        -11    1    3    3    0    0 -0.49657484237E+00  0.91550927445E+01  0.35095295236E+01  0.98172861562E+01  0.51100000000E-03 0.  1.
        -12    1    3    3    0    0 -0.15820694260E+02  0.59399085896E+01 -0.24494882746E+02  0.29758631717E+02  0.00000000000E+00 0.  1.
</event>
<event>
 7    1  0.5714431E-011  0.5052886E+02  0.7816164E-02  0.1300439E+00
        -11   -1    0    0    0    0  0.00000000000E+00  0.00000000000E+00  0.45593999997E+02  0.45594000000E+02  0.51100000000E-03 0.  1.
         11   -1    0    0    0    0 -0.00000000000E+00 -0.00000000000E+00 -0.45593999997E+02  0.45594000000E+02  0.51100000000E-03 0. -1.
    9900012    2    1    2    0    0  0.12429708036E+02 -0.37349716664E+02 -0.10181687069E+02  0.50528859228E+02  0.29999998110E+02 0.  0.
        -12    1    1    2    0    0 -0.12429708036E+02  0.37349716664E+02  0.10181687069E+02  0.40659140772E+02  0.00000000000E+00 0.  1.
         11    1    3    3    0    0  0.15177593461E+02 -0.20452818021E+02 -0.11496134255E+02  0.27943482448E+02  0.51100000000E-03 0. -1.
        -11    1    3    3    0    0 -0.59354443821E+01 -0.10201315060E+02 -0.50266985359E+01  0.12828251143E+02  0.51100000000E-03 0.  1.
         12    1    3    3    0    0  0.31875589569E+01 -0.66955835834E+01  0.63411457217E+01  0.97571256367E+01  0.00000000000E+00 0. -1.
</event>
<event>
 7    1  0.5714431E-011  0.5052886E+02  0.7816164E-02  0.1300439E+00
        -11   -1    0    0    0    0  0.00000000000E+00  0.00000000000E+00  0.45593999997E+02  0.45594000000E+02  0.51100000000E-03 0.  1.
         11   -1    0    0    0    0 -0.00000000000E+00 -0.00000000000E+00 -0.45593999997E+02  0.45594000000E+02  0.51100000000E-03 0. -1.
    9900012    2    1    2    0    0  0.24582283502E+02  0.32370975424E+02 -0.99842834668E+00  0.50528861160E+02  0.30000003982E+02 0.  0.
        -12    1    1    2    0    0 -0.24582283502E+02 -0.32370975424E+02  0.99842834668E+00  0.40659138840E+02  0.00000000000E+00 0.  1.
         11    1    3    3    0    0  0.10260317681E+02 -0.38206721249E+01 -0.25900884594E+01  0.11250787212E+02  0.51100000000E-03 0. -1.
        -11    1    3    3    0    0  0.84433595472E+01  0.19889371446E+02  0.33254678960E+01  0.21861750935E+02  0.51100000000E-03 0.  1.
         12    1    3    3    0    0  0.58786062735E+01  0.16302276102E+02 -0.17338077833E+01  0.17416323012E+02  0.00000000000E+00 0. -1.
</event>
<event>
 7    1  0.5714431E-011  0.5052887E+02  0.7816164E-02  0.1300439E+00
        -11   -1    0    0    0    0  0.00000000000E+00  0.00000000000E+00  0.45593999997E+02  0.45594000000E+02  0.51100000000E-03 0.  1.
         11   -1    0    0    0    0 -0.00000000000E+00 -0.00000000000E+00 -0.45593999997E+02  0.45594000000E+02  0.51100000000E-03 0. -1.
    9900012    2    1    2    0    0 -0.38668673446E+02  0.71757975964E+01 -0.10315357263E+02  0.50528868520E+02  0.30000026353E+02 0.  0.
        -12    1    1    2    0    0  0.38668673446E+02 -0.71757975964E+01  0.10315357263E+02  0.40659131480E+02  0.00000000000E+00 0.  1.
         11    1    3    3    0    0 -0.20415311156E+02  0.11832028939E+02  0.57514957964E+01  0.24287065334E+02  0.51100000000E-03 0. -1.
        -11    1    3    3    0    0 -0.55635686463E+01  0.57287645745E+00 -0.95060721049E+01  0.11029364925E+02  0.51100000000E-03 0.  1.
         12    1    3    3    0    0 -0.12689793644E+02 -0.52291077996E+01 -0.65607809545E+01  0.15212438261E+02  0.00000000000E+00 0. -1.
</event>
<event>
 7    1  0.5714431E-011  0.5052885E+02  0.7816164E-02  0.1300439E+00
        -11   -1    0    0    0    0  0.00000000000E+00  0.00000000000E+00  0.45593999997E+02  0.45594000000E+02  0.51100000000E-03 0. -1.
         11   -1    0    0    0    0 -0.00000000000E+00 -0.00000000000E+00 -0.45593999997E+02  0.45594000000E+02  0.51100000000E-03 0.  1.
    9900012    2    1    2    0    0 -0.28625807129E+02  0.20677482916E+02  0.20153688064E+02  0.50528852492E+02  0.29999977633E+02 0.  0.
        -12    1    1    2    0    0  0.28625807129E+02 -0.20677482916E+02 -0.20153688064E+02  0.40659147508E+02  0.00000000000E+00 0.  1.
         11    1    3    3    0    0 -0.24193884710E+02  0.22922942397E+02  0.11884874941E+02  0.35384397665E+02  0.51100000000E-03 0. -1.
        -11    1    3    3    0    0 -0.62454736748E+01 -0.28609463672E+01  0.10282089906E+02  0.12365772464E+02  0.51100000000E-03 0.  1.
         12    1    3    3    0    0  0.18135512559E+01  0.61548688629E+00 -0.20132767832E+01  0.27786823623E+01  0.00000000000E+00 0. -1.
</event>
<event>
 7    1  0.5714431E-011  0.5052886E+02  0.7816164E-02  0.1300439E+00
        -11   -1    0    0    0    0  0.00000000000E+00  0.00000000000E+00  0.45593999997E+02  0.45594000000E+02  0.51100000000E-03 0.  1.
         11   -1    0    0    0    0 -0.00000000000E+00 -0.00000000000E+00 -0.45593999997E+02  0.45594000000E+02  0.51100000000E-03 0. -1.
    9900012    2    1    2    0    0 -0.53135513486E+01  0.36495587590E+02 -0.17117347546E+02  0.50528864145E+02  0.30000013055E+02 0.  0.
        -12    1    1    2    0    0  0.53135513486E+01 -0.36495587590E+02  0.17117347546E+02  0.40659135855E+02  0.00000000000E+00 0.  1.
         11    1    3    3    0    0 -0.10437306256E+02  0.17586453245E+02 -0.77737110763E+01  0.21878100552E+02  0.51100000000E-03 0. -1.
        -11    1    3    3    0    0  0.11711457009E+02  0.75615318601E+01 -0.53998190441E+01  0.14949683452E+02  0.51100000000E-03 0.  1.
        -12    1    3    3    0    0 -0.65877021018E+01  0.11347602485E+02 -0.39438174259E+01  0.13701080141E+02  0.00000000000E+00 0.  1.
</event>
<event>
 7    1  0.5714431E-011  0.5052886E+02  0.7816164E-02  0.1300439E+00
        -11   -1    0    0    0    0  0.00000000000E+00  0.00000000000E+00  0.45593999997E+02  0.45594000000E+02  0.51100000000E-03 0. -1.
         11   -1    0    0    0    0 -0.00000000000E+00 -0.00000000000E+00 -0.45593999997E+02  0.45594000000E+02  0.51100000000E-03 0.  1.
    9900012    2    1    2    0    0 -0.73211899538E+01  0.56353713354E+01  0.39595561402E+02  0.50528859389E+02  0.29999998600E+02 0.  0.
        -12    1    1    2    0    0  0.73211899538E+01 -0.56353713354E+01 -0.39595561402E+02  0.40659140611E+02  0.00000000000E+00 0.  1.
         11    1    3    3    0    0 -0.11252426912E+02  0.62251375252E+01  0.26165383090E+02  0.29154703242E+02  0.51100000000E-03 0. -1.
        -11    1    3    3    0    0  0.83952166744E+01 -0.54616227094E+01  0.83386856872E+01  0.13032369887E+02  0.51100000000E-03 0.  1.
        -12    1    3    3    0    0 -0.44639797166E+01  0.48718565195E+01  0.50914926250E+01  0.83417862600E+01  0.00000000000E+00 0.  1.
</event>
<event>
 7    1  0.5714431E-011  0.5052886E+02  0.7816164E-02  0.1300439E+00
        -11   -1    0    0    0    0  0.00000000000E+00  0.00000000000E+00  0.45593999997E+02  0.45594000000E+02  0.51100000000E-03 0.  1.
         11   -1    0    0    0    0 -0.00000000000E+00 -0.00000000000E+00 -0.45593999997E+02  0.45594000000E+02  0.51100000000E-03 0. -1.
    9900012    2    1    2    0    0 -0.31370570740E+02  0.60568836206E+01 -0.25146914899E+02  0.50528857404E+02  0.29999992564E+02 0.  0.
        -12    1    1    2    0    0  0.31370570740E+02 -0.60568836206E+01  0.25146914899E+02  0.40659142596E+02  0.00000000000E+00 0.  1.
         11    1    3    3    0    0  0.40192992931E+01 -0.24367130941E+00  0.10286583701E+01  0.41559933612E+01  0.51100000000E-03 0. -1.
        -11    1    3    3    0    0 -0.29138793495E+02  0.57930749892E+01 -0.14363534273E+02  0.32999092734E+02  0.51100000000E-03 0.  1.
         12    1    3    3    0    0 -0.62510765382E+01  0.50747994079E+00 -0.11812038996E+02  0.13373771309E+02  0.00000000000E+00 0. -1.
</event>
<event>
 7    1  0.6998150E-011  0.5052886E+02  0.7816164E-02  0.1300439E+00
        -11   -1    0    0    0    0  0.00000000000E+00  0.00000000000E+00  0.45593999997E+02  0.45594000000E+02  0.51100000000E-03 0.  1.
         11   -1    0    0    0    0 -0.00000000000E+00 -0.00000000000E+00 -0.45593999997E+02  0.45594000000E+02  0.51100000000E-03 0. -1.
    9900012    2    1    2    0    0  0.30150898421E+02  0.23808562335E+02 -0.13313215076E+02  0.50528855743E+02  0.29999987516E+02 0.  0.
        -12    1    1    2    0    0 -0.30150898421E+02 -0.23808562335E+02  0.13313215076E+02  0.40659144257E+02  0.00000000000E+00 0.  1.
         11    1    3    3    0    0  0.12840687107E+02  0.18474370704E+02 -0.17290427457E+02  0.28375068285E+02  0.51100000000E-03 0. -1.
        -11    1    3    3    0    0  0.35159020775E+01 -0.37382769827E+01 -0.15473486653E+00  0.51342210079E+01  0.51100000000E-03 0.  1.
         12    1    3    3    0    0  0.13794309237E+02  0.90724686134E+01  0.41319472479E+01  0.17019566450E+02  0.00000000000E+00 0. -1.
</event>
<event>
 7    1  0.5714431E-011  0.5052883E+02  0.7816164E-02  0.1300439E+00
        -11   -1    0    0    0    0  0.00000000000E+00  0.00000000000E+00  0.45593999997E+02  0.45594000000E+02  0.51100000000E-03 0. -1.
         11   -1    0    0    0    0 -0.00000000000E+00 -0.00000000000E+00 -0.45593999997E+02  0.45594000000E+02  0.51100000000E-03 0.  1.
    9900012    2    1    2    0    0 -0.33057063138E+02 -0.60400403587E+01  0.22889223258E+02  0.50528830650E+02  0.29999911244E+02 0.  0.
        -12    1    1    2    0    0  0.33057063138E+02  0.60400403587E+01 -0.22889223258E+02  0.40659169350E+02  0.00000000000E+00 0.  1.
         11    1    3    3    0    0 -0.27987545625E+02 -0.45661124034E+01  0.53288229802E+01  0.28853915631E+02  0.51100000000E-03 0. -1.
        -11    1    3    3    0    0 -0.35077911733E+01 -0.65285720660E+01  0.10513650938E+02  0.12863269741E+02  0.51100000000E-03 0.  1.
         12    1    3    3    0    0 -0.15617263398E+01  0.50546441107E+01  0.70467493402E+01  0.88116452782E+01  0.00000000000E+00 0. -1.
</event>
<event>
 7    1  0.5714431E-011  0.5052886E+02  0.7816164E-02  0.1300439E+00
        -11   -1    0    0    0    0  0.00000000000E+00  0.00000000000E+00  0.45593999997E+02  0.45594000000E+02  0.51100000000E-03 0.  1.
         11   -1    0    0    0    0 -0.00000000000E+00 -0.00000000000E+00 -0.45593999997E+02  0.45594000000E+02  0.51100000000E-03 0. -1.
    9900012    2    1    2    0    0 -0.65753514378E+00 -0.34449273301E+02 -0.21586585915E+02  0.50528862345E+02  0.30000007583E+02 0.  0.
        -12    1    1    2    0    0  0.65753514378E+00  0.34449273301E+02  0.21586585915E+02  0.40659137655E+02  0.00000000000E+00 0.  1.
         11    1    3    3    0    0 -0.66966238411E+00 -0.14909348438E+02  0.65934216163E+00  0.14938937408E+02  0.51100000000E-03 0. -1.
        -11    1    3    3    0    0 -0.48331757100E+01 -0.26554167913E+01 -0.16037421619E+02  0.16959060063E+02  0.51100000000E-03 0.  1.
        -12    1    3    3    0    0  0.48453029503E+01 -0.16884508071E+02 -0.62085064578E+01  0.18630864873E+02  0.00000000000E+00 0.  1.
</event>
<event>
 7    1  0.5714431E-011  0.5052886E+02  0.7816164E-02  0.1300439E+00
        -11   -1    0    0    0    0  0.00000000000E+00  0.00000000000E+00  0.45593999997E+02  0.45594000000E+02  0.51100000000E-03 0.  1.
         11   -1    0    0    0    0 -0.00000000000E+00 -0.00000000000E+00 -0.45593999997E+02  0.45594000000E+02  0.51100000000E-03 0. -1.
    9900012    2    1    2    0    0 -0.49990799765E+01 -0.38154402373E+02  0.13130730890E+02  0.50528864313E+02  0.30000013567E+02 0.  0.
        -12    1    1    2    0    0  0.49990799765E+01  0.38154402373E+02 -0.13130730890E+02  0.40659135687E+02  0.00000000000E+00 0.  1.
         11    1    3    3    0    0  0.12901456524E+01 -0.39307118358E+02  0.76826590201E+01  0.40071651816E+02  0.51100000000E-03 0. -1.
        -11    1    3    3    0    0 -0.59869078659E+01  0.14746685669E+01  0.67144663554E+01  0.91160173254E+01  0.51100000000E-03 0.  1.
         12    1    3    3    0    0 -0.30231776303E+00 -0.32195258246E+00 -0.12663944859E+01  0.13411951719E+01  0.00000000000E+00 0. -1.
</event>
<event>
 7    1  0.5714431E-011  0.5052885E+02  0.7816164E-02  0.1300439E+00
        -11   -1    0    0    0    0  0.00000000000E+00  0.00000000000E+00  0.45593999997E+02  0.45594000000E+02  0.51100000000E-03 0.  1.
         11   -1    0    0    0    0 -0.00000000000E+00 -0.00000000000E+00 -0.45593999997E+02  0.45594000000E+02  0.51100000000E-03 0. -1.
    9900012    2    1    2    0    0  0.35515895750E+02  0.55729463815E+01 -0.18992884649E+02  0.50528852817E+02  0.29999978624E+02 0.  0.
        -12    1    1    2    0    0 -0.35515895750E+02 -0.55729463815E+01  0.18992884649E+02  0.40659147183E+02  0.00000000000E+00 0.  1.
         11    1    3    3    0    0  0.16568729627E+02 -0.86894618543E+00 -0.77671263802E+01  0.18319555710E+02  0.51100000000E-03 0. -1.
        -11    1    3    3    0    0  0.31549742669E+01 -0.54451155945E+01  0.38259188931E+01  0.73648355107E+01  0.51100000000E-03 0.  1.
        -12    1    3    3    0    0  0.15792191856E+02  0.11887008161E+02 -0.15051677162E+02  0.24844461597E+02  0.00000000000E+00 0.  1.
</event>
<event>
 7    1  0.5714431E-011  0.5052886E+02  0.7816164E-02  0.1300439E+00
        -11   -1    0    0    0    0  0.00000000000E+00  0.00000000000E+00  0.45593999997E+02  0.45594000000E+02  0.51100000000E-03 0.  1.
         11   -1    0    0    0    0 -0.00000000000E+00 -0.00000000000E+00 -0.45593999997E+02  0.45594000000E+02  0.51100000000E-03 0. -1.
    9900012    2    1    2    0    0 -0.10253099468E+02  0.15254862094E+02 -0.36267460096E+02  0.50528861691E+02  0.30000005596E+02 0.  0.
        -12    1    1    2    0    0  0.10253099468E+02 -0.15254862094E+02  0.36267460096E+02  0.40659138309E+02  0.00000000000E+00 0.  1.
         11    1    3    3    0    0 -0.91950241799E+01  0.10750082341E+02 -0.24541039426E+02  0.28326230889E+02  0.51100000000E-03 0. -1.
        -11    1    3    3    0    0  0.73537626940E+01  0.59104239352E+01 -0.27644738556E+01  0.98312386205E+01  0.51100000000E-03 0.  1.
        -12    1    3    3    0    0 -0.84118379824E+01 -0.14056441821E+01 -0.89619468147E+01  0.12371392182E+02  0.00000000000E+00 0.  1.
</event>
<event>
 7    1  0.5714431E-011  0.5052885E+02  0.7816164E-02  0.1300439E+00
        -11   -1    0    0    0    0  0.00000000000E+00  0.00000000000E+00  0.45593999997E+02  0.45594000000E+02  0.51100000000E-03 0.  1.
         11   -1    0    0    0    0 -0.00000000000E+00 -0.00000000000E+00 -0.45593999997E+02  0.45594000000E+02  0.51100000000E-03 0. -1.
    9900012    2    1    2    0    0  0.24139174319E+02  0.32652649935E+02 -0.20666015446E+01  0.50528854331E+02  0.29999983225E+02 0.  0.
        -12    1    1    2    0    0 -0.24139174319E+02 -0.32652649935E+02  0.20666015446E+01  0.40659145669E+02  0.00000000000E+00 0.  1.
         11    1    3    3    0    0  0.23753088753E+02  0.27611969582E+02 -0.12732040023E+01  0.36445179904E+02  0.51100000000E-03 0. -1.
        -11    1    3    3    0    0 -0.17075608067E+01  0.61937696034E+01 -0.57236598217E+01  0.86045817926E+01  0.51100000000E-03 0.  1.
         12    1    3    3    0    0  0.20936463728E+01 -0.11530892513E+01  0.49302622794E+01  0.54790926347E+01  0.00000000000E+00 0. -1.
</event>
<event>
 7    1  0.5714431E-011  0.5052886E+02  0.7816164E-02  0.1300439E+00
        -11   -1    0    0    0    0  0.00000000000E+00  0.00000000000E+00  0.45593999997E+02  0.45594000000E+02  0.51100000000E-03 0. -1.
         11   -1    0    0    0    0 -0.00000000000E+00 -0.00000000000E+00 -0.45593999997E+02  0.45594000000E+02  0.51100000000E-03 0.  1.
    9900012    2    1    2    0    0 -0.34057941229E+02  0.18338833199E+02  0.12526346223E+02  0.50528861869E+02  0.30000006136E+02 0.  0.
        -12    1    1    2    0    0  0.34057941229E+02 -0.18338833199E+02 -0.12526346223E+02  0.40659138131E+02  0.00000000000E+00 0.  1.
         11    1    3    3    0    0 -0.24304211734E+02  0.12636005646E+02  0.22404614311E+02  0.35388276157E+02  0.51100000000E-03 0. -1.
        -11    1    3    3    0    0 -0.48044965796E+01  0.22132297229E+01 -0.34850624179E+01  0.63346060262E+01  0.51100000000E-03 0.  1.
         12    1    3    3    0    0 -0.49492329156E+01  0.34895978302E+01 -0.63932056703E+01  0.88059796850E+01  0.00000000000E+00 0. -1.
</event>
<event>
 7    1  0.5714431E-011  0.5052886E+02  0.7816164E-02  0.1300439E+00
        -11   -1    0    0    0    0  0.00000000000E+00  0.00000000000E+00  0.45593999997E+02  0.45594000000E+02  0.51100000000E-03 0.  1.
         11   -1    0    0    0    0 -0.00000000000E+00 -0.00000000000E+00 -0.45593999997E+02  0.45594000000E+02  0.51100000000E-03 0. -1.
    9900012    2    1    2    0    0 -0.65968869281E+01  0.24472034410E+02 -0.31792556613E+02  0.50528855379E+02  0.29999986411E+02 0.  0.
        -12    1    1    2    0    0  0.65968869281E+01 -0.24472034410E+02  0.31792556613E+02  0.40659144621E+02  0.00000000000E+00 0.  1.
         11    1    3    3    0    0 -0.16791342359E+01  0.82040931846E+01 -0.63294606337E+01  0.10497080972E+02  0.51100000000E-03 0. -1.
        -11    1    3    3    0    0 -0.56622562837E+00 -0.52808019492E+01 -0.14548625747E+02  0.15487736829E+02  0.51100000000E-03 0.  1.
        -12    1    3    3    0    0 -0.43515270638E+01  0.21548743175E+02 -0.10914470232E+02  0.24544037578E+02  0.00000000000E+00 0.  1.
</event>
<event>
 7    1  0.5714431E-011  0.5052887E+02  0.7816164E-02  0.1300439E+00
        -11   -1    0    0    0    0  0.00000000000E+00  0.00000000000E+00  0.45593999997E+02  0.45594000000E+02  0.51100000000E-03 0.  1.
         11   -1    0    0    0    0 -0.00000000000E+00 -0.00000000000E+00 -0.45593999997E+02  0.45594000000E+02  0.51100000000E-03 0. -1.
    9900012    2    1    2    0    0  0.24271882215E+02  0.62914307215E+01 -0.32007158367E+02  0.50528873675E+02  0.30000042022E+02 0.  0.
        -12    1    1    2    0    0 -0.24271882215E+02 -0.62914307215E+01  0.32007158367E+02  0.40659126325E+02  0.00000000000E+00 0.  1.
         11    1    3    3    0    0  0.44535837186E+01  0.12928567751E+02 -0.64947591921E+01  0.15138169284E+02  0.51100000000E-03 0. -1.
        -11    1    3    3    0    0  0.19802254722E+01 -0.48977896552E+01 -0.11449031869E+02  0.12609122389E+02  0.51100000000E-03 0.  1.
         12    1    3    3    0    0  0.17838073025E+02 -0.17393473746E+01 -0.14063367306E+02  0.22781582002E+02  0.00000000000E+00 0. -1.
</event>
<event>
 7    1  0.5714431E-011  0.5052885E+02  0.7816164E-02  0.1300439E+00
        -11   -1    0    0    0    0  0.00000000000E+00  0.00000000000E+00  0.45593999997E+02  0.45594000000E+02  0.51100000000E-03 0.  1.
         11   -1    0    0    0    0 -0.00000000000E+00 -0.00000000000E+00 -0.45593999997E+02  0.45594000000E+02  0.51100000000E-03 0. -1.
    9900012    2    1    2    0    0 -0.54552180716E+01  0.28534807166E+02 -0.28445939042E+02  0.50528855000E+02  0.29999985257E+02 0.  0.
        -12    1    1    2    0    0  0.54552180716E+01 -0.28534807166E+02  0.28445939042E+02  0.40659145000E+02  0.00000000000E+00 0.  1.
         11    1    3    3    0    0 -0.15285391655E+02  0.19748517679E+02 -0.20493556049E+02  0.32305308981E+02  0.51100000000E-03 0. -1.
        -11    1    3    3    0    0  0.38315845811E+01 -0.74534729090E+00 -0.54215795312E+01  0.66805769108E+01  0.51100000000E-03 0.  1.
        -12    1    3    3    0    0  0.59985890019E+01  0.95316367770E+01 -0.25308034611E+01  0.11542969108E+02  0.00000000000E+00 0.  1.
</event>
<event>
 7    1  0.5714431E-011  0.5052885E+02  0.7816164E-02  0.1300439E+00
        -11   -1    0    0    0    0  0.00000000000E+00  0.00000000000E+00  0.45593999997E+02  0.45594000000E+02  0.51100000000E-03 0. -1.
         11   -1    0    0    0    0 -0.00000000000E+00 -0.00000000000E+00 -0.45593999997E+02  0.45594000000E+02  0.51100000000E-03 0.  1.
    9900012    2    1    2    0    0 -0.19920703163E+02 -0.35321405177E+02 -0.29547749027E+01  0.50528846382E+02  0.29999959062E+02 0.  0.
        -12    1    1    2    0    0  0.19920703163E+02  0.35321405177E+02  0.29547749027E+01  0.40659153618E+02  0.00000000000E+00 0.  1.
         11    1    3    3    0    0 -0.16041292666E+02 -0.33653836929E+02 -0.59295068999E+01  0.37750004805E+02  0.51100000000E-03 0. -1.
        -11    1    3    3    0    0 -0.73626909751E+01  0.15005131507E+01  0.69102635372E+00  0.75457455426E+01  0.51100000000E-03 0.  1.
         12    1    3    3    0    0  0.34832804780E+01 -0.31680813991E+01  0.22837056435E+01  0.52330960344E+01  0.00000000000E+00 0. -1.
</event>
<event>
 7    1  0.5714431E-011  0.5052884E+02  0.7816164E-02  0.1300439E+00
        -11   -1    0    0    0    0  0.00000000000E+00  0.00000000000E+00  0.45593999997E+02  0.45594000000E+02  0.51100000000E-03 0.  1.
         11   -1    0    0    0    0 -0.00000000000E+00 -0.00000000000E+00 -0.45593999997E+02  0.45594000000E+02  0.51100000000E-03 0. -1.
    9900012    2    1    2    0    0  0.26078191609E+02 -0.28938413016E+02 -0.11647473035E+02  0.50528838011E+02  0.29999933619E+02 0.  0.
        -12    1    1    2    0    0 -0.26078191609E+02  0.28938413016E+02  0.11647473035E+02  0.40659161989E+02  0.00000000000E+00 0.  1.
         11    1    3    3    0    0  0.26111493508E+02 -0.27772693933E+02  0.51590620953E+00  0.38123467589E+02  0.51100000000E-03 0. -1.
        -11    1    3    3    0    0 -0.10160986394E+01 -0.43783545064E+00 -0.39728858030E+01  0.41240730100E+01  0.51100000000E-03 0.  1.
         12    1    3    3    0    0  0.98279674020E+00 -0.72788363304E+00 -0.81904934420E+01  0.82812974128E+01  0.00000000000E+00 0. -1.
</event>
<event>
 7    1  0.5714431E-011  0.5052886E+02  0.7816164E-02  0.1300439E+00
        -11   -1    0    0    0    0  0.00000000000E+00  0.00000000000E+00  0.45593999997E+02  0.45594000000E+02  0.51100000000E-03 0. -1.
         11   -1    0    0    0    0 -0.00000000000E+00 -0.00000000000E+00 -0.45593999997E+02  0.45594000000E+02  0.51100000000E-03 0.  1.
    9900012    2    1    2    0    0 -0.20817958773E+02 -0.33640350367E+02 -0.93864422194E+01  0.50528857389E+02  0.29999992521E+02 0.  0.
        -12    1    1    2    0    0  0.20817958773E+02  0.33640350367E+02  0.93864422194E+01  0.40659142611E+02  0.00000000000E+00 0.  1.
         11    1    3    3    0    0 -0.27045560604E+02 -0.28615076077E+02 -0.46707983885E+01  0.39649732472E+02  0.51100000000E-03 0. -1.
        -11    1    3    3    0    0  0.22316057590E+01 -0.45651507175E+01 -0.46012744756E+01  0.68550997365E+01  0.51100000000E-03 0.  1.
         12    1    3    3    0    0  0.39959960715E+01 -0.46012357218E+00 -0.11436935529E+00  0.40240251806E+01  0.00000000000E+00 0. -1.
</event>
<event>
 7    1  0.5714431E-011  0.5052882E+02  0.7816164E-02  0.1300439E+00
        -11   -1    0    0    0    0  0.00000000000E+00  0.00000000000E+00  0.45593999997E+02  0.45594000000E+02  0.51100000000E-03 0. -1.
         11   -1    0    0    0    0 -0.00000000000E+00 -0.00000000000E+00 -0.45593999997E+02  0.45594000000E+02  0.51100000000E-03 0.  1.
    9900012    2    1    2    0    0 -0.10519481471E+01 -0.39734299910E+02  0.85584793481E+01  0.50528822032E+02  0.29999885049E+02 0.  0.
        -12    1    1    2    0    0  0.10519481471E+01  0.39734299910E+02 -0.85584793481E+01  0.40659177968E+02  0.00000000000E+00 0.  1.
         11    1    3    3    0    0 -0.44373948966E+01 -0.43092332766E+02  0.89327204535E+01  0.44231585000E+02  0.51100000000E-03 0. -1.
        -11    1    3    3    0    0  0.27384058914E+01  0.92961379532E+00  0.14078435659E+01  0.32163756624E+01  0.51100000000E-03 0.  1.
         12    1    3    3    0    0  0.64704085809E+00  0.24284190603E+01 -0.17820846713E+01  0.30808613699E+01  0.00000000000E+00 0. -1.
</event>
<event>
 7    1  0.5714431E-011  0.5052882E+02  0.7816164E-02  0.1300439E+00
        -11   -1    0    0    0    0  0.00000000000E+00  0.00000000000E+00  0.45593999997E+02  0.45594000000E+02  0.51100000000E-03 0. -1.
         11   -1    0    0    0    0 -0.00000000000E+00 -0.00000000000E+00 -0.45593999997E+02  0.45594000000E+02  0.51100000000E-03 0.  1.
    9900012    2    1    2    0    0 -0.34353421527E+02  0.15517865537E+02 -0.15238355291E+02  0.50528816617E+02  0.29999868587E+02 0.  0.
        -12    1    1    2    0    0  0.34353421527E+02 -0.15517865537E+02  0.15238355291E+02  0.40659183383E+02  0.00000000000E+00 0.  1.
         11    1    3    3    0    0 -0.28419419085E+02  0.18974800065E+02 -0.71922374233E+01  0.34920405182E+02  0.51100000000E-03 0. -1.
        -11    1    3    3    0    0 -0.78716821599E+01 -0.56138709077E+01 -0.36339725491E+01  0.10328827782E+02  0.51100000000E-03 0.  1.
         12    1    3    3    0    0  0.19376797181E+01  0.21569363797E+01 -0.44121453189E+01  0.52795836532E+01  0.00000000000E+00 0. -1.
</event>
<event>
 7    1  0.5714431E-011  0.5052886E+02  0.7816164E-02  0.1300439E+00
        -11   -1    0    0    0    0  0.00000000000E+00  0.00000000000E+00  0.45593999997E+02  0.45594000000E+02  0.51100000000E-03 0.  1.
         11   -1    0    0    0    0 -0.00000000000E+00 -0.00000000000E+00 -0.45593999997E+02  0.45594000000E+02  0.51100000000E-03 0. -1.
    9900012    2    1    2    0    0 -0.32179349257E+02 -0.23867839648E+01 -0.24737785683E+02  0.50528864534E+02  0.30000014239E+02 0.  0.
        -12    1    1    2    0    0  0.32179349257E+02  0.23867839648E+01  0.24737785683E+02  0.40659135466E+02  0.00000000000E+00 0.  1.
         11    1    3    3    0    0 -0.78317514484E+01 -0.95731466613E+01 -0.89971938619E+01  0.15294801908E+02  0.51100000000E-03 0. -1.
        -11    1    3    3    0    0 -0.18425245824E+02  0.11586804819E+02 -0.52178352248E+01  0.22382348722E+02  0.51100000000E-03 0.  1.
        -12    1    3    3    0    0 -0.59223519846E+01 -0.44004421228E+01 -0.10522756597E+02  0.12851713905E+02  0.00000000000E+00 0.  1.
</event>
<event>
 7    1  0.5714431E-011  0.5052886E+02  0.7816164E-02  0.1300439E+00
        -11   -1    0    0    0    0  0.00000000000E+00  0.00000000000E+00  0.45593999997E+02  0.45594000000E+02  0.51100000000E-03 0.  1.
         11   -1    0    0    0    0 -0.00000000000E+00 -0.00000000000E+00 -0.45593999997E+02  0.45594000000E+02  0.51100000000E-03 0. -1.
    9900012    2    1    2    0    0  0.21613468130E+02 -0.49412761944E+01 -0.34082364324E+02  0.50528858679E+02  0.29999996441E+02 0.  0.
        -12    1    1    2    0    0 -0.21613468130E+02  0.49412761944E+01  0.34082364324E+02  0.40659141321E+02  0.00000000000E+00 0.  1.
         11    1    3    3    0    0  0.17275812355E+02 -0.38337477065E+01 -0.37073888666E+02  0.41080707578E+02  0.51100000000E-03 0. -1.
        -11    1    3    3    0    0 -0.19204342965E+01 -0.95362683754E+00 -0.60588099240E+00  0.22281301736E+01  0.51100000000E-03 0.  1.
         12    1    3    3    0    0  0.62580900711E+01 -0.15390165034E+00  0.35974053345E+01  0.72200209277E+01  0.00000000000E+00 0. -1.
</event>
<event>
 7    1  0.5714431E-011  0.5052885E+02  0.7816164E-02  0.1300439E+00
        -11   -1    0    0    0    0  0.00000000000E+00  0.00000000000E+00  0.45593999997E+02  0.45594000000E+02  0.51100000000E-03 0. -1.
         11   -1    0    0    0    0 -0.00000000000E+00 -0.00000000000E+00 -0.45593999997E+02  0.45594000000E+02  0.51100000000E-03 0.  1.
    9900012    2    1    2    0    0 -0.23599238369E+02 -0.14596390500E+02  0.29718469427E+02  0.50528854752E+02  0.29999984505E+02 0.  0.
        -12    1    1    2    0    0  0.23599238369E+02  0.14596390500E+02 -0.29718469427E+02  0.40659145248E+02  0.00000000000E+00 0.  1.
         11    1    3    3    0    0  0.52705511365E+01 -0.60305080202E+00 -0.11780855259E+01  0.54341756799E+01  0.51100000000E-03 0. -1.
        -11    1    3    3    0    0 -0.25836463185E+01  0.14921714953E-01  0.69350659137E+00  0.26751453437E+01  0.51100000000E-03 0.  1.
         12    1    3    3    0    0 -0.26286143187E+02 -0.14008261413E+02  0.30203048361E+02  0.42419533729E+02  0.00000000000E+00 0. -1.
</event>
<event>
 7    1  0.5714431E-011  0.5052888E+02  0.7816164E-02  0.1300439E+00
        -11   -1    0    0    0    0  0.00000000000E+00  0.00000000000E+00  0.45593999997E+02  0.45594000000E+02  0.51100000000E-03 0.  1.
         11   -1    0    0    0    0 -0.00000000000E+00 -0.00000000000E+00 -0.45593999997E+02  0.45594000000E+02  0.51100000000E-03 0. -1.
    9900012    2    1    2    0    0 -0.12005909438E+02  0.36229191406E+02 -0.14016707578E+02  0.50528877251E+02  0.30000052892E+02 0.  0.
        -12    1    1    2    0    0  0.12005909438E+02 -0.36229191406E+02  0.14016707578E+02  0.40659122749E+02  0.00000000000E+00 0.  1.
         11    1    3    3    0    0 -0.45317736229E+01  0.26768115515E+02  0.14458440557E+01  0.27187486932E+02  0.51100000000E-03 0. -1.
        -11    1    3    3    0    0 -0.19616467721E+01  0.11454561338E+02 -0.10442107666E+02  0.15623464606E+02  0.51100000000E-03 0.  1.
         12    1    3    3    0    0 -0.55124890434E+01 -0.19934854472E+01 -0.50204439672E+01  0.77179257129E+01  0.00000000000E+00 0. -1.
</event>
<event>
 7    1  0.5714431E-011  0.5052884E+02  0.7816164E-02  0.1300439E+00
        -11   -1    0    0    0    0  0.00000000000E+00  0.00000000000E+00  0.45593999997E+02  0.45594000000E+02  0.51100000000E-03 0. -1.
         11   -1    0    0    0    0 -0.00000000000E+00 -0.00000000000E+00 -0.45593999997E+02  0.45594000000E+02  0.51100000000E-03 0.  1.
    9900012    2    1    2    0    0 -0.18438261888E+02  0.52365175315E+01  0.35857731035E+02  0.50528837536E+02  0.29999932173E+02 0.  0.
        -12    1    1    2    0    0  0.18438261888E+02 -0.52365175315E+01 -0.35857731035E+02  0.40659162464E+02  0.00000000000E+00 0.  1.
         11    1    3    3    0    0 -0.12338379765E+02  0.66847654567E+00  0.13908125395E+01  0.12434501836E+02  0.51100000000E-03 0. -1.
        -11    1    3    3    0    0  0.53322233670E-01 -0.48640002384E+01  0.85600399781E+01  0.98455891783E+01  0.51100000000E-03 0.  1.
         12    1    3    3    0    0 -0.61532043560E+01  0.94320412242E+01  0.25906878518E+02  0.28248746521E+02  0.00000000000E+00 0. -1.
</event>
<event>
 7    1  0.5714431E-011  0.5052887E+02  0.7816164E-02  0.1300439E+00
        -11   -1    0    0    0    0  0.00000000000E+00  0.00000000000E+00  0.45593999997E+02  0.45594000000E+02  0.51100000000E-03 0.  1.
         11   -1    0    0    0    0 -0.00000000000E+00 -0.00000000000E+00 -0.45593999997E+02  0.45594000000E+02  0.51100000000E-03 0. -1.
    9900012    2    1    2    0    0 -0.11915288244E+02 -0.71348921380E+01 -0.38213662936E+02  0.50528870463E+02  0.30000032259E+02 0.  0.
        -12    1    1    2    0    0  0.11915288244E+02  0.71348921380E+01  0.38213662936E+02  0.40659129537E+02  0.00000000000E+00 0.  1.
         11    1    3    3    0    0 -0.42452380478E+01 -0.76305923742E+01 -0.29105045977E+02  0.30386702481E+02  0.51100000000E-03 0. -1.
        -11    1    3    3    0    0 -0.97154948889E+00  0.76086288476E+01 -0.16393194391E+01  0.78436286140E+01  0.51100000000E-03 0.  1.
         12    1    3    3    0    0 -0.66985007069E+01 -0.71129286114E+01 -0.74692975191E+01  0.12298539368E+02  0.00000000000E+00 0. -1.
</event>
<event>
 7    1  0.5714431E-011  0.5052884E+02  0.7816164E-02  0.1300439E+00
        -11   -1    0    0    0    0  0.00000000000E+00  0.00000000000E+00  0.45593999997E+02  0.45594000000E+02  0.51100000000E-03 0.  1.
         11   -1    0    0    0    0 -0.00000000000E+00 -0.00000000000E+00 -0.45593999997E+02  0.45594000000E+02  0.51100000000E-03 0. -1.
    9900012    2    1    2    0    0  0.24566951009E+02  0.32364541599E+02  0.14725817902E+01  0.50528841967E+02  0.29999945644E+02 0.  0.
        -12    1    1    2    0    0 -0.24566951009E+02 -0.32364541599E+02 -0.14725817902E+01  0.40659158033E+02  0.00000000000E+00 0.  1.
         11    1    3    3    0    0  0.62007630063E+01 -0.11793114306E+01 -0.86091710702E+01  0.10675114242E+02  0.51100000000E-03 0. -1.
        -11    1    3    3    0    0  0.12701819919E+02  0.20361450582E+02  0.42792411513E+01  0.24376972825E+02  0.51100000000E-03 0.  1.
         12    1    3    3    0    0  0.56643680842E+01  0.13182402448E+02  0.58025117092E+01  0.15476754900E+02  0.00000000000E+00 0. -1.
</event>
<event>
 7    1  0.5714431E-011  0.5052886E+02  0.7816164E-02  0.1300439E+00
        -11   -1    0    0    0    0  0.00000000000E+00  0.00000000000E+00  0.45593999997E+02  0.45594000000E+02  0.51100000000E-03 0. -1.
         11   -1    0    0    0    0 -0.00000000000E+00 -0.00000000000E+00 -0.45593999997E+02  0.45594000000E+02  0.51100000000E-03 0.  1.
    9900012    2    1    2    0    0  0.25717928614E+02  0.14905762653E+02  0.27741164172E+02  0.50528858321E+02  0.29999995351E+02 0.  0.
        -12    1    1    2    0    0 -0.25717928614E+02 -0.14905762653E+02 -0.27741164172E+02  0.40659141679E+02  0.00000000000E+00 0.  1.
         11    1    3    3    0    0  0.11157747903E+02  0.65102790610E+01 -0.21557276427E+01  0.13096802421E+02  0.51100000000E-03 0.  1.
        -11    1    3    3    0    0  0.88490579697E+01  0.10121802194E+02  0.28181141634E+02  0.31223924332E+02  0.51100000000E-03 0. -1.
         12    1    3    3    0    0  0.57111227412E+01 -0.17263186019E+01  0.17157501804E+01  0.62081315677E+01  0.00000000000E+00 0. -1.
</event>
<event>
 7    1  0.5714431E-011  0.5052886E+02  0.7816164E-02  0.1300439E+00
        -11   -1    0    0    0    0  0.00000000000E+00  0.00000000000E+00  0.45593999997E+02  0.45594000000E+02  0.51100000000E-03 0.  1.
         11   -1    0    0    0    0 -0.00000000000E+00 -0.00000000000E+00 -0.45593999997E+02  0.45594000000E+02  0.51100000000E-03 0. -1.
    9900012    2    1    2    0    0  0.57547935293E+01 -0.13859426050E+02 -0.37788416351E+02  0.50528858970E+02  0.29999997324E+02 0.  0.
        -12    1    1    2    0    0 -0.57547935293E+01  0.13859426050E+02  0.37788416351E+02  0.40659141030E+02  0.00000000000E+00 0.  1.
         11    1    3    3    0    0  0.92475257920E+01  0.31461324730E+00 -0.22722807030E+02  0.24534499676E+02  0.51100000000E-03 0. -1.
        -11    1    3    3    0    0 -0.30569643684E+01 -0.17425134794E+02 -0.11262019872E+02  0.20971729676E+02  0.51100000000E-03 0.  1.
         12    1    3    3    0    0 -0.43576789431E+00  0.32510954963E+01 -0.38035894484E+01  0.50226296176E+01  0.00000000000E+00 0. -1.
</event>
<event>
 7    1  0.5714431E-011  0.5052885E+02  0.7816164E-02  0.1300439E+00
        -11   -1    0    0    0    0  0.00000000000E+00  0.00000000000E+00  0.45593999997E+02  0.45594000000E+02  0.51100000000E-03 0.  1.
         11   -1    0    0    0    0 -0.00000000000E+00 -0.00000000000E+00 -0.45593999997E+02  0.45594000000E+02  0.51100000000E-03 0. -1.
    9900012    2    1    2    0    0  0.15027208266E+02 -0.25663264545E+02 -0.27726269367E+02  0.50528854063E+02  0.29999982409E+02 0.  0.
        -12    1    1    2    0    0 -0.15027208266E+02  0.25663264545E+02  0.27726269367E+02  0.40659145937E+02  0.00000000000E+00 0.  1.
         11    1    3    3    0    0  0.32785425833E+01 -0.17942749120E+02 -0.18734758496E+02  0.26147318478E+02  0.51100000000E-03 0. -1.
        -11    1    3    3    0    0  0.57418405141E+01  0.28906896160E+01  0.31634093349E+01  0.71646338236E+01  0.51100000000E-03 0.  1.
        -12    1    3    3    0    0  0.60068251690E+01 -0.10611205041E+02 -0.12154920206E+02  0.17216901761E+02  0.00000000000E+00 0.  1.
</event>
<event>
 7    1  0.5714431E-011  0.5052887E+02  0.7816164E-02  0.1300439E+00
        -11   -1    0    0    0    0  0.00000000000E+00  0.00000000000E+00  0.45593999997E+02  0.45594000000E+02  0.51100000000E-03 0. -1.
         11   -1    0    0    0    0 -0.00000000000E+00 -0.00000000000E+00 -0.45593999997E+02  0.45594000000E+02  0.51100000000E-03 0.  1.
    9900012    2    1    2    0    0 -0.23696468303E+02 -0.31094378773E+02  0.11170590094E+02  0.50528867147E+02  0.30000022181E+02 0.  0.
        -12    1    1    2    0    0  0.23696468303E+02  0.31094378773E+02 -0.11170590094E+02  0.40659132853E+02  0.00000000000E+00 0.  1.
         11    1    3    3    0    0 -0.36665021239E+01 -0.11809310138E+02  0.16737507868E+02  0.20809786487E+02  0.51100000000E-03 0. -1.
        -11    1    3    3    0    0 -0.11564824746E+02 -0.50401099721E+01 -0.27350323043E+01  0.12908457766E+02  0.51100000000E-03 0.  1.
         12    1    3    3    0    0 -0.84651414334E+01 -0.14244958662E+02 -0.28318854689E+01  0.16810622894E+02  0.00000000000E+00 0. -1.
</event>
<event>
 7    1  0.5714431E-011  0.5052888E+02  0.7816164E-02  0.1300439E+00
        -11   -1    0    0    0    0  0.00000000000E+00  0.00000000000E+00  0.45593999997E+02  0.45594000000E+02  0.51100000000E-03 0.  1.
         11   -1    0    0    0    0 -0.00000000000E+00 -0.00000000000E+00 -0.45593999997E+02  0.45594000000E+02  0.51100000000E-03 0. -1.
    9900012    2    1    2    0    0 -0.21056850560E+02 -0.65830934155E+01 -0.34153130493E+02  0.50528875601E+02  0.30000047875E+02 0.  0.
        -12    1    1    2    0    0  0.21056850560E+02  0.65830934155E+01  0.34153130493E+02  0.40659124399E+02  0.00000000000E+00 0.  1.
         11    1    3    3    0    0 -0.83795862914E+01 -0.89463820189E+01 -0.43697825970E+00  0.12265649918E+02  0.51100000000E-03 0. -1.
        -11    1    3    3    0    0 -0.60124099125E+00  0.48640423538E+01 -0.49537684163E+01  0.69685163796E+01  0.51100000000E-03 0.  1.
         12    1    3    3    0    0 -0.12076023278E+02 -0.25007537504E+01 -0.28762383817E+02  0.31294709303E+02  0.00000000000E+00 0. -1.
</event>
<event>
 7    1  0.5714431E-011  0.5052886E+02  0.7816164E-02  0.1300439E+00
        -11   -1    0    0    0    0  0.00000000000E+00  0.00000000000E+00  0.45593999997E+02  0.45594000000E+02  0.51100000000E-03 0. -1.
         11   -1    0    0    0    0 -0.00000000000E+00 -0.00000000000E+00 -0.45593999997E+02  0.45594000000E+02  0.51100000000E-03 0.  1.
    9900012    2    1    2    0    0  0.79374571771E+01 -0.23550774056E+02  0.32179548927E+02  0.50528861369E+02  0.30000004617E+02 0.  0.
        -12    1    1    2    0    0 -0.79374571771E+01  0.23550774056E+02 -0.32179548927E+02  0.40659138631E+02  0.00000000000E+00 0.  1.
         11    1    3    3    0    0 -0.66209626623E+01 -0.92227463147E+01  0.13211029926E+01  0.11429851685E+02  0.51100000000E-03 0.  1.
        -11    1    3    3    0    0  0.13838603133E+02 -0.87656091020E+01  0.14754484027E+02  0.22046261333E+02  0.51100000000E-03 0. -1.
        -12    1    3    3    0    0  0.71981670647E+00 -0.55624186392E+01  0.16103961908E+02  0.17052748351E+02  0.00000000000E+00 0.  1.
</event>
<event>
 7    1  0.5714431E-011  0.5052886E+02  0.7816164E-02  0.1300439E+00
        -11   -1    0    0    0    0  0.00000000000E+00  0.00000000000E+00  0.45593999997E+02  0.45594000000E+02  0.51100000000E-03 0.  1.
         11   -1    0    0    0    0 -0.00000000000E+00 -0.00000000000E+00 -0.45593999997E+02  0.45594000000E+02  0.51100000000E-03 0. -1.
    9900012    2    1    2    0    0  0.10359766292E+02  0.17296079623E+02 -0.35308449159E+02  0.50528859454E+02  0.29999998796E+02 0.  0.
        -12    1    1    2    0    0 -0.10359766292E+02 -0.17296079623E+02  0.35308449159E+02  0.40659140546E+02  0.00000000000E+00 0.  1.
         11    1    3    3    0    0  0.68141581542E+01  0.17143395212E+01 -0.40119642153E+01  0.80912031535E+01  0.51100000000E-03 0. -1.
        -11    1    3    3    0    0 -0.63627054287E+01  0.12857956675E+02 -0.28308563867E+02  0.31736191623E+02  0.51100000000E-03 0.  1.
        -12    1    3    3    0    0  0.99083135668E+01  0.27237834262E+01 -0.29879210768E+01  0.10701464678E+02  0.00000000000E+00 0.  1.
</event>
<event>
 7    1  0.5714431E-011  0.5052883E+02  0.7816164E-02  0.1300439E+00
        -11   -1    0    0    0    0  0.00000000000E+00  0.00000000000E+00  0.45593999997E+02  0.45594000000E+02  0.51100000000E-03 0.  1.
         11   -1    0    0    0    0 -0.00000000000E+00 -0.00000000000E+00 -0.45593999997E+02  0.45594000000E+02  0.51100000000E-03 0. -1.
    9900012    2    1    2    0    0  0.25843830852E+02  0.17747638430E+02 -0.25889875562E+02  0.50528832281E+02  0.29999916202E+02 0.  0.
        -12    1    1    2    0    0 -0.25843830852E+02 -0.17747638430E+02  0.25889875562E+02  0.40659167719E+02  0.00000000000E+00 0.  1.
         11    1    3    3    0    0  0.20551770430E+02  0.14043769806E+02 -0.30669904738E+02  0.39499946773E+02  0.51100000000E-03 0. -1.
        -11    1    3    3    0    0  0.71890229269E+01  0.25100698901E+01  0.30721686271E+01  0.82110122294E+01  0.51100000000E-03 0.  1.
         12    1    3    3    0    0 -0.18969625048E+01  0.11937987337E+01  0.17078605490E+01  0.28178732789E+01  0.00000000000E+00 0. -1.
</event>
<event>
 7    1  0.5714431E-011  0.5052886E+02  0.7816164E-02  0.1300439E+00
        -11   -1    0    0    0    0  0.00000000000E+00  0.00000000000E+00  0.45593999997E+02  0.45594000000E+02  0.51100000000E-03 0.  1.
         11   -1    0    0    0    0 -0.00000000000E+00 -0.00000000000E+00 -0.45593999997E+02  0.45594000000E+02  0.51100000000E-03 0. -1.
    9900012    2    1    2    0    0  0.12743272343E+02 -0.36118905079E+02 -0.13645494925E+02  0.50528858028E+02  0.29999994462E+02 0.  0.
        -12    1    1    2    0    0 -0.12743272343E+02  0.36118905079E+02  0.13645494925E+02  0.40659141972E+02  0.00000000000E+00 0.  1.
         11    1    3    3    0    0  0.31862811238E-01  0.15465117086E+01 -0.42108372058E+01  0.44859629890E+01  0.51100000000E-03 0. -1.
        -11    1    3    3    0    0  0.27993307841E+01 -0.34516396139E+02 -0.80262487600E+01  0.35547693662E+02  0.51100000000E-03 0.  1.
        -12    1    3    3    0    0  0.99120787480E+01 -0.31490206492E+01 -0.14084089592E+01  0.10495201377E+02  0.00000000000E+00 0.  1.
</event>
<event>
 7    1  0.5714431E-011  0.5052885E+02  0.7816164E-02  0.1300439E+00
        -11   -1    0    0    0    0  0.00000000000E+00  0.00000000000E+00  0.45593999997E+02  0.45594000000E+02  0.51100000000E-03 0.  1.
         11   -1    0    0    0    0 -0.00000000000E+00 -0.00000000000E+00 -0.45593999997E+02  0.45594000000E+02  0.51100000000E-03 0. -1.
    9900012    2    1    2    0    0 -0.18181746581E+01  0.29310553887E+02 -0.28120311539E+02  0.50528852821E+02  0.29999978635E+02 0.  0.
        -12    1    1    2    0    0  0.18181746581E+01 -0.29310553887E+02  0.28120311539E+02  0.40659147179E+02  0.00000000000E+00 0.  1.
         11    1    3    3    0    0  0.42065518885E+01 -0.90680792844E+00 -0.13189141848E+01  0.45007681898E+01  0.51100000000E-03 0. -1.
        -11    1    3    3    0    0 -0.46634372001E+01  0.17662511307E+02 -0.27903747583E+02  0.33351627871E+02  0.51100000000E-03 0.  1.
        -12    1    3    3    0    0 -0.13612893466E+01  0.12554850508E+02  0.11023502286E+01  0.12676456760E+02  0.00000000000E+00 0.  1.
</event>
<event>
 7    1  0.5714431E-011  0.5052886E+02  0.7816164E-02  0.1300439E+00
        -11   -1    0    0    0    0  0.00000000000E+00  0.00000000000E+00  0.45593999997E+02  0.45594000000E+02  0.51100000000E-03 0.  1.
         11   -1    0    0    0    0 -0.00000000000E+00 -0.00000000000E+00 -0.45593999997E+02  0.45594000000E+02  0.51100000000E-03 0. -1.
    9900012    2    1    2    0    0  0.24597810669E+02 -0.16111803346E+02 -0.28080651642E+02  0.50528862116E+02  0.30000006889E+02 0.  0.
        -12    1    1    2    0    0 -0.24597810669E+02  0.16111803346E+02  0.28080651642E+02  0.40659137884E+02  0.00000000000E+00 0.  1.
         11    1    3    3    0    0  0.18069757895E+02 -0.13244148810E+02 -0.26868296623E+02  0.34983267311E+02  0.51100000000E-03 0. -1.
        -11    1    3    3    0    0  0.10784726535E+01 -0.61611858282E+01  0.39074498479E+01  0.73750578743E+01  0.51100000000E-03 0.  1.
         12    1    3    3    0    0  0.54495801209E+01  0.32935312922E+01 -0.51198048673E+01  0.81705369313E+01  0.00000000000E+00 0. -1.
</event>
<event>
 7    1  0.5714431E-011  0.5052886E+02  0.7816164E-02  0.1300439E+00
        -11   -1    0    0    0    0  0.00000000000E+00  0.00000000000E+00  0.45593999997E+02  0.45594000000E+02  0.51100000000E-03 0. -1.
         11   -1    0    0    0    0 -0.00000000000E+00 -0.00000000000E+00 -0.45593999997E+02  0.45594000000E+02  0.51100000000E-03 0.  1.
    9900012    2    1    2    0    0  0.16719525210E+02 -0.31758011739E+02  0.19106324239E+02  0.50528862543E+02  0.30000008185E+02 0.  0.
        -12    1    1    2    0    0 -0.16719525210E+02  0.31758011739E+02 -0.19106324239E+02  0.40659137457E+02  0.00000000000E+00 0.  1.
         11    1    3    3    0    0  0.37603012982E+01 -0.86260361092E+01 -0.11203984495E+01  0.94764791857E+01  0.51100000000E-03 0. -1.
        -11    1    3    3    0    0 -0.57794679203E+01 -0.59282389907E+01  0.11476515799E+02  0.14151207797E+02  0.51100000000E-03 0.  1.
        -12    1    3    3    0    0  0.18738691832E+02 -0.17203736639E+02  0.87502068895E+01  0.26901175560E+02  0.00000000000E+00 0.  1.
</event>
<event>
 7    1  0.5714431E-011  0.5052886E+02  0.7816164E-02  0.1300439E+00
        -11   -1    0    0    0    0  0.00000000000E+00  0.00000000000E+00  0.45593999997E+02  0.45594000000E+02  0.51100000000E-03 0.  1.
         11   -1    0    0    0    0 -0.00000000000E+00 -0.00000000000E+00 -0.45593999997E+02  0.45594000000E+02  0.51100000000E-03 0. -1.
    9900012    2    1    2    0    0 -0.12512804292E+02  0.28731513590E+02  0.25905511142E+02  0.50528860167E+02  0.30000000964E+02 0.  0.
        -12    1    1    2    0    0  0.12512804292E+02 -0.28731513590E+02 -0.25905511142E+02  0.40659139833E+02  0.00000000000E+00 0.  1.
         11    1    3    3    0    0 -0.43855344739E+01  0.85188604846E+01  0.29176607745E+01  0.10015819549E+02  0.51100000000E-03 0. -1.
        -11    1    3    3    0    0 -0.29212769803E+01 -0.47479445424E+01 -0.81228713817E+00  0.56335288434E+01  0.51100000000E-03 0.  1.
        -12    1    3    3    0    0 -0.52059928375E+01  0.24960597648E+02  0.23800137506E+02  0.34879511775E+02  0.00000000000E+00 0.  1.
</event>
<event>
 7    1  0.5714431E-011  0.5052887E+02  0.7816164E-02  0.1300439E+00
        -11   -1    0    0    0    0  0.00000000000E+00  0.00000000000E+00  0.45593999997E+02  0.45594000000E+02  0.51100000000E-03 0.  1.
         11   -1    0    0    0    0 -0.00000000000E+00 -0.00000000000E+00 -0.45593999997E+02  0.45594000000E+02  0.51100000000E-03 0. -1.
    9900012    2    1    2    0    0 -0.22884771721E+01 -0.60259620633E+01 -0.40144928580E+02  0.50528872645E+02  0.30000038892E+02 0.  0.
        -12    1    1    2    0    0  0.22884771721E+01  0.60259620633E+01  0.40144928580E+02  0.40659127355E+02  0.00000000000E+00 0.  1.
         11    1    3    3    0    0 -0.34172764738E+01  0.12321764767E+01 -0.35391566563E+01  0.50716533268E+01  0.51100000000E-03 0.  1.
        -11    1    3    3    0    0  0.31631399419E+01 -0.14046899877E+02 -0.35468281478E+02  0.38279496362E+02  0.51100000000E-03 0. -1.
        -12    1    3    3    0    0 -0.20343406402E+01  0.67887613366E+01 -0.11374904452E+01  0.71777229564E+01  0.00000000000E+00 0.  1.
</event>
<event>
 7    1  0.5714431E-011  0.5052885E+02  0.7816164E-02  0.1300439E+00
        -11   -1    0    0    0    0  0.00000000000E+00  0.00000000000E+00  0.45593999997E+02  0.45594000000E+02  0.51100000000E-03 0. -1.
         11   -1    0    0    0    0 -0.00000000000E+00 -0.00000000000E+00 -0.45593999997E+02  0.45594000000E+02  0.51100000000E-03 0.  1.
    9900012    2    1    2    0    0  0.36758034583E+02  0.47855814809E+01  0.16706622904E+02  0.50528854099E+02  0.29999982520E+02 0.  0.
        -12    1    1    2    0    0 -0.36758034583E+02 -0.47855814809E+01 -0.16706622904E+02  0.40659145901E+02  0.00000000000E+00 0.  1.
         11    1    3    3    0    0  0.19176377874E+02 -0.32339058889E+00  0.40172252016E+01  0.19595309348E+02  0.51100000000E-03 0. -1.
        -11    1    3    3    0    0  0.92119211352E+01  0.64215118723E+01  0.17795156363E+02  0.21041931849E+02  0.51100000000E-03 0.  1.
        -12    1    3    3    0    0  0.83697355739E+01 -0.13125398025E+01 -0.51057586601E+01  0.98916129021E+01  0.00000000000E+00 0.  1.
</event>
<event>
 7    1  0.5714431E-011  0.5052885E+02  0.7816164E-02  0.1300439E+00
        -11   -1    0    0    0    0  0.00000000000E+00  0.00000000000E+00  0.45593999997E+02  0.45594000000E+02  0.51100000000E-03 0. -1.
         11   -1    0    0    0    0 -0.00000000000E+00 -0.00000000000E+00 -0.45593999997E+02  0.45594000000E+02  0.51100000000E-03 0.  1.
    9900012    2    1    2    0    0  0.38851634653E+02  0.36785053380E+01 -0.11409875885E+02  0.50528853619E+02  0.29999981061E+02 0.  0.
        -12    1    1    2    0    0 -0.38851634653E+02 -0.36785053380E+01  0.11409875885E+02  0.40659146381E+02  0.00000000000E+00 0.  1.
         11    1    3    3    0    0  0.11982819417E+02  0.42918117598E+01 -0.15803417995E+01  0.12825953759E+02  0.51100000000E-03 0. -1.
        -11    1    3    3    0    0  0.18092617286E+02 -0.71190378391E+01 -0.15978985390E+02  0.25166475208E+02  0.51100000000E-03 0.  1.
        -12    1    3    3    0    0  0.87761979499E+01  0.65057314173E+01  0.61494513047E+01  0.12536424653E+02  0.00000000000E+00 0.  1.
</event>
<event>
 7    1  0.5714431E-011  0.5052885E+02  0.7816164E-02  0.1300439E+00
        -11   -1    0    0    0    0  0.00000000000E+00  0.00000000000E+00  0.45593999997E+02  0.45594000000E+02  0.51100000000E-03 0.  1.
         11   -1    0    0    0    0 -0.00000000000E+00 -0.00000000000E+00 -0.45593999997E+02  0.45594000000E+02  0.51100000000E-03 0. -1.
    9900012    2    1    2    0    0 -0.12062047827E+02  0.19201380405E+02 -0.33748780121E+02  0.50528853834E+02  0.29999981715E+02 0.  0.
        -12    1    1    2    0    0  0.12062047827E+02 -0.19201380405E+02  0.33748780121E+02  0.40659146166E+02  0.00000000000E+00 0.  1.
         11    1    3    3    0    0 -0.13250265492E+02  0.12176925266E+02 -0.37046187262E+02  0.41185762533E+02  0.51100000000E-03 0. -1.
        -11    1    3    3    0    0 -0.90205668277E+00  0.32034213376E+01  0.36911446629E+01  0.49699259259E+01  0.51100000000E-03 0.  1.
        -12    1    3    3    0    0  0.20902743474E+01  0.38210338020E+01 -0.39373752192E+00  0.43731653753E+01  0.00000000000E+00 0.  1.
</event>
<event>
 7    1  0.5714431E-011  0.5052887E+02  0.7816164E-02  0.1300439E+00
        -11   -1    0    0    0    0  0.00000000000E+00  0.00000000000E+00  0.45593999997E+02  0.45594000000E+02  0.51100000000E-03 0.  1.
         11   -1    0    0    0    0 -0.00000000000E+00 -0.00000000000E+00 -0.45593999997E+02  0.45594000000E+02  0.51100000000E-03 0. -1.
    9900012    2    1    2    0    0 -0.26015227467E+02 -0.24823733943E+02 -0.18977748244E+02  0.50528871192E+02  0.30000034474E+02 0.  0.
        -12    1    1    2    0    0  0.26015227467E+02  0.24823733943E+02  0.18977748244E+02  0.40659128808E+02  0.00000000000E+00 0.  1.
         11    1    3    3    0    0 -0.42479360704E+01 -0.91032231913E+01 -0.37155791219E+01  0.10710703142E+02  0.51100000000E-03 0. -1.
        -11    1    3    3    0    0 -0.97774250490E+01  0.57404906152E+01 -0.96316559222E+00  0.11378882252E+02  0.51100000000E-03 0.  1.
        -12    1    3    3    0    0 -0.11989866348E+02 -0.21461001367E+02 -0.14299003530E+02  0.28439285797E+02  0.00000000000E+00 0.  1.
</event>
<event>
 7    1  0.5714431E-011  0.5052886E+02  0.7816164E-02  0.1300439E+00
        -11   -1    0    0    0    0  0.00000000000E+00  0.00000000000E+00  0.45593999997E+02  0.45594000000E+02  0.51100000000E-03 0.  1.
         11   -1    0    0    0    0 -0.00000000000E+00 -0.00000000000E+00 -0.45593999997E+02  0.45594000000E+02  0.51100000000E-03 0. -1.
    9900012    2    1    2    0    0 -0.39470599361E+02  0.48069070231E+01 -0.84929917268E+01  0.50528862312E+02  0.30000007483E+02 0.  0.
        -12    1    1    2    0    0  0.39470599361E+02 -0.48069070231E+01  0.84929917268E+01  0.40659137688E+02  0.00000000000E+00 0.  1.
         11    1    3    3    0    0 -0.13936207438E+02 -0.12543092603E+02 -0.16294074548E+01  0.18820255544E+02  0.51100000000E-03 0.  1.
        -11    1    3    3    0    0 -0.18850647751E+02  0.13945390026E+02 -0.55018582109E+01  0.24085083925E+02  0.51100000000E-03 0. -1.
        -12    1    3    3    0    0 -0.66837441718E+01  0.34046095997E+01 -0.13617260612E+01  0.76235228435E+01  0.00000000000E+00 0.  1.
</event>
<event>
 7    1  0.5714431E-011  0.5052886E+02  0.7816164E-02  0.1300439E+00
        -11   -1    0    0    0    0  0.00000000000E+00  0.00000000000E+00  0.45593999997E+02  0.45594000000E+02  0.51100000000E-03 0.  1.
         11   -1    0    0    0    0 -0.00000000000E+00 -0.00000000000E+00 -0.45593999997E+02  0.45594000000E+02  0.51100000000E-03 0. -1.
    9900012    2    1    2    0    0  0.29653422809E+02  0.14531286580E+01 -0.27780003254E+02  0.50528860216E+02  0.30000001112E+02 0.  0.
        -12    1    1    2    0    0 -0.29653422809E+02 -0.14531286580E+01  0.27780003254E+02  0.40659139784E+02  0.00000000000E+00 0.  1.
         11    1    3    3    0    0 -0.82006366799E+00 -0.87800532997E+01 -0.29687021848E+01  0.93045705591E+01  0.51100000000E-03 0. -1.
        -11    1    3    3    0    0  0.73457073617E+00 -0.61512845753E+00  0.69844863096E-01  0.96065381471E+00  0.51100000000E-03 0.  1.
         12    1    3    3    0    0  0.29738915741E+02  0.10848310415E+02 -0.24881145933E+02  0.40263635842E+02  0.00000000000E+00 0. -1.
</event>
<event>
 7    1  0.5714431E-011  0.5052886E+02  0.7816164E-02  0.1300439E+00
        -11   -1    0    0    0    0  0.00000000000E+00  0.00000000000E+00  0.45593999997E+02  0.45594000000E+02  0.51100000000E-03 0.  1.
         11   -1    0    0    0    0 -0.00000000000E+00 -0.00000000000E+00 -0.45593999997E+02  0.45594000000E+02  0.51100000000E-03 0. -1.
    9900012    2    1    2    0    0  0.14301051299E+02 -0.34722261381E+02 -0.15588777335E+02  0.50528862251E+02  0.30000007298E+02 0.  0.
        -12    1    1    2    0    0 -0.14301051299E+02  0.34722261381E+02  0.15588777335E+02  0.40659137749E+02  0.00000000000E+00 0.  1.
         11    1    3    3    0    0  0.26792033828E+01 -0.92672332794E+01 -0.11289627887E+02  0.14849762339E+02  0.51100000000E-03 0. -1.
        -11    1    3    3    0    0  0.11013561422E+02 -0.27181400268E+02  0.17293329141E+01  0.29378863972E+02  0.51100000000E-03 0.  1.
        -12    1    3    3    0    0  0.60828649388E+00  0.17263721659E+01 -0.60284823618E+01  0.63002359400E+01  0.00000000000E+00 0.  1.
</event>
<event>
 7    1  0.5714431E-011  0.5052886E+02  0.7816164E-02  0.1300439E+00
        -11   -1    0    0    0    0  0.00000000000E+00  0.00000000000E+00  0.45593999997E+02  0.45594000000E+02  0.51100000000E-03 0.  1.
         11   -1    0    0    0    0 -0.00000000000E+00 -0.00000000000E+00 -0.45593999997E+02  0.45594000000E+02  0.51100000000E-03 0. -1.
    9900012    2    1    2    0    0 -0.46314090553E+01  0.43840483480E+01 -0.40155894922E+02  0.50528859248E+02  0.29999998169E+02 0.  0.
        -12    1    1    2    0    0  0.46314090553E+01 -0.43840483480E+01  0.40155894922E+02  0.40659140752E+02  0.00000000000E+00 0.  1.
         11    1    3    3    0    0 -0.14630159315E+01  0.13578634921E+02 -0.22868472021E+02  0.26636192572E+02  0.51100000000E-03 0. -1.
        -11    1    3    3    0    0  0.72867474443E-01 -0.89107146367E+01 -0.32532939593E+01  0.94863094432E+01  0.51100000000E-03 0.  1.
         12    1    3    3    0    0 -0.32412605982E+01 -0.28387193585E+00 -0.14034128942E+02  0.14406357232E+02  0.00000000000E+00 0. -1.
</event>
<event>
 7    1  0.5827594E-011  0.5052885E+02  0.7816164E-02  0.1300439E+00
        -11   -1    0    0    0    0  0.00000000000E+00  0.00000000000E+00  0.45593999997E+02  0.45594000000E+02  0.51100000000E-03 0.  1.
         11   -1    0    0    0    0 -0.00000000000E+00 -0.00000000000E+00 -0.45593999997E+02  0.45594000000E+02  0.51100000000E-03 0. -1.
    9900012    2    1    2    0    0 -0.36878961773E+02  0.67497444309E+01 -0.15733711209E+02  0.50528849249E+02  0.29999967779E+02 0.  0.
        -12    1    1    2    0    0  0.36878961773E+02 -0.67497444309E+01  0.15733711209E+02  0.40659150751E+02  0.00000000000E+00 0.  1.
         11    1    3    3    0    0 -0.85292414870E+01 -0.57770594613E+01 -0.11775231169E+02  0.15645396949E+02  0.51100000000E-03 0. -1.
        -11    1    3    3    0    0 -0.16190424881E+02  0.45472834316E+01  0.53125194669E+01  0.17636057036E+02  0.51100000000E-03 0.  1.
         12    1    3    3    0    0 -0.12159295405E+02  0.79795204607E+01 -0.92709995074E+01  0.17247395264E+02  0.00000000000E+00 0. -1.
</event>
<event>
 7    1  0.5714431E-011  0.5052877E+02  0.7816164E-02  0.1300439E+00
        -11   -1    0    0    0    0  0.00000000000E+00  0.00000000000E+00  0.45593999997E+02  0.45594000000E+02  0.51100000000E-03 0. -1.
         11   -1    0    0    0    0 -0.00000000000E+00 -0.00000000000E+00 -0.45593999997E+02  0.45594000000E+02  0.51100000000E-03 0.  1.
    9900012    2    1    2    0    0  0.28853791766E+02  0.15754679406E+02  0.23925338218E+02  0.50528769420E+02  0.29999725129E+02 0.  0.
        -12    1    1    2    0    0 -0.28853791766E+02 -0.15754679406E+02 -0.23925338218E+02  0.40659230580E+02  0.00000000000E+00 0.  1.
         11    1    3    3    0    0  0.14289310461E+02  0.10007008578E+02  0.13191773620E+02  0.21871156934E+02  0.51100000000E-03 0. -1.
        -11    1    3    3    0    0  0.46654710791E+01  0.85740691167E-02 -0.64819206433E+01  0.79863627135E+01  0.51100000000E-03 0.  1.
        -12    1    3    3    0    0  0.98990102265E+01  0.57390967586E+01  0.17215485242E+02  0.20671249773E+02  0.00000000000E+00 0.  1.
</event>
<event>
 7    1  0.5714431E-011  0.5052890E+02  0.7816164E-02  0.1300439E+00
        -11   -1    0    0    0    0  0.00000000000E+00  0.00000000000E+00  0.45593999997E+02  0.45594000000E+02  0.51100000000E-03 0.  1.
         11   -1    0    0    0    0 -0.00000000000E+00 -0.00000000000E+00 -0.45593999997E+02  0.45594000000E+02  0.51100000000E-03 0. -1.
    9900012    2    1    2    0    0  0.24785372567E+02  0.30247354693E+02 -0.11133067542E+02  0.50528900746E+02  0.30000124308E+02 0.  0.
        -12    1    1    2    0    0 -0.24785372567E+02 -0.30247354693E+02  0.11133067542E+02  0.40659099254E+02  0.00000000000E+00 0.  1.
         11    1    3    3    0    0  0.14350141122E+02  0.18312602305E+02 -0.20013291230E+02  0.30688919490E+02  0.51100000000E-03 0. -1.
        -11    1    3    3    0    0  0.32405925981E+01  0.96170581686E+01  0.56991784451E+01  0.11639153037E+02  0.51100000000E-03 0.  1.
        -12    1    3    3    0    0  0.71946388478E+01  0.23176942198E+01  0.31810452424E+01  0.82008282192E+01  0.00000000000E+00 0.  1.
</event>
<event>
 7    1  0.5714431E-011  0.5052886E+02  0.7816164E-02  0.1300439E+00
        -11   -1    0    0    0    0  0.00000000000E+00  0.00000000000E+00  0.45593999997E+02  0.45594000000E+02  0.51100000000E-03 0.  1.
         11   -1    0    0    0    0 -0.00000000000E+00 -0.00000000000E+00 -0.45593999997E+02  0.45594000000E+02  0.51100000000E-03 0. -1.
    9900012    2    1    2    0    0 -0.11119221067E+02 -0.34887769433E+02 -0.17674062123E+02  0.50528855825E+02  0.29999987766E+02 0.  0.
        -12    1    1    2    0    0  0.11119221067E+02  0.34887769433E+02  0.17674062123E+02  0.40659144175E+02  0.00000000000E+00 0.  1.
         11    1    3    3    0    0  0.37815698004E+01 -0.13979474173E+02 -0.13877993477E+01  0.14548262975E+02  0.51100000000E-03 0. -1.
        -11    1    3    3    0    0 -0.11106962139E+02 -0.76634634120E+01 -0.17558115996E+02  0.22144541473E+02  0.51100000000E-03 0.  1.
        -12    1    3    3    0    0 -0.37938287279E+01 -0.13244831848E+02  0.12718532212E+01  0.13836051377E+02  0.00000000000E+00 0.  1.
</event>
<event>
 7    1  0.5714431E-011  0.5052886E+02  0.7816164E-02  0.1300439E+00
        -11   -1    0    0    0    0  0.00000000000E+00  0.00000000000E+00  0.45593999997E+02  0.45594000000E+02  0.51100000000E-03 0.  1.
         11   -1    0    0    0    0 -0.00000000000E+00 -0.00000000000E+00 -0.45593999997E+02  0.45594000000E+02  0.51100000000E-03 0. -1.
    9900012    2    1    2    0    0  0.25509235105E+02 -0.21074659352E+02 -0.23628440593E+02  0.50528861454E+02  0.30000004875E+02 0.  0.
        -12    1    1    2    0    0 -0.25509235105E+02  0.21074659352E+02  0.23628440593E+02  0.40659138546E+02  0.00000000000E+00 0.  1.
         11    1    3    3    0    0  0.25300700434E+01 -0.10900276282E+02  0.33293201036E+01  0.11674829766E+02  0.51100000000E-03 0. -1.
        -11    1    3    3    0    0  0.76247667568E+01  0.63932075468E+00 -0.25665193333E+01  0.80704907454E+01  0.51100000000E-03 0.  1.
         12    1    3    3    0    0  0.15354398305E+02 -0.10813703825E+02 -0.24391241363E+02  0.30783540942E+02  0.00000000000E+00 0. -1.
</event>
<event>
 7    1  0.5714431E-011  0.5052877E+02  0.7816164E-02  0.1300439E+00
        -11   -1    0    0    0    0  0.00000000000E+00  0.00000000000E+00  0.45593999997E+02  0.45594000000E+02  0.51100000000E-03 0.  1.
         11   -1    0    0    0    0 -0.00000000000E+00 -0.00000000000E+00 -0.45593999997E+02  0.45594000000E+02  0.51100000000E-03 0. -1.
    9900012    2    1    2    0    0 -0.21371934659E+02  0.87634911610E+01 -0.33460639236E+02  0.50528772923E+02  0.29999735775E+02 0.  0.
        -12    1    1    2    0    0  0.21371934659E+02 -0.87634911610E+01  0.33460639236E+02  0.40659227077E+02  0.00000000000E+00 0.  1.
         11    1    3    3    0    0 -0.81677123772E+01 -0.10865508291E+01 -0.28983448162E+02  0.30131916398E+02  0.51100000000E-03 0. -1.
        -11    1    3    3    0    0 -0.10267189925E+02  0.11938419605E+02 -0.54524004002E+01  0.16663424678E+02  0.51100000000E-03 0.  1.
         12    1    3    3    0    0 -0.29370323569E+01 -0.20883776148E+01  0.97520932586E+00  0.37334318471E+01  0.00000000000E+00 0. -1.
</event>
<event>
 7    1  0.5714431E-011  0.5052886E+02  0.7816164E-02  0.1300439E+00
        -11   -1    0    0    0    0  0.00000000000E+00  0.00000000000E+00  0.45593999997E+02  0.45594000000E+02  0.51100000000E-03 0.  1.
         11   -1    0    0    0    0 -0.00000000000E+00 -0.00000000000E+00 -0.45593999997E+02  0.45594000000E+02  0.51100000000E-03 0. -1.
    9900012    2    1    2    0    0 -0.20192292126E+02 -0.24895272441E+02 -0.25013245560E+02  0.50528859519E+02  0.29999998994E+02 0.  0.
        -12    1    1    2    0    0  0.20192292126E+02  0.24895272441E+02  0.25013245560E+02  0.40659140481E+02  0.00000000000E+00 0.  1.
         11    1    3    3    0    0 -0.29254402644E+01 -0.13672503660E+01 -0.45038065403E+01  0.55418271280E+01  0.51100000000E-03 0. -1.
        -11    1    3    3    0    0 -0.11201124243E+02  0.36742016661E+01 -0.90111826947E+01  0.14838003774E+02  0.51100000000E-03 0.  1.
        -12    1    3    3    0    0 -0.60657276186E+01 -0.27202223741E+02 -0.11498256325E+02  0.30149028617E+02  0.00000000000E+00 0.  1.
</event>
<event>
 7    1  0.5714431E-011  0.5052886E+02  0.7816164E-02  0.1300439E+00
        -11   -1    0    0    0    0  0.00000000000E+00  0.00000000000E+00  0.45593999997E+02  0.45594000000E+02  0.51100000000E-03 0.  1.
         11   -1    0    0    0    0 -0.00000000000E+00 -0.00000000000E+00 -0.45593999997E+02  0.45594000000E+02  0.51100000000E-03 0. -1.
    9900012    2    1    2    0    0  0.17319483967E+02  0.14970228852E+02 -0.33601989312E+02  0.50528856348E+02  0.29999989355E+02 0.  0.
        -12    1    1    2    0    0 -0.17319483967E+02 -0.14970228852E+02  0.33601989312E+02  0.40659143652E+02  0.00000000000E+00 0.  1.
         11    1    3    3    0    0  0.22766763615E+01  0.36561180283E+01 -0.55482967860E+01  0.70238203122E+01  0.51100000000E-03 0. -1.
        -11    1    3    3    0    0 -0.38236170935E+01  0.12836321579E+02 -0.67195258666E+01  0.14984766514E+02  0.51100000000E-03 0.  1.
        -12    1    3    3    0    0  0.18866424699E+02 -0.15222107552E+01 -0.21334166660E+02  0.28520269521E+02  0.00000000000E+00 0.  1.
</event>
<event>
 7    1  0.5714431E-011  0.5052888E+02  0.7816164E-02  0.1300439E+00
        -11   -1    0    0    0    0  0.00000000000E+00  0.00000000000E+00  0.45593999997E+02  0.45594000000E+02  0.51100000000E-03 0.  1.
         11   -1    0    0    0    0 -0.00000000000E+00 -0.00000000000E+00 -0.45593999997E+02  0.45594000000E+02  0.51100000000E-03 0. -1.
    9900012    2    1    2    0    0 -0.35032196514E+02  0.16206344418E+02 -0.12777477915E+02  0.50528876376E+02  0.30000050233E+02 0.  0.
        -12    1    1    2    0    0  0.35032196514E+02 -0.16206344418E+02  0.12777477915E+02  0.40659123624E+02  0.00000000000E+00 0.  1.
         11    1    3    3    0    0 -0.33166245444E+02  0.50616844108E+01 -0.54682721993E+01  0.33992977025E+02  0.51100000000E-03 0. -1.
        -11    1    3    3    0    0 -0.16579889005E+01  0.12877415086E+02 -0.57667399916E+01  0.14206760253E+02  0.51100000000E-03 0.  1.
         12    1    3    3    0    0 -0.20796216956E+00 -0.17327550789E+01 -0.15424657242E+01  0.23291390980E+01  0.00000000000E+00 0. -1.
</event>
<event>
 7    1  0.5714431E-011  0.5052887E+02  0.7816164E-02  0.1300439E+00
        -11   -1    0    0    0    0  0.00000000000E+00  0.00000000000E+00  0.45593999997E+02  0.45594000000E+02  0.51100000000E-03 0. -1.
         11   -1    0    0    0    0 -0.00000000000E+00 -0.00000000000E+00 -0.45593999997E+02  0.45594000000E+02  0.51100000000E-03 0.  1.
    9900012    2    1    2    0    0  0.12277582233E+02  0.37299429932E+02  0.10544119486E+02  0.50528868745E+02  0.30000027036E+02 0.  0.
        -12    1    1    2    0    0 -0.12277582233E+02 -0.37299429932E+02 -0.10544119486E+02  0.40659131255E+02  0.00000000000E+00 0.  1.
         11    1    3    3    0    0  0.15017227368E+02  0.23086259589E+02 -0.33284387139E+01  0.27741142806E+02  0.51100000000E-03 0.  1.
        -11    1    3    3    0    0 -0.25035664361E+01  0.14623196234E+02  0.79223181739E+01  0.16818705018E+02  0.51100000000E-03 0. -1.
         12    1    3    3    0    0 -0.23607869928E+00 -0.41002589120E+00  0.59502400257E+01  0.59690209203E+01  0.00000000000E+00 0. -1.
</event>
<event>
 7    1  0.5714431E-011  0.5052886E+02  0.7816164E-02  0.1300439E+00
        -11   -1    0    0    0    0  0.00000000000E+00  0.00000000000E+00  0.45593999997E+02  0.45594000000E+02  0.51100000000E-03 0.  1.
         11   -1    0    0    0    0 -0.00000000000E+00 -0.00000000000E+00 -0.45593999997E+02  0.45594000000E+02  0.51100000000E-03 0. -1.
    9900012    2    1    2    0    0  0.24390646106E+01  0.35817323806E+02 -0.19087594977E+02  0.50528855853E+02  0.29999987850E+02 0.  0.
        -12    1    1    2    0    0 -0.24390646106E+01 -0.35817323806E+02  0.19087594977E+02  0.40659144147E+02  0.00000000000E+00 0.  1.
         11    1    3    3    0    0  0.74301849145E+00  0.35757263382E+02 -0.90247883067E+01  0.36886051094E+02  0.51100000000E-03 0. -1.
        -11    1    3    3    0    0 -0.31427358060E+01 -0.90296044524E+00 -0.11696564299E+01  0.34727830823E+01  0.51100000000E-03 0.  1.
         12    1    3    3    0    0  0.48387819251E+01  0.96302086956E+00 -0.88931502399E+01  0.10170021677E+02  0.00000000000E+00 0. -1.
</event>
<event>
 7    1  0.5714431E-011  0.5052886E+02  0.7816164E-02  0.1300439E+00
        -11   -1    0    0    0    0  0.00000000000E+00  0.00000000000E+00  0.45593999997E+02  0.45594000000E+02  0.51100000000E-03 0.  1.
         11   -1    0    0    0    0 -0.00000000000E+00 -0.00000000000E+00 -0.45593999997E+02  0.45594000000E+02  0.51100000000E-03 0. -1.
    9900012    2    1    2    0    0  0.97637307705E+01 -0.82419504604E+01 -0.38599292642E+02  0.50528861071E+02  0.30000003712E+02 0.  0.
        -12    1    1    2    0    0 -0.97637307705E+01  0.82419504604E+01  0.38599292642E+02  0.40659138929E+02  0.00000000000E+00 0.  1.
         11    1    3    3    0    0 -0.52529939761E+01  0.11706164279E+01 -0.56321975409E+01  0.77901179667E+01  0.51100000000E-03 0. -1.
        -11    1    3    3    0    0  0.10700299740E+02 -0.13941453294E+02 -0.31859213444E+02  0.36385024612E+02  0.51100000000E-03 0.  1.
        -12    1    3    3    0    0  0.43164250068E+01  0.45288864057E+01 -0.11078816569E+01  0.63537184924E+01  0.00000000000E+00 0.  1.
</event>
<event>
 7    1  0.5714431E-011  0.5052885E+02  0.7816164E-02  0.1300439E+00
        -11   -1    0    0    0    0  0.00000000000E+00  0.00000000000E+00  0.45593999997E+02  0.45594000000E+02  0.51100000000E-03 0. -1.
         11   -1    0    0    0    0 -0.00000000000E+00 -0.00000000000E+00 -0.45593999997E+02  0.45594000000E+02  0.51100000000E-03 0.  1.
    9900012    2    1    2    0    0  0.38487366582E+02  0.92104636363E+01  0.93303858142E+01  0.50528854334E+02  0.29999983234E+02 0.  0.
        -12    1    1    2    0    0 -0.38487366582E+02 -0.92104636363E+01 -0.93303858142E+01  0.40659145666E+02  0.00000000000E+00 0.  1.
         11    1    3    3    0    0  0.11244140717E+02  0.26991738493E+01  0.11637990787E+02  0.16406068077E+02  0.51100000000E-03 0. -1.
        -11    1    3    3    0    0  0.15921041398E+00  0.36917677802E+01 -0.55840721881E+01  0.66959958006E+01  0.51100000000E-03 0.  1.
        -12    1    3    3    0    0  0.27084015452E+02  0.28195220068E+01  0.32764672156E+01  0.27426790457E+02  0.00000000000E+00 0.  1.
</event>
<event>
 7    1  0.5714431E-011  0.5052885E+02  0.7816164E-02  0.1300439E+00
        -11   -1    0    0    0    0  0.00000000000E+00  0.00000000000E+00  0.45593999997E+02  0.45594000000E+02  0.51100000000E-03 0. -1.
         11   -1    0    0    0    0 -0.00000000000E+00 -0.00000000000E+00 -0.45593999997E+02  0.45594000000E+02  0.51100000000E-03 0.  1.
    9900012    2    1    2    0    0 -0.29072096410E+02 -0.21845550797E+02  0.18186569432E+02  0.50528853587E+02  0.29999980964E+02 0.  0.
        -12    1    1    2    0    0  0.29072096410E+02  0.21845550797E+02 -0.18186569432E+02  0.40659146413E+02  0.00000000000E+00 0.  1.
         11    1    3    3    0    0 -0.33469910853E+01 -0.38661787391E+01  0.65822373544E+01  0.83351986310E+01  0.51100000000E-03 0. -1.
        -11    1    3    3    0    0 -0.39322330657E+01 -0.14735094364E+01 -0.76698707659E+01  0.87441754768E+01  0.51100000000E-03 0.  1.
        -12    1    3    3    0    0 -0.21792872259E+02 -0.16505862622E+02  0.19274202844E+02  0.33449479479E+02  0.00000000000E+00 0.  1.
</event>
<event>
 7    1  0.5714431E-011  0.5052886E+02  0.7816164E-02  0.1300439E+00
        -11   -1    0    0    0    0  0.00000000000E+00  0.00000000000E+00  0.45593999997E+02  0.45594000000E+02  0.51100000000E-03 0. -1.
         11   -1    0    0    0    0 -0.00000000000E+00 -0.00000000000E+00 -0.45593999997E+02  0.45594000000E+02  0.51100000000E-03 0.  1.
    9900012    2    1    2    0    0  0.29684506136E+02  0.17865597891E+02  0.21279476591E+02  0.50528860602E+02  0.30000002286E+02 0.  0.
        -12    1    1    2    0    0 -0.29684506136E+02 -0.17865597891E+02 -0.21279476591E+02  0.40659139398E+02  0.00000000000E+00 0.  1.
         11    1    3    3    0    0  0.60844850665E+01 -0.77415851334E+00 -0.13655565803E+01  0.62837110821E+01  0.51100000000E-03 0. -1.
        -11    1    3    3    0    0  0.27729923154E+02  0.13523568966E+02  0.21415582204E+02  0.37556127558E+02  0.51100000000E-03 0.  1.
        -12    1    3    3    0    0 -0.41299020845E+01  0.51161874381E+01  0.12294509674E+01  0.66890219622E+01  0.00000000000E+00 0.  1.
</event>
<event>
 7    1  0.5714431E-011  0.5052885E+02  0.7816164E-02  0.1300439E+00
        -11   -1    0    0    0    0  0.00000000000E+00  0.00000000000E+00  0.45593999997E+02  0.45594000000E+02  0.51100000000E-03 0. -1.
         11   -1    0    0    0    0 -0.00000000000E+00 -0.00000000000E+00 -0.45593999997E+02  0.45594000000E+02  0.51100000000E-03 0.  1.
    9900012    2    1    2    0    0  0.12713915194E+02 -0.35191046662E+02  0.15909528862E+02  0.50528849574E+02  0.29999968766E+02 0.  0.
        -12    1    1    2    0    0 -0.12713915194E+02  0.35191046662E+02 -0.15909528862E+02  0.40659150426E+02  0.00000000000E+00 0.  1.
         11    1    3    3    0    0 -0.31181253702E+01 -0.15753734384E+01  0.60488871415E+01  0.69852375197E+01  0.51100000000E-03 0. -1.
        -11    1    3    3    0    0  0.20500340260E+02 -0.23032120029E+02  0.76095265189E+01  0.31759209655E+02  0.51100000000E-03 0.  1.
        -12    1    3    3    0    0 -0.46682996958E+01 -0.10583553194E+02  0.22511152017E+01  0.11784402400E+02  0.00000000000E+00 0.  1.
</event>
<event>
 7    1  0.5714431E-011  0.5052886E+02  0.7816164E-02  0.1300439E+00
        -11   -1    0    0    0    0  0.00000000000E+00  0.00000000000E+00  0.45593999997E+02  0.45594000000E+02  0.51100000000E-03 0.  1.
         11   -1    0    0    0    0 -0.00000000000E+00 -0.00000000000E+00 -0.45593999997E+02  0.45594000000E+02  0.51100000000E-03 0. -1.
    9900012    2    1    2    0    0  0.27119072197E+02 -0.24190111410E+02 -0.18236227568E+02  0.50528861264E+02  0.30000004297E+02 0.  0.
        -12    1    1    2    0    0 -0.27119072197E+02  0.24190111410E+02  0.18236227568E+02  0.40659138736E+02  0.00000000000E+00 0.  1.
         11    1    3    3    0    0  0.42109874313E+01 -0.57210474907E+01 -0.30533498526E+01  0.77321242308E+01  0.51100000000E-03 0. -1.
        -11    1    3    3    0    0  0.91028169351E+01 -0.64990665333E+01 -0.20854684827E+02  0.23664678774E+02  0.51100000000E-03 0.  1.
        -12    1    3    3    0    0  0.13805267831E+02 -0.11969997386E+02  0.56718071124E+01  0.19132058259E+02  0.00000000000E+00 0.  1.
</event>
<event>
 7    1  0.5714431E-011  0.5052886E+02  0.7816164E-02  0.1300439E+00
        -11   -1    0    0    0    0  0.00000000000E+00  0.00000000000E+00  0.45593999997E+02  0.45594000000E+02  0.51100000000E-03 0. -1.
         11   -1    0    0    0    0 -0.00000000000E+00 -0.00000000000E+00 -0.45593999997E+02  0.45594000000E+02  0.51100000000E-03 0.  1.
    9900012    2    1    2    0    0 -0.11024853380E+02  0.17399707434E+02  0.35055222438E+02  0.50528857965E+02  0.29999994270E+02 0.  0.
        -12    1    1    2    0    0  0.11024853380E+02 -0.17399707434E+02 -0.35055222438E+02  0.40659142035E+02  0.00000000000E+00 0.  1.
         11    1    3    3    0    0 -0.11722138242E+02 -0.19444583592E+00  0.64243859720E+01  0.13368585173E+02  0.51100000000E-03 0. -1.
        -11    1    3    3    0    0 -0.24921468951E+01  0.17948806958E+02  0.16149411142E+02  0.24272905633E+02  0.51100000000E-03 0.  1.
         12    1    3    3    0    0  0.31894317572E+01 -0.35465368793E+00  0.12481425324E+02  0.12887367159E+02  0.00000000000E+00 0. -1.
</event>
<event>
 7    1  0.5714431E-011  0.5052886E+02  0.7816164E-02  0.1300439E+00
        -11   -1    0    0    0    0  0.00000000000E+00  0.00000000000E+00  0.45593999997E+02  0.45594000000E+02  0.51100000000E-03 0.  1.
         11   -1    0    0    0    0 -0.00000000000E+00 -0.00000000000E+00 -0.45593999997E+02  0.45594000000E+02  0.51100000000E-03 0. -1.
    9900012    2    1    2    0    0 -0.31074686701E+01 -0.19292048724E+02 -0.35655662633E+02  0.50528858551E+02  0.29999996053E+02 0.  0.
        -12    1    1    2    0    0  0.31074686701E+01  0.19292048724E+02  0.35655662633E+02  0.40659141449E+02  0.00000000000E+00 0.  1.
         11    1    3    3    0    0 -0.81118740235E+01  0.32887400845E+01 -0.95495055865E+01  0.12954202744E+02  0.51100000000E-03 0.  1.
        -11    1    3    3    0    0  0.84040023122E+01 -0.20373656448E+02 -0.25092083809E+02  0.33396493859E+02  0.51100000000E-03 0. -1.
        -12    1    3    3    0    0 -0.33995969589E+01 -0.22071323604E+01 -0.10140732380E+01  0.41781619489E+01  0.00000000000E+00 0.  1.
</event>
<event>
 7    1  0.5714431E-011  0.5052881E+02  0.7816164E-02  0.1300439E+00
        -11   -1    0    0    0    0  0.00000000000E+00  0.00000000000E+00  0.45593999997E+02  0.45594000000E+02  0.51100000000E-03 0.  1.
         11   -1    0    0    0    0 -0.00000000000E+00 -0.00000000000E+00 -0.45593999997E+02  0.45594000000E+02  0.51100000000E-03 0. -1.
    9900012    2    1    2    0    0 -0.64393699386E+01  0.54670523595E+01 -0.39772040315E+02  0.50528814844E+02  0.29999863200E+02 0.  0.
        -12    1    1    2    0    0  0.64393699386E+01 -0.54670523595E+01  0.39772040315E+02  0.40659185156E+02  0.00000000000E+00 0.  1.
         11    1    3    3    0    0 -0.62738672064E+01 -0.58651372084E-01 -0.31640204710E+02  0.32256276971E+02  0.51100000000E-03 0. -1.
        -11    1    3    3    0    0 -0.45863862465E+00  0.58370944359E+01  0.33747356536E+01  0.67580220356E+01  0.51100000000E-03 0.  1.
         12    1    3    3    0    0  0.29313589249E+00 -0.31139070425E+00 -0.11506571259E+02  0.11514515837E+02  0.00000000000E+00 0. -1.
</event>
<event>
 7    1  0.5714431E-011  0.5052886E+02  0.7816164E-02  0.1300439E+00
        -11   -1    0    0    0    0  0.00000000000E+00  0.00000000000E+00  0.45593999997E+02  0.45594000000E+02  0.51100000000E-03 0.  1.
         11   -1    0    0    0    0 -0.00000000000E+00 -0.00000000000E+00 -0.45593999997E+02  0.45594000000E+02  0.51100000000E-03 0. -1.
    9900012    2    1    2    0    0  0.34393526417E+02  0.18333783845E+02  0.11581161417E+02  0.50528860939E+02  0.30000003309E+02 0.  0.
        -12    1    1    2    0    0 -0.34393526417E+02 -0.18333783845E+02 -0.11581161417E+02  0.40659139061E+02  0.00000000000E+00 0.  1.
         11    1    3    3    0    0  0.12393549743E+02 -0.56369025978E+00  0.11641915932E+02  0.17013289769E+02  0.51100000000E-03 0.  1.
        -11    1    3    3    0    0  0.83595460329E+00  0.10664814578E+02  0.12419109231E+01  0.10769374777E+02  0.51100000000E-03 0. -1.
        -12    1    3    3    0    0  0.21164022071E+02  0.82326595268E+01 -0.13026654382E+01  0.22746196393E+02  0.00000000000E+00 0.  1.
</event>
<event>
 7    1  0.5714431E-011  0.5052886E+02  0.7816164E-02  0.1300439E+00
        -11   -1    0    0    0    0  0.00000000000E+00  0.00000000000E+00  0.45593999997E+02  0.45594000000E+02  0.51100000000E-03 0. -1.
         11   -1    0    0    0    0 -0.00000000000E+00 -0.00000000000E+00 -0.45593999997E+02  0.45594000000E+02  0.51100000000E-03 0.  1.
    9900012    2    1    2    0    0  0.99893438603E+01 -0.39284606110E+02  0.31778536835E+01  0.50528855616E+02  0.29999987132E+02 0.  0.
        -12    1    1    2    0    0 -0.99893438603E+01  0.39284606110E+02 -0.31778536835E+01  0.40659144384E+02  0.00000000000E+00 0.  1.
         11    1    3    3    0    0 -0.10417205779E+02 -0.18296221301E+02  0.21257478204E+01  0.21161018270E+02  0.51100000000E-03 0. -1.
        -11    1    3    3    0    0  0.16685015246E+02 -0.16410543697E+02  0.17685064789E+00  0.23403567134E+02  0.51100000000E-03 0.  1.
         12    1    3    3    0    0  0.37215343924E+01 -0.45778411115E+01  0.87525521524E+00  0.59642702125E+01  0.00000000000E+00 0. -1.
</event>
<event>
 7    1  0.5714431E-011  0.5052882E+02  0.7816164E-02  0.1300439E+00
        -11   -1    0    0    0    0  0.00000000000E+00  0.00000000000E+00  0.45593999997E+02  0.45594000000E+02  0.51100000000E-03 0. -1.
         11   -1    0    0    0    0 -0.00000000000E+00 -0.00000000000E+00 -0.45593999997E+02  0.45594000000E+02  0.51100000000E-03 0.  1.
    9900012    2    1    2    0    0 -0.34989555482E+02 -0.16008625051E+02 -0.13138627973E+02  0.50528823744E+02  0.29999890252E+02 0.  0.
        -12    1    1    2    0    0  0.34989555482E+02  0.16008625051E+02  0.13138627973E+02  0.40659176256E+02  0.00000000000E+00 0.  1.
         11    1    3    3    0    0 -0.29103298753E+02 -0.10444253062E+02 -0.45425967459E-01  0.30920648184E+02  0.51100000000E-03 0. -1.
        -11    1    3    3    0    0  0.29745868677E+01 -0.38602098064E+01 -0.18993627609E+01  0.52303886989E+01  0.51100000000E-03 0.  1.
        -12    1    3    3    0    0 -0.88608435963E+01 -0.17041621819E+01 -0.11193839245E+02  0.14377786861E+02  0.00000000000E+00 0.  1.
</event>
<event>
 7    1  0.5714431E-011  0.5052886E+02  0.7816164E-02  0.1300439E+00
        -11   -1    0    0    0    0  0.00000000000E+00  0.00000000000E+00  0.45593999997E+02  0.45594000000E+02  0.51100000000E-03 0.  1.
         11   -1    0    0    0    0 -0.00000000000E+00 -0.00000000000E+00 -0.45593999997E+02  0.45594000000E+02  0.51100000000E-03 0. -1.
    9900012    2    1    2    0    0  0.32444136428E+02  0.23085046430E+02 -0.82233975100E+01  0.50528860512E+02  0.30000002013E+02 0.  0.
        -12    1    1    2    0    0 -0.32444136428E+02 -0.23085046430E+02  0.82233975100E+01  0.40659139488E+02  0.00000000000E+00 0.  1.
         11    1    3    3    0    0  0.35492864312E+02  0.21584322913E+02 -0.80845108039E+01  0.42320039318E+02  0.51100000000E-03 0. -1.
        -11    1    3    3    0    0 -0.20159277744E+01  0.20967606155E+01  0.34000117980E+01  0.44744217903E+01  0.51100000000E-03 0.  1.
        -12    1    3    3    0    0 -0.10328001089E+01 -0.59603709831E+00 -0.35388985040E+01  0.37343994041E+01  0.00000000000E+00 0.  1.
</event>
<event>
 7    1  0.5714431E-011  0.5052885E+02  0.7816164E-02  0.1300439E+00
        -11   -1    0    0    0    0  0.00000000000E+00  0.00000000000E+00  0.45593999997E+02  0.45594000000E+02  0.51100000000E-03 0.  1.
         11   -1    0    0    0    0 -0.00000000000E+00 -0.00000000000E+00 -0.45593999997E+02  0.45594000000E+02  0.51100000000E-03 0. -1.
    9900012    2    1    2    0    0 -0.19040909892E+02 -0.32171348530E+02 -0.15987947521E+02  0.50528851193E+02  0.29999973687E+02 0.  0.
        -12    1    1    2    0    0  0.19040909892E+02  0.32171348530E+02  0.15987947521E+02  0.40659148807E+02  0.00000000000E+00 0.  1.
         11    1    3    3    0    0 -0.22570261426E+02 -0.14964594550E+02 -0.64813127187E+01  0.27845344417E+02  0.51100000000E-03 0. -1.
        -11    1    3    3    0    0  0.21941245389E+01 -0.10084197051E+02  0.49563035030E+00  0.10332030892E+02  0.51100000000E-03 0.  1.
        -12    1    3    3    0    0  0.13352269946E+01 -0.71225569288E+01 -0.10002265153E+02  0.12351475884E+02  0.00000000000E+00 0.  1.
</event>
<event>
 7    1  0.5714431E-011  0.5052886E+02  0.7816164E-02  0.1300439E+00
        -11   -1    0    0    0    0  0.00000000000E+00  0.00000000000E+00  0.45593999997E+02  0.45594000000E+02  0.51100000000E-03 0.  1.
         11   -1    0    0    0    0 -0.00000000000E+00 -0.00000000000E+00 -0.45593999997E+02  0.45594000000E+02  0.51100000000E-03 0. -1.
    9900012    2    1    2    0    0  0.26448930549E+02  0.30818351607E+02 -0.19617756723E+01  0.50528864658E+02  0.30000014614E+02 0.  0.
        -12    1    1    2    0    0 -0.26448930549E+02 -0.30818351607E+02  0.19617756723E+01  0.40659135342E+02  0.00000000000E+00 0.  1.
         11    1    3    3    0    0  0.12959464120E+02  0.28725534754E+02 -0.11645236713E+02  0.33596362832E+02  0.51100000000E-03 0.  1.
        -11    1    3    3    0    0  0.83780545843E+01  0.20273008348E+01  0.48161255028E+01  0.98740474180E+01  0.51100000000E-03 0. -1.
         12    1    3    3    0    0  0.51114118448E+01  0.65516018453E-01  0.48673355379E+01  0.70584544083E+01  0.00000000000E+00 0. -1.
</event>
<event>
 7    1  0.5714431E-011  0.5052886E+02  0.7816164E-02  0.1300439E+00
        -11   -1    0    0    0    0  0.00000000000E+00  0.00000000000E+00  0.45593999997E+02  0.45594000000E+02  0.51100000000E-03 0. -1.
         11   -1    0    0    0    0 -0.00000000000E+00 -0.00000000000E+00 -0.45593999997E+02  0.45594000000E+02  0.51100000000E-03 0.  1.
    9900012    2    1    2    0    0  0.20704795061E+02 -0.31265619226E+01  0.34852569845E+02  0.50528861387E+02  0.30000004672E+02 0.  0.
        -12    1    1    2    0    0 -0.20704795061E+02  0.31265619226E+01 -0.34852569845E+02  0.40659138613E+02  0.00000000000E+00 0.  1.
         11    1    3    3    0    0  0.11307576957E+02  0.10672022299E+02  0.11432288857E+02  0.19298978868E+02  0.51100000000E-03 0. -1.
        -11    1    3    3    0    0 -0.76088226752E+00 -0.96597047981E+01  0.10877583331E+02  0.14567452008E+02  0.51100000000E-03 0.  1.
         12    1    3    3    0    0  0.10158100371E+02 -0.41388794232E+01  0.12542697657E+02  0.16662430511E+02  0.00000000000E+00 0. -1.
</event>
<event>
 7    1  0.5714431E-011  0.5052886E+02  0.7816164E-02  0.1300439E+00
        -11   -1    0    0    0    0  0.00000000000E+00  0.00000000000E+00  0.45593999997E+02  0.45594000000E+02  0.51100000000E-03 0.  1.
         11   -1    0    0    0    0 -0.00000000000E+00 -0.00000000000E+00 -0.45593999997E+02  0.45594000000E+02  0.51100000000E-03 0. -1.
    9900012    2    1    2    0    0  0.32599474354E+02 -0.24253687185E+02 -0.14828306873E+01  0.50528857645E+02  0.29999993297E+02 0.  0.
        -12    1    1    2    0    0 -0.32599474354E+02  0.24253687185E+02  0.14828306873E+01  0.40659142355E+02  0.00000000000E+00 0.  1.
         11    1    3    3    0    0  0.20493884287E+02 -0.22077065817E+02 -0.16468822452E+01  0.30168002083E+02  0.51100000000E-03 0. -1.
        -11    1    3    3    0    0 -0.17124295630E+01  0.38655012415E+01  0.27722878803E+01  0.50556992799E+01  0.51100000000E-03 0.  1.
        -12    1    3    3    0    0  0.13818019630E+02 -0.60421226092E+01 -0.26082363225E+01  0.15305156282E+02  0.00000000000E+00 0.  1.
</event>
<event>
 7    1  0.5714431E-011  0.5052886E+02  0.7816164E-02  0.1300439E+00
        -11   -1    0    0    0    0  0.00000000000E+00  0.00000000000E+00  0.45593999997E+02  0.45594000000E+02  0.51100000000E-03 0.  1.
         11   -1    0    0    0    0 -0.00000000000E+00 -0.00000000000E+00 -0.45593999997E+02  0.45594000000E+02  0.51100000000E-03 0. -1.
    9900012    2    1    2    0    0 -0.39498264252E+01 -0.11372953982E+02 -0.38835817447E+02  0.50528856774E+02  0.29999990651E+02 0.  0.
        -12    1    1    2    0    0  0.39498264252E+01  0.11372953982E+02  0.38835817447E+02  0.40659143226E+02  0.00000000000E+00 0.  1.
         11    1    3    3    0    0  0.27149578329E+01 -0.93577423996E+01 -0.20805144351E+02  0.22973732187E+02  0.51100000000E-03 0. -1.
        -11    1    3    3    0    0 -0.39194524679E+01  0.29880826954E+01  0.29959935364E+01  0.57677312155E+01  0.51100000000E-03 0.  1.
        -12    1    3    3    0    0 -0.27453317902E+01 -0.50032942775E+01 -0.21026666633E+02  0.21787393372E+02  0.00000000000E+00 0.  1.
</event>
<event>
 7    1  0.5714431E-011  0.5052887E+02  0.7816164E-02  0.1300439E+00
        -11   -1    0    0    0    0  0.00000000000E+00  0.00000000000E+00  0.45593999997E+02  0.45594000000E+02  0.51100000000E-03 0.  1.
         11   -1    0    0    0    0 -0.00000000000E+00 -0.00000000000E+00 -0.45593999997E+02  0.45594000000E+02  0.51100000000E-03 0. -1.
    9900012    2    1    2    0    0  0.35623637406E+02 -0.12668223661E+02  0.14954510112E+02  0.50528870577E+02  0.30000032606E+02 0.  0.
        -12    1    1    2    0    0 -0.35623637406E+02  0.12668223661E+02 -0.14954510112E+02  0.40659129423E+02  0.00000000000E+00 0.  1.
         11    1    3    3    0    0  0.15386280220E+02 -0.36430517864E+01  0.19936630844E+02  0.25445602665E+02  0.51100000000E-03 0. -1.
        -11    1    3    3    0    0  0.72656532850E+01 -0.70621689703E+01  0.18370014048E+01  0.10297500796E+02  0.51100000000E-03 0.  1.
         12    1    3    3    0    0  0.12971703901E+02 -0.19630029040E+01 -0.68191221367E+01  0.14785767116E+02  0.00000000000E+00 0. -1.
</event>
<event>
 7    1  0.5714431E-011  0.5052885E+02  0.7816164E-02  0.1300439E+00
        -11   -1    0    0    0    0  0.00000000000E+00  0.00000000000E+00  0.45593999997E+02  0.45594000000E+02  0.51100000000E-03 0.  1.
         11   -1    0    0    0    0 -0.00000000000E+00 -0.00000000000E+00 -0.45593999997E+02  0.45594000000E+02  0.51100000000E-03 0. -1.
    9900012    2    1    2    0    0 -0.18675013922E+02  0.25301745012E+02 -0.25772693191E+02  0.50528853920E+02  0.29999981974E+02 0.  0.
        -12    1    1    2    0    0  0.18675013922E+02 -0.25301745012E+02  0.25772693191E+02  0.40659146080E+02  0.00000000000E+00 0.  1.
         11    1    3    3    0    0  0.77156644774E-01  0.15680169417E+02 -0.52309753895E+01  0.16529875072E+02  0.51100000000E-03 0. -1.
        -11    1    3    3    0    0 -0.15464054446E+02  0.13468342193E+01 -0.19662978062E+02  0.25051619685E+02  0.51100000000E-03 0.  1.
        -12    1    3    3    0    0 -0.32881161211E+01  0.82747413760E+01 -0.87873973982E+00  0.89473591632E+01  0.00000000000E+00 0.  1.
</event>
<event>
 7    1  0.5714431E-011  0.5052886E+02  0.7816164E-02  0.1300439E+00
        -11   -1    0    0    0    0  0.00000000000E+00  0.00000000000E+00  0.45593999997E+02  0.45594000000E+02  0.51100000000E-03 0.  1.
         11   -1    0    0    0    0 -0.00000000000E+00 -0.00000000000E+00 -0.45593999997E+02  0.45594000000E+02  0.51100000000E-03 0. -1.
    9900012    2    1    2    0    0 -0.13965954784E+02 -0.31144996624E+02 -0.22093147884E+02  0.50528857226E+02  0.29999992024E+02 0.  0.
        -12    1    1    2    0    0  0.13965954784E+02  0.31144996624E+02  0.22093147884E+02  0.40659142774E+02  0.00000000000E+00 0.  1.
         11    1    3    3    0    0  0.22447334067E+01 -0.21749381545E+02 -0.91174868956E+01  0.23689723367E+02  0.51100000000E-03 0. -1.
        -11    1    3    3    0    0 -0.13135209913E+02 -0.26716189831E+01 -0.13991048262E+02  0.19375776608E+02  0.51100000000E-03 0.  1.
         12    1    3    3    0    0 -0.30754782769E+01 -0.67239960961E+01  0.10153872738E+01  0.74633572505E+01  0.00000000000E+00 0. -1.
</event>
<event>
 7    1  0.5714431E-011  0.5052886E+02  0.7816164E-02  0.1300439E+00
        -11   -1    0    0    0    0  0.00000000000E+00  0.00000000000E+00  0.45593999997E+02  0.45594000000E+02  0.51100000000E-03 0. -1.
         11   -1    0    0    0    0 -0.00000000000E+00 -0.00000000000E+00 -0.45593999997E+02  0.45594000000E+02  0.51100000000E-03 0.  1.
    9900012    2    1    2    0    0 -0.22701720879E+02 -0.20220576323E+02  0.26998624647E+02  0.50528861168E+02  0.30000004007E+02 0.  0.
        -12    1    1    2    0    0  0.22701720879E+02  0.20220576323E+02 -0.26998624647E+02  0.40659138832E+02  0.00000000000E+00 0.  1.
         11    1    3    3    0    0 -0.13465480176E+02 -0.18207996530E+02  0.97328392831E+01  0.24649106572E+02  0.51100000000E-03 0. -1.
        -11    1    3    3    0    0  0.16271410524E+01  0.51348807776E+01  0.18128306620E+01  0.56833919339E+01  0.51100000000E-03 0.  1.
         12    1    3    3    0    0 -0.10863381755E+02 -0.71474605705E+01  0.15452954702E+02  0.20196362663E+02  0.00000000000E+00 0. -1.
</event>
<event>
 7    1  0.5714431E-011  0.5052885E+02  0.7816164E-02  0.1300439E+00
        -11   -1    0    0    0    0  0.00000000000E+00  0.00000000000E+00  0.45593999997E+02  0.45594000000E+02  0.51100000000E-03 0. -1.
         11   -1    0    0    0    0 -0.00000000000E+00 -0.00000000000E+00 -0.45593999997E+02  0.45594000000E+02  0.51100000000E-03 0.  1.
    9900012    2    1    2    0    0  0.39443236520E+02 -0.70534180442E+00  0.98437661402E+01  0.50528854091E+02  0.29999982496E+02 0.  0.
        -12    1    1    2    0    0 -0.39443236520E+02  0.70534180442E+00 -0.98437661402E+01  0.40659145909E+02  0.00000000000E+00 0.  1.
         11    1    3    3    0    0  0.30857650074E+02  0.43691375495E+00 -0.38949811645E+01  0.31105567673E+02  0.51100000000E-03 0. -1.
        -11    1    3    3    0    0  0.82445692551E+01  0.28624062510E+01  0.56657493734E+01  0.10405143342E+02  0.51100000000E-03 0.  1.
         12    1    3    3    0    0  0.34101719026E+00 -0.40046618104E+01  0.80729979313E+01  0.90181430759E+01  0.00000000000E+00 0. -1.
</event>
<event>
 7    1  0.5714431E-011  0.5052886E+02  0.7816164E-02  0.1300439E+00
        -11   -1    0    0    0    0  0.00000000000E+00  0.00000000000E+00  0.45593999997E+02  0.45594000000E+02  0.51100000000E-03 0. -1.
         11   -1    0    0    0    0 -0.00000000000E+00 -0.00000000000E+00 -0.45593999997E+02  0.45594000000E+02  0.51100000000E-03 0.  1.
    9900012    2    1    2    0    0 -0.23028065402E+02 -0.28392552242E+01  0.33388809696E+02  0.50528858601E+02  0.29999996205E+02 0.  0.
        -12    1    1    2    0    0  0.23028065402E+02  0.28392552242E+01 -0.33388809696E+02  0.40659141399E+02  0.00000000000E+00 0.  1.
         11    1    3    3    0    0  0.42420564116E+01 -0.66289741657E+00  0.19132476916E+02  0.19608318357E+02  0.51100000000E-03 0. -1.
        -11    1    3    3    0    0 -0.79309867533E+01 -0.54483604959E+00  0.52344759599E+01  0.95182527828E+01  0.51100000000E-03 0.  1.
         12    1    3    3    0    0 -0.19339135060E+02 -0.16315217580E+01  0.90218568196E+01  0.21402287461E+02  0.00000000000E+00 0. -1.
</event>
<event>
 7    1  0.5714431E-011  0.5052886E+02  0.7816164E-02  0.1300439E+00
        -11   -1    0    0    0    0  0.00000000000E+00  0.00000000000E+00  0.45593999997E+02  0.45594000000E+02  0.51100000000E-03 0.  1.
         11   -1    0    0    0    0 -0.00000000000E+00 -0.00000000000E+00 -0.45593999997E+02  0.45594000000E+02  0.51100000000E-03 0. -1.
    9900012    2    1    2    0    0  0.19424040059E+02  0.27801345248E+02  0.22426712189E+02  0.50528861428E+02  0.30000004797E+02 0.  0.
        -12    1    1    2    0    0 -0.19424040059E+02 -0.27801345248E+02 -0.22426712189E+02  0.40659138572E+02  0.00000000000E+00 0.  1.
         11    1    3    3    0    0 -0.21603065433E+01  0.20821417580E+02  0.13499113197E+02  0.24908320131E+02  0.51100000000E-03 0. -1.
        -11    1    3    3    0    0  0.17841513672E+02  0.87529059154E+01  0.74394707016E+01  0.21219771362E+02  0.51100000000E-03 0.  1.
         12    1    3    3    0    0  0.37428329307E+01 -0.17729782475E+01  0.14881282900E+01  0.44007699350E+01  0.00000000000E+00 0. -1.
</event>
<event>
 7    1  0.5714431E-011  0.5052886E+02  0.7816164E-02  0.1300439E+00
        -11   -1    0    0    0    0  0.00000000000E+00  0.00000000000E+00  0.45593999997E+02  0.45594000000E+02  0.51100000000E-03 0. -1.
         11   -1    0    0    0    0 -0.00000000000E+00 -0.00000000000E+00 -0.45593999997E+02  0.45594000000E+02  0.51100000000E-03 0.  1.
    9900012    2    1    2    0    0  0.23263807639E+02  0.33288608712E+02 -0.19569640035E+01  0.50528856823E+02  0.29999990798E+02 0.  0.
        -12    1    1    2    0    0 -0.23263807639E+02 -0.33288608712E+02  0.19569640035E+01  0.40659143177E+02  0.00000000000E+00 0.  1.
         11    1    3    3    0    0  0.44829141710E+01  0.21354970548E+02 -0.83029157333E+00  0.21836223825E+02  0.51100000000E-03 0. -1.
        -11    1    3    3    0    0  0.76337505020E+01 -0.54238565650E+00 -0.75698311453E+01  0.10764324073E+02  0.51100000000E-03 0.  1.
        -12    1    3    3    0    0  0.11147142966E+02  0.12476023820E+02  0.64431587151E+01  0.17928308924E+02  0.00000000000E+00 0.  1.
</event>
<event>
 7    1  0.5714431E-011  0.5052886E+02  0.7816164E-02  0.1300439E+00
        -11   -1    0    0    0    0  0.00000000000E+00  0.00000000000E+00  0.45593999997E+02  0.45594000000E+02  0.51100000000E-03 0.  1.
         11   -1    0    0    0    0 -0.00000000000E+00 -0.00000000000E+00 -0.45593999997E+02  0.45594000000E+02  0.51100000000E-03 0. -1.
    9900012    2    1    2    0    0 -0.27941693181E+01  0.34340373623E+02 -0.21589282740E+02  0.50528858691E+02  0.29999996477E+02 0.  0.
        -12    1    1    2    0    0  0.27941693181E+01 -0.34340373623E+02  0.21589282740E+02  0.40659141309E+02  0.00000000000E+00 0.  1.
         11    1    3    3    0    0 -0.19276122378E+00  0.92537571613E+01  0.22302477063E+01  0.95206713829E+01  0.51100000000E-03 0. -1.
        -11    1    3    3    0    0 -0.84718799367E+01  0.39340128415E+01 -0.14301125524E+02  0.17081317228E+02  0.51100000000E-03 0.  1.
        -12    1    3    3    0    0  0.58704718423E+01  0.21152603621E+02 -0.95184049219E+01  0.23926870080E+02  0.00000000000E+00 0.  1.
</event>
<event>
 7    1  0.5714431E-011  0.5052886E+02  0.7816164E-02  0.1300439E+00
        -11   -1    0    0    0    0  0.00000000000E+00  0.00000000000E+00  0.45593999997E+02  0.45594000000E+02  0.51100000000E-03 0.  1.
         11   -1    0    0    0    0 -0.00000000000E+00 -0.00000000000E+00 -0.45593999997E+02  0.45594000000E+02  0.51100000000E-03 0. -1.
    9900012    2    1    2    0    0 -0.22449112089E+02 -0.27487175164E+02 -0.19840820479E+02  0.50528860937E+02  0.30000003303E+02 0.  0.
        -12    1    1    2    0    0  0.22449112089E+02  0.27487175164E+02  0.19840820479E+02  0.40659139063E+02  0.00000000000E+00 0.  1.
         11    1    3    3    0    0 -0.17988095253E+02 -0.15101637521E+02 -0.17936301054E+02  0.29552359000E+02  0.51100000000E-03 0. -1.
        -11    1    3    3    0    0  0.10500050041E+01 -0.13788247752E+02  0.21473544829E+01  0.13993906464E+02  0.51100000000E-03 0.  1.
        -12    1    3    3    0    0 -0.55110218406E+01  0.14027101101E+01 -0.40518739076E+01  0.69825954733E+01  0.00000000000E+00 0.  1.
</event>
<event>
 7    1  0.5714431E-011  0.5052885E+02  0.7816164E-02  0.1300439E+00
        -11   -1    0    0    0    0  0.00000000000E+00  0.00000000000E+00  0.45593999997E+02  0.45594000000E+02  0.51100000000E-03 0.  1.
         11   -1    0    0    0    0 -0.00000000000E+00 -0.00000000000E+00 -0.45593999997E+02  0.45594000000E+02  0.51100000000E-03 0. -1.
    9900012    2    1    2    0    0 -0.52685466140E+01  0.33340774213E+02 -0.22667197397E+02  0.50528847938E+02  0.29999963793E+02 0.  0.
        -12    1    1    2    0    0  0.52685466140E+01 -0.33340774213E+02  0.22667197397E+02  0.40659152062E+02  0.00000000000E+00 0.  1.
         11    1    3    3    0    0 -0.50908157988E+01 -0.21700245157E+01 -0.10049032326E+02  0.11472073171E+02  0.51100000000E-03 0. -1.
        -11    1    3    3    0    0  0.20975815090E+01  0.68274650076E+01  0.10198866732E+01  0.72148662984E+01  0.51100000000E-03 0.  1.
         12    1    3    3    0    0 -0.22753123242E+01  0.28683333721E+02 -0.13638051744E+02  0.31841908468E+02  0.00000000000E+00 0. -1.
</event>
<event>
 7    1  0.5714431E-011  0.5052886E+02  0.7816164E-02  0.1300439E+00
        -11   -1    0    0    0    0  0.00000000000E+00  0.00000000000E+00  0.45593999997E+02  0.45594000000E+02  0.51100000000E-03 0.  1.
         11   -1    0    0    0    0 -0.00000000000E+00 -0.00000000000E+00 -0.45593999997E+02  0.45594000000E+02  0.51100000000E-03 0. -1.
    9900012    2    1    2    0    0 -0.29466732114E+02  0.14896440355E+02 -0.23727055692E+02  0.50528863160E+02  0.30000010061E+02 0.  0.
        -12    1    1    2    0    0  0.29466732114E+02 -0.14896440355E+02  0.23727055692E+02  0.40659136840E+02  0.00000000000E+00 0.  1.
         11    1    3    3    0    0  0.96362697839E+00 -0.14082324591E+01 -0.12107615325E+02  0.12227266446E+02  0.51100000000E-03 0. -1.
        -11    1    3    3    0    0 -0.13005290172E+02  0.96480591607E+01  0.24446044577E+00  0.16195134430E+02  0.51100000000E-03 0.  1.
         12    1    3    3    0    0 -0.17425068921E+02  0.66566136535E+01 -0.11863900813E+02  0.22106462284E+02  0.00000000000E+00 0. -1.
</event>
<event>
 7    1  0.5714431E-011  0.5052886E+02  0.7816164E-02  0.1300439E+00
        -11   -1    0    0    0    0  0.00000000000E+00  0.00000000000E+00  0.45593999997E+02  0.45594000000E+02  0.51100000000E-03 0.  1.
         11   -1    0    0    0    0 -0.00000000000E+00 -0.00000000000E+00 -0.45593999997E+02  0.45594000000E+02  0.51100000000E-03 0. -1.
    9900012    2    1    2    0    0  0.15136808486E+02  0.11787989960E+02 -0.35848100177E+02  0.50528856321E+02  0.29999989272E+02 0.  0.
        -12    1    1    2    0    0 -0.15136808486E+02 -0.11787989960E+02  0.35848100177E+02  0.40659143679E+02  0.00000000000E+00 0.  1.
         11    1    3    3    0    0 -0.27262545276E+01  0.52355346970E+01 -0.11902167401E+02  0.13285513781E+02  0.51100000000E-03 0. -1.
        -11    1    3    3    0    0  0.20927785373E+02  0.15515960091E+01 -0.12616811237E+02  0.24485987357E+02  0.51100000000E-03 0.  1.
        -12    1    3    3    0    0 -0.30647223593E+01  0.50008592541E+01 -0.11329121538E+02  0.12757355182E+02  0.00000000000E+00 0.  1.
</event>
<event>
 7    1  0.5714431E-011  0.5052885E+02  0.7816164E-02  0.1300439E+00
        -11   -1    0    0    0    0  0.00000000000E+00  0.00000000000E+00  0.45593999997E+02  0.45594000000E+02  0.51100000000E-03 0.  1.
         11   -1    0    0    0    0 -0.00000000000E+00 -0.00000000000E+00 -0.45593999997E+02  0.45594000000E+02  0.51100000000E-03 0. -1.
    9900012    2    1    2    0    0  0.11234258052E+02  0.23838753646E+02 -0.30962420505E+02  0.50528853269E+02  0.29999979996E+02 0.  0.
        -12    1    1    2    0    0 -0.11234258052E+02 -0.23838753646E+02  0.30962420505E+02  0.40659146731E+02  0.00000000000E+00 0.  1.
         11    1    3    3    0    0 -0.36673291844E+01 -0.37697091578E+01 -0.13659054840E+02  0.14636590787E+02  0.51100000000E-03 0. -1.
        -11    1    3    3    0    0  0.51529829086E+01  0.10082438688E+02 -0.51198424409E+01  0.12426648367E+02  0.51100000000E-03 0.  1.
         12    1    3    3    0    0  0.97486043275E+01  0.17526024116E+02 -0.12183523224E+02  0.23465614115E+02  0.00000000000E+00 0. -1.
</event>
<event>
 7    1  0.5714431E-011  0.5052887E+02  0.7816164E-02  0.1300439E+00
        -11   -1    0    0    0    0  0.00000000000E+00  0.00000000000E+00  0.45593999997E+02  0.45594000000E+02  0.51100000000E-03 0.  1.
         11   -1    0    0    0    0 -0.00000000000E+00 -0.00000000000E+00 -0.45593999997E+02  0.45594000000E+02  0.51100000000E-03 0. -1.
    9900012    2    1    2    0    0  0.52092023906E+01  0.66440231580E+01 -0.39772933828E+02  0.50528866972E+02  0.30000021648E+02 0.  0.
        -12    1    1    2    0    0 -0.52092023906E+01 -0.66440231580E+01  0.39772933828E+02  0.40659133028E+02  0.00000000000E+00 0.  1.
         11    1    3    3    0    0  0.19617433427E+01  0.16114740286E+02 -0.11311966384E+02  0.19786204162E+02  0.51100000000E-03 0. -1.
        -11    1    3    3    0    0 -0.11230585683E+01 -0.58078161337E+01 -0.14053570126E+02  0.15247780899E+02  0.51100000000E-03 0.  1.
         12    1    3    3    0    0  0.43705176162E+01 -0.36629009944E+01 -0.14407397319E+02  0.15494881911E+02  0.00000000000E+00 0. -1.
</event>
<event>
 7    1  0.5714431E-011  0.5052886E+02  0.7816164E-02  0.1300439E+00
        -11   -1    0    0    0    0  0.00000000000E+00  0.00000000000E+00  0.45593999997E+02  0.45594000000E+02  0.51100000000E-03 0. -1.
         11   -1    0    0    0    0 -0.00000000000E+00 -0.00000000000E+00 -0.45593999997E+02  0.45594000000E+02  0.51100000000E-03 0.  1.
    9900012    2    1    2    0    0  0.30840051577E+02 -0.17256101640E+02  0.20106820879E+02  0.50528855015E+02  0.29999985303E+02 0.  0.
        -12    1    1    2    0    0 -0.30840051577E+02  0.17256101640E+02 -0.20106820879E+02  0.40659144985E+02  0.00000000000E+00 0.  1.
         11    1    3    3    0    0  0.38790124003E+01 -0.16148227762E+02  0.11043657537E+02  0.19944281614E+02  0.51100000000E-03 0. -1.
        -11    1    3    3    0    0  0.91873445154E+01  0.38923757920E+01 -0.86377617490E-01  0.99782438287E+01  0.51100000000E-03 0.  1.
         12    1    3    3    0    0  0.17773694661E+02 -0.50002496702E+01  0.91495409588E+01  0.20606329572E+02  0.00000000000E+00 0. -1.
</event>
<event>
 7    1  0.5714431E-011  0.5052885E+02  0.7816164E-02  0.1300439E+00
        -11   -1    0    0    0    0  0.00000000000E+00  0.00000000000E+00  0.45593999997E+02  0.45594000000E+02  0.51100000000E-03 0.  1.
         11   -1    0    0    0    0 -0.00000000000E+00 -0.00000000000E+00 -0.45593999997E+02  0.45594000000E+02  0.51100000000E-03 0. -1.
    9900012    2    1    2    0    0 -0.28296780960E+02 -0.99698446072E+01 -0.27441947261E+02  0.50528854858E+02  0.29999984827E+02 0.  0.
        -12    1    1    2    0    0  0.28296780960E+02  0.99698446072E+01  0.27441947261E+02  0.40659145142E+02  0.00000000000E+00 0.  1.
         11    1    3    3    0    0  0.15310950226E+01  0.35828515300E+01 -0.12381825719E+02  0.12980396197E+02  0.51100000000E-03 0. -1.
        -11    1    3    3    0    0 -0.15607970908E+02 -0.14405775870E+01 -0.59435874445E+01  0.16763360392E+02  0.51100000000E-03 0.  1.
         12    1    3    3    0    0 -0.14219905074E+02 -0.12112118550E+02 -0.91165340980E+01  0.20785098269E+02  0.00000000000E+00 0. -1.
</event>
<event>
 7    1  0.5714431E-011  0.5052887E+02  0.7816164E-02  0.1300439E+00
        -11   -1    0    0    0    0  0.00000000000E+00  0.00000000000E+00  0.45593999997E+02  0.45594000000E+02  0.51100000000E-03 0. -1.
         11   -1    0    0    0    0 -0.00000000000E+00 -0.00000000000E+00 -0.45593999997E+02  0.45594000000E+02  0.51100000000E-03 0.  1.
    9900012    2    1    2    0    0 -0.24941407660E+01 -0.37163985331E+02  0.16302824846E+02  0.50528872589E+02  0.30000038723E+02 0.  0.
        -12    1    1    2    0    0  0.24941407660E+01  0.37163985331E+02 -0.16302824846E+02  0.40659127411E+02  0.00000000000E+00 0.  1.
         11    1    3    3    0    0  0.82977993721E+01 -0.13989427860E+02  0.23213467872E+01  0.16430040093E+02  0.51100000000E-03 0. -1.
        -11    1    3    3    0    0 -0.84604112408E+01 -0.79890955023E+01  0.14664370686E+02  0.18720255692E+02  0.51100000000E-03 0.  1.
        -12    1    3    3    0    0 -0.23315288973E+01 -0.15185461968E+02 -0.68289262752E+00  0.15378576804E+02  0.00000000000E+00 0.  1.
</event>
<event>
 7    1  0.5714431E-011  0.5052878E+02  0.7816164E-02  0.1300439E+00
        -11   -1    0    0    0    0  0.00000000000E+00  0.00000000000E+00  0.45593999997E+02  0.45594000000E+02  0.51100000000E-03 0.  1.
         11   -1    0    0    0    0 -0.00000000000E+00 -0.00000000000E+00 -0.45593999997E+02  0.45594000000E+02  0.51100000000E-03 0. -1.
    9900012    2    1    2    0    0  0.37589382747E+02  0.10192594791E+02 -0.11675696685E+02  0.50528775008E+02  0.29999742113E+02 0.  0.
        -12    1    1    2    0    0 -0.37589382747E+02 -0.10192594791E+02  0.11675696685E+02  0.40659224992E+02  0.00000000000E+00 0.  1.
         11    1    3    3    0    0  0.79837825782E+01  0.23925178826E+01 -0.70898157011E+01  0.10942139325E+02  0.51100000000E-03 0. -1.
        -11    1    3    3    0    0  0.12367780105E+02  0.57610361786E+01  0.99983750186E+01  0.16915053232E+02  0.51100000000E-03 0.  1.
        -12    1    3    3    0    0  0.17237820064E+02  0.20390407299E+01 -0.14584256003E+02  0.22671582450E+02  0.00000000000E+00 0.  1.
</event>
<event>
 7    1  0.5714431E-011  0.5052886E+02  0.7816164E-02  0.1300439E+00
        -11   -1    0    0    0    0  0.00000000000E+00  0.00000000000E+00  0.45593999997E+02  0.45594000000E+02  0.51100000000E-03 0. -1.
         11   -1    0    0    0    0 -0.00000000000E+00 -0.00000000000E+00 -0.45593999997E+02  0.45594000000E+02  0.51100000000E-03 0.  1.
    9900012    2    1    2    0    0 -0.17577791693E+02  0.84557208444E+01  0.35674744364E+02  0.50528863742E+02  0.30000011830E+02 0.  0.
        -12    1    1    2    0    0  0.17577791693E+02 -0.84557208444E+01 -0.35674744364E+02  0.40659136258E+02  0.00000000000E+00 0.  1.
         11    1    3    3    0    0  0.63590732677E+01 -0.15997424533E+01  0.86438027102E+01  0.10849530602E+02  0.51100000000E-03 0. -1.
        -11    1    3    3    0    0 -0.12674985227E+02  0.12002304301E+02  0.14251028343E+02  0.22534470665E+02  0.51100000000E-03 0.  1.
        -12    1    3    3    0    0 -0.11261879734E+02 -0.19468410038E+01  0.12779913311E+02  0.17144862475E+02  0.00000000000E+00 0.  1.
</event>
<event>
 7    1  0.5714431E-011  0.5052885E+02  0.7816164E-02  0.1300439E+00
        -11   -1    0    0    0    0  0.00000000000E+00  0.00000000000E+00  0.45593999997E+02  0.45594000000E+02  0.51100000000E-03 0.  1.
         11   -1    0    0    0    0 -0.00000000000E+00 -0.00000000000E+00 -0.45593999997E+02  0.45594000000E+02  0.51100000000E-03 0. -1.
    9900012    2    1    2    0    0  0.16728187270E+02  0.36406974233E+02 -0.69185317612E+01  0.50528854610E+02  0.29999984072E+02 0.  0.
        -12    1    1    2    0    0 -0.16728187270E+02 -0.36406974233E+02  0.69185317612E+01  0.40659145390E+02  0.00000000000E+00 0.  1.
         11    1    3    3    0    0  0.62192002517E+01  0.21164627854E+02  0.20729983080E+01  0.22156652415E+02  0.51100000000E-03 0. -1.
        -11    1    3    3    0    0  0.16763640834E+01  0.96945637484E+01 -0.13750266562E+02  0.16907530677E+02  0.51100000000E-03 0.  1.
        -12    1    3    3    0    0  0.88326229350E+01  0.55477826298E+01  0.47587364923E+01  0.11464671518E+02  0.00000000000E+00 0.  1.
</event>
<event>
 7    1  0.5714431E-011  0.5052886E+02  0.7816164E-02  0.1300439E+00
        -11   -1    0    0    0    0  0.00000000000E+00  0.00000000000E+00  0.45593999997E+02  0.45594000000E+02  0.51100000000E-03 0.  1.
         11   -1    0    0    0    0 -0.00000000000E+00 -0.00000000000E+00 -0.45593999997E+02  0.45594000000E+02  0.51100000000E-03 0. -1.
    9900012    2    1    2    0    0  0.11554022548E+02  0.20900156559E+02 -0.32906741103E+02  0.50528860913E+02  0.30000003232E+02 0.  0.
        -12    1    1    2    0    0 -0.11554022548E+02 -0.20900156559E+02  0.32906741103E+02  0.40659139087E+02  0.00000000000E+00 0.  1.
         11    1    3    3    0    0  0.87886930110E-01 -0.44452785897E+01  0.75164753109E+00  0.45092349822E+01  0.51100000000E-03 0. -1.
        -11    1    3    3    0    0  0.28795049685E+01  0.16093357368E+02 -0.98904835469E+01  0.19107835180E+02  0.51100000000E-03 0.  1.
         12    1    3    3    0    0  0.85866306495E+01  0.92520777809E+01 -0.23767905087E+02  0.26911790751E+02  0.00000000000E+00 0. -1.
</event>
<event>
 7    1  0.5714431E-011  0.5052885E+02  0.7816164E-02  0.1300439E+00
        -11   -1    0    0    0    0  0.00000000000E+00  0.00000000000E+00  0.45593999997E+02  0.45594000000E+02  0.51100000000E-03 0.  1.
         11   -1    0    0    0    0 -0.00000000000E+00 -0.00000000000E+00 -0.45593999997E+02  0.45594000000E+02  0.51100000000E-03 0. -1.
    9900012    2    1    2    0    0 -0.67149861371E+00  0.26645569061E+02 -0.30703892361E+02  0.50528852602E+02  0.29999977969E+02 0.  0.
        -12    1    1    2    0    0  0.67149861371E+00 -0.26645569061E+02  0.30703892361E+02  0.40659147398E+02  0.00000000000E+00 0.  1.
         11    1    3    3    0    0  0.45560233388E+01  0.74822885909E+01 -0.17477601846E+02  0.19550154930E+02  0.51100000000E-03 0. -1.
        -11    1    3    3    0    0 -0.22893982588E+01  0.23016970686E+02 -0.10322866276E+02  0.25329505568E+02  0.51100000000E-03 0.  1.
        -12    1    3    3    0    0 -0.29381236938E+01 -0.38536902151E+01 -0.29034242395E+01  0.56491921040E+01  0.00000000000E+00 0.  1.
</event>
<event>
 7    1  0.5714431E-011  0.5052876E+02  0.7816164E-02  0.1300439E+00
        -11   -1    0    0    0    0  0.00000000000E+00  0.00000000000E+00  0.45593999997E+02  0.45594000000E+02  0.51100000000E-03 0.  1.
         11   -1    0    0    0    0 -0.00000000000E+00 -0.00000000000E+00 -0.45593999997E+02  0.45594000000E+02  0.51100000000E-03 0. -1.
    9900012    2    1    2    0    0  0.19675193222E+02 -0.35354444854E+02  0.40154356219E+01  0.50528760921E+02  0.29999699294E+02 0.  0.
        -12    1    1    2    0    0 -0.19675193222E+02  0.35354444854E+02 -0.40154356219E+01  0.40659239079E+02  0.00000000000E+00 0.  1.
         11    1    3    3    0    0  0.58985374194E+01 -0.17938368069E+02 -0.83665135045E+00  0.18901792995E+02  0.51100000000E-03 0. -1.
        -11    1    3    3    0    0 -0.74912240571E+00  0.10634570627E+01 -0.57110976252E+01  0.58573681504E+01  0.51100000000E-03 0.  1.
        -12    1    3    3    0    0  0.14525778209E+02 -0.18479533847E+02  0.10563184598E+02  0.25769599776E+02  0.00000000000E+00 0.  1.
</event>
<event>
 7    1  0.5714431E-011  0.5052887E+02  0.7816164E-02  0.1300439E+00
        -11   -1    0    0    0    0  0.00000000000E+00  0.00000000000E+00  0.45593999997E+02  0.45594000000E+02  0.51100000000E-03 0. -1.
         11   -1    0    0    0    0 -0.00000000000E+00 -0.00000000000E+00 -0.45593999997E+02  0.45594000000E+02  0.51100000000E-03 0.  1.
    9900012    2    1    2    0    0 -0.34485879590E+02 -0.52458899014E+01  0.20889461521E+02  0.50528869973E+02  0.30000030769E+02 0.  0.
        -12    1    1    2    0    0  0.34485879590E+02  0.52458899014E+01 -0.20889461521E+02  0.40659130027E+02  0.00000000000E+00 0.  1.
         11    1    3    3    0    0 -0.15813369207E+02  0.41726328398E+01  0.11229946887E+01  0.16393127458E+02  0.51100000000E-03 0.  1.
        -11    1    3    3    0    0 -0.95403723176E+01 -0.14416202930E+02  0.13929302548E+02  0.22200700002E+02  0.51100000000E-03 0. -1.
        -12    1    3    3    0    0 -0.91321380647E+01  0.49976801884E+01  0.58371642846E+01  0.11935042513E+02  0.00000000000E+00 0.  1.
</event>
<event>
 7    1  0.5714431E-011  0.5052886E+02  0.7816164E-02  0.1300439E+00
        -11   -1    0    0    0    0  0.00000000000E+00  0.00000000000E+00  0.45593999997E+02  0.45594000000E+02  0.51100000000E-03 0.  1.
         11   -1    0    0    0    0 -0.00000000000E+00 -0.00000000000E+00 -0.45593999997E+02  0.45594000000E+02  0.51100000000E-03 0. -1.
    9900012    2    1    2    0    0 -0.37469865576E+02  0.34765040743E+01 -0.15397676831E+02  0.50528863774E+02  0.30000011927E+02 0.  0.
        -12    1    1    2    0    0  0.37469865576E+02 -0.34765040743E+01  0.15397676831E+02  0.40659136226E+02  0.00000000000E+00 0.  1.
         11    1    3    3    0    0  0.72315748192E+00 -0.26738895762E+01 -0.25963976424E+01  0.37965672900E+01  0.51100000000E-03 0. -1.
        -11    1    3    3    0    0 -0.33837083403E+02 -0.29056274852E+01 -0.57227939454E+01  0.34440401495E+02  0.51100000000E-03 0.  1.
        -12    1    3    3    0    0 -0.43559396547E+01  0.90560211357E+01 -0.70784852428E+01  0.12291894989E+02  0.00000000000E+00 0.  1.
</event>
<event>
 7    1  0.5714431E-011  0.5052887E+02  0.7816164E-02  0.1300439E+00
        -11   -1    0    0    0    0  0.00000000000E+00  0.00000000000E+00  0.45593999997E+02  0.45594000000E+02  0.51100000000E-03 0. -1.
         11   -1    0    0    0    0 -0.00000000000E+00 -0.00000000000E+00 -0.45593999997E+02  0.45594000000E+02  0.51100000000E-03 0.  1.
    9900012    2    1    2    0    0  0.20698483053E+02 -0.13753432190E+01  0.34969217901E+02  0.50528868549E+02  0.30000026443E+02 0.  0.
        -12    1    1    2    0    0 -0.20698483053E+02  0.13753432190E+01 -0.34969217901E+02  0.40659131451E+02  0.00000000000E+00 0.  1.
         11    1    3    3    0    0  0.13186655539E+01  0.64238725824E+01  0.20088217186E+02  0.21131528288E+02  0.51100000000E-03 0. -1.
        -11    1    3    3    0    0  0.16263709752E+02 -0.23421712977E+01  0.41269131936E+01  0.16941824992E+02  0.51100000000E-03 0.  1.
        -12    1    3    3    0    0  0.31161077474E+01 -0.54570445038E+01  0.10754087521E+02  0.12455515269E+02  0.00000000000E+00 0.  1.
</event>
<event>
 7    1  0.5714431E-011  0.5052887E+02  0.7816164E-02  0.1300439E+00
        -11   -1    0    0    0    0  0.00000000000E+00  0.00000000000E+00  0.45593999997E+02  0.45594000000E+02  0.51100000000E-03 0.  1.
         11   -1    0    0    0    0 -0.00000000000E+00 -0.00000000000E+00 -0.45593999997E+02  0.45594000000E+02  0.51100000000E-03 0. -1.
    9900012    2    1    2    0    0 -0.16655193466E+01  0.16062168749E+02 -0.37314849051E+02  0.50528865979E+02  0.30000018630E+02 0.  0.
        -12    1    1    2    0    0  0.16655193466E+01 -0.16062168749E+02  0.37314849051E+02  0.40659134021E+02  0.00000000000E+00 0.  1.
         11    1    3    3    0    0  0.41823405677E+01  0.24630434320E+01 -0.25185538552E+02  0.25648974794E+02  0.51100000000E-03 0. -1.
        -11    1    3    3    0    0 -0.61031372590E+01  0.14304234707E+02 -0.15183659728E+02  0.21734832365E+02  0.51100000000E-03 0.  1.
         12    1    3    3    0    0  0.25527734462E+00 -0.70510938935E+00  0.30543492283E+01  0.31450588202E+01  0.00000000000E+00 0. -1.
</event>
<event>
 7    1  0.5714431E-011  0.5052888E+02  0.7816164E-02  0.1300439E+00
        -11   -1    0    0    0    0  0.00000000000E+00  0.00000000000E+00  0.45593999997E+02  0.45594000000E+02  0.51100000000E-03 0.  1.
         11   -1    0    0    0    0 -0.00000000000E+00 -0.00000000000E+00 -0.45593999997E+02  0.45594000000E+02  0.51100000000E-03 0. -1.
    9900012    2    1    2    0    0 -0.20633069463E+02  0.22291315902E+02 -0.27028456627E+02  0.50528883092E+02  0.30000070646E+02 0.  0.
        -12    1    1    2    0    0  0.20633069463E+02 -0.22291315902E+02  0.27028456627E+02  0.40659116908E+02  0.00000000000E+00 0.  1.
         11    1    3    3    0    0 -0.10674228126E+01  0.66494464439E+01  0.21224411428E+01  0.70611108289E+01  0.51100000000E-03 0.  1.
        -11    1    3    3    0    0 -0.84384388549E+01 -0.28479251542E+01 -0.15667714136E+02  0.18022075200E+02  0.51100000000E-03 0. -1.
        -12    1    3    3    0    0 -0.11127207795E+02  0.18489794612E+02 -0.13483183633E+02  0.25445697063E+02  0.00000000000E+00 0.  1.
</event>
<event>
 7    1  0.5714431E-011  0.5052885E+02  0.7816164E-02  0.1300439E+00
        -11   -1    0    0    0    0  0.00000000000E+00  0.00000000000E+00  0.45593999997E+02  0.45594000000E+02  0.51100000000E-03 0.  1.
         11   -1    0    0    0    0 -0.00000000000E+00 -0.00000000000E+00 -0.45593999997E+02  0.45594000000E+02  0.51100000000E-03 0. -1.
    9900012    2    1    2    0    0  0.12172925019E+02  0.20555885722E+02 -0.32900485156E+02  0.50528850171E+02  0.29999970580E+02 0.  0.
        -12    1    1    2    0    0 -0.12172925019E+02 -0.20555885722E+02  0.32900485156E+02  0.40659149829E+02  0.00000000000E+00 0.  1.
         11    1    3    3    0    0 -0.44762855306E+01  0.11108577350E+02 -0.28202774208E+02  0.30640399739E+02  0.51100000000E-03 0.  1.
        -11    1    3    3    0    0  0.74201036198E+01  0.56781607011E+01 -0.26396974370E+01  0.97091425727E+01  0.51100000000E-03 0. -1.
        -12    1    3    3    0    0  0.92291069294E+01  0.37691476704E+01 -0.20580135111E+01  0.10179307859E+02  0.00000000000E+00 0.  1.
</event>
<event>
 7    1  0.5714431E-011  0.5052879E+02  0.7816164E-02  0.1300439E+00
        -11   -1    0    0    0    0  0.00000000000E+00  0.00000000000E+00  0.45593999997E+02  0.45594000000E+02  0.51100000000E-03 0.  1.
         11   -1    0    0    0    0 -0.00000000000E+00 -0.00000000000E+00 -0.45593999997E+02  0.45594000000E+02  0.51100000000E-03 0. -1.
    9900012    2    1    2    0    0 -0.30270923763E+02 -0.20211420928E+02 -0.18120180726E+02  0.50528790576E+02  0.29999789434E+02 0.  0.
        -12    1    1    2    0    0  0.30270923763E+02  0.20211420928E+02  0.18120180726E+02  0.40659209424E+02  0.00000000000E+00 0.  1.
         11    1    3    3    0    0 -0.21732332693E+02 -0.62414799403E+01 -0.16374501874E+02  0.27917282604E+02  0.51100000000E-03 0. -1.
        -11    1    3    3    0    0 -0.11388269022E+02 -0.14610481416E+02  0.10688221683E+01  0.18555355551E+02  0.51100000000E-03 0.  1.
         12    1    3    3    0    0  0.28496779519E+01  0.64054042783E+00 -0.28145010205E+01  0.40561524212E+01  0.00000000000E+00 0. -1.
</event>
<event>
 7    1  0.5714431E-011  0.5052886E+02  0.7816164E-02  0.1300439E+00
        -11   -1    0    0    0    0  0.00000000000E+00  0.00000000000E+00  0.45593999997E+02  0.45594000000E+02  0.51100000000E-03 0. -1.
         11   -1    0    0    0    0 -0.00000000000E+00 -0.00000000000E+00 -0.45593999997E+02  0.45594000000E+02  0.51100000000E-03 0.  1.
    9900012    2    1    2    0    0 -0.32480072974E+02 -0.20908035662E+02  0.12691111418E+02  0.50528863207E+02  0.30000010205E+02 0.  0.
        -12    1    1    2    0    0  0.32480072974E+02  0.20908035662E+02 -0.12691111418E+02  0.40659136793E+02  0.00000000000E+00 0.  1.
         11    1    3    3    0    0 -0.18413377327E+02 -0.35101196145E+01  0.35479913694E+01  0.19077778888E+02  0.51100000000E-03 0. -1.
        -11    1    3    3    0    0 -0.18839722879E+02 -0.10292978824E+02  0.74637321886E+01  0.22728569459E+02  0.51100000000E-03 0.  1.
        -12    1    3    3    0    0  0.47730272311E+01 -0.71049372233E+01  0.16793878604E+01  0.87225148599E+01  0.00000000000E+00 0.  1.
</event>
<event>
 7    1  0.5714431E-011  0.5052886E+02  0.7816164E-02  0.1300439E+00
        -11   -1    0    0    0    0  0.00000000000E+00  0.00000000000E+00  0.45593999997E+02  0.45594000000E+02  0.51100000000E-03 0.  1.
         11   -1    0    0    0    0 -0.00000000000E+00 -0.00000000000E+00 -0.45593999997E+02  0.45594000000E+02  0.51100000000E-03 0. -1.
    9900012    2    1    2    0    0  0.38650839744E+02  0.66638262155E+01 -0.10717805392E+02  0.50528863940E+02  0.30000012432E+02 0.  0.
        -12    1    1    2    0    0 -0.38650839744E+02 -0.66638262155E+01  0.10717805392E+02  0.40659136060E+02  0.00000000000E+00 0.  1.
         11    1    3    3    0    0  0.11076827427E+02  0.11795592215E+02 -0.84675130844E+00  0.16203366613E+02  0.51100000000E-03 0. -1.
        -11    1    3    3    0    0  0.13456811674E+02 -0.10952987952E+02 -0.31189240599E+01  0.17628993536E+02  0.51100000000E-03 0.  1.
        -12    1    3    3    0    0  0.14117200642E+02  0.58212219533E+01 -0.67521300239E+01  0.16696503792E+02  0.00000000000E+00 0.  1.
</event>
<event>
 7    1  0.5714431E-011  0.5052884E+02  0.7816164E-02  0.1300439E+00
        -11   -1    0    0    0    0  0.00000000000E+00  0.00000000000E+00  0.45593999997E+02  0.45594000000E+02  0.51100000000E-03 0.  1.
         11   -1    0    0    0    0 -0.00000000000E+00 -0.00000000000E+00 -0.45593999997E+02  0.45594000000E+02  0.51100000000E-03 0. -1.
    9900012    2    1    2    0    0 -0.39139856025E+01 -0.33593543828E+02 -0.22568162373E+02  0.50528838386E+02  0.29999934758E+02 0.  0.
        -12    1    1    2    0    0  0.39139856025E+01  0.33593543828E+02  0.22568162373E+02  0.40659161614E+02  0.00000000000E+00 0.  1.
         11    1    3    3    0    0  0.38605293311E+01 -0.28112869652E+02 -0.17189561916E+02  0.33177072895E+02  0.51100000000E-03 0. -1.
        -11    1    3    3    0    0 -0.97201648414E+01 -0.82189356474E+01 -0.25991723155E+01  0.12991851473E+02  0.51100000000E-03 0.  1.
         12    1    3    3    0    0  0.19456499079E+01  0.27382614706E+01 -0.27794281414E+01  0.43599140174E+01  0.00000000000E+00 0. -1.
</event>
<event>
 7    1  0.5714431E-011  0.5052886E+02  0.7816164E-02  0.1300439E+00
        -11   -1    0    0    0    0  0.00000000000E+00  0.00000000000E+00  0.45593999997E+02  0.45594000000E+02  0.51100000000E-03 0.  1.
         11   -1    0    0    0    0 -0.00000000000E+00 -0.00000000000E+00 -0.45593999997E+02  0.45594000000E+02  0.51100000000E-03 0. -1.
    9900012    2    1    2    0    0  0.45141153077E+00  0.13592768408E+02 -0.38317077902E+02  0.50528860998E+02  0.30000003491E+02 0.  0.
        -12    1    1    2    0    0 -0.45141153077E+00 -0.13592768408E+02  0.38317077902E+02  0.40659139002E+02  0.00000000000E+00 0.  1.
         11    1    3    3    0    0  0.32874340590E+01  0.90960996176E+01 -0.28264222707E+02  0.29873274619E+02  0.51100000000E-03 0. -1.
        -11    1    3    3    0    0  0.27786175781E+01  0.73187710792E+01  0.10491903421E+01  0.78984762068E+01  0.51100000000E-03 0.  1.
        -12    1    3    3    0    0 -0.56146401064E+01 -0.28221022883E+01 -0.11102045537E+02  0.12757110173E+02  0.00000000000E+00 0.  1.
</event>
<event>
 7    1  0.5714431E-011  0.5052885E+02  0.7816164E-02  0.1300439E+00
        -11   -1    0    0    0    0  0.00000000000E+00  0.00000000000E+00  0.45593999997E+02  0.45594000000E+02  0.51100000000E-03 0.  1.
         11   -1    0    0    0    0 -0.00000000000E+00 -0.00000000000E+00 -0.45593999997E+02  0.45594000000E+02  0.51100000000E-03 0. -1.
    9900012    2    1    2    0    0  0.20179750892E+02 -0.28317211598E+02  0.21073190295E+02  0.50528853821E+02  0.29999981674E+02 0.  0.
        -12    1    1    2    0    0 -0.20179750892E+02  0.28317211598E+02 -0.21073190295E+02  0.40659146179E+02  0.00000000000E+00 0.  1.
         11    1    3    3    0    0  0.39810094061E+01 -0.20312725800E+02 -0.21336422965E+01  0.20808836946E+02  0.51100000000E-03 0. -1.
        -11    1    3    3    0    0  0.51703445820E+01 -0.34310372638E+01  0.11099157326E+02  0.12715965296E+02  0.51100000000E-03 0.  1.
         12    1    3    3    0    0  0.11028396904E+02 -0.45734485345E+01  0.12107675266E+02  0.17004051580E+02  0.00000000000E+00 0. -1.
</event>
<event>
 7    1  0.5714431E-011  0.5052886E+02  0.7816164E-02  0.1300439E+00
        -11   -1    0    0    0    0  0.00000000000E+00  0.00000000000E+00  0.45593999997E+02  0.45594000000E+02  0.51100000000E-03 0. -1.
         11   -1    0    0    0    0 -0.00000000000E+00 -0.00000000000E+00 -0.45593999997E+02  0.45594000000E+02  0.51100000000E-03 0.  1.
    9900012    2    1    2    0    0  0.12813584951E+02  0.37785834775E+02  0.78235882134E+01  0.50528858329E+02  0.29999995376E+02 0.  0.
        -12    1    1    2    0    0 -0.12813584951E+02 -0.37785834775E+02 -0.78235882134E+01  0.40659141671E+02  0.00000000000E+00 0.  1.
         11    1    3    3    0    0  0.44430423782E+01  0.29296031859E+02  0.15235335940E+02  0.33318366853E+02  0.51100000000E-03 0. -1.
        -11    1    3    3    0    0  0.65881967508E+01  0.10502340582E+02 -0.43564478557E+01  0.13140857366E+02  0.51100000000E-03 0.  1.
        -12    1    3    3    0    0  0.17823458220E+01 -0.20125376669E+01 -0.30552998705E+01  0.40696341099E+01  0.00000000000E+00 0.  1.
</event>
<event>
 7    1  0.5714431E-011  0.5052885E+02  0.7816164E-02  0.1300439E+00
        -11   -1    0    0    0    0  0.00000000000E+00  0.00000000000E+00  0.45593999997E+02  0.45594000000E+02  0.51100000000E-03 0.  1.
         11   -1    0    0    0    0 -0.00000000000E+00 -0.00000000000E+00 -0.45593999997E+02  0.45594000000E+02  0.51100000000E-03 0. -1.
    9900012    2    1    2    0    0 -0.65021480804E+01  0.30219041390E+02 -0.26413968088E+02  0.50528854629E+02  0.29999984129E+02 0.  0.
        -12    1    1    2    0    0  0.65021480804E+01 -0.30219041390E+02  0.26413968088E+02  0.40659145371E+02  0.00000000000E+00 0.  1.
         11    1    3    3    0    0 -0.22758777060E+01  0.22429820577E+02 -0.12447676996E+02  0.25753080074E+02  0.51100000000E-03 0. -1.
        -11    1    3    3    0    0 -0.10465221300E+02  0.39222691540E+01 -0.13348883574E+02  0.17409702614E+02  0.51100000000E-03 0.  1.
        -12    1    3    3    0    0  0.62389509258E+01  0.38669516590E+01 -0.61740751794E+00  0.73660719404E+01  0.00000000000E+00 0.  1.
</event>
<event>
 7    1  0.5714431E-011  0.5052886E+02  0.7816164E-02  0.1300439E+00
        -11   -1    0    0    0    0  0.00000000000E+00  0.00000000000E+00  0.45593999997E+02  0.45594000000E+02  0.51100000000E-03 0. -1.
         11   -1    0    0    0    0 -0.00000000000E+00 -0.00000000000E+00 -0.45593999997E+02  0.45594000000E+02  0.51100000000E-03 0.  1.
    9900012    2    1    2    0    0  0.29224920843E+02  0.28096165696E+02 -0.31104702658E+01  0.50528861416E+02  0.30000004761E+02 0.  0.
        -12    1    1    2    0    0 -0.29224920843E+02 -0.28096165696E+02  0.31104702658E+01  0.40659138584E+02  0.00000000000E+00 0.  1.
         11    1    3    3    0    0  0.23831979850E+02  0.15344842279E+02  0.10357834428E+02  0.30178008258E+02  0.51100000000E-03 0. -1.
        -11    1    3    3    0    0  0.15503950590E+01  0.10852605691E+02 -0.99702242033E+01  0.14818506877E+02  0.51100000000E-03 0.  1.
        -12    1    3    3    0    0  0.38425459339E+01  0.18987177266E+01 -0.34980804908E+01  0.55323462816E+01  0.00000000000E+00 0.  1.
</event>
<event>
 7    1  0.5714431E-011  0.5052886E+02  0.7816164E-02  0.1300439E+00
        -11   -1    0    0    0    0  0.00000000000E+00  0.00000000000E+00  0.45593999997E+02  0.45594000000E+02  0.51100000000E-03 0.  1.
         11   -1    0    0    0    0 -0.00000000000E+00 -0.00000000000E+00 -0.45593999997E+02  0.45594000000E+02  0.51100000000E-03 0. -1.
    9900012    2    1    2    0    0  0.11090971838E+02 -0.36440540108E+02 -0.14221223245E+02  0.50528858220E+02  0.29999995046E+02 0.  0.
        -12    1    1    2    0    0 -0.11090971838E+02  0.36440540108E+02  0.14221223245E+02  0.40659141780E+02  0.00000000000E+00 0.  1.
         11    1    3    3    0    0  0.97531584097E+00 -0.26312413307E+02 -0.14145171784E+02  0.29889466708E+02  0.51100000000E-03 0. -1.
        -11    1    3    3    0    0  0.11529030406E+02 -0.79358277364E+01 -0.51666261627E+01  0.14919448050E+02  0.51100000000E-03 0.  1.
        -12    1    3    3    0    0 -0.14133744087E+01 -0.21922990651E+01  0.50905747024E+01  0.57199434622E+01  0.00000000000E+00 0.  1.
</event>
<event>
 7    1  0.5714431E-011  0.5052890E+02  0.7816164E-02  0.1300439E+00
        -11   -1    0    0    0    0  0.00000000000E+00  0.00000000000E+00  0.45593999997E+02  0.45594000000E+02  0.51100000000E-03 0.  1.
         11   -1    0    0    0    0 -0.00000000000E+00 -0.00000000000E+00 -0.45593999997E+02  0.45594000000E+02  0.51100000000E-03 0. -1.
    9900012    2    1    2    0    0  0.29538284546E+02 -0.18864876039E+02 -0.20609911239E+02  0.50528902086E+02  0.30000128379E+02 0.  0.
        -12    1    1    2    0    0 -0.29538284546E+02  0.18864876039E+02  0.20609911239E+02  0.40659097914E+02  0.00000000000E+00 0.  1.
         11    1    3    3    0    0  0.13370570393E+01  0.20191366655E+01 -0.13582621890E+02  0.13796820361E+02  0.51100000000E-03 0. -1.
        -11    1    3    3    0    0  0.80434766652E+01 -0.10338763637E+02 -0.44630277780E+01  0.13838575346E+02  0.51100000000E-03 0.  1.
         12    1    3    3    0    0  0.20157750842E+02 -0.10545249068E+02 -0.25642615715E+01  0.22893506379E+02  0.00000000000E+00 0. -1.
</event>
<event>
 7    1  0.5714431E-011  0.5052887E+02  0.7816164E-02  0.1300439E+00
        -11   -1    0    0    0    0  0.00000000000E+00  0.00000000000E+00  0.45593999997E+02  0.45594000000E+02  0.51100000000E-03 0.  1.
         11   -1    0    0    0    0 -0.00000000000E+00 -0.00000000000E+00 -0.45593999997E+02  0.45594000000E+02  0.51100000000E-03 0. -1.
    9900012    2    1    2    0    0  0.18747231417E+02  0.83289815930E+01 -0.35104619154E+02  0.50528869339E+02  0.30000028843E+02 0.  0.
        -12    1    1    2    0    0 -0.18747231417E+02 -0.83289815930E+01  0.35104619154E+02  0.40659130661E+02  0.00000000000E+00 0.  1.
         11    1    3    3    0    0  0.40235344602E+01  0.24646769384E+01 -0.11974046485E+02  0.12870169053E+02  0.51100000000E-03 0. -1.
        -11    1    3    3    0    0  0.14219904823E+02  0.12180929633E+02 -0.64312087290E+01  0.19797504536E+02  0.51100000000E-03 0.  1.
        -12    1    3    3    0    0  0.50379213418E+00 -0.63166249780E+01 -0.16699363939E+02  0.17861195750E+02  0.00000000000E+00 0.  1.
</event>
<event>
 7    1  0.5714431E-011  0.5052886E+02  0.7816164E-02  0.1300439E+00
        -11   -1    0    0    0    0  0.00000000000E+00  0.00000000000E+00  0.45593999997E+02  0.45594000000E+02  0.51100000000E-03 0. -1.
         11   -1    0    0    0    0 -0.00000000000E+00 -0.00000000000E+00 -0.45593999997E+02  0.45594000000E+02  0.51100000000E-03 0.  1.
    9900012    2    1    2    0    0 -0.11863924274E+02 -0.14045843909E+02  0.36264681657E+02  0.50528861224E+02  0.30000004178E+02 0.  0.
        -12    1    1    2    0    0  0.11863924274E+02  0.14045843909E+02 -0.36264681657E+02  0.40659138776E+02  0.00000000000E+00 0.  1.
         11    1    3    3    0    0  0.23331784419E+01  0.41167157388E+01 -0.20626675944E+01  0.51619442056E+01  0.51100000000E-03 0. -1.
        -11    1    3    3    0    0 -0.97975229264E+00 -0.18221826965E+01  0.55623721545E+00  0.21423502131E+01  0.51100000000E-03 0.  1.
         12    1    3    3    0    0 -0.13217350423E+02 -0.16340376951E+02  0.37771112036E+02  0.43224566806E+02  0.00000000000E+00 0. -1.
</event>
<event>
 7    1  0.5714431E-011  0.5052886E+02  0.7816164E-02  0.1300439E+00
        -11   -1    0    0    0    0  0.00000000000E+00  0.00000000000E+00  0.45593999997E+02  0.45594000000E+02  0.51100000000E-03 0. -1.
         11   -1    0    0    0    0 -0.00000000000E+00 -0.00000000000E+00 -0.45593999997E+02  0.45594000000E+02  0.51100000000E-03 0.  1.
    9900012    2    1    2    0    0 -0.32696930050E+02 -0.19017477705E+02  0.14913488826E+02  0.50528857831E+02  0.29999993863E+02 0.  0.
        -12    1    1    2    0    0  0.32696930050E+02  0.19017477705E+02 -0.14913488826E+02  0.40659142169E+02  0.00000000000E+00 0.  1.
         11    1    3    3    0    0 -0.17286735030E+02 -0.20379955782E+02  0.34973860578E+00  0.26726318920E+02  0.51100000000E-03 0.  1.
        -11    1    3    3    0    0 -0.76089327181E+01 -0.10110252800E+01  0.13566524904E+02  0.15587450961E+02  0.51100000000E-03 0. -1.
         12    1    3    3    0    0 -0.78012623024E+01  0.23735033578E+01  0.99722531685E+00  0.82150879504E+01  0.00000000000E+00 0. -1.
</event>
<event>
 7    1  0.5714431E-011  0.5052887E+02  0.7816164E-02  0.1300439E+00
        -11   -1    0    0    0    0  0.00000000000E+00  0.00000000000E+00  0.45593999997E+02  0.45594000000E+02  0.51100000000E-03 0.  1.
         11   -1    0    0    0    0 -0.00000000000E+00 -0.00000000000E+00 -0.45593999997E+02  0.45594000000E+02  0.51100000000E-03 0. -1.
    9900012    2    1    2    0    0 -0.28930158087E+02  0.28517027562E+02 -0.17291707564E+01  0.50528868929E+02  0.30000027597E+02 0.  0.
        -12    1    1    2    0    0  0.28930158087E+02 -0.28517027562E+02  0.17291707564E+01  0.40659131071E+02  0.00000000000E+00 0.  1.
         11    1    3    3    0    0 -0.13829766911E+02  0.63300288962E+01 -0.62616446183E+01  0.16448097526E+02  0.51100000000E-03 0. -1.
        -11    1    3    3    0    0  0.41880940777E+01  0.38537000702E+01  0.48350589484E+01  0.74678599030E+01  0.51100000000E-03 0.  1.
        -12    1    3    3    0    0 -0.19288485254E+02  0.18333298595E+02 -0.30258508654E+00  0.26612911500E+02  0.00000000000E+00 0.  1.
</event>
<event>
 7    1  0.5714431E-011  0.5052886E+02  0.7816164E-02  0.1300439E+00
        -11   -1    0    0    0    0  0.00000000000E+00  0.00000000000E+00  0.45593999997E+02  0.45594000000E+02  0.51100000000E-03 0.  1.
         11   -1    0    0    0    0 -0.00000000000E+00 -0.00000000000E+00 -0.45593999997E+02  0.45594000000E+02  0.51100000000E-03 0. -1.
    9900012    2    1    2    0    0  0.12398412600E+01 -0.26098349650E+02 -0.31152918290E+02  0.50528863527E+02  0.30000011175E+02 0.  0.
        -12    1    1    2    0    0 -0.12398412600E+01  0.26098349650E+02  0.31152918290E+02  0.40659136473E+02  0.00000000000E+00 0.  1.
         11    1    3    3    0    0  0.95058961526E+01 -0.16405619629E+02 -0.14242636758E+02  0.23714112236E+02  0.51100000000E-03 0. -1.
        -11    1    3    3    0    0 -0.78090976627E+01  0.22234338547E+01 -0.10509330529E+02  0.13280500474E+02  0.51100000000E-03 0.  1.
        -12    1    3    3    0    0 -0.45695722993E+00 -0.11916163876E+02 -0.64009510031E+01  0.13534250816E+02  0.00000000000E+00 0.  1.
</event>
<event>
 7    1  0.5714431E-011  0.5052888E+02  0.7816164E-02  0.1300439E+00
        -11   -1    0    0    0    0  0.00000000000E+00  0.00000000000E+00  0.45593999997E+02  0.45594000000E+02  0.51100000000E-03 0.  1.
         11   -1    0    0    0    0 -0.00000000000E+00 -0.00000000000E+00 -0.45593999997E+02  0.45594000000E+02  0.51100000000E-03 0. -1.
    9900012    2    1    2    0    0  0.23066172348E+02  0.31045917292E+02 -0.12540611098E+02  0.50528877850E+02  0.30000054714E+02 0.  0.
        -12    1    1    2    0    0 -0.23066172348E+02 -0.31045917292E+02  0.12540611098E+02  0.40659122150E+02  0.00000000000E+00 0.  1.
         11    1    3    3    0    0  0.10465255250E+02  0.90574392540E+01 -0.15755827877E+02  0.20971525591E+02  0.51100000000E-03 0. -1.
        -11    1    3    3    0    0  0.90628640084E+01  0.23093419039E+02  0.24789797434E+00  0.24809332127E+02  0.51100000000E-03 0.  1.
        -12    1    3    3    0    0  0.35380530894E+01 -0.11049410007E+01  0.29673188049E+01  0.47480201314E+01  0.00000000000E+00 0.  1.
</event>
<event>
 7    1  0.9601548E-011  0.5052885E+02  0.7816164E-02  0.1300439E+00
        -11   -1    0    0    0    0  0.00000000000E+00  0.00000000000E+00  0.45593999997E+02  0.45594000000E+02  0.51100000000E-03 0.  1.
         11   -1    0    0    0    0 -0.00000000000E+00 -0.00000000000E+00 -0.45593999997E+02  0.45594000000E+02  0.51100000000E-03 0. -1.
    9900012    2    1    2    0    0 -0.78181676204E+01 -0.17382885784E+02 -0.35914872509E+02  0.50528849364E+02  0.29999968126E+02 0.  0.
        -12    1    1    2    0    0  0.78181676204E+01  0.17382885784E+02  0.35914872509E+02  0.40659150636E+02  0.00000000000E+00 0.  1.
         11    1    3    3    0    0  0.26080317740E+01 -0.11593713041E+02 -0.29459411187E+02  0.31765908134E+02  0.51100000000E-03 0. -1.
        -11    1    3    3    0    0 -0.11101598084E+02 -0.29839525936E+01 -0.92432320569E+01  0.14750823442E+02  0.51100000000E-03 0.  1.
         12    1    3    3    0    0  0.67539868980E+00 -0.28052201490E+01  0.27877707347E+01  0.40121177879E+01  0.00000000000E+00 0. -1.
</event>
<event>
 7    1  0.5714431E-011  0.5052885E+02  0.7816164E-02  0.1300439E+00
        -11   -1    0    0    0    0  0.00000000000E+00  0.00000000000E+00  0.45593999997E+02  0.45594000000E+02  0.51100000000E-03 0.  1.
         11   -1    0    0    0    0 -0.00000000000E+00 -0.00000000000E+00 -0.45593999997E+02  0.45594000000E+02  0.51100000000E-03 0. -1.
    9900012    2    1    2    0    0  0.34382014851E+02  0.16398545835E+02  0.14217277783E+02  0.50528852957E+02  0.29999979049E+02 0.  0.
        -12    1    1    2    0    0 -0.34382014851E+02 -0.16398545835E+02 -0.14217277783E+02  0.40659147043E+02  0.00000000000E+00 0.  1.
         11    1    3    3    0    0  0.12520549801E+02  0.92542758812E+01  0.79189718000E+01  0.17467567204E+02  0.51100000000E-03 0. -1.
        -11    1    3    3    0    0  0.71757091622E+01 -0.81148553752E+01  0.47455674964E+01  0.11826330406E+02  0.51100000000E-03 0.  1.
        -12    1    3    3    0    0  0.14685755887E+02  0.15259125329E+02  0.15527384862E+01  0.21234955347E+02  0.00000000000E+00 0.  1.
</event>
<event>
 7    1  0.5714431E-011  0.5052884E+02  0.7816164E-02  0.1300439E+00
        -11   -1    0    0    0    0  0.00000000000E+00  0.00000000000E+00  0.45593999997E+02  0.45594000000E+02  0.51100000000E-03 0. -1.
         11   -1    0    0    0    0 -0.00000000000E+00 -0.00000000000E+00 -0.45593999997E+02  0.45594000000E+02  0.51100000000E-03 0.  1.
    9900012    2    1    2    0    0  0.19083390135E+02  0.29803086838E+02  0.20019171051E+02  0.50528843913E+02  0.29999951558E+02 0.  0.
        -12    1    1    2    0    0 -0.19083390135E+02 -0.29803086838E+02 -0.20019171051E+02  0.40659156087E+02  0.00000000000E+00 0.  1.
         11    1    3    3    0    0  0.12022975381E+02  0.10616614896E+02  0.12423697210E+02  0.20288240473E+02  0.51100000000E-03 0. -1.
        -11    1    3    3    0    0 -0.72554187611E+01  0.47132781544E+01  0.44244023482E+00  0.86632468499E+01  0.51100000000E-03 0.  1.
        -12    1    3    3    0    0  0.14315833515E+02  0.14473193788E+02  0.71530336059E+01  0.21577356591E+02  0.00000000000E+00 0.  1.
</event>
<event>
 7    1  0.5714431E-011  0.5052886E+02  0.7816164E-02  0.1300439E+00
        -11   -1    0    0    0    0  0.00000000000E+00  0.00000000000E+00  0.45593999997E+02  0.45594000000E+02  0.51100000000E-03 0.  1.
         11   -1    0    0    0    0 -0.00000000000E+00 -0.00000000000E+00 -0.45593999997E+02  0.45594000000E+02  0.51100000000E-03 0. -1.
    9900012    2    1    2    0    0 -0.18876909427E+02 -0.33630071239E+02 -0.12878128522E+02  0.50528860864E+02  0.30000003081E+02 0.  0.
        -12    1    1    2    0    0  0.18876909427E+02  0.33630071239E+02  0.12878128522E+02  0.40659139136E+02  0.00000000000E+00 0.  1.
         11    1    3    3    0    0 -0.17938315911E+02 -0.66163561324E+01 -0.37090466528E+01  0.19476046148E+02  0.51100000000E-03 0. -1.
        -11    1    3    3    0    0  0.56172519938E+01 -0.10697194634E+02 -0.35769119428E+01  0.12600706024E+02  0.51100000000E-03 0.  1.
         12    1    3    3    0    0 -0.65558455097E+01 -0.16316520473E+02 -0.55921699264E+01  0.18452108692E+02  0.00000000000E+00 0. -1.
</event>
<event>
 7    1  0.5714431E-011  0.5052886E+02  0.7816164E-02  0.1300439E+00
        -11   -1    0    0    0    0  0.00000000000E+00  0.00000000000E+00  0.45593999997E+02  0.45594000000E+02  0.51100000000E-03 0.  1.
         11   -1    0    0    0    0 -0.00000000000E+00 -0.00000000000E+00 -0.45593999997E+02  0.45594000000E+02  0.51100000000E-03 0. -1.
    9900012    2    1    2    0    0  0.27572398640E+02  0.19406214072E+02 -0.22722838960E+02  0.50528859309E+02  0.29999998355E+02 0.  0.
        -12    1    1    2    0    0 -0.27572398640E+02 -0.19406214072E+02  0.22722838960E+02  0.40659140691E+02  0.00000000000E+00 0.  1.
         11    1    3    3    0    0  0.30871385150E+01  0.19308169067E+01  0.15376925925E+00  0.36444647596E+01  0.51100000000E-03 0.  1.
        -11    1    3    3    0    0  0.28206227826E+02  0.62668493128E+01 -0.13980028086E+02  0.32098378059E+02  0.51100000000E-03 0. -1.
        -12    1    3    3    0    0 -0.37209677007E+01  0.11208547852E+02 -0.88965801326E+01  0.14786016490E+02  0.00000000000E+00 0.  1.
</event>
<event>
 7    1  0.5714431E-011  0.5052886E+02  0.7816164E-02  0.1300439E+00
        -11   -1    0    0    0    0  0.00000000000E+00  0.00000000000E+00  0.45593999997E+02  0.45594000000E+02  0.51100000000E-03 0. -1.
         11   -1    0    0    0    0 -0.00000000000E+00 -0.00000000000E+00 -0.45593999997E+02  0.45594000000E+02  0.51100000000E-03 0.  1.
    9900012    2    1    2    0    0 -0.12404462822E+01 -0.29432452244E+02  0.28024230962E+02  0.50528862367E+02  0.30000007650E+02 0.  0.
        -12    1    1    2    0    0  0.12404462822E+01  0.29432452244E+02 -0.28024230962E+02  0.40659137633E+02  0.00000000000E+00 0.  1.
         11    1    3    3    0    0  0.80419843944E+01 -0.25633559444E+02  0.16086593242E+02  0.31313437454E+02  0.51100000000E-03 0. -1.
        -11    1    3    3    0    0 -0.79835447445E+01 -0.23563384992E+00  0.13017162999E+02  0.15272165622E+02  0.51100000000E-03 0.  1.
        -12    1    3    3    0    0 -0.12988859320E+01 -0.35632589497E+01 -0.10795252785E+01  0.39432592907E+01  0.00000000000E+00 0.  1.
</event>
<event>
 7    1  0.5714431E-011  0.5052876E+02  0.7816164E-02  0.1300439E+00
        -11   -1    0    0    0    0  0.00000000000E+00  0.00000000000E+00  0.45593999997E+02  0.45594000000E+02  0.51100000000E-03 0.  1.
         11   -1    0    0    0    0 -0.00000000000E+00 -0.00000000000E+00 -0.45593999997E+02  0.45594000000E+02  0.51100000000E-03 0. -1.
    9900012    2    1    2    0    0 -0.34404012521E+02 -0.20774111183E+02  0.61622761129E+01  0.50528764643E+02  0.29999710606E+02 0.  0.
        -12    1    1    2    0    0  0.34404012521E+02  0.20774111183E+02 -0.61622761129E+01  0.40659235357E+02  0.00000000000E+00 0.  1.
         11    1    3    3    0    0 -0.11364304057E+02 -0.14729726353E+02 -0.81729720161E+01  0.20320180043E+02  0.51100000000E-03 0. -1.
        -11    1    3    3    0    0 -0.10101272882E+02 -0.41379144358E+01  0.13130067232E+02  0.17075031932E+02  0.51100000000E-03 0.  1.
         12    1    3    3    0    0 -0.12938435582E+02 -0.19064703940E+01  0.12051808970E+01  0.13133552668E+02  0.00000000000E+00 0. -1.
</event>
<event>
 7    1  0.5714431E-011  0.5052886E+02  0.7816164E-02  0.1300439E+00
        -11   -1    0    0    0    0  0.00000000000E+00  0.00000000000E+00  0.45593999997E+02  0.45594000000E+02  0.51100000000E-03 0.  1.
         11   -1    0    0    0    0 -0.00000000000E+00 -0.00000000000E+00 -0.45593999997E+02  0.45594000000E+02  0.51100000000E-03 0. -1.
    9900012    2    1    2    0    0 -0.32826326090E+02  0.18838001795E+02 -0.14856903536E+02  0.50528861066E+02  0.30000003696E+02 0.  0.
        -12    1    1    2    0    0  0.32826326090E+02 -0.18838001795E+02  0.14856903536E+02  0.40659138934E+02  0.00000000000E+00 0.  1.
         11    1    3    3    0    0 -0.29563046544E+02  0.18717644687E+02 -0.16453993011E+01  0.35029006305E+02  0.51100000000E-03 0. -1.
        -11    1    3    3    0    0 -0.20396862082E+01 -0.31581232551E+01 -0.10242482755E+02  0.10910660639E+02  0.51100000000E-03 0.  1.
         12    1    3    3    0    0 -0.12235933379E+01  0.32784803624E+01 -0.29690214792E+01  0.45891941218E+01  0.00000000000E+00 0. -1.
</event>
<event>
 7    1  0.5714431E-011  0.5052885E+02  0.7816164E-02  0.1300439E+00
        -11   -1    0    0    0    0  0.00000000000E+00  0.00000000000E+00  0.45593999997E+02  0.45594000000E+02  0.51100000000E-03 0.  1.
         11   -1    0    0    0    0 -0.00000000000E+00 -0.00000000000E+00 -0.45593999997E+02  0.45594000000E+02  0.51100000000E-03 0. -1.
    9900012    2    1    2    0    0 -0.34571323806E+02  0.18013280366E+02 -0.11554740686E+02  0.50528846891E+02  0.29999960608E+02 0.  0.
        -12    1    1    2    0    0  0.34571323806E+02 -0.18013280366E+02  0.11554740686E+02  0.40659153109E+02  0.00000000000E+00 0.  1.
         11    1    3    3    0    0  0.21640280068E+01  0.56198006909E+01 -0.31768884865E+01  0.68086560889E+01  0.51100000000E-03 0. -1.
        -11    1    3    3    0    0 -0.35909053896E+02  0.14508001340E+02 -0.41880697206E+01  0.38954873672E+02  0.51100000000E-03 0.  1.
        -12    1    3    3    0    0 -0.82629791678E+00 -0.21145216648E+01 -0.41897824792E+01  0.47653171292E+01  0.00000000000E+00 0.  1.
</event>
<event>
 7    1  0.5714431E-011  0.5052886E+02  0.7816164E-02  0.1300439E+00
        -11   -1    0    0    0    0  0.00000000000E+00  0.00000000000E+00  0.45593999997E+02  0.45594000000E+02  0.51100000000E-03 0. -1.
         11   -1    0    0    0    0 -0.00000000000E+00 -0.00000000000E+00 -0.45593999997E+02  0.45594000000E+02  0.51100000000E-03 0.  1.
    9900012    2    1    2    0    0  0.40354304305E+02 -0.49691321394E+01 -0.59901324013E-01  0.50528859105E+02  0.29999997736E+02 0.  0.
        -12    1    1    2    0    0 -0.40354304305E+02  0.49691321394E+01  0.59901324013E-01  0.40659140895E+02  0.00000000000E+00 0.  1.
         11    1    3    3    0    0  0.87520984793E+01 -0.76079336149E+00  0.56813635847E+01  0.10462118656E+02  0.51100000000E-03 0. -1.
        -11    1    3    3    0    0  0.44883351028E+01  0.32544441325E+01 -0.10184531503E+02  0.11595742357E+02  0.51100000000E-03 0.  1.
        -12    1    3    3    0    0  0.27113870723E+02 -0.74627829104E+01  0.44432665947E+01  0.28470998092E+02  0.00000000000E+00 0.  1.
</event>
<event>
 7    1  0.5714431E-011  0.5052886E+02  0.7816164E-02  0.1300439E+00
        -11   -1    0    0    0    0  0.00000000000E+00  0.00000000000E+00  0.45593999997E+02  0.45594000000E+02  0.51100000000E-03 0.  1.
         11   -1    0    0    0    0 -0.00000000000E+00 -0.00000000000E+00 -0.45593999997E+02  0.45594000000E+02  0.51100000000E-03 0. -1.
    9900012    2    1    2    0    0  0.31957901191E+02 -0.75141641591E+01 -0.23987410356E+02  0.50528856291E+02  0.29999989183E+02 0.  0.
        -12    1    1    2    0    0 -0.31957901191E+02  0.75141641591E+01  0.23987410356E+02  0.40659143709E+02  0.00000000000E+00 0.  1.
         11    1    3    3    0    0  0.84743404219E+01 -0.64210929251E+01 -0.14962220443E+02  0.18355187844E+02  0.51100000000E-03 0. -1.
        -11    1    3    3    0    0  0.35997138112E+01  0.80800526007E+01 -0.12348810470E+01  0.89314120392E+01  0.51100000000E-03 0.  1.
        -12    1    3    3    0    0  0.19883846958E+02 -0.91731238347E+01 -0.77903088663E+01  0.23242256408E+02  0.00000000000E+00 0.  1.
</event>
<event>
 7    1  0.5714431E-011  0.5052883E+02  0.7816164E-02  0.1300439E+00
        -11   -1    0    0    0    0  0.00000000000E+00  0.00000000000E+00  0.45593999997E+02  0.45594000000E+02  0.51100000000E-03 0. -1.
         11   -1    0    0    0    0 -0.00000000000E+00 -0.00000000000E+00 -0.45593999997E+02  0.45594000000E+02  0.51100000000E-03 0.  1.
    9900012    2    1    2    0    0 -0.25761373538E+02  0.22723131148E+02 -0.21752675297E+02  0.50528832051E+02  0.29999915501E+02 0.  0.
        -12    1    1    2    0    0  0.25761373538E+02 -0.22723131148E+02  0.21752675297E+02  0.40659167949E+02  0.00000000000E+00 0.  1.
         11    1    3    3    0    0 -0.29514021240E+01  0.15053729568E+02 -0.11504362835E+02  0.19174877129E+02  0.51100000000E-03 0. -1.
        -11    1    3    3    0    0 -0.17890658952E+02 -0.21767734235E+01 -0.32568596011E+01  0.18314506681E+02  0.51100000000E-03 0.  1.
        -12    1    3    3    0    0 -0.49193124625E+01  0.98461750032E+01 -0.69914528609E+01  0.13039448240E+02  0.00000000000E+00 0.  1.
</event>
<event>
 7    1  0.5714431E-011  0.5052886E+02  0.7816164E-02  0.1300439E+00
        -11   -1    0    0    0    0  0.00000000000E+00  0.00000000000E+00  0.45593999997E+02  0.45594000000E+02  0.51100000000E-03 0.  1.
         11   -1    0    0    0    0 -0.00000000000E+00 -0.00000000000E+00 -0.45593999997E+02  0.45594000000E+02  0.51100000000E-03 0. -1.
    9900012    2    1    2    0    0  0.33255525102E+02 -0.10045672920E+02 -0.21126286297E+02  0.50528862443E+02  0.30000007881E+02 0.  0.
        -12    1    1    2    0    0 -0.33255525102E+02  0.10045672920E+02  0.21126286297E+02  0.40659137557E+02  0.00000000000E+00 0.  1.
         11    1    3    3    0    0  0.16153824575E+02 -0.11743218130E+02 -0.19727068154E+02  0.28071452379E+02  0.51100000000E-03 0. -1.
        -11    1    3    3    0    0  0.32124708737E+01  0.68649105274E+01 -0.84072014562E-01  0.75798439317E+01  0.51100000000E-03 0.  1.
         12    1    3    3    0    0  0.13889229653E+02 -0.51673653166E+01 -0.13151461283E+01  0.14877566132E+02  0.00000000000E+00 0. -1.
</event>
<event>
 7    1  0.5714431E-011  0.5052889E+02  0.7816164E-02  0.1300439E+00
        -11   -1    0    0    0    0  0.00000000000E+00  0.00000000000E+00  0.45593999997E+02  0.45594000000E+02  0.51100000000E-03 0.  1.
         11   -1    0    0    0    0 -0.00000000000E+00 -0.00000000000E+00 -0.45593999997E+02  0.45594000000E+02  0.51100000000E-03 0. -1.
    9900012    2    1    2    0    0  0.30155872279E+02  0.15909777572E+01  0.27226012523E+02  0.50528885388E+02  0.30000077625E+02 0.  0.
        -12    1    1    2    0    0 -0.30155872279E+02 -0.15909777572E+01 -0.27226012523E+02  0.40659114612E+02  0.00000000000E+00 0.  1.
         11    1    3    3    0    0  0.16269934689E+02  0.40285430589E+01 -0.27521967773E+01  0.16985715214E+02  0.51100000000E-03 0. -1.
        -11    1    3    3    0    0  0.10971616596E+02 -0.36548127921E+01  0.20302600047E+02  0.23365136341E+02  0.51100000000E-03 0.  1.
         12    1    3    3    0    0  0.29143209939E+01  0.12172474904E+01  0.96756092524E+01  0.10178033833E+02  0.00000000000E+00 0. -1.
</event>
<event>
 7    1  0.5714431E-011  0.5052886E+02  0.7816164E-02  0.1300439E+00
        -11   -1    0    0    0    0  0.00000000000E+00  0.00000000000E+00  0.45593999997E+02  0.45594000000E+02  0.51100000000E-03 0.  1.
         11   -1    0    0    0    0 -0.00000000000E+00 -0.00000000000E+00 -0.45593999997E+02  0.45594000000E+02  0.51100000000E-03 0. -1.
    9900012    2    1    2    0    0 -0.39795282260E+02 -0.80335734749E+01  0.22278154757E+01  0.50528856444E+02  0.29999989648E+02 0.  0.
        -12    1    1    2    0    0  0.39795282260E+02  0.80335734749E+01 -0.22278154757E+01  0.40659143556E+02  0.00000000000E+00 0.  1.
         11    1    3    3    0    0 -0.10257838153E+02  0.50563067375E+01  0.47992746206E+00  0.11446388602E+02  0.51100000000E-03 0. -1.
        -11    1    3    3    0    0 -0.27532008090E+00 -0.74375017749E+01 -0.44084191226E+01  0.86502250387E+01  0.51100000000E-03 0.  1.
        -12    1    3    3    0    0 -0.29262124026E+02 -0.56523784374E+01  0.61563071362E+01  0.30432242804E+02  0.00000000000E+00 0.  1.
</event>
<event>
 7    1  0.5714431E-011  0.5052883E+02  0.7816164E-02  0.1300439E+00
        -11   -1    0    0    0    0  0.00000000000E+00  0.00000000000E+00  0.45593999997E+02  0.45594000000E+02  0.51100000000E-03 0. -1.
         11   -1    0    0    0    0 -0.00000000000E+00 -0.00000000000E+00 -0.45593999997E+02  0.45594000000E+02  0.51100000000E-03 0.  1.
    9900012    2    1    2    0    0  0.31154153258E+02  0.72796517112E+01  0.25091695029E+02  0.50528834321E+02  0.29999922403E+02 0.  0.
        -12    1    1    2    0    0 -0.31154153258E+02 -0.72796517112E+01 -0.25091695029E+02  0.40659165679E+02  0.00000000000E+00 0.  1.
         11    1    3    3    0    0  0.81782889800E+01  0.11130092474E+02  0.53852679497E+01  0.14824455480E+02  0.51100000000E-03 0. -1.
        -11    1    3    3    0    0  0.30770444164E+01 -0.80244740002E+01  0.99656225561E+01  0.13159559966E+02  0.51100000000E-03 0.  1.
        -12    1    3    3    0    0  0.19898819862E+02  0.41740332374E+01  0.97408045231E+01  0.22544818875E+02  0.00000000000E+00 0.  1.
</event>
<event>
 7    1  0.5714431E-011  0.5052886E+02  0.7816164E-02  0.1300439E+00
        -11   -1    0    0    0    0  0.00000000000E+00  0.00000000000E+00  0.45593999997E+02  0.45594000000E+02  0.51100000000E-03 0.  1.
         11   -1    0    0    0    0 -0.00000000000E+00 -0.00000000000E+00 -0.45593999997E+02  0.45594000000E+02  0.51100000000E-03 0. -1.
    9900012    2    1    2    0    0  0.28718433579E+02 -0.27064766002E+02  0.97936577189E+01  0.50528859361E+02  0.29999998514E+02 0.  0.
        -12    1    1    2    0    0 -0.28718433579E+02  0.27064766002E+02 -0.97936577189E+01  0.40659140639E+02  0.00000000000E+00 0.  1.
         11    1    3    3    0    0  0.12839882349E+02 -0.17138113151E+02  0.10048479080E+01  0.21437985463E+02  0.51100000000E-03 0. -1.
        -11    1    3    3    0    0  0.11122562251E+02  0.66606452454E+00 -0.39800615134E+01  0.11831987276E+02  0.51100000000E-03 0.  1.
        -12    1    3    3    0    0  0.47559889791E+01 -0.10592717375E+02  0.12768871324E+02  0.17258886623E+02  0.00000000000E+00 0.  1.
</event>
<event>
 7    1  0.5714431E-011  0.5052888E+02  0.7816164E-02  0.1300439E+00
        -11   -1    0    0    0    0  0.00000000000E+00  0.00000000000E+00  0.45593999997E+02  0.45594000000E+02  0.51100000000E-03 0.  1.
         11   -1    0    0    0    0 -0.00000000000E+00 -0.00000000000E+00 -0.45593999997E+02  0.45594000000E+02  0.51100000000E-03 0. -1.
    9900012    2    1    2    0    0  0.46489957677E+01 -0.30725906826E+02 -0.26219637832E+02  0.50528881466E+02  0.30000065704E+02 0.  0.
        -12    1    1    2    0    0 -0.46489957677E+01  0.30725906826E+02  0.26219637832E+02  0.40659118534E+02  0.00000000000E+00 0.  1.
         11    1    3    3    0    0 -0.93583340213E+01 -0.19520878487E+02 -0.19503984747E+02  0.29138437395E+02  0.51100000000E-03 0. -1.
        -11    1    3    3    0    0  0.65882832153E+01 -0.89427529828E+01  0.35348286501E-01  0.11107635050E+02  0.51100000000E-03 0.  1.
         12    1    3    3    0    0  0.74190465736E+01 -0.22622753560E+01 -0.67510013713E+01  0.10282809021E+02  0.00000000000E+00 0. -1.
</event>
<event>
 7    1  0.5714431E-011  0.5052886E+02  0.7816164E-02  0.1300439E+00
        -11   -1    0    0    0    0  0.00000000000E+00  0.00000000000E+00  0.45593999997E+02  0.45594000000E+02  0.51100000000E-03 0. -1.
         11   -1    0    0    0    0 -0.00000000000E+00 -0.00000000000E+00 -0.45593999997E+02  0.45594000000E+02  0.51100000000E-03 0.  1.
    9900012    2    1    2    0    0  0.12103590373E+01 -0.35403123495E+02  0.19957944049E+02  0.50528860156E+02  0.30000000930E+02 0.  0.
        -12    1    1    2    0    0 -0.12103590373E+01  0.35403123495E+02 -0.19957944049E+02  0.40659139844E+02  0.00000000000E+00 0.  1.
         11    1    3    3    0    0 -0.82145450528E+01 -0.15286190085E+02 -0.71238398051E+00  0.17368184964E+02  0.51100000000E-03 0. -1.
        -11    1    3    3    0    0  0.48404171733E+01 -0.42475310087E+01  0.13879904579E+02  0.15301075435E+02  0.51100000000E-03 0.  1.
         12    1    3    3    0    0  0.45844869167E+01 -0.15869402401E+02  0.67904234508E+01  0.17859599757E+02  0.00000000000E+00 0. -1.
</event>
<event>
 7    1  0.5714431E-011  0.5052887E+02  0.7816164E-02  0.1300439E+00
        -11   -1    0    0    0    0  0.00000000000E+00  0.00000000000E+00  0.45593999997E+02  0.45594000000E+02  0.51100000000E-03 0.  1.
         11   -1    0    0    0    0 -0.00000000000E+00 -0.00000000000E+00 -0.45593999997E+02  0.45594000000E+02  0.51100000000E-03 0. -1.
    9900012    2    1    2    0    0 -0.33355092609E+02 -0.23024889590E+02  0.32337959619E+01  0.50528865972E+02  0.30000018608E+02 0.  0.
        -12    1    1    2    0    0  0.33355092609E+02  0.23024889590E+02 -0.32337959619E+01  0.40659134028E+02  0.00000000000E+00 0.  1.
         11    1    3    3    0    0 -0.38924060930E+01 -0.51042247949E+01  0.12003910720E+02  0.13612413775E+02  0.51100000000E-03 0.  1.
        -11    1    3    3    0    0 -0.20895715150E+02 -0.71779032925E+01 -0.47364799426E+01  0.22596182195E+02  0.51100000000E-03 0. -1.
        -12    1    3    3    0    0 -0.85669713667E+01 -0.10742761502E+02 -0.40336348153E+01  0.14320270002E+02  0.00000000000E+00 0.  1.
</event>
<event>
 7    1  0.5714431E-011  0.5052886E+02  0.7816164E-02  0.1300439E+00
        -11   -1    0    0    0    0  0.00000000000E+00  0.00000000000E+00  0.45593999997E+02  0.45594000000E+02  0.51100000000E-03 0.  1.
         11   -1    0    0    0    0 -0.00000000000E+00 -0.00000000000E+00 -0.45593999997E+02  0.45594000000E+02  0.51100000000E-03 0. -1.
    9900012    2    1    2    0    0  0.31151936284E+01  0.17697331949E+02 -0.36472812175E+02  0.50528855674E+02  0.29999987305E+02 0.  0.
        -12    1    1    2    0    0 -0.31151936284E+01 -0.17697331949E+02  0.36472812175E+02  0.40659144326E+02  0.00000000000E+00 0.  1.
         11    1    3    3    0    0  0.17786154365E+01 -0.13026619824E+01 -0.18605526916E+02  0.18735688757E+02  0.51100000000E-03 0. -1.
        -11    1    3    3    0    0  0.81172353967E+01  0.15165337587E+02 -0.73510034567E+01  0.18705994405E+02  0.51100000000E-03 0.  1.
         12    1    3    3    0    0 -0.67806572048E+01  0.38346563441E+01 -0.10516281802E+02  0.13087172511E+02  0.00000000000E+00 0. -1.
</event>
<event>
 7    1  0.5714431E-011  0.5052886E+02  0.7816164E-02  0.1300439E+00
        -11   -1    0    0    0    0  0.00000000000E+00  0.00000000000E+00  0.45593999997E+02  0.45594000000E+02  0.51100000000E-03 0.  1.
         11   -1    0    0    0    0 -0.00000000000E+00 -0.00000000000E+00 -0.45593999997E+02  0.45594000000E+02  0.51100000000E-03 0. -1.
    9900012    2    1    2    0    0 -0.76229940459E+01  0.15419878916E+02 -0.36841324595E+02  0.50528857093E+02  0.29999991621E+02 0.  0.
        -12    1    1    2    0    0  0.76229940459E+01 -0.15419878916E+02  0.36841324595E+02  0.40659142907E+02  0.00000000000E+00 0.  1.
         11    1    3    3    0    0 -0.82051504842E+00  0.17525942184E+01 -0.15128624666E+02  0.15251888932E+02  0.51100000000E-03 0. -1.
        -11    1    3    3    0    0  0.66804015783E+01  0.62628604798E+01 -0.62929847887E+00  0.91786275376E+01  0.51100000000E-03 0.  1.
        -12    1    3    3    0    0 -0.13482880576E+02  0.74044242176E+01 -0.21083401450E+02  0.26098340624E+02  0.00000000000E+00 0.  1.
</event>
<event>
 7    1  0.5714431E-011  0.5052887E+02  0.7816164E-02  0.1300439E+00
        -11   -1    0    0    0    0  0.00000000000E+00  0.00000000000E+00  0.45593999997E+02  0.45594000000E+02  0.51100000000E-03 0.  1.
         11   -1    0    0    0    0 -0.00000000000E+00 -0.00000000000E+00 -0.45593999997E+02  0.45594000000E+02  0.51100000000E-03 0. -1.
    9900012    2    1    2    0    0  0.37317524761E+02 -0.11270796688E+02 -0.11555801662E+02  0.50528867394E+02  0.30000022930E+02 0.  0.
        -12    1    1    2    0    0 -0.37317524761E+02  0.11270796688E+02  0.11555801662E+02  0.40659132606E+02  0.00000000000E+00 0.  1.
         11    1    3    3    0    0  0.22897379316E+02 -0.42286438853E+00  0.16343832399E+01  0.22959529670E+02  0.51100000000E-03 0. -1.
        -11    1    3    3    0    0 -0.20851377768E+01 -0.45690047731E+01 -0.74803122318E+01  0.90099209492E+01  0.51100000000E-03 0.  1.
        -12    1    3    3    0    0  0.16505283221E+02 -0.62789275268E+01 -0.57098726700E+01  0.18559416774E+02  0.00000000000E+00 0.  1.
</event>
<event>
 7    1  0.5714431E-011  0.5052886E+02  0.7816164E-02  0.1300439E+00
        -11   -1    0    0    0    0  0.00000000000E+00  0.00000000000E+00  0.45593999997E+02  0.45594000000E+02  0.51100000000E-03 0.  1.
         11   -1    0    0    0    0 -0.00000000000E+00 -0.00000000000E+00 -0.45593999997E+02  0.45594000000E+02  0.51100000000E-03 0. -1.
    9900012    2    1    2    0    0  0.15564112580E+02  0.16705381277E+02 -0.33643045665E+02  0.50528857293E+02  0.29999992228E+02 0.  0.
        -12    1    1    2    0    0 -0.15564112580E+02 -0.16705381277E+02  0.33643045665E+02  0.40659142707E+02  0.00000000000E+00 0.  1.
         11    1    3    3    0    0  0.14424580729E+02  0.66879404020E+00 -0.15541118175E+02  0.21214197346E+02  0.51100000000E-03 0. -1.
        -11    1    3    3    0    0 -0.48582111723E+01  0.13404452134E+02 -0.58288066718E+01  0.15403134106E+02  0.51100000000E-03 0.  1.
        -12    1    3    3    0    0  0.59977430232E+01  0.26321351028E+01 -0.12273120819E+02  0.13911525840E+02  0.00000000000E+00 0.  1.
</event>
<event>
 7    1  0.5714431E-011  0.5052886E+02  0.7816164E-02  0.1300439E+00
        -11   -1    0    0    0    0  0.00000000000E+00  0.00000000000E+00  0.45593999997E+02  0.45594000000E+02  0.51100000000E-03 0. -1.
         11   -1    0    0    0    0 -0.00000000000E+00 -0.00000000000E+00 -0.45593999997E+02  0.45594000000E+02  0.51100000000E-03 0.  1.
    9900012    2    1    2    0    0 -0.40453395102E+02 -0.17143707616E+01  0.37080105659E+01  0.50528860993E+02  0.30000003475E+02 0.  0.
        -12    1    1    2    0    0  0.40453395102E+02  0.17143707616E+01 -0.37080105659E+01  0.40659139007E+02  0.00000000000E+00 0.  1.
         11    1    3    3    0    0 -0.45650350445E+01 -0.10907406994E+01 -0.95704124789E+00  0.47901136147E+01  0.51100000000E-03 0. -1.
        -11    1    3    3    0    0 -0.33083751825E+02  0.99497188986E+01  0.30626154232E+01  0.34683009593E+02  0.51100000000E-03 0.  1.
        -12    1    3    3    0    0 -0.28046082333E+01 -0.10573348961E+02  0.16024363906E+01  0.11055737785E+02  0.00000000000E+00 0.  1.
</event>
<event>
 7    1  0.5714431E-011  0.5052895E+02  0.7816164E-02  0.1300438E+00
        -11   -1    0    0    0    0  0.00000000000E+00  0.00000000000E+00  0.45593999997E+02  0.45594000000E+02  0.51100000000E-03 0. -1.
         11   -1    0    0    0    0 -0.00000000000E+00 -0.00000000000E+00 -0.45593999997E+02  0.45594000000E+02  0.51100000000E-03 0.  1.
    9900012    2    1    2    0    0 -0.39011578146E+02 -0.84291292288E+01  0.77591921156E+01  0.50528947979E+02  0.30000267876E+02 0.  0.
        -12    1    1    2    0    0  0.39011578146E+02  0.84291292288E+01 -0.77591921156E+01  0.40659052021E+02  0.00000000000E+00 0.  1.
         11    1    3    3    0    0 -0.14058547338E+02 -0.48635389797E+01  0.14724146076E+02  0.20930772623E+02  0.51100000000E-03 0. -1.
        -11    1    3    3    0    0 -0.18649512436E+02 -0.81424032480E+01 -0.22037079094E+01  0.20468497101E+02  0.51100000000E-03 0.  1.
         12    1    3    3    0    0 -0.63035183719E+01  0.45768129990E+01 -0.47612460509E+01  0.91296782556E+01  0.00000000000E+00 0. -1.
</event>
<event>
 7    1  0.5714431E-011  0.5052884E+02  0.7816164E-02  0.1300439E+00
        -11   -1    0    0    0    0  0.00000000000E+00  0.00000000000E+00  0.45593999997E+02  0.45594000000E+02  0.51100000000E-03 0.  1.
         11   -1    0    0    0    0 -0.00000000000E+00 -0.00000000000E+00 -0.45593999997E+02  0.45594000000E+02  0.51100000000E-03 0. -1.
    9900012    2    1    2    0    0 -0.11519568564E+01  0.95444879146E+01 -0.39506244026E+02  0.50528836565E+02  0.29999929224E+02 0.  0.
        -12    1    1    2    0    0  0.11519568564E+01 -0.95444879146E+01  0.39506244026E+02  0.40659163435E+02  0.00000000000E+00 0.  1.
         11    1    3    3    0    0  0.34972315363E+00  0.20044964413E+02 -0.25006768159E+02  0.32050918218E+02  0.51100000000E-03 0.  1.
        -11    1    3    3    0    0  0.77052431491E+00 -0.75921202785E+01 -0.11029891735E+02  0.13412401351E+02  0.51100000000E-03 0. -1.
        -12    1    3    3    0    0 -0.22722043250E+01 -0.29083562198E+01 -0.34695841325E+01  0.50655169971E+01  0.00000000000E+00 0.  1.
</event>
<event>
 7    1  0.5714431E-011  0.5052886E+02  0.7816164E-02  0.1300439E+00
        -11   -1    0    0    0    0  0.00000000000E+00  0.00000000000E+00  0.45593999997E+02  0.45594000000E+02  0.51100000000E-03 0.  1.
         11   -1    0    0    0    0 -0.00000000000E+00 -0.00000000000E+00 -0.45593999997E+02  0.45594000000E+02  0.51100000000E-03 0. -1.
    9900012    2    1    2    0    0 -0.34349671243E+02  0.67850429406E+01 -0.20669513749E+02  0.50528861780E+02  0.30000005865E+02 0.  0.
        -12    1    1    2    0    0  0.34349671243E+02 -0.67850429406E+01  0.20669513749E+02  0.40659138220E+02  0.00000000000E+00 0.  1.
         11    1    3    3    0    0 -0.44635132737E+01 -0.90892511009E+01 -0.52436274675E+00  0.10139644613E+02  0.51100000000E-03 0. -1.
        -11    1    3    3    0    0 -0.26080741288E+02  0.16267567440E+02 -0.15670961093E+02  0.34502432355E+02  0.51100000000E-03 0.  1.
         12    1    3    3    0    0 -0.38054166815E+01 -0.39327339871E+00 -0.44741899090E+01  0.58867848124E+01  0.00000000000E+00 0. -1.
</event>
<event>
 7    1  0.5714431E-011  0.5052884E+02  0.7816164E-02  0.1300439E+00
        -11   -1    0    0    0    0  0.00000000000E+00  0.00000000000E+00  0.45593999997E+02  0.45594000000E+02  0.51100000000E-03 0.  1.
         11   -1    0    0    0    0 -0.00000000000E+00 -0.00000000000E+00 -0.45593999997E+02  0.45594000000E+02  0.51100000000E-03 0. -1.
    9900012    2    1    2    0    0 -0.67224949743E+01  0.23437978421E+02 -0.32536690251E+02  0.50528843791E+02  0.29999951187E+02 0.  0.
        -12    1    1    2    0    0  0.67224949743E+01 -0.23437978421E+02  0.32536690251E+02  0.40659156209E+02  0.00000000000E+00 0.  1.
         11    1    3    3    0    0 -0.61282122410E+01  0.24640801977E+02 -0.18708882882E+02  0.31539600604E+02  0.51100000000E-03 0. -1.
        -11    1    3    3    0    0  0.23394962422E+01 -0.50298098668E+01 -0.14919736514E+01  0.57444073325E+01  0.51100000000E-03 0.  1.
        -12    1    3    3    0    0 -0.29337789755E+01  0.38269863115E+01 -0.12335833717E+02  0.13244835854E+02  0.00000000000E+00 0.  1.
</event>
<event>
 7    1  0.5714431E-011  0.5052886E+02  0.7816164E-02  0.1300439E+00
        -11   -1    0    0    0    0  0.00000000000E+00  0.00000000000E+00  0.45593999997E+02  0.45594000000E+02  0.51100000000E-03 0.  1.
         11   -1    0    0    0    0 -0.00000000000E+00 -0.00000000000E+00 -0.45593999997E+02  0.45594000000E+02  0.51100000000E-03 0. -1.
    9900012    2    1    2    0    0  0.42234636256E+01  0.28757714996E+02 -0.28431004288E+02  0.50528858081E+02  0.29999994622E+02 0.  0.
        -12    1    1    2    0    0 -0.42234636256E+01 -0.28757714996E+02  0.28431004288E+02  0.40659141919E+02  0.00000000000E+00 0.  1.
         11    1    3    3    0    0  0.49641815350E+01  0.30799416155E+02 -0.30780837444E+02  0.43825872357E+02  0.51100000000E-03 0. -1.
        -11    1    3    3    0    0 -0.19903117169E+01  0.13271425492E+01 -0.31437626892E-01  0.23924123102E+01  0.51100000000E-03 0.  1.
         12    1    3    3    0    0  0.12495938074E+01 -0.33688437089E+01  0.23812707822E+01  0.43105734139E+01  0.00000000000E+00 0. -1.
</event>
<event>
 7    1  0.5714431E-011  0.5052886E+02  0.7816164E-02  0.1300439E+00
        -11   -1    0    0    0    0  0.00000000000E+00  0.00000000000E+00  0.45593999997E+02  0.45594000000E+02  0.51100000000E-03 0. -1.
         11   -1    0    0    0    0 -0.00000000000E+00 -0.00000000000E+00 -0.45593999997E+02  0.45594000000E+02  0.51100000000E-03 0.  1.
    9900012    2    1    2    0    0 -0.98115501024E+01  0.37965552493E+02  0.10747831782E+02  0.50528861058E+02  0.30000003671E+02 0.  0.
        -12    1    1    2    0    0  0.98115501024E+01 -0.37965552493E+02 -0.10747831782E+02  0.40659138942E+02  0.00000000000E+00 0.  1.
         11    1    3    3    0    0 -0.14867029411E+02  0.24365422023E+02 -0.49831223391E+01  0.28974710738E+02  0.51100000000E-03 0. -1.
        -11    1    3    3    0    0  0.24098248526E+01  0.93053920503E+01  0.92357991227E+01  0.13330324929E+02  0.51100000000E-03 0.  1.
         12    1    3    3    0    0  0.26456544558E+01  0.42947384199E+01  0.64951549982E+01  0.82238253901E+01  0.00000000000E+00 0. -1.
</event>
<event>
 7    1  0.5714431E-011  0.5052886E+02  0.7816164E-02  0.1300439E+00
        -11   -1    0    0    0    0  0.00000000000E+00  0.00000000000E+00  0.45593999997E+02  0.45594000000E+02  0.51100000000E-03 0. -1.
         11   -1    0    0    0    0 -0.00000000000E+00 -0.00000000000E+00 -0.45593999997E+02  0.45594000000E+02  0.51100000000E-03 0.  1.
    9900012    2    1    2    0    0 -0.12587981719E+02  0.26545389276E+02  0.28107842806E+02  0.50528858312E+02  0.29999995326E+02 0.  0.
        -12    1    1    2    0    0  0.12587981719E+02 -0.26545389276E+02 -0.28107842806E+02  0.40659141688E+02  0.00000000000E+00 0.  1.
         11    1    3    3    0    0 -0.12943808091E+02  0.15376999548E+02  0.11147159385E+02  0.22983764826E+02  0.51100000000E-03 0. -1.
        -11    1    3    3    0    0  0.40072760783E+01  0.80101565713E+01  0.19948912514E+02  0.21867326782E+02  0.51100000000E-03 0.  1.
        -12    1    3    3    0    0 -0.36514497071E+01  0.31582331569E+01 -0.29882290925E+01  0.56777667041E+01  0.00000000000E+00 0.  1.
</event>
<event>
 7    1  0.5714431E-011  0.5052887E+02  0.7816164E-02  0.1300439E+00
        -11   -1    0    0    0    0  0.00000000000E+00  0.00000000000E+00  0.45593999997E+02  0.45594000000E+02  0.51100000000E-03 0. -1.
         11   -1    0    0    0    0 -0.00000000000E+00 -0.00000000000E+00 -0.45593999997E+02  0.45594000000E+02  0.51100000000E-03 0.  1.
    9900012    2    1    2    0    0 -0.45837966193E+01  0.29694014480E+02  0.27393782604E+02  0.50528868028E+02  0.30000024858E+02 0.  0.
        -12    1    1    2    0    0  0.45837966193E+01 -0.29694014480E+02 -0.27393782604E+02  0.40659131972E+02  0.00000000000E+00 0.  1.
         11    1    3    3    0    0 -0.39467209486E+01  0.28593217071E+02  0.21859159913E+02  0.36207340984E+02  0.51100000000E-03 0. -1.
        -11    1    3    3    0    0 -0.43069298510E+01 -0.38823908539E+01  0.56995232672E+01  0.81306315387E+01  0.51100000000E-03 0.  1.
        -12    1    3    3    0    0  0.36698541804E+01  0.49831882620E+01 -0.16490057635E+00  0.61908955055E+01  0.00000000000E+00 0.  1.
</event>
<event>
 7    1  0.5714431E-011  0.5052886E+02  0.7816164E-02  0.1300439E+00
        -11   -1    0    0    0    0  0.00000000000E+00  0.00000000000E+00  0.45593999997E+02  0.45594000000E+02  0.51100000000E-03 0.  1.
         11   -1    0    0    0    0 -0.00000000000E+00 -0.00000000000E+00 -0.45593999997E+02  0.45594000000E+02  0.51100000000E-03 0. -1.
    9900012    2    1    2    0    0 -0.99015853249E+01 -0.24347776287E+02 -0.31021121878E+02  0.50528860749E+02  0.30000002733E+02 0.  0.
        -12    1    1    2    0    0  0.99015853249E+01  0.24347776287E+02  0.31021121878E+02  0.40659139251E+02  0.00000000000E+00 0.  1.
         11    1    3    3    0    0 -0.13029573030E+02 -0.60431526583E+01 -0.21291079794E+02  0.25682670158E+02  0.51100000000E-03 0. -1.
        -11    1    3    3    0    0 -0.17744473230E+01 -0.15724155901E+02 -0.29602692771E+01  0.16098476218E+02  0.51100000000E-03 0.  1.
         12    1    3    3    0    0  0.49024350276E+01 -0.25804677278E+01 -0.67697728072E+01  0.87477143732E+01  0.00000000000E+00 0. -1.
</event>
<event>
 7    1  0.5714431E-011  0.5052885E+02  0.7816164E-02  0.1300439E+00
        -11   -1    0    0    0    0  0.00000000000E+00  0.00000000000E+00  0.45593999997E+02  0.45594000000E+02  0.51100000000E-03 0. -1.
         11   -1    0    0    0    0 -0.00000000000E+00 -0.00000000000E+00 -0.45593999997E+02  0.45594000000E+02  0.51100000000E-03 0.  1.
    9900012    2    1    2    0    0  0.39165964167E+02 -0.35944735926E+01  0.10308916970E+02  0.50528846558E+02  0.29999959597E+02 0.  0.
        -12    1    1    2    0    0 -0.39165964167E+02  0.35944735926E+01 -0.10308916970E+02  0.40659153442E+02  0.00000000000E+00 0.  1.
         11    1    3    3    0    0  0.33989139578E+02  0.79728419071E+01  0.69108117610E+01  0.35589143525E+02  0.51100000000E-03 0. -1.
        -11    1    3    3    0    0  0.65829222017E+01 -0.11349091171E+02  0.31821886024E+01  0.13500483684E+02  0.51100000000E-03 0.  1.
         12    1    3    3    0    0 -0.14060976130E+01 -0.21822432824E+00  0.21591660625E+00  0.14392193493E+01  0.00000000000E+00 0. -1.
</event>
<event>
 7    1  0.5714431E-011  0.5052886E+02  0.7816164E-02  0.1300439E+00
        -11   -1    0    0    0    0  0.00000000000E+00  0.00000000000E+00  0.45593999997E+02  0.45594000000E+02  0.51100000000E-03 0.  1.
         11   -1    0    0    0    0 -0.00000000000E+00 -0.00000000000E+00 -0.45593999997E+02  0.45594000000E+02  0.51100000000E-03 0. -1.
    9900012    2    1    2    0    0 -0.37214735331E+02  0.80871038438E+01 -0.14241779810E+02  0.50528855069E+02  0.29999985469E+02 0.  0.
        -12    1    1    2    0    0  0.37214735331E+02 -0.80871038438E+01  0.14241779810E+02  0.40659144931E+02  0.00000000000E+00 0.  1.
         11    1    3    3    0    0 -0.37967536197E+02  0.14310511573E+02 -0.11589866924E+02  0.42197743564E+02  0.51100000000E-03 0. -1.
        -11    1    3    3    0    0  0.16550913915E+01 -0.51199800480E+01 -0.37271873351E+01  0.65456435053E+01  0.51100000000E-03 0.  1.
         12    1    3    3    0    0 -0.90229052521E+00 -0.11034276808E+01  0.10752744483E+01  0.17854679997E+01  0.00000000000E+00 0. -1.
</event>
<event>
 7    1  0.5714431E-011  0.5052885E+02  0.7816164E-02  0.1300439E+00
        -11   -1    0    0    0    0  0.00000000000E+00  0.00000000000E+00  0.45593999997E+02  0.45594000000E+02  0.51100000000E-03 0.  1.
         11   -1    0    0    0    0 -0.00000000000E+00 -0.00000000000E+00 -0.45593999997E+02  0.45594000000E+02  0.51100000000E-03 0. -1.
    9900012    2    1    2    0    0 -0.91051639187E+01 -0.37046212744E+02 -0.14065570544E+02  0.50528853877E+02  0.29999981845E+02 0.  0.
        -12    1    1    2    0    0  0.91051639187E+01  0.37046212744E+02  0.14065570544E+02  0.40659146123E+02  0.00000000000E+00 0.  1.
         11    1    3    3    0    0 -0.15294243247E+02 -0.36585509500E+02 -0.16142995969E+02  0.42813662550E+02  0.51100000000E-03 0. -1.
        -11    1    3    3    0    0  0.58983840836E+01 -0.16929051171E+01  0.14657503698E+01  0.63091431225E+01  0.51100000000E-03 0.  1.
         12    1    3    3    0    0  0.29069524501E+00  0.12322018726E+01  0.61167505480E+00  0.14060482044E+01  0.00000000000E+00 0. -1.
</event>
<event>
 7    1  0.5714431E-011  0.5052886E+02  0.7816164E-02  0.1300439E+00
        -11   -1    0    0    0    0  0.00000000000E+00  0.00000000000E+00  0.45593999997E+02  0.45594000000E+02  0.51100000000E-03 0.  1.
         11   -1    0    0    0    0 -0.00000000000E+00 -0.00000000000E+00 -0.45593999997E+02  0.45594000000E+02  0.51100000000E-03 0. -1.
    9900012    2    1    2    0    0  0.40504724817E+02  0.16065320538E+01 -0.31546296313E+01  0.50528863685E+02  0.30000011657E+02 0.  0.
        -12    1    1    2    0    0 -0.40504724817E+02 -0.16065320538E+01  0.31546296313E+01  0.40659136315E+02  0.00000000000E+00 0.  1.
         11    1    3    3    0    0  0.39554662193E+02 -0.18721090164E+01  0.21779636298E+00  0.39599539504E+02  0.51100000000E-03 0. -1.
        -11    1    3    3    0    0 -0.19563820983E+01 -0.18592945847E+01 -0.39932420208E+01  0.48197914234E+01  0.51100000000E-03 0.  1.
         12    1    3    3    0    0  0.29064447221E+01  0.53379356549E+01  0.62081602654E+00  0.61095327577E+01  0.00000000000E+00 0. -1.
</event>
<event>
 7    1  0.5714431E-011  0.5052885E+02  0.7816164E-02  0.1300439E+00
        -11   -1    0    0    0    0  0.00000000000E+00  0.00000000000E+00  0.45593999997E+02  0.45594000000E+02  0.51100000000E-03 0. -1.
         11   -1    0    0    0    0 -0.00000000000E+00 -0.00000000000E+00 -0.45593999997E+02  0.45594000000E+02  0.51100000000E-03 0.  1.
    9900012    2    1    2    0    0 -0.11086112192E+02  0.37222932232E+02  0.12029859920E+02  0.50528854692E+02  0.29999984321E+02 0.  0.
        -12    1    1    2    0    0  0.11086112192E+02 -0.37222932232E+02 -0.12029859920E+02  0.40659145308E+02  0.00000000000E+00 0.  1.
         11    1    3    3    0    0  0.13033982441E+01  0.25976804464E+02 -0.16156289108E+01  0.26059613854E+02  0.51100000000E-03 0. -1.
        -11    1    3    3    0    0 -0.49033671245E+01 -0.17170159994E+01  0.22777794384E+01  0.56726918240E+01  0.51100000000E-03 0.  1.
        -12    1    3    3    0    0 -0.74861433114E+01  0.12963143767E+02  0.11367709392E+02  0.18796549014E+02  0.00000000000E+00 0.  1.
</event>
<event>
 7    1  0.5714431E-011  0.5052887E+02  0.7816164E-02  0.1300439E+00
        -11   -1    0    0    0    0  0.00000000000E+00  0.00000000000E+00  0.45593999997E+02  0.45594000000E+02  0.51100000000E-03 0. -1.
         11   -1    0    0    0    0 -0.00000000000E+00 -0.00000000000E+00 -0.45593999997E+02  0.45594000000E+02  0.51100000000E-03 0.  1.
    9900012    2    1    2    0    0 -0.46920039817E+01 -0.90471842930E+01  0.39361123138E+02  0.50528874829E+02  0.30000045531E+02 0.  0.
        -12    1    1    2    0    0  0.46920039817E+01  0.90471842930E+01 -0.39361123138E+02  0.40659125171E+02  0.00000000000E+00 0.  1.
         11    1    3    3    0    0 -0.78351465913E+01  0.74499582638E+01  0.24012310696E+02  0.26334055241E+02  0.51100000000E-03 0. -1.
        -11    1    3    3    0    0  0.24134020683E+01 -0.31945814651E+01  0.18234144260E+00  0.40078808544E+01  0.51100000000E-03 0.  1.
         12    1    3    3    0    0  0.72974054129E+00 -0.13302561092E+02  0.15166471000E+02  0.20186938734E+02  0.00000000000E+00 0. -1.
</event>
<event>
 7    1  0.5714431E-011  0.5052885E+02  0.7816164E-02  0.1300439E+00
        -11   -1    0    0    0    0  0.00000000000E+00  0.00000000000E+00  0.45593999997E+02  0.45594000000E+02  0.51100000000E-03 0. -1.
         11   -1    0    0    0    0 -0.00000000000E+00 -0.00000000000E+00 -0.45593999997E+02  0.45594000000E+02  0.51100000000E-03 0.  1.
    9900012    2    1    2    0    0 -0.34461973600E+01  0.32809598022E+02  0.23765944386E+02  0.50528854520E+02  0.29999983799E+02 0.  0.
        -12    1    1    2    0    0  0.34461973600E+01 -0.32809598022E+02 -0.23765944386E+02  0.40659145480E+02  0.00000000000E+00 0.  1.
         11    1    3    3    0    0 -0.15542328553E+01  0.51005227991E+00  0.10213657482E+02  0.10343819049E+02  0.51100000000E-03 0. -1.
        -11    1    3    3    0    0  0.49131539507E+01  0.17313518737E+02 -0.12616904092E+01  0.18041310256E+02  0.51100000000E-03 0.  1.
        -12    1    3    3    0    0 -0.68051184554E+01  0.14986027005E+02  0.14813977313E+02  0.22143725216E+02  0.00000000000E+00 0.  1.
</event>
<event>
 7    1  0.5714431E-011  0.5052887E+02  0.7816164E-02  0.1300439E+00
        -11   -1    0    0    0    0  0.00000000000E+00  0.00000000000E+00  0.45593999997E+02  0.45594000000E+02  0.51100000000E-03 0.  1.
         11   -1    0    0    0    0 -0.00000000000E+00 -0.00000000000E+00 -0.45593999997E+02  0.45594000000E+02  0.51100000000E-03 0. -1.
    9900012    2    1    2    0    0 -0.20437195370E+02 -0.13517518721E+02 -0.32446297610E+02  0.50528874388E+02  0.30000044188E+02 0.  0.
        -12    1    1    2    0    0  0.20437195370E+02  0.13517518721E+02  0.32446297610E+02  0.40659125612E+02  0.00000000000E+00 0.  1.
         11    1    3    3    0    0 -0.19868060526E+02 -0.69849608032E+00 -0.65857659927E+01  0.20942780136E+02  0.51100000000E-03 0. -1.
        -11    1    3    3    0    0 -0.93067350512E+00 -0.84537565900E+01 -0.22535101772E+02  0.24086572313E+02  0.51100000000E-03 0.  1.
         12    1    3    3    0    0  0.36153866119E+00 -0.43652660503E+01 -0.33254298453E+01  0.54995219383E+01  0.00000000000E+00 0. -1.
</event>
<event>
 7    1  0.5714431E-011  0.5052890E+02  0.7816164E-02  0.1300439E+00
        -11   -1    0    0    0    0  0.00000000000E+00  0.00000000000E+00  0.45593999997E+02  0.45594000000E+02  0.51100000000E-03 0.  1.
         11   -1    0    0    0    0 -0.00000000000E+00 -0.00000000000E+00 -0.45593999997E+02  0.45594000000E+02  0.51100000000E-03 0. -1.
    9900012    2    1    2    0    0  0.85799205368E+01 -0.13824644009E+02 -0.37261594329E+02  0.50528902243E+02  0.30000128859E+02 0.  0.
        -12    1    1    2    0    0 -0.85799205368E+01  0.13824644009E+02  0.37261594329E+02  0.40659097757E+02  0.00000000000E+00 0.  1.
         11    1    3    3    0    0 -0.92471449596E+01 -0.58998962700E+01 -0.16347383573E+02  0.19686427198E+02  0.51100000000E-03 0. -1.
        -11    1    3    3    0    0  0.16867121407E+02 -0.58037093215E+01 -0.11685163417E+02  0.21324302351E+02  0.51100000000E-03 0.  1.
        -12    1    3    3    0    0  0.95994408990E+00 -0.21210384177E+01 -0.92290473399E+01  0.95181726937E+01  0.00000000000E+00 0.  1.
</event>
<event>
 7    1  0.5714431E-011  0.5052885E+02  0.7816164E-02  0.1300439E+00
        -11   -1    0    0    0    0  0.00000000000E+00  0.00000000000E+00  0.45593999997E+02  0.45594000000E+02  0.51100000000E-03 0. -1.
         11   -1    0    0    0    0 -0.00000000000E+00 -0.00000000000E+00 -0.45593999997E+02  0.45594000000E+02  0.51100000000E-03 0.  1.
    9900012    2    1    2    0    0  0.34812212356E+02 -0.20627023262E+02  0.39751584732E+01  0.50528854624E+02  0.29999984117E+02 0.  0.
        -12    1    1    2    0    0 -0.34812212356E+02  0.20627023262E+02 -0.39751584732E+01  0.40659145376E+02  0.00000000000E+00 0.  1.
         11    1    3    3    0    0  0.24642783490E+02 -0.75769304237E+01  0.71670854303E+01  0.26758994125E+02  0.51100000000E-03 0. -1.
        -11    1    3    3    0    0 -0.30136529651E+01 -0.44520075489E+01  0.37633386057E+01  0.65624075713E+01  0.51100000000E-03 0.  1.
         12    1    3    3    0    0  0.13183081832E+02 -0.85980852891E+01 -0.69552655628E+01  0.17207452928E+02  0.00000000000E+00 0. -1.
</event>
<event>
 7    1  0.5714431E-011  0.5052886E+02  0.7816164E-02  0.1300439E+00
        -11   -1    0    0    0    0  0.00000000000E+00  0.00000000000E+00  0.45593999997E+02  0.45594000000E+02  0.51100000000E-03 0.  1.
         11   -1    0    0    0    0 -0.00000000000E+00 -0.00000000000E+00 -0.45593999997E+02  0.45594000000E+02  0.51100000000E-03 0. -1.
    9900012    2    1    2    0    0 -0.86866512065E+01 -0.37616033828E+02 -0.12757034776E+02  0.50528857776E+02  0.29999993695E+02 0.  0.
        -12    1    1    2    0    0  0.86866512065E+01  0.37616033828E+02  0.12757034776E+02  0.40659142224E+02  0.00000000000E+00 0.  1.
         11    1    3    3    0    0 -0.82426635440E+01 -0.18690016707E+02 -0.23855798450E+01  0.20565729217E+02  0.51100000000E-03 0. -1.
        -11    1    3    3    0    0  0.62230213785E+01 -0.12039573817E+02 -0.14211230022E+02  0.19637626938E+02  0.51100000000E-03 0.  1.
        -12    1    3    3    0    0 -0.66670090409E+01 -0.68864433050E+01  0.38397750919E+01  0.10325501620E+02  0.00000000000E+00 0.  1.
</event>
<event>
 7    1  0.5714431E-011  0.5052887E+02  0.7816164E-02  0.1300439E+00
        -11   -1    0    0    0    0  0.00000000000E+00  0.00000000000E+00  0.45593999997E+02  0.45594000000E+02  0.51100000000E-03 0.  1.
         11   -1    0    0    0    0 -0.00000000000E+00 -0.00000000000E+00 -0.45593999997E+02  0.45594000000E+02  0.51100000000E-03 0. -1.
    9900012    2    1    2    0    0  0.19859387513E+02  0.24492444235E+02 -0.25668854682E+02  0.50528865753E+02  0.30000017942E+02 0.  0.
        -12    1    1    2    0    0 -0.19859387513E+02 -0.24492444235E+02  0.25668854682E+02  0.40659134247E+02  0.00000000000E+00 0.  1.
         11    1    3    3    0    0  0.14596611749E+02  0.15378008797E+01 -0.55730311591E+01  0.15699827472E+02  0.51100000000E-03 0. -1.
        -11    1    3    3    0    0 -0.46730074602E+01  0.15022471305E+02 -0.11006730632E+02  0.19200514636E+02  0.51100000000E-03 0.  1.
         12    1    3    3    0    0  0.99357832250E+01  0.79321720506E+01 -0.90890928917E+01  0.15628523645E+02  0.00000000000E+00 0. -1.
</event>
<event>
 7    1  0.5714431E-011  0.5052886E+02  0.7816164E-02  0.1300439E+00
        -11   -1    0    0    0    0  0.00000000000E+00  0.00000000000E+00  0.45593999997E+02  0.45594000000E+02  0.51100000000E-03 0. -1.
         11   -1    0    0    0    0 -0.00000000000E+00 -0.00000000000E+00 -0.45593999997E+02  0.45594000000E+02  0.51100000000E-03 0.  1.
    9900012    2    1    2    0    0  0.34928889163E+02  0.12828956033E+02 -0.16387689350E+02  0.50528858675E+02  0.29999996428E+02 0.  0.
        -12    1    1    2    0    0 -0.34928889163E+02 -0.12828956033E+02  0.16387689350E+02  0.40659141325E+02  0.00000000000E+00 0.  1.
         11    1    3    3    0    0  0.17192363705E+02  0.13061659112E+01  0.10749502977E+00  0.17242244476E+02  0.51100000000E-03 0. -1.
        -11    1    3    3    0    0 -0.21800943892E+01  0.83819611051E+01 -0.61702263456E+01  0.10633991580E+02  0.51100000000E-03 0.  1.
         12    1    3    3    0    0  0.19916619848E+02  0.31408290163E+01 -0.10324958034E+02  0.22652622618E+02  0.00000000000E+00 0. -1.
</event>
<event>
 7    1  0.5714431E-011  0.5052882E+02  0.7816164E-02  0.1300439E+00
        -11   -1    0    0    0    0  0.00000000000E+00  0.00000000000E+00  0.45593999997E+02  0.45594000000E+02  0.51100000000E-03 0.  1.
         11   -1    0    0    0    0 -0.00000000000E+00 -0.00000000000E+00 -0.45593999997E+02  0.45594000000E+02  0.51100000000E-03 0. -1.
    9900012    2    1    2    0    0 -0.35427272979E+02 -0.18586338069E+02 -0.72543151073E+01  0.50528822423E+02  0.29999886237E+02 0.  0.
        -12    1    1    2    0    0  0.35427272979E+02  0.18586338069E+02  0.72543151073E+01  0.40659177577E+02  0.00000000000E+00 0.  1.
         11    1    3    3    0    0  0.31885224976E+01 -0.23430980715E+01  0.42430551024E+01  0.58017498355E+01  0.51100000000E-03 0. -1.
        -11    1    3    3    0    0 -0.32532757474E+02 -0.17181024153E+02 -0.80095470899E+01  0.37652632639E+02  0.51100000000E-03 0.  1.
        -12    1    3    3    0    0 -0.60830380031E+01  0.93778415609E+00 -0.34878231197E+01  0.70744399485E+01  0.00000000000E+00 0.  1.
</event>
<event>
 7    1  0.5714431E-011  0.5052886E+02  0.7816164E-02  0.1300439E+00
        -11   -1    0    0    0    0  0.00000000000E+00  0.00000000000E+00  0.45593999997E+02  0.45594000000E+02  0.51100000000E-03 0.  1.
         11   -1    0    0    0    0 -0.00000000000E+00 -0.00000000000E+00 -0.45593999997E+02  0.45594000000E+02  0.51100000000E-03 0. -1.
    9900012    2    1    2    0    0 -0.36205795720E-01 -0.16730888954E+02 -0.37057278432E+02  0.50528857845E+02  0.29999993905E+02 0.  0.
        -12    1    1    2    0    0  0.36205795720E-01  0.16730888954E+02  0.37057278432E+02  0.40659142155E+02  0.00000000000E+00 0.  1.
         11    1    3    3    0    0 -0.68077103253E+01 -0.48052619640E+01 -0.13800660486E+02  0.16121218705E+02  0.51100000000E-03 0. -1.
        -11    1    3    3    0    0  0.86912562611E+01 -0.16433112885E+02 -0.11988016240E+02  0.22120073873E+02  0.51100000000E-03 0.  1.
        -12    1    3    3    0    0 -0.19197517316E+01  0.45074858950E+01 -0.11268601705E+02  0.12287565267E+02  0.00000000000E+00 0.  1.
</event>
<event>
 7    1  0.5714431E-011  0.5052885E+02  0.7816164E-02  0.1300439E+00
        -11   -1    0    0    0    0  0.00000000000E+00  0.00000000000E+00  0.45593999997E+02  0.45594000000E+02  0.51100000000E-03 0.  1.
         11   -1    0    0    0    0 -0.00000000000E+00 -0.00000000000E+00 -0.45593999997E+02  0.45594000000E+02  0.51100000000E-03 0. -1.
    9900012    2    1    2    0    0 -0.22602442014E+02 -0.12125700229E+02 -0.31547799805E+02  0.50528847726E+02  0.29999963149E+02 0.  0.
        -12    1    1    2    0    0  0.22602442014E+02  0.12125700229E+02  0.31547799805E+02  0.40659152274E+02  0.00000000000E+00 0.  1.
         11    1    3    3    0    0 -0.13246458592E+02 -0.11103440080E+02 -0.20419313413E+02  0.26752633653E+02  0.51100000000E-03 0. -1.
        -11    1    3    3    0    0  0.37262431961E+01  0.51551816915E+01 -0.48797171790E+01  0.80170085840E+01  0.51100000000E-03 0.  1.
        -12    1    3    3    0    0 -0.13082226618E+02 -0.61774418409E+01 -0.62487692133E+01  0.15759205490E+02  0.00000000000E+00 0.  1.
</event>
<event>
 7    1  0.5714431E-011  0.5052886E+02  0.7816164E-02  0.1300439E+00
        -11   -1    0    0    0    0  0.00000000000E+00  0.00000000000E+00  0.45593999997E+02  0.45594000000E+02  0.51100000000E-03 0.  1.
         11   -1    0    0    0    0 -0.00000000000E+00 -0.00000000000E+00 -0.45593999997E+02  0.45594000000E+02  0.51100000000E-03 0. -1.
    9900012    2    1    2    0    0 -0.19112751450E+02 -0.25491912847E+02 -0.25259274569E+02  0.50528857850E+02  0.29999993922E+02 0.  0.
        -12    1    1    2    0    0  0.19112751450E+02  0.25491912847E+02  0.25259274569E+02  0.40659142150E+02  0.00000000000E+00 0.  1.
         11    1    3    3    0    0  0.18146788984E+01 -0.36147050415E+01 -0.10660424484E+02  0.11401921000E+02  0.51100000000E-03 0.  1.
        -11    1    3    3    0    0 -0.15865773631E+02 -0.20211091166E+02 -0.23896021245E+01  0.25805448603E+02  0.51100000000E-03 0. -1.
         12    1    3    3    0    0 -0.50616567184E+01 -0.16661166399E+01 -0.12209247960E+02  0.13321488248E+02  0.00000000000E+00 0. -1.
</event>
<event>
 7    1  0.5714431E-011  0.5052879E+02  0.7816164E-02  0.1300439E+00
        -11   -1    0    0    0    0  0.00000000000E+00  0.00000000000E+00  0.45593999997E+02  0.45594000000E+02  0.51100000000E-03 0.  1.
         11   -1    0    0    0    0 -0.00000000000E+00 -0.00000000000E+00 -0.45593999997E+02  0.45594000000E+02  0.51100000000E-03 0. -1.
    9900012    2    1    2    0    0 -0.74397370975E+00  0.89458050522E+00 -0.40642559697E+02  0.50528789113E+02  0.29999784989E+02 0.  0.
        -12    1    1    2    0    0  0.74397370975E+00 -0.89458050522E+00  0.40642559697E+02  0.40659210887E+02  0.00000000000E+00 0.  1.
         11    1    3    3    0    0 -0.23115509161E+01  0.81868671765E+01 -0.36498182138E+02  0.37476464101E+02  0.51100000000E-03 0. -1.
        -11    1    3    3    0    0 -0.16400444639E-01  0.19403366823E+01 -0.30584797750E+01  0.36220814749E+01  0.51100000000E-03 0.  1.
         12    1    3    3    0    0  0.15839776510E+01 -0.92326233536E+01 -0.10858977838E+01  0.94302435380E+01  0.00000000000E+00 0. -1.
</event>
<event>
 7    1  0.5714431E-011  0.5052885E+02  0.7816164E-02  0.1300439E+00
        -11   -1    0    0    0    0  0.00000000000E+00  0.00000000000E+00  0.45593999997E+02  0.45594000000E+02  0.51100000000E-03 0.  1.
         11   -1    0    0    0    0 -0.00000000000E+00 -0.00000000000E+00 -0.45593999997E+02  0.45594000000E+02  0.51100000000E-03 0. -1.
    9900012    2    1    2    0    0 -0.24872863625E+02  0.30448650187E+02 -0.10362742742E+02  0.50528854900E+02  0.29999984955E+02 0.  0.
        -12    1    1    2    0    0  0.24872863625E+02 -0.30448650187E+02  0.10362742742E+02  0.40659145100E+02  0.00000000000E+00 0.  1.
         11    1    3    3    0    0 -0.17517194357E+02  0.17745303897E+02  0.18080373450E+01  0.25000338154E+02  0.51100000000E-03 0. -1.
        -11    1    3    3    0    0  0.29534416255E+01  0.39930645610E+00  0.24177513804E+01  0.38376796479E+01  0.51100000000E-03 0.  1.
         12    1    3    3    0    0 -0.10309110894E+02  0.12304039834E+02 -0.14588531467E+02  0.21690837098E+02  0.00000000000E+00 0. -1.
</event>
<event>
 7    1  0.5714431E-011  0.5052885E+02  0.7816164E-02  0.1300439E+00
        -11   -1    0    0    0    0  0.00000000000E+00  0.00000000000E+00  0.45593999997E+02  0.45594000000E+02  0.51100000000E-03 0. -1.
         11   -1    0    0    0    0 -0.00000000000E+00 -0.00000000000E+00 -0.45593999997E+02  0.45594000000E+02  0.51100000000E-03 0.  1.
    9900012    2    1    2    0    0  0.21854435267E+02 -0.30637356934E+02 -0.15391630988E+02  0.50528852380E+02  0.29999977294E+02 0.  0.
        -12    1    1    2    0    0 -0.21854435267E+02  0.30637356934E+02  0.15391630988E+02  0.40659147620E+02  0.00000000000E+00 0.  1.
         11    1    3    3    0    0  0.48031965822E+01 -0.17060916624E+02 -0.20456776867E+02  0.27067051807E+02  0.51100000000E-03 0. -1.
        -11    1    3    3    0    0  0.24031029503E+01  0.62917162986E+00  0.85326122658E+00  0.26265596721E+01  0.51100000000E-03 0.  1.
         12    1    3    3    0    0  0.14648135734E+02 -0.14205611940E+02  0.42118846525E+01  0.20835240901E+02  0.00000000000E+00 0. -1.
</event>
<event>
 7    1  0.5714431E-011  0.5052886E+02  0.7816164E-02  0.1300439E+00
        -11   -1    0    0    0    0  0.00000000000E+00  0.00000000000E+00  0.45593999997E+02  0.45594000000E+02  0.51100000000E-03 0. -1.
         11   -1    0    0    0    0 -0.00000000000E+00 -0.00000000000E+00 -0.45593999997E+02  0.45594000000E+02  0.51100000000E-03 0.  1.
    9900012    2    1    2    0    0  0.25935471883E+02 -0.28754714878E+02  0.12396896046E+02  0.50528863744E+02  0.30000011836E+02 0.  0.
        -12    1    1    2    0    0 -0.25935471883E+02  0.28754714878E+02 -0.12396896046E+02  0.40659136256E+02  0.00000000000E+00 0.  1.
         11    1    3    3    0    0  0.30088243829E+02 -0.20217868596E+02  0.15486829287E+02  0.39419620862E+02  0.51100000000E-03 0. -1.
        -11    1    3    3    0    0 -0.76542842405E+00 -0.27550103904E+01  0.12552238939E+01  0.31227472214E+01  0.51100000000E-03 0.  1.
         12    1    3    3    0    0 -0.33873435217E+01 -0.57818358910E+01 -0.43451571346E+01  0.79864956601E+01  0.00000000000E+00 0. -1.
</event>
<event>
 7    1  0.5714431E-011  0.5052887E+02  0.7816164E-02  0.1300439E+00
        -11   -1    0    0    0    0  0.00000000000E+00  0.00000000000E+00  0.45593999997E+02  0.45594000000E+02  0.51100000000E-03 0. -1.
         11   -1    0    0    0    0 -0.00000000000E+00 -0.00000000000E+00 -0.45593999997E+02  0.45594000000E+02  0.51100000000E-03 0.  1.
    9900012    2    1    2    0    0 -0.28873602124E+02 -0.28418416721E+02 -0.34457722504E+01  0.50528872428E+02  0.30000038232E+02 0.  0.
        -12    1    1    2    0    0  0.28873602124E+02  0.28418416721E+02  0.34457722504E+01  0.40659127572E+02  0.00000000000E+00 0.  1.
         11    1    3    3    0    0 -0.16605925400E+02 -0.28547976907E+02  0.49552949856E+01  0.33396087982E+02  0.51100000000E-03 0. -1.
        -11    1    3    3    0    0 -0.64862896201E+01  0.42558771001E+01 -0.52169900868E+01  0.93488731275E+01  0.51100000000E-03 0.  1.
         12    1    3    3    0    0 -0.57813871038E+01 -0.41263169141E+01 -0.31840771492E+01  0.77839113183E+01  0.00000000000E+00 0. -1.
</event>
<event>
 7    1  0.5714431E-011  0.5052886E+02  0.7816164E-02  0.1300439E+00
        -11   -1    0    0    0    0  0.00000000000E+00  0.00000000000E+00  0.45593999997E+02  0.45594000000E+02  0.51100000000E-03 0. -1.
         11   -1    0    0    0    0 -0.00000000000E+00 -0.00000000000E+00 -0.45593999997E+02  0.45594000000E+02  0.51100000000E-03 0.  1.
    9900012    2    1    2    0    0 -0.32148663137E+00 -0.31926916743E+02  0.25174086317E+02  0.50528856031E+02  0.29999988392E+02 0.  0.
        -12    1    1    2    0    0  0.32148663137E+00  0.31926916743E+02 -0.25174086317E+02  0.40659143969E+02  0.00000000000E+00 0.  1.
         11    1    3    3    0    0  0.11969705907E+01 -0.15402469311E-01  0.13601606762E+02  0.13654181872E+02  0.51100000000E-03 0. -1.
        -11    1    3    3    0    0  0.52621212890E+01 -0.21435430577E+02  0.44831883739E+01  0.22522579398E+02  0.51100000000E-03 0.  1.
        -12    1    3    3    0    0 -0.67805785112E+01 -0.10476083697E+02  0.70892911809E+01  0.14352094761E+02  0.00000000000E+00 0.  1.
</event>
<event>
 7    1  0.5714431E-011  0.5052880E+02  0.7816164E-02  0.1300439E+00
        -11   -1    0    0    0    0  0.00000000000E+00  0.00000000000E+00  0.45593999997E+02  0.45594000000E+02  0.51100000000E-03 0. -1.
         11   -1    0    0    0    0 -0.00000000000E+00 -0.00000000000E+00 -0.45593999997E+02  0.45594000000E+02  0.51100000000E-03 0.  1.
    9900012    2    1    2    0    0 -0.13001563693E+02  0.18787636555E+02  0.33632638654E+02  0.50528802657E+02  0.29999826155E+02 0.  0.
        -12    1    1    2    0    0  0.13001563693E+02 -0.18787636555E+02 -0.33632638654E+02  0.40659197343E+02  0.00000000000E+00 0.  1.
         11    1    3    3    0    0 -0.19109912199E+02  0.10544088777E+02  0.18645846313E+02  0.28705994798E+02  0.51100000000E-03 0. -1.
        -11    1    3    3    0    0  0.45185192144E+01  0.62849476068E+01  0.16945028744E+02  0.18629320484E+02  0.51100000000E-03 0.  1.
         12    1    3    3    0    0  0.15898292909E+01  0.19586001709E+01 -0.19582364027E+01  0.31934873747E+01  0.00000000000E+00 0. -1.
</event>
<event>
 7    1  0.5714431E-011  0.5052886E+02  0.7816164E-02  0.1300439E+00
        -11   -1    0    0    0    0  0.00000000000E+00  0.00000000000E+00  0.45593999997E+02  0.45594000000E+02  0.51100000000E-03 0.  1.
         11   -1    0    0    0    0 -0.00000000000E+00 -0.00000000000E+00 -0.45593999997E+02  0.45594000000E+02  0.51100000000E-03 0. -1.
    9900012    2    1    2    0    0  0.13151554763E+01  0.40400221108E+02 -0.43884014927E+01  0.50528861209E+02  0.30000004132E+02 0.  0.
        -12    1    1    2    0    0 -0.13151554763E+01 -0.40400221108E+02  0.43884014927E+01  0.40659138791E+02  0.00000000000E+00 0.  1.
         11    1    3    3    0    0  0.29217260414E+01  0.27289604237E+02  0.35503583257E+01  0.27674248444E+02  0.51100000000E-03 0. -1.
        -11    1    3    3    0    0  0.10772811466E+01  0.15042257643E+02 -0.10745399106E+02  0.18517387826E+02  0.51100000000E-03 0.  1.
         12    1    3    3    0    0 -0.26838517118E+01 -0.19316407714E+01  0.28066392882E+01  0.43372249393E+01  0.00000000000E+00 0. -1.
</event>
<event>
 7    1  0.5714431E-011  0.5052887E+02  0.7816164E-02  0.1300439E+00
        -11   -1    0    0    0    0  0.00000000000E+00  0.00000000000E+00  0.45593999997E+02  0.45594000000E+02  0.51100000000E-03 0.  1.
         11   -1    0    0    0    0 -0.00000000000E+00 -0.00000000000E+00 -0.45593999997E+02  0.45594000000E+02  0.51100000000E-03 0. -1.
    9900012    2    1    2    0    0 -0.21052787076E+02  0.11405363162E+02 -0.32861269987E+02  0.50528865508E+02  0.30000017198E+02 0.  0.
        -12    1    1    2    0    0  0.21052787076E+02 -0.11405363162E+02  0.32861269987E+02  0.40659134492E+02  0.00000000000E+00 0.  1.
         11    1    3    3    0    0 -0.14002283916E+02 -0.73885972281E+01 -0.58869311271E+01  0.16891159884E+02  0.51100000000E-03 0. -1.
        -11    1    3    3    0    0 -0.32069043406E+01  0.94023365301E+01 -0.12696940641E+02  0.16121428894E+02  0.51100000000E-03 0.  1.
         12    1    3    3    0    0 -0.38435988196E+01  0.93916238597E+01 -0.14277398218E+02  0.17516276730E+02  0.00000000000E+00 0. -1.
</event>
<event>
 7    1  0.5714431E-011  0.5052886E+02  0.7816164E-02  0.1300439E+00
        -11   -1    0    0    0    0  0.00000000000E+00  0.00000000000E+00  0.45593999997E+02  0.45594000000E+02  0.51100000000E-03 0.  1.
         11   -1    0    0    0    0 -0.00000000000E+00 -0.00000000000E+00 -0.45593999997E+02  0.45594000000E+02  0.51100000000E-03 0. -1.
    9900012    2    1    2    0    0  0.88016505009E+01 -0.91379963649E+01 -0.38628920040E+02  0.50528862127E+02  0.30000006922E+02 0.  0.
        -12    1    1    2    0    0 -0.88016505009E+01  0.91379963649E+01  0.38628920040E+02  0.40659137873E+02  0.00000000000E+00 0.  1.
         11    1    3    3    0    0  0.79504260935E+01 -0.17916255204E+02 -0.31963087755E+02  0.37494538999E+02  0.51100000000E-03 0. -1.
        -11    1    3    3    0    0  0.40442089469E+00  0.87319919678E+01 -0.78618734109E+01  0.11756712711E+02  0.51100000000E-03 0.  1.
        -12    1    3    3    0    0  0.44680351264E+00  0.46266870904E-01  0.11960411265E+01  0.12776104173E+01  0.00000000000E+00 0.  1.
</event>
<event>
 7    1  0.5714431E-011  0.5052886E+02  0.7816164E-02  0.1300439E+00
        -11   -1    0    0    0    0  0.00000000000E+00  0.00000000000E+00  0.45593999997E+02  0.45594000000E+02  0.51100000000E-03 0.  1.
         11   -1    0    0    0    0 -0.00000000000E+00 -0.00000000000E+00 -0.45593999997E+02  0.45594000000E+02  0.51100000000E-03 0. -1.
    9900012    2    1    2    0    0  0.18933341252E+02 -0.12546541185E+02 -0.33723555987E+02  0.50528864064E+02  0.30000012809E+02 0.  0.
        -12    1    1    2    0    0 -0.18933341252E+02  0.12546541185E+02  0.33723555987E+02  0.40659135936E+02  0.00000000000E+00 0.  1.
         11    1    3    3    0    0  0.20259234798E+02  0.11747921608E+01 -0.24430397145E+02  0.31759424367E+02  0.51100000000E-03 0. -1.
        -11    1    3    3    0    0  0.32865977607E+01 -0.76182240062E+01 -0.28663508458E+01  0.87780994117E+01  0.51100000000E-03 0.  1.
         12    1    3    3    0    0 -0.46124913072E+01 -0.61031093397E+01 -0.64268079961E+01  0.99913402850E+01  0.00000000000E+00 0. -1.
</event>
<event>
 7    1  0.5714431E-011  0.5052886E+02  0.7816164E-02  0.1300439E+00
        -11   -1    0    0    0    0  0.00000000000E+00  0.00000000000E+00  0.45593999997E+02  0.45594000000E+02  0.51100000000E-03 0. -1.
         11   -1    0    0    0    0 -0.00000000000E+00 -0.00000000000E+00 -0.45593999997E+02  0.45594000000E+02  0.51100000000E-03 0.  1.
    9900012    2    1    2    0    0 -0.29574916683E+02  0.27124336745E+02  0.65391423430E+01  0.50528859290E+02  0.29999998299E+02 0.  0.
        -12    1    1    2    0    0  0.29574916683E+02 -0.27124336745E+02 -0.65391423430E+01  0.40659140710E+02  0.00000000000E+00 0.  1.
         11    1    3    3    0    0 -0.10871217149E+02  0.14012562298E+02  0.53854832723E+01  0.18534796865E+02  0.51100000000E-03 0. -1.
        -11    1    3    3    0    0 -0.84645213749E+01 -0.26987707139E+01  0.79965849956E+01  0.11953110780E+02  0.51100000000E-03 0.  1.
        -12    1    3    3    0    0 -0.10239178159E+02  0.15810545160E+02 -0.68429259249E+01  0.20040951645E+02  0.00000000000E+00 0.  1.
</event>
<event>
 7    1  0.5714431E-011  0.5052886E+02  0.7816164E-02  0.1300439E+00
        -11   -1    0    0    0    0  0.00000000000E+00  0.00000000000E+00  0.45593999997E+02  0.45594000000E+02  0.51100000000E-03 0.  1.
         11   -1    0    0    0    0 -0.00000000000E+00 -0.00000000000E+00 -0.45593999997E+02  0.45594000000E+02  0.51100000000E-03 0. -1.
    9900012    2    1    2    0    0  0.25796978349E+02 -0.21031256677E+02 -0.23353107218E+02  0.50528862453E+02  0.30000007912E+02 0.  0.
        -12    1    1    2    0    0 -0.25796978349E+02  0.21031256677E+02  0.23353107218E+02  0.40659137547E+02  0.00000000000E+00 0.  1.
         11    1    3    3    0    0 -0.53896742626E+01 -0.46858062468E+01  0.63277525569E-01  0.71420846498E+01  0.51100000000E-03 0. -1.
        -11    1    3    3    0    0  0.48338500134E+01  0.25465952236E+00 -0.59771925459E+01  0.76914100408E+01  0.51100000000E-03 0.  1.
         12    1    3    3    0    0  0.26352802598E+02 -0.16600109952E+02 -0.17439192198E+02  0.35695367762E+02  0.00000000000E+00 0. -1.
</event>
<event>
 7    1  0.5714431E-011  0.5052887E+02  0.7816164E-02  0.1300439E+00
        -11   -1    0    0    0    0  0.00000000000E+00  0.00000000000E+00  0.45593999997E+02  0.45594000000E+02  0.51100000000E-03 0.  1.
         11   -1    0    0    0    0 -0.00000000000E+00 -0.00000000000E+00 -0.45593999997E+02  0.45594000000E+02  0.51100000000E-03 0. -1.
    9900012    2    1    2    0    0  0.29343595004E+02 -0.27938242803E+02  0.34018889715E+01  0.50528870309E+02  0.30000031792E+02 0.  0.
        -12    1    1    2    0    0 -0.29343595004E+02  0.27938242803E+02 -0.34018889715E+01  0.40659129691E+02  0.00000000000E+00 0.  1.
         11    1    3    3    0    0  0.16902736092E+02 -0.82558786085E+01 -0.93381943913E+01  0.21001521224E+02  0.51100000000E-03 0. -1.
        -11    1    3    3    0    0  0.14553519456E+02 -0.18616382897E+02  0.93933174806E+01  0.25428508692E+02  0.51100000000E-03 0.  1.
         12    1    3    3    0    0 -0.21126605441E+01 -0.10659812973E+01  0.33467658822E+01  0.40988403934E+01  0.00000000000E+00 0. -1.
</event>
<event>
 7    1  0.5714431E-011  0.5052886E+02  0.7816164E-02  0.1300439E+00
        -11   -1    0    0    0    0  0.00000000000E+00  0.00000000000E+00  0.45593999997E+02  0.45594000000E+02  0.51100000000E-03 0.  1.
         11   -1    0    0    0    0 -0.00000000000E+00 -0.00000000000E+00 -0.45593999997E+02  0.45594000000E+02  0.51100000000E-03 0. -1.
    9900012    2    1    2    0    0 -0.28136497454E+02  0.28281950745E+02 -0.78507552128E+01  0.50528860998E+02  0.30000003490E+02 0.  0.
        -12    1    1    2    0    0  0.28136497454E+02 -0.28281950745E+02  0.78507552128E+01  0.40659139002E+02  0.00000000000E+00 0.  1.
         11    1    3    3    0    0 -0.12020399700E+01  0.13971648480E+02 -0.34765375263E+01  0.14447774042E+02  0.51100000000E-03 0. -1.
        -11    1    3    3    0    0 -0.21701571517E+02  0.10350140010E+02  0.50783452969E+01  0.24573831524E+02  0.51100000000E-03 0.  1.
        -12    1    3    3    0    0 -0.52328859671E+01  0.39601622552E+01 -0.94525629834E+01  0.11507255432E+02  0.00000000000E+00 0.  1.
</event>
<event>
 7    1  0.5714431E-011  0.5052886E+02  0.7816164E-02  0.1300439E+00
        -11   -1    0    0    0    0  0.00000000000E+00  0.00000000000E+00  0.45593999997E+02  0.45594000000E+02  0.51100000000E-03 0. -1.
         11   -1    0    0    0    0 -0.00000000000E+00 -0.00000000000E+00 -0.45593999997E+02  0.45594000000E+02  0.51100000000E-03 0.  1.
    9900012    2    1    2    0    0 -0.25059247460E+02  0.18751549252E+02 -0.25953399856E+02  0.50528862691E+02  0.30000008636E+02 0.  0.
        -12    1    1    2    0    0  0.25059247460E+02 -0.18751549252E+02  0.25953399856E+02  0.40659137309E+02  0.00000000000E+00 0.  1.
         11    1    3    3    0    0 -0.13290181880E+01  0.27784478346E+01  0.56394540242E+01  0.64256909096E+01  0.51100000000E-03 0. -1.
        -11    1    3    3    0    0 -0.19911836103E+02  0.16756435895E+02 -0.30419352688E+02  0.40032441583E+02  0.51100000000E-03 0.  1.
        -12    1    3    3    0    0 -0.38183931690E+01 -0.78333447795E+00 -0.11735011922E+01  0.40707301980E+01  0.00000000000E+00 0.  1.
</event>
<event>
 7    1  0.5714431E-011  0.5052886E+02  0.7816164E-02  0.1300439E+00
        -11   -1    0    0    0    0  0.00000000000E+00  0.00000000000E+00  0.45593999997E+02  0.45594000000E+02  0.51100000000E-03 0. -1.
         11   -1    0    0    0    0 -0.00000000000E+00 -0.00000000000E+00 -0.45593999997E+02  0.45594000000E+02  0.51100000000E-03 0.  1.
    9900012    2    1    2    0    0  0.22448678967E+02  0.33878241181E+02 -0.12195173256E+01  0.50528860371E+02  0.30000001584E+02 0.  0.
        -12    1    1    2    0    0 -0.22448678967E+02 -0.33878241181E+02  0.12195173256E+01  0.40659139629E+02  0.00000000000E+00 0.  1.
         11    1    3    3    0    0  0.21880826950E+02  0.27038198552E+02 -0.13803571823E+01  0.34810058247E+02  0.51100000000E-03 0. -1.
        -11    1    3    3    0    0 -0.65634679939E+00 -0.32382796758E+01  0.37061670078E+01  0.49651707454E+01  0.51100000000E-03 0.  1.
         12    1    3    3    0    0  0.12241988162E+01  0.10078322305E+02 -0.35453271511E+01  0.10753631378E+02  0.00000000000E+00 0. -1.
</event>
<event>
 7    1  0.5714431E-011  0.5052883E+02  0.7816164E-02  0.1300439E+00
        -11   -1    0    0    0    0  0.00000000000E+00  0.00000000000E+00  0.45593999997E+02  0.45594000000E+02  0.51100000000E-03 0.  1.
         11   -1    0    0    0    0 -0.00000000000E+00 -0.00000000000E+00 -0.45593999997E+02  0.45594000000E+02  0.51100000000E-03 0. -1.
    9900012    2    1    2    0    0  0.26013724763E+02 -0.13649615242E+02 -0.28109471776E+02  0.50528827900E+02  0.29999902885E+02 0.  0.
        -12    1    1    2    0    0 -0.26013724763E+02  0.13649615242E+02  0.28109471776E+02  0.40659172100E+02  0.00000000000E+00 0.  1.
         11    1    3    3    0    0  0.70072130975E+01 -0.47201100466E+01 -0.25442732431E+01  0.88234800868E+01  0.51100000000E-03 0. -1.
        -11    1    3    3    0    0  0.10410137629E+02  0.37951930843E+01 -0.23793743259E+02  0.26247222225E+02  0.51100000000E-03 0.  1.
        -12    1    3    3    0    0  0.85963740374E+01 -0.12724698280E+02 -0.17714552738E+01  0.15458125588E+02  0.00000000000E+00 0.  1.
</event>
<event>
 7    1  0.5714431E-011  0.5052888E+02  0.7816164E-02  0.1300439E+00
        -11   -1    0    0    0    0  0.00000000000E+00  0.00000000000E+00  0.45593999997E+02  0.45594000000E+02  0.51100000000E-03 0. -1.
         11   -1    0    0    0    0 -0.00000000000E+00 -0.00000000000E+00 -0.45593999997E+02  0.45594000000E+02  0.51100000000E-03 0.  1.
    9900012    2    1    2    0    0 -0.73913641230E+01  0.39118569675E+02  0.82625269141E+01  0.50528879153E+02  0.30000058673E+02 0.  0.
        -12    1    1    2    0    0  0.73913641230E+01 -0.39118569675E+02 -0.82625269141E+01  0.40659120847E+02  0.00000000000E+00 0.  1.
         11    1    3    3    0    0  0.88660049082E+00  0.33556444655E+02  0.16542132288E+02  0.37422762849E+02  0.51100000000E-03 0. -1.
        -11    1    3    3    0    0 -0.70165717642E+01  0.42606535365E+01 -0.58733707979E+01  0.10093658042E+02  0.51100000000E-03 0.  1.
         12    1    3    3    0    0 -0.12613928495E+01  0.13014714840E+01 -0.24062345764E+01  0.30124582622E+01  0.00000000000E+00 0. -1.
</event>
<event>
 7    1  0.5714431E-011  0.5052888E+02  0.7816164E-02  0.1300439E+00
        -11   -1    0    0    0    0  0.00000000000E+00  0.00000000000E+00  0.45593999997E+02  0.45594000000E+02  0.51100000000E-03 0. -1.
         11   -1    0    0    0    0 -0.00000000000E+00 -0.00000000000E+00 -0.45593999997E+02  0.45594000000E+02  0.51100000000E-03 0.  1.
    9900012    2    1    2    0    0 -0.30238490837E+02 -0.40336289930E+01  0.26879878176E+02  0.50528876279E+02  0.30000049939E+02 0.  0.
        -12    1    1    2    0    0  0.30238490837E+02  0.40336289930E+01 -0.26879878176E+02  0.40659123721E+02  0.00000000000E+00 0.  1.
         11    1    3    3    0    0 -0.61845031137E+01  0.67895511766E+01  0.11773813685E+02  0.14932138926E+02  0.51100000000E-03 0. -1.
        -11    1    3    3    0    0 -0.14606926412E+02 -0.13195865393E+02  0.27700512380E+01  0.19878791382E+02  0.51100000000E-03 0.  1.
        -12    1    3    3    0    0 -0.94470613110E+01  0.23726852236E+01  0.12336013253E+02  0.15717945972E+02  0.00000000000E+00 0.  1.
</event>
<event>
 7    1  0.5714431E-011  0.5052887E+02  0.7816164E-02  0.1300439E+00
        -11   -1    0    0    0    0  0.00000000000E+00  0.00000000000E+00  0.45593999997E+02  0.45594000000E+02  0.51100000000E-03 0.  1.
         11   -1    0    0    0    0 -0.00000000000E+00 -0.00000000000E+00 -0.45593999997E+02  0.45594000000E+02  0.51100000000E-03 0. -1.
    9900012    2    1    2    0    0  0.25997147055E+02  0.15363735302E+02 -0.27226260050E+02  0.50528865064E+02  0.30000015849E+02 0.  0.
        -12    1    1    2    0    0 -0.25997147055E+02 -0.15363735302E+02  0.27226260050E+02  0.40659134936E+02  0.00000000000E+00 0.  1.
         11    1    3    3    0    0 -0.23606835850E+01  0.10912378827E+02 -0.77535143879E+01  0.13593006448E+02  0.51100000000E-03 0. -1.
        -11    1    3    3    0    0  0.14315705115E+02  0.83725225048E+01 -0.81647288416E+01  0.18485165494E+02  0.51100000000E-03 0.  1.
         12    1    3    3    0    0  0.14042125525E+02 -0.39211660300E+01 -0.11308016820E+02  0.18450693122E+02  0.00000000000E+00 0. -1.
</event>
<event>
 7    1  0.5714431E-011  0.5052886E+02  0.7816164E-02  0.1300439E+00
        -11   -1    0    0    0    0  0.00000000000E+00  0.00000000000E+00  0.45593999997E+02  0.45594000000E+02  0.51100000000E-03 0.  1.
         11   -1    0    0    0    0 -0.00000000000E+00 -0.00000000000E+00 -0.45593999997E+02  0.45594000000E+02  0.51100000000E-03 0. -1.
    9900012    2    1    2    0    0 -0.23930346026E+02  0.10862907414E+02 -0.31024210850E+02  0.50528857397E+02  0.29999992543E+02 0.  0.
        -12    1    1    2    0    0  0.23930346026E+02 -0.10862907414E+02  0.31024210850E+02  0.40659142603E+02  0.00000000000E+00 0.  1.
         11    1    3    3    0    0 -0.18084137296E+02  0.18562484916E+02 -0.25915243712E+02  0.36649716574E+02  0.51100000000E-03 0. -1.
        -11    1    3    3    0    0 -0.10289739250E+01 -0.24999059993E+01  0.23553555035E+01  0.35855288526E+01  0.51100000000E-03 0.  1.
        -12    1    3    3    0    0 -0.48172348046E+01 -0.51996715031E+01 -0.74643226411E+01  0.10293611970E+02  0.00000000000E+00 0.  1.
</event>
<event>
 7    1  0.5714431E-011  0.5052885E+02  0.7816164E-02  0.1300439E+00
        -11   -1    0    0    0    0  0.00000000000E+00  0.00000000000E+00  0.45593999997E+02  0.45594000000E+02  0.51100000000E-03 0. -1.
         11   -1    0    0    0    0 -0.00000000000E+00 -0.00000000000E+00 -0.45593999997E+02  0.45594000000E+02  0.51100000000E-03 0.  1.
    9900012    2    1    2    0    0  0.19841949973E+02  0.23117846992E+02 -0.26926350417E+02  0.50528853735E+02  0.29999981412E+02 0.  0.
        -12    1    1    2    0    0 -0.19841949973E+02 -0.23117846992E+02  0.26926350417E+02  0.40659146265E+02  0.00000000000E+00 0.  1.
         11    1    3    3    0    0  0.15256687541E+02  0.21107833946E+02 -0.26590797819E+02  0.37220662240E+02  0.51100000000E-03 0. -1.
        -11    1    3    3    0    0 -0.22475481630E+01 -0.14927105804E+01  0.37428500405E+01  0.46139553865E+01  0.51100000000E-03 0.  1.
         12    1    3    3    0    0  0.68328105956E+01  0.35027236258E+01 -0.40784026377E+01  0.86942361084E+01  0.00000000000E+00 0. -1.
</event>
<event>
 7    1  0.5714431E-011  0.5052886E+02  0.7816164E-02  0.1300439E+00
        -11   -1    0    0    0    0  0.00000000000E+00  0.00000000000E+00  0.45593999997E+02  0.45594000000E+02  0.51100000000E-03 0. -1.
         11   -1    0    0    0    0 -0.00000000000E+00 -0.00000000000E+00 -0.45593999997E+02  0.45594000000E+02  0.51100000000E-03 0.  1.
    9900012    2    1    2    0    0  0.33043945727E+02  0.21614737515E+01  0.23592184225E+02  0.50528862349E+02  0.30000007597E+02 0.  0.
        -12    1    1    2    0    0 -0.33043945727E+02 -0.21614737515E+01 -0.23592184225E+02  0.40659137651E+02  0.00000000000E+00 0.  1.
         11    1    3    3    0    0  0.23123889376E+02 -0.81074328161E+01  0.22005323414E+02  0.32934465011E+02  0.51100000000E-03 0. -1.
        -11    1    3    3    0    0  0.11928076722E+02  0.95691185534E+01  0.20180965174E+01  0.15424647743E+02  0.51100000000E-03 0.  1.
         12    1    3    3    0    0 -0.20080203703E+01  0.69978801411E+00 -0.43123570722E+00  0.21697495956E+01  0.00000000000E+00 0. -1.
</event>
<event>
 7    1  0.5714431E-011  0.5052884E+02  0.7816164E-02  0.1300439E+00
        -11   -1    0    0    0    0  0.00000000000E+00  0.00000000000E+00  0.45593999997E+02  0.45594000000E+02  0.51100000000E-03 0. -1.
         11   -1    0    0    0    0 -0.00000000000E+00 -0.00000000000E+00 -0.45593999997E+02  0.45594000000E+02  0.51100000000E-03 0.  1.
    9900012    2    1    2    0    0  0.94316377711E+01 -0.38021769717E+02  0.10888349390E+02  0.50528844624E+02  0.29999953719E+02 0.  0.
        -12    1    1    2    0    0 -0.94316377711E+01  0.38021769717E+02 -0.10888349390E+02  0.40659155376E+02  0.00000000000E+00 0.  1.
         11    1    3    3    0    0  0.56090745253E+01 -0.14124452199E+02  0.11216925752E+02  0.18888655075E+02  0.51100000000E-03 0. -1.
        -11    1    3    3    0    0  0.36075752386E+01 -0.26469905336E+01 -0.79009365230E+01  0.90799755610E+01  0.51100000000E-03 0.  1.
        -12    1    3    3    0    0  0.21498800709E+00 -0.21250326984E+02  0.75723601609E+01  0.22560213988E+02  0.00000000000E+00 0.  1.
</event>
<event>
 7    1  0.5714431E-011  0.5052885E+02  0.7816164E-02  0.1300439E+00
        -11   -1    0    0    0    0  0.00000000000E+00  0.00000000000E+00  0.45593999997E+02  0.45594000000E+02  0.51100000000E-03 0.  1.
         11   -1    0    0    0    0 -0.00000000000E+00 -0.00000000000E+00 -0.45593999997E+02  0.45594000000E+02  0.51100000000E-03 0. -1.
    9900012    2    1    2    0    0 -0.11439775933E+02 -0.21794909162E+01 -0.38955713258E+02  0.50528852819E+02  0.29999978630E+02 0.  0.
        -12    1    1    2    0    0  0.11439775933E+02  0.21794909162E+01  0.38955713258E+02  0.40659147181E+02  0.00000000000E+00 0.  1.
         11    1    3    3    0    0 -0.78380533341E+01 -0.11626657782E+00 -0.12882070566E+02  0.15079666452E+02  0.51100000000E-03 0. -1.
        -11    1    3    3    0    0  0.61833238880E+01  0.79064068708E+01 -0.10388234684E+02  0.14445074732E+02  0.51100000000E-03 0.  1.
        -12    1    3    3    0    0 -0.97850464867E+01 -0.99696312092E+01 -0.15685408008E+02  0.21004111635E+02  0.00000000000E+00 0.  1.
</event>
<event>
 7    1  0.5714431E-011  0.5052886E+02  0.7816164E-02  0.1300439E+00
        -11   -1    0    0    0    0  0.00000000000E+00  0.00000000000E+00  0.45593999997E+02  0.45594000000E+02  0.51100000000E-03 0.  1.
         11   -1    0    0    0    0 -0.00000000000E+00 -0.00000000000E+00 -0.45593999997E+02  0.45594000000E+02  0.51100000000E-03 0. -1.
    9900012    2    1    2    0    0 -0.29177866100E+01 -0.34733814350E+02 -0.20933577572E+02  0.50528855789E+02  0.29999987657E+02 0.  0.
        -12    1    1    2    0    0  0.29177866100E+01  0.34733814350E+02  0.20933577572E+02  0.40659144211E+02  0.00000000000E+00 0.  1.
         11    1    3    3    0    0  0.13634484435E+01 -0.51969198112E+01 -0.51587100597E+01  0.74484398986E+01  0.51100000000E-03 0. -1.
        -11    1    3    3    0    0 -0.14617064897E+02 -0.10481601727E+02 -0.40588015520E+01  0.18438992144E+02  0.51100000000E-03 0.  1.
        -12    1    3    3    0    0  0.10335829843E+02 -0.19055292811E+02 -0.11716065961E+02  0.24641423747E+02  0.00000000000E+00 0.  1.
</event>
<event>
 7    1  0.5714431E-011  0.5052883E+02  0.7816164E-02  0.1300439E+00
        -11   -1    0    0    0    0  0.00000000000E+00  0.00000000000E+00  0.45593999997E+02  0.45594000000E+02  0.51100000000E-03 0. -1.
         11   -1    0    0    0    0 -0.00000000000E+00 -0.00000000000E+00 -0.45593999997E+02  0.45594000000E+02  0.51100000000E-03 0.  1.
    9900012    2    1    2    0    0 -0.30670890515E+02  0.13375823167E+02  0.23098747517E+02  0.50528827514E+02  0.29999901712E+02 0.  0.
        -12    1    1    2    0    0  0.30670890515E+02 -0.13375823167E+02 -0.23098747517E+02  0.40659172486E+02  0.00000000000E+00 0.  1.
         11    1    3    3    0    0 -0.61093945097E+01 -0.37608600508E+01 -0.47734589531E+01  0.86171155403E+01  0.51100000000E-03 0. -1.
        -11    1    3    3    0    0 -0.22460997265E+02  0.16141144342E+02  0.21209212706E+02  0.34854894099E+02  0.51100000000E-03 0.  1.
         12    1    3    3    0    0 -0.21004987401E+01  0.99553887623E+00  0.66629937641E+01  0.70568178744E+01  0.00000000000E+00 0. -1.
</event>
<event>
 7    1  0.5714431E-011  0.5052886E+02  0.7816164E-02  0.1300439E+00
        -11   -1    0    0    0    0  0.00000000000E+00  0.00000000000E+00  0.45593999997E+02  0.45594000000E+02  0.51100000000E-03 0.  1.
         11   -1    0    0    0    0 -0.00000000000E+00 -0.00000000000E+00 -0.45593999997E+02  0.45594000000E+02  0.51100000000E-03 0. -1.
    9900012    2    1    2    0    0 -0.22175625986E+02  0.23121874598E+02 -0.25035692361E+02  0.50528863698E+02  0.30000011697E+02 0.  0.
        -12    1    1    2    0    0  0.22175625986E+02 -0.23121874598E+02  0.25035692361E+02  0.40659136302E+02  0.00000000000E+00 0.  1.
         11    1    3    3    0    0 -0.20170206238E+02  0.22179937709E+02 -0.52643568640E+01  0.30438467602E+02  0.51100000000E-03 0. -1.
        -11    1    3    3    0    0  0.49007648363E+00 -0.45568596624E+00 -0.27383953371E+01  0.28189774641E+01  0.51100000000E-03 0.  1.
         12    1    3    3    0    0 -0.24954962315E+01  0.13976228548E+01 -0.17032940160E+02  0.17271418633E+02  0.00000000000E+00 0. -1.
</event>
<event>
 7    1  0.5714431E-011  0.5052886E+02  0.7816164E-02  0.1300439E+00
        -11   -1    0    0    0    0  0.00000000000E+00  0.00000000000E+00  0.45593999997E+02  0.45594000000E+02  0.51100000000E-03 0.  1.
         11   -1    0    0    0    0 -0.00000000000E+00 -0.00000000000E+00 -0.45593999997E+02  0.45594000000E+02  0.51100000000E-03 0. -1.
    9900012    2    1    2    0    0 -0.30538355341E+02 -0.26536352791E+02  0.40492619079E+01  0.50528859719E+02  0.29999999602E+02 0.  0.
        -12    1    1    2    0    0  0.30538355341E+02  0.26536352791E+02 -0.40492619079E+01  0.40659140281E+02  0.00000000000E+00 0.  1.
         11    1    3    3    0    0 -0.19398396440E+02 -0.78319904608E+01 -0.90267007170E+01  0.22784187173E+02  0.51100000000E-03 0. -1.
        -11    1    3    3    0    0 -0.78899635036E+01 -0.12619752639E+02  0.14412883818E+02  0.20718129765E+02  0.51100000000E-03 0.  1.
         12    1    3    3    0    0 -0.32499953970E+01 -0.60846096921E+01 -0.13369211929E+01  0.70265427816E+01  0.00000000000E+00 0. -1.
</event>
<event>
 7    1  0.5714431E-011  0.5052886E+02  0.7816164E-02  0.1300439E+00
        -11   -1    0    0    0    0  0.00000000000E+00  0.00000000000E+00  0.45593999997E+02  0.45594000000E+02  0.51100000000E-03 0.  1.
         11   -1    0    0    0    0 -0.00000000000E+00 -0.00000000000E+00 -0.45593999997E+02  0.45594000000E+02  0.51100000000E-03 0. -1.
    9900012    2    1    2    0    0 -0.87648918312E+01  0.36093167874E+02 -0.16541643273E+02  0.50528855172E+02  0.29999985781E+02 0.  0.
        -12    1    1    2    0    0  0.87648918312E+01 -0.36093167874E+02  0.16541643273E+02  0.40659144828E+02  0.00000000000E+00 0.  1.
         11    1    3    3    0    0 -0.10201101879E+02  0.22784196766E+02 -0.13561100252E+02  0.28409250996E+02  0.51100000000E-03 0. -1.
        -11    1    3    3    0    0  0.36875177268E+01  0.14621023415E+02  0.31978295944E+01  0.15414221585E+02  0.51100000000E-03 0.  1.
         12    1    3    3    0    0 -0.22513076791E+01 -0.13120523079E+01 -0.61783726152E+01  0.67053825914E+01  0.00000000000E+00 0. -1.
</event>
<event>
 7    1  0.5714431E-011  0.5052886E+02  0.7816164E-02  0.1300439E+00
        -11   -1    0    0    0    0  0.00000000000E+00  0.00000000000E+00  0.45593999997E+02  0.45594000000E+02  0.51100000000E-03 0.  1.
         11   -1    0    0    0    0 -0.00000000000E+00 -0.00000000000E+00 -0.45593999997E+02  0.45594000000E+02  0.51100000000E-03 0. -1.
    9900012    2    1    2    0    0  0.16063014098E+02 -0.63894860920E+01 -0.36801082190E+02  0.50528860747E+02  0.30000002727E+02 0.  0.
        -12    1    1    2    0    0 -0.16063014098E+02  0.63894860920E+01  0.36801082190E+02  0.40659139253E+02  0.00000000000E+00 0.  1.
         11    1    3    3    0    0 -0.54666779213E+01 -0.10721628940E+02 -0.10098084150E+02  0.15710162265E+02  0.51100000000E-03 0. -1.
        -11    1    3    3    0    0  0.18638578833E+02  0.34586936204E+01 -0.20511907420E+02  0.27930226077E+02  0.51100000000E-03 0.  1.
         12    1    3    3    0    0  0.28911131861E+01  0.87344922775E+00 -0.61910906201E+01  0.68884724050E+01  0.00000000000E+00 0. -1.
</event>
<event>
 7    1  0.5714431E-011  0.5052887E+02  0.7816164E-02  0.1300439E+00
        -11   -1    0    0    0    0  0.00000000000E+00  0.00000000000E+00  0.45593999997E+02  0.45594000000E+02  0.51100000000E-03 0.  1.
         11   -1    0    0    0    0 -0.00000000000E+00 -0.00000000000E+00 -0.45593999997E+02  0.45594000000E+02  0.51100000000E-03 0. -1.
    9900012    2    1    2    0    0 -0.35286733279E+02  0.65293753214E+01 -0.19114885725E+02  0.50528866415E+02  0.30000019955E+02 0.  0.
        -12    1    1    2    0    0  0.35286733279E+02 -0.65293753214E+01  0.19114885725E+02  0.40659133585E+02  0.00000000000E+00 0.  1.
         11    1    3    3    0    0 -0.18813995955E+02 -0.17494460629E+01 -0.20180756325E+02  0.27645794101E+02  0.51100000000E-03 0. -1.
        -11    1    3    3    0    0 -0.17949759530E+02  0.99674957793E+01  0.37268009449E+00  0.20534939250E+02  0.51100000000E-03 0.  1.
        -12    1    3    3    0    0  0.14770222057E+01 -0.16886743951E+01  0.69319050645E+00  0.23481330641E+01  0.00000000000E+00 0.  1.
</event>
<event>
 7    1  0.5714431E-011  0.5052886E+02  0.7816164E-02  0.1300439E+00
        -11   -1    0    0    0    0  0.00000000000E+00  0.00000000000E+00  0.45593999997E+02  0.45594000000E+02  0.51100000000E-03 0. -1.
         11   -1    0    0    0    0 -0.00000000000E+00 -0.00000000000E+00 -0.45593999997E+02  0.45594000000E+02  0.51100000000E-03 0.  1.
    9900012    2    1    2    0    0  0.28756237368E+02 -0.16788611257E+02  0.23332106566E+02  0.50528857704E+02  0.29999993476E+02 0.  0.
        -12    1    1    2    0    0 -0.28756237368E+02  0.16788611257E+02 -0.23332106566E+02  0.40659142296E+02  0.00000000000E+00 0.  1.
         11    1    3    3    0    0  0.66734801526E+01 -0.89904615352E+01  0.10325022999E+02  0.15230556003E+02  0.51100000000E-03 0. -1.
        -11    1    3    3    0    0  0.20174908139E+02  0.34028086279E+01  0.41135461844E+01  0.20869290535E+02  0.51100000000E-03 0.  1.
        -12    1    3    3    0    0  0.19078490764E+01 -0.11200958350E+02  0.88935373817E+01  0.14429011165E+02  0.00000000000E+00 0.  1.
</event>
<event>
 7    1  0.5714431E-011  0.5052886E+02  0.7816164E-02  0.1300439E+00
        -11   -1    0    0    0    0  0.00000000000E+00  0.00000000000E+00  0.45593999997E+02  0.45594000000E+02  0.51100000000E-03 0.  1.
         11   -1    0    0    0    0 -0.00000000000E+00 -0.00000000000E+00 -0.45593999997E+02  0.45594000000E+02  0.51100000000E-03 0. -1.
    9900012    2    1    2    0    0 -0.23909135263E+02 -0.26386886856E+02 -0.19627816956E+02  0.50528859018E+02  0.29999997470E+02 0.  0.
        -12    1    1    2    0    0  0.23909135263E+02  0.26386886856E+02  0.19627816956E+02  0.40659140982E+02  0.00000000000E+00 0.  1.
         11    1    3    3    0    0 -0.11150717362E+02 -0.14843930064E+02 -0.18950481685E+02  0.26529257693E+02  0.51100000000E-03 0. -1.
        -11    1    3    3    0    0 -0.18812789067E+01 -0.27648627055E+01  0.72118412803E+01  0.79494862109E+01  0.51100000000E-03 0.  1.
        -12    1    3    3    0    0 -0.10877138994E+02 -0.87780940862E+01 -0.78891765522E+01  0.16050115113E+02  0.00000000000E+00 0.  1.
</event>
<event>
 7    1  0.5714431E-011  0.5052885E+02  0.7816164E-02  0.1300439E+00
        -11   -1    0    0    0    0  0.00000000000E+00  0.00000000000E+00  0.45593999997E+02  0.45594000000E+02  0.51100000000E-03 0. -1.
         11   -1    0    0    0    0 -0.00000000000E+00 -0.00000000000E+00 -0.45593999997E+02  0.45594000000E+02  0.51100000000E-03 0.  1.
    9900012    2    1    2    0    0 -0.38447184156E+02  0.68757144296E+01  0.11300652539E+02  0.50528853843E+02  0.29999981741E+02 0.  0.
        -12    1    1    2    0    0  0.38447184156E+02 -0.68757144296E+01 -0.11300652539E+02  0.40659146157E+02  0.00000000000E+00 0.  1.
         11    1    3    3    0    0 -0.30042510143E+02  0.13686576874E+02  0.13437802438E+01  0.33040589399E+02  0.51100000000E-03 0. -1.
        -11    1    3    3    0    0  0.15079505123E+01 -0.26544037846E+00 -0.55268104117E+00  0.16278298241E+01  0.51100000000E-03 0.  1.
         12    1    3    3    0    0 -0.99126245251E+01 -0.65454220663E+01  0.10509553337E+02  0.15860434620E+02  0.00000000000E+00 0. -1.
</event>
<event>
 7    1  0.5714431E-011  0.5052882E+02  0.7816164E-02  0.1300439E+00
        -11   -1    0    0    0    0  0.00000000000E+00  0.00000000000E+00  0.45593999997E+02  0.45594000000E+02  0.51100000000E-03 0. -1.
         11   -1    0    0    0    0 -0.00000000000E+00 -0.00000000000E+00 -0.45593999997E+02  0.45594000000E+02  0.51100000000E-03 0.  1.
    9900012    2    1    2    0    0 -0.34579355504E+02  0.12464417364E+02  0.17380323568E+02  0.50528816847E+02  0.29999869289E+02 0.  0.
        -12    1    1    2    0    0  0.34579355504E+02 -0.12464417364E+02 -0.17380323568E+02  0.40659183153E+02  0.00000000000E+00 0.  1.
         11    1    3    3    0    0 -0.30114402406E+02  0.12070796066E+02  0.23053573573E+02  0.39800108099E+02  0.51100000000E-03 0. -1.
        -11    1    3    3    0    0 -0.35798447575E+01 -0.30114168994E+01 -0.84358331379E+00  0.47534780212E+01  0.51100000000E-03 0.  1.
         12    1    3    3    0    0 -0.88510834081E+00  0.34050381975E+01 -0.48296666910E+01  0.59752307275E+01  0.00000000000E+00 0. -1.
</event>
<event>
 7    1  0.5714431E-011  0.5052886E+02  0.7816164E-02  0.1300439E+00
        -11   -1    0    0    0    0  0.00000000000E+00  0.00000000000E+00  0.45593999997E+02  0.45594000000E+02  0.51100000000E-03 0.  1.
         11   -1    0    0    0    0 -0.00000000000E+00 -0.00000000000E+00 -0.45593999997E+02  0.45594000000E+02  0.51100000000E-03 0. -1.
    9900012    2    1    2    0    0 -0.28655507933E+02  0.22531012594E+02 -0.18010569936E+02  0.50528864583E+02  0.30000014387E+02 0.  0.
        -12    1    1    2    0    0  0.28655507933E+02 -0.22531012594E+02  0.18010569936E+02  0.40659135417E+02  0.00000000000E+00 0.  1.
         11    1    3    3    0    0 -0.25829912806E+02  0.11565457769E+02 -0.69695217729E+01  0.29146499670E+02  0.51100000000E-03 0. -1.
        -11    1    3    3    0    0  0.40293070311E+01  0.16265667259E+01  0.12208119733E+01  0.45134705715E+01  0.51100000000E-03 0.  1.
        -12    1    3    3    0    0 -0.68549021582E+01  0.93389880990E+01 -0.12261860137E+02  0.16868894342E+02  0.00000000000E+00 0.  1.
</event>
<event>
 7    1  0.5714431E-011  0.5052886E+02  0.7816164E-02  0.1300439E+00
        -11   -1    0    0    0    0  0.00000000000E+00  0.00000000000E+00  0.45593999997E+02  0.45594000000E+02  0.51100000000E-03 0.  1.
         11   -1    0    0    0    0 -0.00000000000E+00 -0.00000000000E+00 -0.45593999997E+02  0.45594000000E+02  0.51100000000E-03 0. -1.
    9900012    2    1    2    0    0 -0.21758748243E+02 -0.35364164291E+01 -0.34164541503E+02  0.50528864958E+02  0.30000015527E+02 0.  0.
        -12    1    1    2    0    0  0.21758748243E+02  0.35364164291E+01  0.34164541503E+02  0.40659135042E+02  0.00000000000E+00 0.  1.
         11    1    3    3    0    0 -0.16120289697E+02 -0.52666109800E+01 -0.39053800711E+02  0.42576992395E+02  0.51100000000E-03 0. -1.
        -11    1    3    3    0    0 -0.47583354482E+01  0.63775073355E+00  0.32663865723E+01  0.58066999007E+01  0.51100000000E-03 0.  1.
         12    1    3    3    0    0 -0.88012309731E+00  0.10924438174E+01  0.16228726358E+01  0.21451726627E+01  0.00000000000E+00 0. -1.
</event>
<event>
 7    1  0.5714431E-011  0.5052885E+02  0.7816164E-02  0.1300439E+00
        -11   -1    0    0    0    0  0.00000000000E+00  0.00000000000E+00  0.45593999997E+02  0.45594000000E+02  0.51100000000E-03 0. -1.
         11   -1    0    0    0    0 -0.00000000000E+00 -0.00000000000E+00 -0.45593999997E+02  0.45594000000E+02  0.51100000000E-03 0.  1.
    9900012    2    1    2    0    0 -0.14730206876E+01  0.36201808587E+02  0.18450625473E+02  0.50528852010E+02  0.29999976169E+02 0.  0.
        -12    1    1    2    0    0  0.14730206876E+01 -0.36201808587E+02 -0.18450625473E+02  0.40659147990E+02  0.00000000000E+00 0.  1.
         11    1    3    3    0    0  0.32662615216E+01  0.13880599133E+02  0.21190389705E+02  0.25541576160E+02  0.51100000000E-03 0. -1.
        -11    1    3    3    0    0 -0.21805748592E+01  0.45578658143E+01 -0.47418992393E+01  0.69292608664E+01  0.51100000000E-03 0.  1.
         12    1    3    3    0    0 -0.25587073500E+01  0.17763343640E+02  0.20021350079E+01  0.18058014984E+02  0.00000000000E+00 0. -1.
</event>
<event>
 7    1  0.5714431E-011  0.5052892E+02  0.7816164E-02  0.1300439E+00
        -11   -1    0    0    0    0  0.00000000000E+00  0.00000000000E+00  0.45593999997E+02  0.45594000000E+02  0.51100000000E-03 0.  1.
         11   -1    0    0    0    0 -0.00000000000E+00 -0.00000000000E+00 -0.45593999997E+02  0.45594000000E+02  0.51100000000E-03 0. -1.
    9900012    2    1    2    0    0  0.39935767195E+02  0.73268286772E+01  0.21478456189E+01  0.50528915398E+02  0.30000168843E+02 0.  0.
        -12    1    1    2    0    0 -0.39935767195E+02 -0.73268286772E+01 -0.21478456189E+01  0.40659084602E+02  0.00000000000E+00 0.  1.
         11    1    3    3    0    0  0.13835884008E+02  0.23964992716E+01  0.11235732168E+01  0.14086777917E+02  0.51100000000E-03 0. -1.
        -11    1    3    3    0    0  0.79224845349E+01 -0.98711685707E+01 -0.19720779759E+01  0.12809950115E+02  0.51100000000E-03 0.  1.
        -12    1    3    3    0    0  0.18177398652E+02  0.14801497976E+02  0.29963503780E+01  0.23632187365E+02  0.00000000000E+00 0.  1.
</event>
<event>
 7    1  0.5714431E-011  0.5052886E+02  0.7816164E-02  0.1300439E+00
        -11   -1    0    0    0    0  0.00000000000E+00  0.00000000000E+00  0.45593999997E+02  0.45594000000E+02  0.51100000000E-03 0. -1.
         11   -1    0    0    0    0 -0.00000000000E+00 -0.00000000000E+00 -0.45593999997E+02  0.45594000000E+02  0.51100000000E-03 0.  1.
    9900012    2    1    2    0    0 -0.39793982616E+02  0.72818234850E+01  0.40718174437E+01  0.50528859539E+02  0.29999999055E+02 0.  0.
        -12    1    1    2    0    0  0.39793982616E+02 -0.72818234850E+01 -0.40718174437E+01  0.40659140461E+02  0.00000000000E+00 0.  1.
         11    1    3    3    0    0 -0.10154127926E+02 -0.28922204824E+01  0.53839378950E+01  0.11851499516E+02  0.51100000000E-03 0. -1.
        -11    1    3    3    0    0 -0.12912561456E+02  0.15592871227E+02 -0.46689194061E+01  0.20776686096E+02  0.51100000000E-03 0.  1.
        -12    1    3    3    0    0 -0.16727293234E+02 -0.54188272599E+01  0.33567989548E+01  0.17900673927E+02  0.00000000000E+00 0.  1.
</event>
<event>
 7    1  0.5714431E-011  0.5052886E+02  0.7816164E-02  0.1300439E+00
        -11   -1    0    0    0    0  0.00000000000E+00  0.00000000000E+00  0.45593999997E+02  0.45594000000E+02  0.51100000000E-03 0. -1.
         11   -1    0    0    0    0 -0.00000000000E+00 -0.00000000000E+00 -0.45593999997E+02  0.45594000000E+02  0.51100000000E-03 0.  1.
    9900012    2    1    2    0    0  0.31881511765E+02  0.24159021895E+02 -0.72853806263E+01  0.50528857089E+02  0.29999991608E+02 0.  0.
        -12    1    1    2    0    0 -0.31881511765E+02 -0.24159021895E+02  0.72853806263E+01  0.40659142911E+02  0.00000000000E+00 0.  1.
         11    1    3    3    0    0  0.23657311255E+02  0.23258324855E+01 -0.84900182030E+01  0.25241994413E+02  0.51100000000E-03 0. -1.
        -11    1    3    3    0    0  0.71129192376E+01  0.18009799709E+02 -0.28871278800E+01  0.19577589568E+02  0.51100000000E-03 0.  1.
        -12    1    3    3    0    0  0.11112812725E+01  0.38233897004E+01  0.40917654567E+01  0.57092731079E+01  0.00000000000E+00 0.  1.
</event>
<event>
 7    1  0.5714431E-011  0.5052894E+02  0.7816164E-02  0.1300438E+00
        -11   -1    0    0    0    0  0.00000000000E+00  0.00000000000E+00  0.45593999997E+02  0.45594000000E+02  0.51100000000E-03 0. -1.
         11   -1    0    0    0    0 -0.00000000000E+00 -0.00000000000E+00 -0.45593999997E+02  0.45594000000E+02  0.51100000000E-03 0.  1.
    9900012    2    1    2    0    0 -0.25134968862E+02 -0.30405805472E+02  0.98427208062E+01  0.50528944195E+02  0.30000256374E+02 0.  0.
        -12    1    1    2    0    0  0.25134968862E+02  0.30405805472E+02 -0.98427208062E+01  0.40659055805E+02  0.00000000000E+00 0.  1.
         11    1    3    3    0    0 -0.18720903189E+02 -0.23356563089E+02 -0.33497018963E+00  0.29935154264E+02  0.51100000000E-03 0. -1.
        -11    1    3    3    0    0  0.34245916760E+01 -0.36711458682E+01  0.87579822093E+01  0.10094919156E+02  0.51100000000E-03 0.  1.
        -12    1    3    3    0    0 -0.98386573495E+01 -0.33780965144E+01  0.14197087865E+01  0.10498870775E+02  0.00000000000E+00 0.  1.
</event>
<event>
 7    1  0.5714431E-011  0.5052886E+02  0.7816164E-02  0.1300439E+00
        -11   -1    0    0    0    0  0.00000000000E+00  0.00000000000E+00  0.45593999997E+02  0.45594000000E+02  0.51100000000E-03 0.  1.
         11   -1    0    0    0    0 -0.00000000000E+00 -0.00000000000E+00 -0.45593999997E+02  0.45594000000E+02  0.51100000000E-03 0. -1.
    9900012    2    1    2    0    0 -0.89984224686E+01  0.30561265578E+02 -0.25262683078E+02  0.50528859368E+02  0.29999998534E+02 0.  0.
        -12    1    1    2    0    0  0.89984224686E+01 -0.30561265578E+02  0.25262683078E+02  0.40659140632E+02  0.00000000000E+00 0.  1.
         11    1    3    3    0    0 -0.43010981331E+00  0.11310629009E+02 -0.40242717605E+00  0.11325955629E+02  0.51100000000E-03 0.  1.
        -11    1    3    3    0    0  0.22017433741E+00  0.85881321226E+01 -0.23848060597E+02  0.25348263937E+02  0.51100000000E-03 0. -1.
         12    1    3    3    0    0 -0.87884869927E+01  0.10662504447E+02 -0.10121953043E+01  0.13854639802E+02  0.00000000000E+00 0. -1.
</event>
<event>
 7    1  0.5714431E-011  0.5052881E+02  0.7816164E-02  0.1300439E+00
        -11   -1    0    0    0    0  0.00000000000E+00  0.00000000000E+00  0.45593999997E+02  0.45594000000E+02  0.51100000000E-03 0.  1.
         11   -1    0    0    0    0 -0.00000000000E+00 -0.00000000000E+00 -0.45593999997E+02  0.45594000000E+02  0.51100000000E-03 0. -1.
    9900012    2    1    2    0    0 -0.21634653740E+01 -0.16668040332E+02 -0.37022500701E+02  0.50528810275E+02  0.29999849311E+02 0.  0.
        -12    1    1    2    0    0  0.21634653740E+01  0.16668040332E+02  0.37022500701E+02  0.40659189725E+02  0.00000000000E+00 0.  1.
         11    1    3    3    0    0 -0.53256716505E+00 -0.59169811433E+01 -0.15236365915E+02  0.16353627738E+02  0.51100000000E-03 0. -1.
        -11    1    3    3    0    0  0.91089625895E+01  0.16353920264E+01 -0.42968808940E+01  0.10203474517E+02  0.51100000000E-03 0.  1.
        -12    1    3    3    0    0 -0.10739860799E+02 -0.12386451215E+02 -0.17489253892E+02  0.23971708019E+02  0.00000000000E+00 0.  1.
</event>
<event>
 7    1  0.5714431E-011  0.5052879E+02  0.7816164E-02  0.1300439E+00
        -11   -1    0    0    0    0  0.00000000000E+00  0.00000000000E+00  0.45593999997E+02  0.45594000000E+02  0.51100000000E-03 0.  1.
         11   -1    0    0    0    0 -0.00000000000E+00 -0.00000000000E+00 -0.45593999997E+02  0.45594000000E+02  0.51100000000E-03 0. -1.
    9900012    2    1    2    0    0  0.29173834931E+02 -0.27513651675E+02 -0.67125185027E+01  0.50528787296E+02  0.29999779464E+02 0.  0.
        -12    1    1    2    0    0 -0.29173834931E+02  0.27513651675E+02  0.67125185027E+01  0.40659212704E+02  0.00000000000E+00 0.  1.
         11    1    3    3    0    0  0.22301840565E+02 -0.11120731533E+02  0.72142450462E+01  0.25943941379E+02  0.51100000000E-03 0. -1.
        -11    1    3    3    0    0  0.11549765457E+00 -0.12204270871E+02 -0.96430032319E+01  0.15554583851E+02  0.51100000000E-03 0.  1.
        -12    1    3    3    0    0  0.67564967117E+01 -0.41886492709E+01 -0.42837603170E+01  0.90302620662E+01  0.00000000000E+00 0.  1.
</event>
<event>
 7    1  0.5714431E-011  0.5052886E+02  0.7816164E-02  0.1300439E+00
        -11   -1    0    0    0    0  0.00000000000E+00  0.00000000000E+00  0.45593999997E+02  0.45594000000E+02  0.51100000000E-03 0.  1.
         11   -1    0    0    0    0 -0.00000000000E+00 -0.00000000000E+00 -0.45593999997E+02  0.45594000000E+02  0.51100000000E-03 0. -1.
    9900012    2    1    2    0    0  0.29256461598E+02 -0.26288587767E+02 -0.10302211424E+02  0.50528856475E+02  0.29999989740E+02 0.  0.
        -12    1    1    2    0    0 -0.29256461598E+02  0.26288587767E+02  0.10302211424E+02  0.40659143525E+02  0.00000000000E+00 0.  1.
         11    1    3    3    0    0  0.27502524272E+02 -0.29882159238E+02 -0.15807116970E+02  0.43579780050E+02  0.51100000000E-03 0. -1.
        -11    1    3    3    0    0  0.10691428008E+01  0.21035966027E+01  0.43319336237E+01  0.49329336278E+01  0.51100000000E-03 0.  1.
         12    1    3    3    0    0  0.68479452436E+00  0.14899748679E+01  0.11729719217E+01  0.20161427967E+01  0.00000000000E+00 0. -1.
</event>
<event>
 7    1  0.5714431E-011  0.5052886E+02  0.7816164E-02  0.1300439E+00
        -11   -1    0    0    0    0  0.00000000000E+00  0.00000000000E+00  0.45593999997E+02  0.45594000000E+02  0.51100000000E-03 0. -1.
         11   -1    0    0    0    0 -0.00000000000E+00 -0.00000000000E+00 -0.45593999997E+02  0.45594000000E+02  0.51100000000E-03 0.  1.
    9900012    2    1    2    0    0 -0.25528790942E+02 -0.29611158847E+02 -0.11163594923E+02  0.50528859000E+02  0.29999997415E+02 0.  0.
        -12    1    1    2    0    0  0.25528790942E+02  0.29611158847E+02  0.11163594923E+02  0.40659141000E+02  0.00000000000E+00 0.  1.
         11    1    3    3    0    0 -0.10079910904E+01 -0.14888172234E+02 -0.94868968800E+01  0.17682616639E+02  0.51100000000E-03 0. -1.
        -11    1    3    3    0    0 -0.20777207167E+02 -0.40529038465E+01 -0.32935431752E+01  0.21423486975E+02  0.51100000000E-03 0.  1.
         12    1    3    3    0    0 -0.37435926851E+01 -0.10670082767E+02  0.16168451317E+01  0.11422755386E+02  0.00000000000E+00 0. -1.
</event>
<event>
 7    1  0.5714431E-011  0.5052888E+02  0.7816164E-02  0.1300439E+00
        -11   -1    0    0    0    0  0.00000000000E+00  0.00000000000E+00  0.45593999997E+02  0.45594000000E+02  0.51100000000E-03 0. -1.
         11   -1    0    0    0    0 -0.00000000000E+00 -0.00000000000E+00 -0.45593999997E+02  0.45594000000E+02  0.51100000000E-03 0.  1.
    9900012    2    1    2    0    0 -0.27415524019E+02  0.11884719347E+02  0.27573651262E+02  0.50528883494E+02  0.30000071867E+02 0.  0.
        -12    1    1    2    0    0  0.27415524019E+02 -0.11884719347E+02 -0.27573651262E+02  0.40659116506E+02  0.00000000000E+00 0.  1.
         11    1    3    3    0    0 -0.13312572273E+02  0.70268219377E+01  0.12803386419E+02  0.19761768927E+02  0.51100000000E-03 0. -1.
        -11    1    3    3    0    0  0.40837376991E+01 -0.44714865502E+01  0.10416419264E+01  0.61446011854E+01  0.51100000000E-03 0.  1.
        -12    1    3    3    0    0 -0.18186689445E+02  0.93293839595E+01  0.13728622917E+02  0.24622513382E+02  0.00000000000E+00 0.  1.
</event>
<event>
 7    1  0.5714431E-011  0.5052886E+02  0.7816164E-02  0.1300439E+00
        -11   -1    0    0    0    0  0.00000000000E+00  0.00000000000E+00  0.45593999997E+02  0.45594000000E+02  0.51100000000E-03 0.  1.
         11   -1    0    0    0    0 -0.00000000000E+00 -0.00000000000E+00 -0.45593999997E+02  0.45594000000E+02  0.51100000000E-03 0. -1.
    9900012    2    1    2    0    0 -0.19687370721E+01  0.25991398949E+02 -0.31204759836E+02  0.50528858575E+02  0.29999996125E+02 0.  0.
        -12    1    1    2    0    0  0.19687370721E+01 -0.25991398949E+02  0.31204759836E+02  0.40659141425E+02  0.00000000000E+00 0.  1.
         11    1    3    3    0    0 -0.78720068583E+01  0.21050919280E+01 -0.26052998454E+01  0.85549688221E+01  0.51100000000E-03 0.  1.
        -11    1    3    3    0    0  0.63032607607E+01  0.19871763727E+02 -0.10334058451E+02  0.23268237024E+02  0.51100000000E-03 0. -1.
        -12    1    3    3    0    0 -0.39999097454E+00  0.40145432940E+01 -0.18265401539E+02  0.18705652729E+02  0.00000000000E+00 0.  1.
</event>
<event>
 7    1  0.5714431E-011  0.5052885E+02  0.7816164E-02  0.1300439E+00
        -11   -1    0    0    0    0  0.00000000000E+00  0.00000000000E+00  0.45593999997E+02  0.45594000000E+02  0.51100000000E-03 0.  1.
         11   -1    0    0    0    0 -0.00000000000E+00 -0.00000000000E+00 -0.45593999997E+02  0.45594000000E+02  0.51100000000E-03 0. -1.
    9900012    2    1    2    0    0  0.11174129067E+02 -0.77401935454E+00 -0.39085885096E+02  0.50528847524E+02  0.29999962534E+02 0.  0.
        -12    1    1    2    0    0 -0.11174129067E+02  0.77401935454E+00  0.39085885096E+02  0.40659152476E+02  0.00000000000E+00 0.  1.
         11    1    3    3    0    0 -0.13698296911E+01  0.63976362681E+01 -0.13779619443E+02  0.15253986216E+02  0.51100000000E-03 0. -1.
        -11    1    3    3    0    0  0.17140416511E+02 -0.57938604703E+01 -0.24424450550E+02  0.30395994510E+02  0.51100000000E-03 0.  1.
        -12    1    3    3    0    0 -0.45964577537E+01 -0.13777951523E+01 -0.88181510252E+00  0.48788667986E+01  0.00000000000E+00 0.  1.
</event>
<event>
 7    1  0.5714431E-011  0.5052886E+02  0.7816164E-02  0.1300439E+00
        -11   -1    0    0    0    0  0.00000000000E+00  0.00000000000E+00  0.45593999997E+02  0.45594000000E+02  0.51100000000E-03 0. -1.
         11   -1    0    0    0    0 -0.00000000000E+00 -0.00000000000E+00 -0.45593999997E+02  0.45594000000E+02  0.51100000000E-03 0.  1.
    9900012    2    1    2    0    0 -0.43421648217E+01  0.16105240725E+02  0.37080080953E+02  0.50528861081E+02  0.30000003741E+02 0.  0.
        -12    1    1    2    0    0  0.43421648217E+01 -0.16105240725E+02 -0.37080080953E+02  0.40659138919E+02  0.00000000000E+00 0.  1.
         11    1    3    3    0    0  0.13056743849E+01  0.16878810131E+01  0.15820791639E+02  0.15964058891E+02  0.51100000000E-03 0. -1.
        -11    1    3    3    0    0 -0.42354537961E+01  0.20519964527E+02  0.17112505825E+02  0.27052649943E+02  0.51100000000E-03 0.  1.
        -12    1    3    3    0    0 -0.14123854105E+01 -0.61026048155E+01  0.41467834892E+01  0.75121522474E+01  0.00000000000E+00 0.  1.
</event>
<event>
 7    1  0.5714431E-011  0.5052877E+02  0.7816164E-02  0.1300439E+00
        -11   -1    0    0    0    0  0.00000000000E+00  0.00000000000E+00  0.45593999997E+02  0.45594000000E+02  0.51100000000E-03 0. -1.
         11   -1    0    0    0    0 -0.00000000000E+00 -0.00000000000E+00 -0.45593999997E+02  0.45594000000E+02  0.51100000000E-03 0.  1.
    9900012    2    1    2    0    0  0.17293484451E+02  0.35588892978E+02  0.93562394701E+01  0.50528768270E+02  0.29999721631E+02 0.  0.
        -12    1    1    2    0    0 -0.17293484451E+02 -0.35588892978E+02 -0.93562394701E+01  0.40659231730E+02  0.00000000000E+00 0.  1.
         11    1    3    3    0    0  0.17876815929E+02  0.13762728062E+02  0.17217753854E+01  0.22626483205E+02  0.51100000000E-03 0. -1.
        -11    1    3    3    0    0 -0.67706954147E+01  0.65960963152E+01 -0.68637516270E+00  0.94774423831E+01  0.51100000000E-03 0.  1.
         12    1    3    3    0    0  0.61873639368E+01  0.15230068601E+02  0.83208392473E+01  0.18424842682E+02  0.00000000000E+00 0. -1.
</event>
<event>
 7    1  0.6836620E-011  0.5052886E+02  0.7816164E-02  0.1300439E+00
        -11   -1    0    0    0    0  0.00000000000E+00  0.00000000000E+00  0.45593999997E+02  0.45594000000E+02  0.51100000000E-03 0.  1.
         11   -1    0    0    0    0 -0.00000000000E+00 -0.00000000000E+00 -0.45593999997E+02  0.45594000000E+02  0.51100000000E-03 0. -1.
    9900012    2    1    2    0    0 -0.17804797527E+02  0.73293250867E+01 -0.35811118638E+02  0.50528855403E+02  0.29999986484E+02 0.  0.
        -12    1    1    2    0    0  0.17804797527E+02 -0.73293250867E+01  0.35811118638E+02  0.40659144597E+02  0.00000000000E+00 0.  1.
         11    1    3    3    0    0 -0.25421992904E+01  0.23846164222E+01 -0.28286331848E+02  0.28500276181E+02  0.51100000000E-03 0. -1.
        -11    1    3    3    0    0 -0.61494781661E+01 -0.18515050977E+01  0.24804472301E+01  0.68845313250E+01  0.51100000000E-03 0.  1.
         12    1    3    3    0    0 -0.91131200704E+01  0.67962137621E+01 -0.10005234020E+02  0.15144047898E+02  0.00000000000E+00 0. -1.
</event>
<event>
 7    1  0.5714431E-011  0.5052886E+02  0.7816164E-02  0.1300439E+00
        -11   -1    0    0    0    0  0.00000000000E+00  0.00000000000E+00  0.45593999997E+02  0.45594000000E+02  0.51100000000E-03 0.  1.
         11   -1    0    0    0    0 -0.00000000000E+00 -0.00000000000E+00 -0.45593999997E+02  0.45594000000E+02  0.51100000000E-03 0. -1.
    9900012    2    1    2    0    0 -0.12336184740E+02 -0.32526897952E+02 -0.21047216633E+02  0.50528857457E+02  0.29999992727E+02 0.  0.
        -12    1    1    2    0    0  0.12336184740E+02  0.32526897952E+02  0.21047216633E+02  0.40659142543E+02  0.00000000000E+00 0.  1.
         11    1    3    3    0    0 -0.98159316040E+01 -0.22276543775E+02 -0.21850651737E+02  0.32711586592E+02  0.51100000000E-03 0. -1.
        -11    1    3    3    0    0 -0.22176070422E+01 -0.13876663162E+02  0.14281280468E+01  0.14125123415E+02  0.51100000000E-03 0.  1.
        -12    1    3    3    0    0 -0.30264609431E+00  0.36263089854E+01 -0.62469294305E+00  0.36921474495E+01  0.00000000000E+00 0.  1.
</event>
<event>
 7    1  0.5714431E-011  0.5052886E+02  0.7816164E-02  0.1300439E+00
        -11   -1    0    0    0    0  0.00000000000E+00  0.00000000000E+00  0.45593999997E+02  0.45594000000E+02  0.51100000000E-03 0. -1.
         11   -1    0    0    0    0 -0.00000000000E+00 -0.00000000000E+00 -0.45593999997E+02  0.45594000000E+02  0.51100000000E-03 0.  1.
    9900012    2    1    2    0    0 -0.52157063764E+01  0.19612149491E+02  0.35232449753E+02  0.50528861836E+02  0.30000006037E+02 0.  0.
        -12    1    1    2    0    0  0.52157063764E+01 -0.19612149491E+02 -0.35232449753E+02  0.40659138164E+02  0.00000000000E+00 0.  1.
         11    1    3    3    0    0  0.10972070290E+01  0.12791292518E+02  0.12085487539E+02  0.17631790518E+02  0.51100000000E-03 0. -1.
        -11    1    3    3    0    0 -0.99373150424E+01 -0.48266472949E+01  0.12737666228E+02  0.16861046692E+02  0.51100000000E-03 0.  1.
        -12    1    3    3    0    0  0.36244016370E+01  0.11647504267E+02  0.10409295986E+02  0.16036024626E+02  0.00000000000E+00 0.  1.
</event>
<event>
 7    1  0.5714431E-011  0.5052886E+02  0.7816164E-02  0.1300439E+00
        -11   -1    0    0    0    0  0.00000000000E+00  0.00000000000E+00  0.45593999997E+02  0.45594000000E+02  0.51100000000E-03 0.  1.
         11   -1    0    0    0    0 -0.00000000000E+00 -0.00000000000E+00 -0.45593999997E+02  0.45594000000E+02  0.51100000000E-03 0. -1.
    9900012    2    1    2    0    0  0.17688011762E+02  0.36012149048E+02 -0.65897609223E+01  0.50528860952E+02  0.30000003349E+02 0.  0.
        -12    1    1    2    0    0 -0.17688011762E+02 -0.36012149048E+02  0.65897609223E+01  0.40659139048E+02  0.00000000000E+00 0.  1.
         11    1    3    3    0    0  0.18518735012E+02  0.89070657152E+01 -0.55350895568E+01  0.21281836922E+02  0.51100000000E-03 0. -1.
        -11    1    3    3    0    0 -0.61814211036E+00  0.12231003727E+02  0.49447290225E+01  0.13207191118E+02  0.51100000000E-03 0.  1.
         12    1    3    3    0    0 -0.21258114012E+00  0.14874079605E+02 -0.59994003880E+01  0.16039832912E+02  0.00000000000E+00 0. -1.
</event>
<event>
 7    1  0.5714431E-011  0.5052885E+02  0.7816164E-02  0.1300439E+00
        -11   -1    0    0    0    0  0.00000000000E+00  0.00000000000E+00  0.45593999997E+02  0.45594000000E+02  0.51100000000E-03 0.  1.
         11   -1    0    0    0    0 -0.00000000000E+00 -0.00000000000E+00 -0.45593999997E+02  0.45594000000E+02  0.51100000000E-03 0. -1.
    9900012    2    1    2    0    0  0.20533642163E+02  0.25509604697E+02 -0.24099706896E+02  0.50528852632E+02  0.29999978060E+02 0.  0.
        -12    1    1    2    0    0 -0.20533642163E+02 -0.25509604697E+02  0.24099706896E+02  0.40659147368E+02  0.00000000000E+00 0.  1.
         11    1    3    3    0    0  0.10641755073E+02 -0.12235774644E+00 -0.10976030850E+02  0.15288400045E+02  0.51100000000E-03 0. -1.
        -11    1    3    3    0    0  0.62969860441E+01  0.25399923633E+02 -0.15963281619E+02  0.30653458436E+02  0.51100000000E-03 0.  1.
        -12    1    3    3    0    0  0.35949010449E+01  0.23203881050E+00  0.28396055725E+01  0.45869941508E+01  0.00000000000E+00 0.  1.
</event>
<event>
 7    1  0.5714431E-011  0.5052887E+02  0.7816164E-02  0.1300439E+00
        -11   -1    0    0    0    0  0.00000000000E+00  0.00000000000E+00  0.45593999997E+02  0.45594000000E+02  0.51100000000E-03 0. -1.
         11   -1    0    0    0    0 -0.00000000000E+00 -0.00000000000E+00 -0.45593999997E+02  0.45594000000E+02  0.51100000000E-03 0.  1.
    9900012    2    1    2    0    0  0.35085234395E+02  0.57555170588E+01  0.19724742354E+02  0.50528866830E+02  0.30000021218E+02 0.  0.
        -12    1    1    2    0    0 -0.35085234395E+02 -0.57555170588E+01 -0.19724742354E+02  0.40659133170E+02  0.00000000000E+00 0.  1.
         11    1    3    3    0    0  0.21876963454E+02 -0.73877561991E+01  0.20592744264E+02  0.30939321069E+02  0.51100000000E-03 0. -1.
        -11    1    3    3    0    0  0.12791544240E+02  0.96873485319E+01 -0.21146155231E+00  0.16047212900E+02  0.51100000000E-03 0.  1.
         12    1    3    3    0    0  0.41672670168E+00  0.34559247260E+01 -0.65654035828E+00  0.35423328610E+01  0.00000000000E+00 0. -1.
</event>
<event>
 7    1  0.5714431E-011  0.5052886E+02  0.7816164E-02  0.1300439E+00
        -11   -1    0    0    0    0  0.00000000000E+00  0.00000000000E+00  0.45593999997E+02  0.45594000000E+02  0.51100000000E-03 0.  1.
         11   -1    0    0    0    0 -0.00000000000E+00 -0.00000000000E+00 -0.45593999997E+02  0.45594000000E+02  0.51100000000E-03 0. -1.
    9900012    2    1    2    0    0 -0.19140092925E+02 -0.32493707848E+02 -0.15198080783E+02  0.50528857530E+02  0.29999992949E+02 0.  0.
        -12    1    1    2    0    0  0.19140092925E+02  0.32493707848E+02  0.15198080783E+02  0.40659142470E+02  0.00000000000E+00 0.  1.
         11    1    3    3    0    0 -0.12540124641E+02 -0.14012489025E+02 -0.82505996077E+01  0.20534774624E+02  0.51100000000E-03 0. -1.
        -11    1    3    3    0    0  0.33275121469E+01 -0.18269861240E+02 -0.14080049290E+01  0.18623711901E+02  0.51100000000E-03 0.  1.
        -12    1    3    3    0    0 -0.99274804307E+01 -0.21135758279E+00 -0.55394762461E+01  0.11370371006E+02  0.00000000000E+00 0.  1.
</event>
<event>
 7    1  0.5714431E-011  0.5052886E+02  0.7816164E-02  0.1300439E+00
        -11   -1    0    0    0    0  0.00000000000E+00  0.00000000000E+00  0.45593999997E+02  0.45594000000E+02  0.51100000000E-03 0.  1.
         11   -1    0    0    0    0 -0.00000000000E+00 -0.00000000000E+00 -0.45593999997E+02  0.45594000000E+02  0.51100000000E-03 0. -1.
    9900012    2    1    2    0    0 -0.27029688883E+02 -0.82870960164E+01 -0.29221320122E+02  0.50528860915E+02  0.30000003237E+02 0.  0.
        -12    1    1    2    0    0  0.27029688883E+02  0.82870960164E+01  0.29221320122E+02  0.40659139085E+02  0.00000000000E+00 0.  1.
         11    1    3    3    0    0 -0.10891658244E+02 -0.21307603438E+01 -0.17323760884E+02  0.20573795235E+02  0.51100000000E-03 0. -1.
        -11    1    3    3    0    0 -0.80697679437E+01  0.45065027898E+00  0.54260977382E+01  0.97348229190E+01  0.51100000000E-03 0.  1.
        -12    1    3    3    0    0 -0.80682626952E+01 -0.66069859516E+01 -0.17323656976E+02  0.20220242761E+02  0.00000000000E+00 0.  1.
</event>
<event>
 7    1  0.5714431E-011  0.5052875E+02  0.7816164E-02  0.1300439E+00
        -11   -1    0    0    0    0  0.00000000000E+00  0.00000000000E+00  0.45593999997E+02  0.45594000000E+02  0.51100000000E-03 0.  1.
         11   -1    0    0    0    0 -0.00000000000E+00 -0.00000000000E+00 -0.45593999997E+02  0.45594000000E+02  0.51100000000E-03 0. -1.
    9900012    2    1    2    0    0 -0.15136816664E+02  0.31442493224E+02 -0.20866750870E+02  0.50528746555E+02  0.29999655626E+02 0.  0.
        -12    1    1    2    0    0  0.15136816664E+02 -0.31442493224E+02  0.20866750870E+02  0.40659253445E+02  0.00000000000E+00 0.  1.
         11    1    3    3    0    0 -0.10141589505E+02  0.74434419930E+01 -0.80852438100E+01  0.14954191189E+02  0.51100000000E-03 0. -1.
        -11    1    3    3    0    0  0.10317026435E+01  0.21900688176E+02 -0.72941049941E+00  0.21937105389E+02  0.51100000000E-03 0.  1.
        -12    1    3    3    0    0 -0.60269298032E+01  0.20983630551E+01 -0.12052096560E+02  0.13637449976E+02  0.00000000000E+00 0.  1.
</event>
<event>
 7    1  0.5714431E-011  0.5052886E+02  0.7816164E-02  0.1300439E+00
        -11   -1    0    0    0    0  0.00000000000E+00  0.00000000000E+00  0.45593999997E+02  0.45594000000E+02  0.51100000000E-03 0. -1.
         11   -1    0    0    0    0 -0.00000000000E+00 -0.00000000000E+00 -0.45593999997E+02  0.45594000000E+02  0.51100000000E-03 0.  1.
    9900012    2    1    2    0    0 -0.46757647597E+01  0.40257472993E+02 -0.32617079452E+01  0.50528860233E+02  0.30000001165E+02 0.  0.
        -12    1    1    2    0    0  0.46757647597E+01 -0.40257472993E+02  0.32617079452E+01  0.40659139767E+02  0.00000000000E+00 0.  1.
         11    1    3    3    0    0 -0.61875346590E+01  0.15057878173E+02  0.16542124097E+01  0.16363425655E+02  0.51100000000E-03 0. -1.
        -11    1    3    3    0    0  0.11369464536E+02  0.12471094575E+02  0.12585412704E+01  0.16922672665E+02  0.51100000000E-03 0.  1.
        -12    1    3    3    0    0 -0.98576946362E+01  0.12728500245E+02 -0.61744616253E+01  0.17242761913E+02  0.00000000000E+00 0.  1.
</event>
<event>
 7    1  0.5714431E-011  0.5052885E+02  0.7816164E-02  0.1300439E+00
        -11   -1    0    0    0    0  0.00000000000E+00  0.00000000000E+00  0.45593999997E+02  0.45594000000E+02  0.51100000000E-03 0.  1.
         11   -1    0    0    0    0 -0.00000000000E+00 -0.00000000000E+00 -0.45593999997E+02  0.45594000000E+02  0.51100000000E-03 0. -1.
    9900012    2    1    2    0    0  0.36341043681E+02  0.18011155873E+02 -0.28448689932E+01  0.50528850092E+02  0.29999970339E+02 0.  0.
        -12    1    1    2    0    0 -0.36341043681E+02 -0.18011155873E+02  0.28448689932E+01  0.40659149908E+02  0.00000000000E+00 0.  1.
         11    1    3    3    0    0  0.17504699113E+02  0.21255875635E+02  0.34857193783E+01  0.27755665726E+02  0.51100000000E-03 0. -1.
        -11    1    3    3    0    0  0.53074739739E+01  0.25081365600E+01  0.15794562002E+01  0.60790386688E+01  0.51100000000E-03 0.  1.
         12    1    3    3    0    0  0.13528870594E+02 -0.57528563228E+01 -0.79100445717E+01  0.16694145697E+02  0.00000000000E+00 0. -1.
</event>
<event>
 7    1  0.5714431E-011  0.5052889E+02  0.7816164E-02  0.1300439E+00
        -11   -1    0    0    0    0  0.00000000000E+00  0.00000000000E+00  0.45593999997E+02  0.45594000000E+02  0.51100000000E-03 0.  1.
         11   -1    0    0    0    0 -0.00000000000E+00 -0.00000000000E+00 -0.45593999997E+02  0.45594000000E+02  0.51100000000E-03 0. -1.
    9900012    2    1    2    0    0  0.20140871767E+02 -0.90956240127E+01 -0.34128842416E+02  0.50528893070E+02  0.30000100975E+02 0.  0.
        -12    1    1    2    0    0 -0.20140871767E+02  0.90956240127E+01  0.34128842416E+02  0.40659106930E+02  0.00000000000E+00 0.  1.
         11    1    3    3    0    0  0.21997968241E+02 -0.68224558139E+01 -0.36224151560E+02  0.42926048812E+02  0.51100000000E-03 0. -1.
        -11    1    3    3    0    0 -0.40946190037E+01 -0.29636119735E-01  0.76132648041E+00  0.41649011220E+01  0.51100000000E-03 0.  1.
         12    1    3    3    0    0  0.22375225290E+01 -0.22435320792E+01  0.13339826642E+01  0.34379431360E+01  0.00000000000E+00 0. -1.
</event>
<event>
 7    1  0.5714431E-011  0.5052880E+02  0.7816164E-02  0.1300439E+00
        -11   -1    0    0    0    0  0.00000000000E+00  0.00000000000E+00  0.45593999997E+02  0.45594000000E+02  0.51100000000E-03 0.  1.
         11   -1    0    0    0    0 -0.00000000000E+00 -0.00000000000E+00 -0.45593999997E+02  0.45594000000E+02  0.51100000000E-03 0. -1.
    9900012    2    1    2    0    0 -0.17255770645E+02  0.36027857095E+02 -0.75764393487E+01  0.50528800049E+02  0.29999818229E+02 0.  0.
        -12    1    1    2    0    0  0.17255770645E+02 -0.36027857095E+02  0.75764393487E+01  0.40659199951E+02  0.00000000000E+00 0.  1.
         11    1    3    3    0    0 -0.14895081121E+02  0.26926640946E+01 -0.60939678992E+01  0.16317178878E+02  0.51100000000E-03 0. -1.
        -11    1    3    3    0    0  0.10694929620E+01  0.53725067953E+01  0.19855672559E+01  0.58266733261E+01  0.51100000000E-03 0.  1.
         12    1    3    3    0    0 -0.34301824861E+01  0.27962686205E+02 -0.34680387054E+01  0.28384947845E+02  0.00000000000E+00 0. -1.
</event>
<event>
 7    1  0.5714431E-011  0.5052886E+02  0.7816164E-02  0.1300439E+00
        -11   -1    0    0    0    0  0.00000000000E+00  0.00000000000E+00  0.45593999997E+02  0.45594000000E+02  0.51100000000E-03 0. -1.
         11   -1    0    0    0    0 -0.00000000000E+00 -0.00000000000E+00 -0.45593999997E+02  0.45594000000E+02  0.51100000000E-03 0.  1.
    9900012    2    1    2    0    0  0.29822768089E+02 -0.24863598749E+02 -0.12065215042E+02  0.50528862611E+02  0.30000008391E+02 0.  0.
        -12    1    1    2    0    0 -0.29822768089E+02  0.24863598749E+02  0.12065215042E+02  0.40659137389E+02  0.00000000000E+00 0.  1.
         11    1    3    3    0    0 -0.38674036241E-01 -0.55698214089E+01  0.14337847866E+01  0.57515341678E+01  0.51100000000E-03 0. -1.
        -11    1    3    3    0    0  0.22867507131E+02 -0.26604902666E+01 -0.13589131471E+02  0.26733229981E+02  0.51100000000E-03 0.  1.
        -12    1    3    3    0    0  0.69939349944E+01 -0.16633287073E+02  0.90131642588E-01  0.18044098461E+02  0.00000000000E+00 0.  1.
</event>
<event>
 7    1  0.5714431E-011  0.5052885E+02  0.7816164E-02  0.1300439E+00
        -11   -1    0    0    0    0  0.00000000000E+00  0.00000000000E+00  0.45593999997E+02  0.45594000000E+02  0.51100000000E-03 0.  1.
         11   -1    0    0    0    0 -0.00000000000E+00 -0.00000000000E+00 -0.45593999997E+02  0.45594000000E+02  0.51100000000E-03 0. -1.
    9900012    2    1    2    0    0  0.19742818617E+02 -0.27358128819E+02 -0.22691850055E+02  0.50528853940E+02  0.29999982037E+02 0.  0.
        -12    1    1    2    0    0 -0.19742818617E+02  0.27358128819E+02  0.22691850055E+02  0.40659146060E+02  0.00000000000E+00 0.  1.
         11    1    3    3    0    0  0.13176566474E+02  0.58121368719E+00  0.29077495203E+00  0.13192583663E+02  0.51100000000E-03 0. -1.
        -11    1    3    3    0    0  0.23128871159E+01 -0.17394428911E+02 -0.10490263825E+02  0.20444100355E+02  0.51100000000E-03 0.  1.
         12    1    3    3    0    0  0.42533650270E+01 -0.10544913595E+02 -0.12492361181E+02  0.16892169922E+02  0.00000000000E+00 0. -1.
</event>
<event>
 7    1  0.5714431E-011  0.5052881E+02  0.7816164E-02  0.1300439E+00
        -11   -1    0    0    0    0  0.00000000000E+00  0.00000000000E+00  0.45593999997E+02  0.45594000000E+02  0.51100000000E-03 0. -1.
         11   -1    0    0    0    0 -0.00000000000E+00 -0.00000000000E+00 -0.45593999997E+02  0.45594000000E+02  0.51100000000E-03 0.  1.
    9900012    2    1    2    0    0  0.21150792169E+02 -0.11247084680E+02  0.32852955250E+02  0.50528811717E+02  0.29999853693E+02 0.  0.
        -12    1    1    2    0    0 -0.21150792169E+02  0.11247084680E+02 -0.32852955250E+02  0.40659188283E+02  0.00000000000E+00 0.  1.
         11    1    3    3    0    0  0.29415980288E+01  0.54523351757E+01  0.16508815690E+02  0.17632979147E+02  0.51100000000E-03 0. -1.
        -11    1    3    3    0    0  0.16703403901E+02 -0.16700815556E+02  0.18681721665E+02  0.30115239775E+02  0.51100000000E-03 0.  1.
        -12    1    3    3    0    0  0.15057902395E+01  0.13956998254E-02 -0.23375821046E+01  0.27805927946E+01  0.00000000000E+00 0.  1.
</event>
<event>
 7    1  0.5714431E-011  0.5052886E+02  0.7816164E-02  0.1300439E+00
        -11   -1    0    0    0    0  0.00000000000E+00  0.00000000000E+00  0.45593999997E+02  0.45594000000E+02  0.51100000000E-03 0.  1.
         11   -1    0    0    0    0 -0.00000000000E+00 -0.00000000000E+00 -0.45593999997E+02  0.45594000000E+02  0.51100000000E-03 0. -1.
    9900012    2    1    2    0    0  0.39414994921E+02  0.70285773964E+01 -0.70868148284E+01  0.50528859954E+02  0.30000000318E+02 0.  0.
        -12    1    1    2    0    0 -0.39414994921E+02 -0.70285773964E+01  0.70868148284E+01  0.40659140046E+02  0.00000000000E+00 0.  1.
         11    1    3    3    0    0  0.32468467131E+01  0.34652306991E+01 -0.57651036216E+01  0.74690198423E+01  0.51100000000E-03 0. -1.
        -11    1    3    3    0    0  0.11560872900E+02 -0.38733152602E+01  0.92095765991E+01  0.15279811999E+02  0.51100000000E-03 0.  1.
        -12    1    3    3    0    0  0.24607275308E+02  0.74366619575E+01 -0.10531287806E+02  0.27780028114E+02  0.00000000000E+00 0.  1.
</event>
<event>
 7    1  0.5714431E-011  0.5052888E+02  0.7816164E-02  0.1300439E+00
        -11   -1    0    0    0    0  0.00000000000E+00  0.00000000000E+00  0.45593999997E+02  0.45594000000E+02  0.51100000000E-03 0.  1.
         11   -1    0    0    0    0 -0.00000000000E+00 -0.00000000000E+00 -0.45593999997E+02  0.45594000000E+02  0.51100000000E-03 0. -1.
    9900012    2    1    2    0    0  0.43974236835E+01 -0.37452031937E+02 -0.15204341837E+02  0.50528879966E+02  0.30000061144E+02 0.  0.
        -12    1    1    2    0    0 -0.43974236835E+01  0.37452031937E+02  0.15204341837E+02  0.40659120034E+02  0.00000000000E+00 0.  1.
         11    1    3    3    0    0  0.49351801665E+00 -0.21837667718E+02 -0.13890162479E+01  0.21887362970E+02  0.51100000000E-03 0. -1.
        -11    1    3    3    0    0  0.55808175997E+00  0.44310924950E+01 -0.88189024980E+00  0.45523363917E+01  0.51100000000E-03 0.  1.
        -12    1    3    3    0    0  0.33458239069E+01 -0.20045456714E+02 -0.12933435340E+02  0.24089180604E+02  0.00000000000E+00 0.  1.
</event>
<event>
 7    1  0.5714431E-011  0.5052888E+02  0.7816164E-02  0.1300439E+00
        -11   -1    0    0    0    0  0.00000000000E+00  0.00000000000E+00  0.45593999997E+02  0.45594000000E+02  0.51100000000E-03 0.  1.
         11   -1    0    0    0    0 -0.00000000000E+00 -0.00000000000E+00 -0.45593999997E+02  0.45594000000E+02  0.51100000000E-03 0. -1.
    9900012    2    1    2    0    0  0.28101455001E+02 -0.69040416217E+01 -0.28562326046E+02  0.50528880075E+02  0.30000061477E+02 0.  0.
        -12    1    1    2    0    0 -0.28101455001E+02  0.69040416217E+01  0.28562326046E+02  0.40659119925E+02  0.00000000000E+00 0.  1.
         11    1    3    3    0    0  0.89038556318E+01  0.32798006952E+01  0.36862218846E+01  0.10179585932E+02  0.51100000000E-03 0.  1.
        -11    1    3    3    0    0  0.11900089458E+02 -0.11797105463E+02 -0.21527057377E+02  0.27279993145E+02  0.51100000000E-03 0. -1.
        -12    1    3    3    0    0  0.72975099112E+01  0.16132631459E+01 -0.10721490554E+02  0.13069300998E+02  0.00000000000E+00 0.  1.
</event>
<event>
 7    1  0.5714431E-011  0.5052884E+02  0.7816164E-02  0.1300439E+00
        -11   -1    0    0    0    0  0.00000000000E+00  0.00000000000E+00  0.45593999997E+02  0.45594000000E+02  0.51100000000E-03 0.  1.
         11   -1    0    0    0    0 -0.00000000000E+00 -0.00000000000E+00 -0.45593999997E+02  0.45594000000E+02  0.51100000000E-03 0. -1.
    9900012    2    1    2    0    0  0.11401103954E+02 -0.39019490777E+02  0.81337890069E+00  0.50528838460E+02  0.29999934983E+02 0.  0.
        -12    1    1    2    0    0 -0.11401103954E+02  0.39019490777E+02 -0.81337890069E+00  0.40659161540E+02  0.00000000000E+00 0.  1.
         11    1    3    3    0    0  0.66527819611E+01 -0.29070511729E+02 -0.27727593382E+01  0.29950665345E+02  0.51100000000E-03 0. -1.
        -11    1    3    3    0    0  0.80059302373E+01 -0.45744366229E+00  0.62828220824E+01  0.10187150104E+02  0.51100000000E-03 0.  1.
         12    1    3    3    0    0 -0.32576082441E+01 -0.94915353862E+01 -0.26966838435E+01  0.10391023011E+02  0.00000000000E+00 0. -1.
</event>
<event>
 7    1  0.5714431E-011  0.5052887E+02  0.7816164E-02  0.1300439E+00
        -11   -1    0    0    0    0  0.00000000000E+00  0.00000000000E+00  0.45593999997E+02  0.45594000000E+02  0.51100000000E-03 0.  1.
         11   -1    0    0    0    0 -0.00000000000E+00 -0.00000000000E+00 -0.45593999997E+02  0.45594000000E+02  0.51100000000E-03 0. -1.
    9900012    2    1    2    0    0  0.11899232222E+02  0.60808898614E+01 -0.38400470473E+02  0.50528867181E+02  0.30000022285E+02 0.  0.
        -12    1    1    2    0    0 -0.11899232222E+02 -0.60808898614E+01  0.38400470473E+02  0.40659132819E+02  0.00000000000E+00 0.  1.
         11    1    3    3    0    0  0.42576015816E+01  0.65641503934E+01 -0.21529002253E+02  0.22906618692E+02  0.51100000000E-03 0. -1.
        -11    1    3    3    0    0  0.10560915621E+00  0.43894873230E+01  0.33342689624E+01  0.55132660037E+01  0.51100000000E-03 0.  1.
        -12    1    3    3    0    0  0.75360214846E+01 -0.48727478550E+01 -0.20205737182E+02  0.22108982486E+02  0.00000000000E+00 0.  1.
</event>
<event>
 7    1  0.5714431E-011  0.5052885E+02  0.7816164E-02  0.1300439E+00
        -11   -1    0    0    0    0  0.00000000000E+00  0.00000000000E+00  0.45593999997E+02  0.45594000000E+02  0.51100000000E-03 0.  1.
         11   -1    0    0    0    0 -0.00000000000E+00 -0.00000000000E+00 -0.45593999997E+02  0.45594000000E+02  0.51100000000E-03 0. -1.
    9900012    2    1    2    0    0 -0.22934976772E+02 -0.19122533941E+02 -0.27594963042E+02  0.50528850364E+02  0.29999971166E+02 0.  0.
        -12    1    1    2    0    0  0.22934976772E+02  0.19122533941E+02  0.27594963042E+02  0.40659149636E+02  0.00000000000E+00 0.  1.
         11    1    3    3    0    0 -0.19141375401E+02 -0.10586193711E+02 -0.29471475806E+02  0.36701875101E+02  0.51100000000E-03 0. -1.
        -11    1    3    3    0    0 -0.45868838365E+01 -0.75809945248E+00  0.35276192970E+01  0.58359503318E+01  0.51100000000E-03 0.  1.
         12    1    3    3    0    0  0.79328246494E+00 -0.77782407775E+01 -0.16511065331E+01  0.79910249308E+01  0.00000000000E+00 0. -1.
</event>
<event>
 7    1  0.5714431E-011  0.5052883E+02  0.7816164E-02  0.1300439E+00
        -11   -1    0    0    0    0  0.00000000000E+00  0.00000000000E+00  0.45593999997E+02  0.45594000000E+02  0.51100000000E-03 0.  1.
         11   -1    0    0    0    0 -0.00000000000E+00 -0.00000000000E+00 -0.45593999997E+02  0.45594000000E+02  0.51100000000E-03 0. -1.
    9900012    2    1    2    0    0 -0.34704280889E+02  0.98893312855E+01 -0.18734506899E+02  0.50528834563E+02  0.29999923138E+02 0.  0.
        -12    1    1    2    0    0  0.34704280889E+02 -0.98893312855E+01  0.18734506899E+02  0.40659165437E+02  0.00000000000E+00 0.  1.
         11    1    3    3    0    0 -0.30336366784E+02  0.15719738284E+02 -0.21480680089E+02  0.40358703383E+02  0.51100000000E-03 0. -1.
        -11    1    3    3    0    0 -0.21727972700E+01 -0.69827978727E+01  0.20319579669E+01  0.75900835007E+01  0.51100000000E-03 0.  1.
         12    1    3    3    0    0 -0.21951168345E+01  0.11523908741E+01  0.71421522346E+00  0.25800476797E+01  0.00000000000E+00 0. -1.
</event>
<event>
 7    1  0.5714431E-011  0.5052886E+02  0.7816164E-02  0.1300439E+00
        -11   -1    0    0    0    0  0.00000000000E+00  0.00000000000E+00  0.45593999997E+02  0.45594000000E+02  0.51100000000E-03 0.  1.
         11   -1    0    0    0    0 -0.00000000000E+00 -0.00000000000E+00 -0.45593999997E+02  0.45594000000E+02  0.51100000000E-03 0. -1.
    9900012    2    1    2    0    0  0.24680088637E+02  0.63041720735E+01 -0.31690944512E+02  0.50528864191E+02  0.30000013194E+02 0.  0.
        -12    1    1    2    0    0 -0.24680088637E+02 -0.63041720735E+01  0.31690944512E+02  0.40659135809E+02  0.00000000000E+00 0.  1.
         11    1    3    3    0    0  0.15524802245E+02  0.92031679800E+01 -0.19743764328E+02  0.26749467578E+02  0.51100000000E-03 0. -1.
        -11    1    3    3    0    0 -0.40920974132E+01 -0.37759754789E+01 -0.83291087875E+01  0.10018847514E+02  0.51100000000E-03 0.  1.
         12    1    3    3    0    0  0.13247383805E+02  0.87697957243E+00 -0.36180713965E+01  0.13760549098E+02  0.00000000000E+00 0. -1.
</event>
<event>
 7    1  0.5714431E-011  0.5052886E+02  0.7816164E-02  0.1300439E+00
        -11   -1    0    0    0    0  0.00000000000E+00  0.00000000000E+00  0.45593999997E+02  0.45594000000E+02  0.51100000000E-03 0.  1.
         11   -1    0    0    0    0 -0.00000000000E+00 -0.00000000000E+00 -0.45593999997E+02  0.45594000000E+02  0.51100000000E-03 0. -1.
    9900012    2    1    2    0    0 -0.14643000076E+02 -0.29471696120E+02 -0.23878174158E+02  0.50528861734E+02  0.30000005728E+02 0.  0.
        -12    1    1    2    0    0  0.14643000076E+02  0.29471696120E+02  0.23878174158E+02  0.40659138266E+02  0.00000000000E+00 0.  1.
         11    1    3    3    0    0  0.19445601233E+01 -0.16186461624E+02 -0.13527944410E+02  0.21184620228E+02  0.51100000000E-03 0. -1.
        -11    1    3    3    0    0 -0.15668378598E+02 -0.85769263702E+01  0.81341187216E-01  0.17862485004E+02  0.51100000000E-03 0.  1.
        -12    1    3    3    0    0 -0.91918160106E+00 -0.47083081261E+01 -0.10431570935E+02  0.11481756503E+02  0.00000000000E+00 0.  1.
</event>
<event>
 7    1  0.5714431E-011  0.5052886E+02  0.7816164E-02  0.1300439E+00
        -11   -1    0    0    0    0  0.00000000000E+00  0.00000000000E+00  0.45593999997E+02  0.45594000000E+02  0.51100000000E-03 0.  1.
         11   -1    0    0    0    0 -0.00000000000E+00 -0.00000000000E+00 -0.45593999997E+02  0.45594000000E+02  0.51100000000E-03 0. -1.
    9900012    2    1    2    0    0  0.19646868784E+02  0.20828973579E+02 -0.28867285164E+02  0.50528859009E+02  0.29999997442E+02 0.  0.
        -12    1    1    2    0    0 -0.19646868784E+02 -0.20828973579E+02  0.28867285164E+02  0.40659140991E+02  0.00000000000E+00 0.  1.
         11    1    3    3    0    0  0.24087312227E+01  0.14601463632E+02 -0.81507502113E+01  0.16894953553E+02  0.51100000000E-03 0. -1.
        -11    1    3    3    0    0  0.78189961367E+01 -0.68302278618E+01 -0.75919183289E+01  0.12861801484E+02  0.51100000000E-03 0.  1.
        -12    1    3    3    0    0  0.94191414249E+01  0.13057737810E+02 -0.13124616624E+02  0.20772103972E+02  0.00000000000E+00 0.  1.
</event>
<event>
 7    1  0.5714431E-011  0.5052885E+02  0.7816164E-02  0.1300439E+00
        -11   -1    0    0    0    0  0.00000000000E+00  0.00000000000E+00  0.45593999997E+02  0.45594000000E+02  0.51100000000E-03 0.  1.
         11   -1    0    0    0    0 -0.00000000000E+00 -0.00000000000E+00 -0.45593999997E+02  0.45594000000E+02  0.51100000000E-03 0. -1.
    9900012    2    1    2    0    0  0.25228378685E+02 -0.44447537015E+01 -0.31574345348E+02  0.50528853297E+02  0.29999980080E+02 0.  0.
        -12    1    1    2    0    0 -0.25228378685E+02  0.44447537015E+01  0.31574345348E+02  0.40659146703E+02  0.00000000000E+00 0.  1.
         11    1    3    3    0    0  0.46130270115E+01 -0.84619356924E+01 -0.15339131744E+02  0.18115555106E+02  0.51100000000E-03 0. -1.
        -11    1    3    3    0    0  0.14878584287E+02  0.50506894900E+01 -0.59677627077E+00  0.15723799696E+02  0.51100000000E-03 0.  1.
        -12    1    3    3    0    0  0.57367673865E+01 -0.10335074991E+01 -0.15638437333E+02  0.16689498495E+02  0.00000000000E+00 0.  1.
</event>
<event>
 7    1  0.5714431E-011  0.5052886E+02  0.7816164E-02  0.1300439E+00
        -11   -1    0    0    0    0  0.00000000000E+00  0.00000000000E+00  0.45593999997E+02  0.45594000000E+02  0.51100000000E-03 0. -1.
         11   -1    0    0    0    0 -0.00000000000E+00 -0.00000000000E+00 -0.45593999997E+02  0.45594000000E+02  0.51100000000E-03 0.  1.
    9900012    2    1    2    0    0 -0.27392244096E+02  0.29864383110E+02  0.33089399614E+01  0.50528862050E+02  0.30000006687E+02 0.  0.
        -12    1    1    2    0    0  0.27392244096E+02 -0.29864383110E+02 -0.33089399614E+01  0.40659137950E+02  0.00000000000E+00 0.  1.
         11    1    3    3    0    0 -0.92915637590E+01  0.10891837372E+02  0.11148455312E+02  0.18145339196E+02  0.51100000000E-03 0. -1.
        -11    1    3    3    0    0 -0.16851390476E+02  0.11173834137E+02 -0.11942832118E+02  0.23483082625E+02  0.51100000000E-03 0.  1.
        -12    1    3    3    0    0 -0.12492898613E+01  0.77987116008E+01  0.41033167672E+01  0.89004402297E+01  0.00000000000E+00 0.  1.
</event>
<event>
 7    1  0.5714431E-011  0.5052888E+02  0.7816164E-02  0.1300439E+00
        -11   -1    0    0    0    0  0.00000000000E+00  0.00000000000E+00  0.45593999997E+02  0.45594000000E+02  0.51100000000E-03 0.  1.
         11   -1    0    0    0    0 -0.00000000000E+00 -0.00000000000E+00 -0.45593999997E+02  0.45594000000E+02  0.51100000000E-03 0. -1.
    9900012    2    1    2    0    0 -0.29493568997E+02 -0.97748128801E+01 -0.26224925736E+02  0.50528876683E+02  0.30000051167E+02 0.  0.
        -12    1    1    2    0    0  0.29493568997E+02  0.97748128801E+01  0.26224925736E+02  0.40659123317E+02  0.00000000000E+00 0.  1.
         11    1    3    3    0    0 -0.29539026633E+02 -0.15742534568E+02 -0.24028274610E+02  0.41203634185E+02  0.51100000000E-03 0. -1.
        -11    1    3    3    0    0 -0.45609522058E+00  0.34109299545E+01  0.22923407868E+01  0.41348872474E+01  0.51100000000E-03 0.  1.
        -12    1    3    3    0    0  0.50155285684E+00  0.25567917334E+01 -0.44889919129E+01  0.51903552508E+01  0.00000000000E+00 0.  1.
</event>
<event>
 7    1  0.5714431E-011  0.5052886E+02  0.7816164E-02  0.1300439E+00
        -11   -1    0    0    0    0  0.00000000000E+00  0.00000000000E+00  0.45593999997E+02  0.45594000000E+02  0.51100000000E-03 0.  1.
         11   -1    0    0    0    0 -0.00000000000E+00 -0.00000000000E+00 -0.45593999997E+02  0.45594000000E+02  0.51100000000E-03 0. -1.
    9900012    2    1    2    0    0  0.92801705676E+01  0.21408541568E+02 -0.33297425101E+02  0.50528859131E+02  0.29999997814E+02 0.  0.
        -12    1    1    2    0    0 -0.92801705676E+01 -0.21408541568E+02  0.33297425101E+02  0.40659140869E+02  0.00000000000E+00 0.  1.
         11    1    3    3    0    0  0.67996220050E+01  0.15283945770E+02 -0.37977798665E+02  0.41498759613E+02  0.51100000000E-03 0. -1.
        -11    1    3    3    0    0  0.28602967701E+01  0.49909359518E+01  0.19915388894E+01  0.60874433629E+01  0.51100000000E-03 0.  1.
         12    1    3    3    0    0 -0.37974820749E+00  0.11336598456E+01  0.26888346736E+01  0.29426561554E+01  0.00000000000E+00 0. -1.
</event>
<event>
 7    1  0.8624723E-011  0.5052886E+02  0.7816164E-02  0.1300439E+00
        -11   -1    0    0    0    0  0.00000000000E+00  0.00000000000E+00  0.45593999997E+02  0.45594000000E+02  0.51100000000E-03 0. -1.
         11   -1    0    0    0    0 -0.00000000000E+00 -0.00000000000E+00 -0.45593999997E+02  0.45594000000E+02  0.51100000000E-03 0.  1.
    9900012    2    1    2    0    0  0.37074497031E+02  0.10674203572E+02  0.12833882514E+02  0.50528862130E+02  0.30000006930E+02 0.  0.
        -12    1    1    2    0    0 -0.37074497031E+02 -0.10674203572E+02 -0.12833882514E+02  0.40659137870E+02  0.00000000000E+00 0.  1.
         11    1    3    3    0    0  0.29360931106E+02  0.69313631488E+01  0.13918756760E+02  0.33224085548E+02  0.51100000000E-03 0. -1.
        -11    1    3    3    0    0 -0.23791465186E+01  0.80321448956E-01  0.45826312499E+01  0.51640390322E+01  0.51100000000E-03 0.  1.
         12    1    3    3    0    0  0.10092712444E+02  0.36625189740E+01 -0.56675054962E+01  0.12140737550E+02  0.00000000000E+00 0. -1.
</event>
<event>
 7    1  0.5714431E-011  0.5052886E+02  0.7816164E-02  0.1300439E+00
        -11   -1    0    0    0    0  0.00000000000E+00  0.00000000000E+00  0.45593999997E+02  0.45594000000E+02  0.51100000000E-03 0.  1.
         11   -1    0    0    0    0 -0.00000000000E+00 -0.00000000000E+00 -0.45593999997E+02  0.45594000000E+02  0.51100000000E-03 0. -1.
    9900012    2    1    2    0    0  0.23527076145E+02 -0.18367956870E+02 -0.27609069643E+02  0.50528857387E+02  0.29999992512E+02 0.  0.
        -12    1    1    2    0    0 -0.23527076145E+02  0.18367956870E+02  0.27609069643E+02  0.40659142613E+02  0.00000000000E+00 0.  1.
         11    1    3    3    0    0  0.10487139214E+02 -0.37364305387E+01 -0.41639297359E+01  0.11886097474E+02  0.51100000000E-03 0. -1.
        -11    1    3    3    0    0  0.54923901686E+01 -0.20063094017E+02 -0.19598915856E+02  0.28579915925E+02  0.51100000000E-03 0.  1.
        -12    1    3    3    0    0  0.75475467625E+01  0.54315676857E+01 -0.38462240512E+01  0.10062843987E+02  0.00000000000E+00 0.  1.
</event>
<event>
 7    1  0.5714431E-011  0.5052886E+02  0.7816164E-02  0.1300439E+00
        -11   -1    0    0    0    0  0.00000000000E+00  0.00000000000E+00  0.45593999997E+02  0.45594000000E+02  0.51100000000E-03 0. -1.
         11   -1    0    0    0    0 -0.00000000000E+00 -0.00000000000E+00 -0.45593999997E+02  0.45594000000E+02  0.51100000000E-03 0.  1.
    9900012    2    1    2    0    0 -0.39428842596E+02  0.63814441658E+01 -0.76032624707E+01  0.50528855170E+02  0.29999985775E+02 0.  0.
        -12    1    1    2    0    0  0.39428842596E+02 -0.63814441658E+01  0.76032624707E+01  0.40659144830E+02  0.00000000000E+00 0.  1.
         11    1    3    3    0    0 -0.17459288048E+02 -0.76091028469E+01 -0.32550865148E+01  0.19321510649E+02  0.51100000000E-03 0. -1.
        -11    1    3    3    0    0 -0.36913606140E+01  0.10080312686E+02  0.29633697657E+01  0.11136445019E+02  0.51100000000E-03 0.  1.
        -12    1    3    3    0    0 -0.18278193934E+02  0.39102343266E+01 -0.73115457217E+01  0.20070899502E+02  0.00000000000E+00 0.  1.
</event>
<event>
 7    1  0.5714431E-011  0.5052881E+02  0.7816164E-02  0.1300439E+00
        -11   -1    0    0    0    0  0.00000000000E+00  0.00000000000E+00  0.45593999997E+02  0.45594000000E+02  0.51100000000E-03 0.  1.
         11   -1    0    0    0    0 -0.00000000000E+00 -0.00000000000E+00 -0.45593999997E+02  0.45594000000E+02  0.51100000000E-03 0. -1.
    9900012    2    1    2    0    0  0.18606879162E+02 -0.34699929869E+02 -0.10142401640E+02  0.50528814124E+02  0.29999861010E+02 0.  0.
        -12    1    1    2    0    0 -0.18606879162E+02  0.34699929869E+02  0.10142401640E+02  0.40659185876E+02  0.00000000000E+00 0.  1.
         11    1    3    3    0    0 -0.35201785497E+01 -0.54928016728E+01 -0.73149129235E+01  0.98015549062E+01  0.51100000000E-03 0. -1.
        -11    1    3    3    0    0  0.17775600526E+02 -0.15498255323E+02  0.53496348179E+01  0.24182358964E+02  0.51100000000E-03 0.  1.
         12    1    3    3    0    0  0.43514571861E+01 -0.13708872874E+02 -0.81771235348E+01  0.16544900254E+02  0.00000000000E+00 0. -1.
</event>
<event>
 7    1  0.5714431E-011  0.5052888E+02  0.7816164E-02  0.1300439E+00
        -11   -1    0    0    0    0  0.00000000000E+00  0.00000000000E+00  0.45593999997E+02  0.45594000000E+02  0.51100000000E-03 0. -1.
         11   -1    0    0    0    0 -0.00000000000E+00 -0.00000000000E+00 -0.45593999997E+02  0.45594000000E+02  0.51100000000E-03 0.  1.
    9900012    2    1    2    0    0 -0.27389263769E+00  0.22636261724E+02  0.33774087465E+02  0.50528876226E+02  0.30000049776E+02 0.  0.
        -12    1    1    2    0    0  0.27389263769E+00 -0.22636261724E+02 -0.33774087465E+02  0.40659123774E+02  0.00000000000E+00 0.  1.
         11    1    3    3    0    0 -0.22839900766E+01 -0.40864779442E+01  0.13148215782E+02  0.13956772234E+02  0.51100000000E-03 0.  1.
        -11    1    3    3    0    0  0.27181597966E+01  0.28287596331E+02  0.18848783337E+02  0.34100632434E+02  0.51100000000E-03 0. -1.
         12    1    3    3    0    0 -0.70806235767E+00 -0.15648566629E+01  0.17770883450E+01  0.24714715583E+01  0.00000000000E+00 0. -1.
</event>
<event>
 7    1  0.5714431E-011  0.5052883E+02  0.7816164E-02  0.1300439E+00
        -11   -1    0    0    0    0  0.00000000000E+00  0.00000000000E+00  0.45593999997E+02  0.45594000000E+02  0.51100000000E-03 0. -1.
         11   -1    0    0    0    0 -0.00000000000E+00 -0.00000000000E+00 -0.45593999997E+02  0.45594000000E+02  0.51100000000E-03 0.  1.
    9900012    2    1    2    0    0 -0.23219033253E+02 -0.17669304449E+02  0.28316782159E+02  0.50528831578E+02  0.29999914064E+02 0.  0.
        -12    1    1    2    0    0  0.23219033253E+02  0.17669304449E+02 -0.28316782159E+02  0.40659168422E+02  0.00000000000E+00 0.  1.
         11    1    3    3    0    0 -0.16738400223E+02 -0.22568612653E+01  0.10586044532E+02  0.19933183486E+02  0.51100000000E-03 0. -1.
        -11    1    3    3    0    0 -0.88406770549E+00 -0.18396632676E+02  0.11550989013E+02  0.21740354573E+02  0.51100000000E-03 0.  1.
         12    1    3    3    0    0 -0.55965653240E+01  0.29841894922E+01  0.61797486150E+01  0.88552935183E+01  0.00000000000E+00 0. -1.
</event>
<event>
 7    1  0.5714431E-011  0.5052885E+02  0.7816164E-02  0.1300439E+00
        -11   -1    0    0    0    0  0.00000000000E+00  0.00000000000E+00  0.45593999997E+02  0.45594000000E+02  0.51100000000E-03 0.  1.
         11   -1    0    0    0    0 -0.00000000000E+00 -0.00000000000E+00 -0.45593999997E+02  0.45594000000E+02  0.51100000000E-03 0. -1.
    9900012    2    1    2    0    0  0.38490425386E+01  0.34301157423E+01 -0.40330954619E+02  0.50528846997E+02  0.29999960932E+02 0.  0.
        -12    1    1    2    0    0 -0.38490425386E+01 -0.34301157423E+01  0.40330954619E+02  0.40659153003E+02  0.00000000000E+00 0.  1.
         11    1    3    3    0    0 -0.55287938481E+01  0.54750099928E+01 -0.36318491969E+02  0.37142646042E+02  0.51100000000E-03 0. -1.
        -11    1    3    3    0    0  0.43063522633E+01 -0.25371625316E+01  0.21061470243E+01  0.54238103835E+01  0.51100000000E-03 0.  1.
         12    1    3    3    0    0  0.50714841234E+01  0.49226828115E+00 -0.61186096739E+01  0.79623905717E+01  0.00000000000E+00 0. -1.
</event>
<event>
 7    1  0.5714431E-011  0.5052886E+02  0.7816164E-02  0.1300439E+00
        -11   -1    0    0    0    0  0.00000000000E+00  0.00000000000E+00  0.45593999997E+02  0.45594000000E+02  0.51100000000E-03 0. -1.
         11   -1    0    0    0    0 -0.00000000000E+00 -0.00000000000E+00 -0.45593999997E+02  0.45594000000E+02  0.51100000000E-03 0.  1.
    9900012    2    1    2    0    0  0.14495129694E+02 -0.33840239787E+02 -0.17259636220E+02  0.50528860115E+02  0.30000000807E+02 0.  0.
        -12    1    1    2    0    0 -0.14495129694E+02  0.33840239787E+02  0.17259636220E+02  0.40659139885E+02  0.00000000000E+00 0.  1.
         11    1    3    3    0    0 -0.39745201437E+01 -0.10590433479E+02 -0.15723186530E+02  0.19369374966E+02  0.51100000000E-03 0. -1.
        -11    1    3    3    0    0  0.79030804785E+00 -0.64439429089E+01  0.12395158230E+01  0.66094921711E+01  0.51100000000E-03 0.  1.
         12    1    3    3    0    0  0.17679341790E+02 -0.16805863399E+02 -0.27759655133E+01  0.24549992979E+02  0.00000000000E+00 0. -1.
</event>
<event>
 7    1  0.5714431E-011  0.5052889E+02  0.7816164E-02  0.1300439E+00
        -11   -1    0    0    0    0  0.00000000000E+00  0.00000000000E+00  0.45593999997E+02  0.45594000000E+02  0.51100000000E-03 0.  1.
         11   -1    0    0    0    0 -0.00000000000E+00 -0.00000000000E+00 -0.45593999997E+02  0.45594000000E+02  0.51100000000E-03 0. -1.
    9900012    2    1    2    0    0  0.43044541034E+01 -0.14899112812E+02 -0.37585256767E+02  0.50528887689E+02  0.30000084619E+02 0.  0.
        -12    1    1    2    0    0 -0.43044541034E+01  0.14899112812E+02  0.37585256767E+02  0.40659112311E+02  0.00000000000E+00 0.  1.
         11    1    3    3    0    0 -0.99639592850E+00 -0.79276009937E+01 -0.79466004421E+01  0.11268900621E+02  0.51100000000E-03 0. -1.
        -11    1    3    3    0    0 -0.21582939103E+01 -0.14234325213E+02 -0.11840736295E+02  0.18640742559E+02  0.51100000000E-03 0.  1.
        -12    1    3    3    0    0  0.74591439422E+01  0.72628133943E+01 -0.17797920029E+02  0.20619244509E+02  0.00000000000E+00 0.  1.
</event>
<event>
 7    1  0.5714431E-011  0.5052886E+02  0.7816164E-02  0.1300439E+00
        -11   -1    0    0    0    0  0.00000000000E+00  0.00000000000E+00  0.45593999997E+02  0.45594000000E+02  0.51100000000E-03 0.  1.
         11   -1    0    0    0    0 -0.00000000000E+00 -0.00000000000E+00 -0.45593999997E+02  0.45594000000E+02  0.51100000000E-03 0. -1.
    9900012    2    1    2    0    0 -0.30419526880E+02 -0.26260331209E+02 -0.61816706556E+01  0.50528860033E+02  0.30000000555E+02 0.  0.
        -12    1    1    2    0    0  0.30419526880E+02  0.26260331209E+02  0.61816706556E+01  0.40659139967E+02  0.00000000000E+00 0.  1.
         11    1    3    3    0    0 -0.13435423020E+02 -0.10812176529E+02 -0.77792806051E+01  0.18919063402E+02  0.51100000000E-03 0. -1.
        -11    1    3    3    0    0  0.42937915819E+01 -0.45321286746E+01 -0.35009049277E+01  0.71577351198E+01  0.51100000000E-03 0.  1.
        -12    1    3    3    0    0 -0.21277895441E+02 -0.10916026006E+02  0.50985148773E+01  0.24452061511E+02  0.00000000000E+00 0.  1.
</event>
<event>
 7    1  0.5714431E-011  0.5052885E+02  0.7816164E-02  0.1300439E+00
        -11   -1    0    0    0    0  0.00000000000E+00  0.00000000000E+00  0.45593999997E+02  0.45594000000E+02  0.51100000000E-03 0.  1.
         11   -1    0    0    0    0 -0.00000000000E+00 -0.00000000000E+00 -0.45593999997E+02  0.45594000000E+02  0.51100000000E-03 0. -1.
    9900012    2    1    2    0    0 -0.35943264478E+02 -0.15975386369E+02  0.10297326529E+02  0.50528853863E+02  0.29999981802E+02 0.  0.
        -12    1    1    2    0    0  0.35943264478E+02  0.15975386369E+02 -0.10297326529E+02  0.40659146137E+02  0.00000000000E+00 0.  1.
         11    1    3    3    0    0  0.10868331045E+01  0.52867474658E+01 -0.11769425670E+01  0.55241378541E+01  0.51100000000E-03 0. -1.
        -11    1    3    3    0    0 -0.93329359697E+00 -0.28435778423E+01  0.82803076264E+00  0.31052547541E+01  0.51100000000E-03 0.  1.
         12    1    3    3    0    0 -0.36096803985E+02 -0.18418555993E+02  0.10646238333E+02  0.41899461255E+02  0.00000000000E+00 0. -1.
</event>
<event>
 7    1  0.5714431E-011  0.5052886E+02  0.7816164E-02  0.1300439E+00
        -11   -1    0    0    0    0  0.00000000000E+00  0.00000000000E+00  0.45593999997E+02  0.45594000000E+02  0.51100000000E-03 0. -1.
         11   -1    0    0    0    0 -0.00000000000E+00 -0.00000000000E+00 -0.45593999997E+02  0.45594000000E+02  0.51100000000E-03 0.  1.
    9900012    2    1    2    0    0 -0.10070225902E+02  0.37301218314E+02  0.12663944233E+02  0.50528858089E+02  0.29999994646E+02 0.  0.
        -12    1    1    2    0    0  0.10070225902E+02 -0.37301218314E+02 -0.12663944233E+02  0.40659141911E+02  0.00000000000E+00 0.  1.
         11    1    3    3    0    0 -0.51570684901E+01  0.25325187438E+02  0.95929073895E+01  0.27567813599E+02  0.51100000000E-03 0. -1.
        -11    1    3    3    0    0 -0.91009777552E+01  0.58507432736E+01 -0.50678618499E+01  0.11947477430E+02  0.51100000000E-03 0.  1.
        -12    1    3    3    0    0  0.41878203431E+01  0.61252876028E+01  0.81388986931E+01  0.11013567060E+02  0.00000000000E+00 0.  1.
</event>
<event>
 7    1  0.5714431E-011  0.5052888E+02  0.7816164E-02  0.1300439E+00
        -11   -1    0    0    0    0  0.00000000000E+00  0.00000000000E+00  0.45593999997E+02  0.45594000000E+02  0.51100000000E-03 0. -1.
         11   -1    0    0    0    0 -0.00000000000E+00 -0.00000000000E+00 -0.45593999997E+02  0.45594000000E+02  0.51100000000E-03 0.  1.
    9900012    2    1    2    0    0  0.19087070515E+02  0.33762625231E+02  0.12203795676E+02  0.50528883529E+02  0.30000071973E+02 0.  0.
        -12    1    1    2    0    0 -0.19087070515E+02 -0.33762625231E+02 -0.12203795676E+02  0.40659116471E+02  0.00000000000E+00 0.  1.
         11    1    3    3    0    0 -0.53106181984E+00  0.82829994757E+01  0.43413885897E+01  0.93668437650E+01  0.51100000000E-03 0. -1.
        -11    1    3    3    0    0  0.20465632924E+02  0.29567271337E+02  0.55356169768E+01  0.36382808040E+02  0.51100000000E-03 0.  1.
        -12    1    3    3    0    0 -0.84750058843E+00 -0.40876455822E+01  0.23267901093E+01  0.47792317234E+01  0.00000000000E+00 0.  1.
</event>
<event>
 7    1  0.5714431E-011  0.5052887E+02  0.7816164E-02  0.1300439E+00
        -11   -1    0    0    0    0  0.00000000000E+00  0.00000000000E+00  0.45593999997E+02  0.45594000000E+02  0.51100000000E-03 0. -1.
         11   -1    0    0    0    0 -0.00000000000E+00 -0.00000000000E+00 -0.45593999997E+02  0.45594000000E+02  0.51100000000E-03 0.  1.
    9900012    2    1    2    0    0 -0.29404132847E+02  0.25223509567E+02  0.12342449679E+02  0.50528873996E+02  0.30000042997E+02 0.  0.
        -12    1    1    2    0    0  0.29404132847E+02 -0.25223509567E+02 -0.12342449679E+02  0.40659126004E+02  0.00000000000E+00 0.  1.
         11    1    3    3    0    0 -0.59795355112E+01  0.11638797236E+01  0.40182669927E+01  0.72976661219E+01  0.51100000000E-03 0. -1.
        -11    1    3    3    0    0 -0.65428822176E+01  0.20705094161E+02 -0.39770175365E+01  0.22075481890E+02  0.51100000000E-03 0.  1.
        -12    1    3    3    0    0 -0.16881715118E+02  0.33545356824E+01  0.12301200222E+02  0.21155725984E+02  0.00000000000E+00 0.  1.
</event>
<event>
 7    1  0.5714431E-011  0.5052890E+02  0.7816164E-02  0.1300439E+00
        -11   -1    0    0    0    0  0.00000000000E+00  0.00000000000E+00  0.45593999997E+02  0.45594000000E+02  0.51100000000E-03 0. -1.
         11   -1    0    0    0    0 -0.00000000000E+00 -0.00000000000E+00 -0.45593999997E+02  0.45594000000E+02  0.51100000000E-03 0.  1.
    9900012    2    1    2    0    0 -0.35517283253E+01  0.51909257466E+01  0.40169668329E+02  0.50528896003E+02  0.30000109890E+02 0.  0.
        -12    1    1    2    0    0  0.35517283253E+01 -0.51909257466E+01 -0.40169668329E+02  0.40659103997E+02  0.00000000000E+00 0.  1.
         11    1    3    3    0    0 -0.10838595064E+01 -0.55447309304E+01 -0.13354764712E+01  0.58053673602E+01  0.51100000000E-03 0. -1.
        -11    1    3    3    0    0  0.19210116652E+01  0.98720942175E+01  0.16515850071E+02  0.19337058563E+02  0.51100000000E-03 0.  1.
         12    1    3    3    0    0 -0.43888804841E+01  0.86356245954E+00  0.24989294729E+02  0.25386470079E+02  0.00000000000E+00 0. -1.
</event>
<event>
 7    1  0.5714431E-011  0.5052889E+02  0.7816164E-02  0.1300439E+00
        -11   -1    0    0    0    0  0.00000000000E+00  0.00000000000E+00  0.45593999997E+02  0.45594000000E+02  0.51100000000E-03 0. -1.
         11   -1    0    0    0    0 -0.00000000000E+00 -0.00000000000E+00 -0.45593999997E+02  0.45594000000E+02  0.51100000000E-03 0.  1.
    9900012    2    1    2    0    0  0.52554899712E+01  0.10977763743E+02  0.38794734384E+02  0.50528894162E+02  0.30000104295E+02 0.  0.
        -12    1    1    2    0    0 -0.52554899712E+01 -0.10977763743E+02 -0.38794734384E+02  0.40659105838E+02  0.00000000000E+00 0.  1.
         11    1    3    3    0    0  0.54169244885E+01  0.14288826199E+02  0.32590452044E+02  0.35995155087E+02  0.51100000000E-03 0. -1.
        -11    1    3    3    0    0 -0.63365642686E+01 -0.27807719168E+01  0.37212252388E+01  0.78569877639E+01  0.51100000000E-03 0.  1.
         12    1    3    3    0    0  0.61751297512E+01 -0.53029053855E+00  0.24830571006E+01  0.66767513107E+01  0.00000000000E+00 0. -1.
</event>
<event>
 7    1  0.5714431E-011  0.5052884E+02  0.7816164E-02  0.1300439E+00
        -11   -1    0    0    0    0  0.00000000000E+00  0.00000000000E+00  0.45593999997E+02  0.45594000000E+02  0.51100000000E-03 0.  1.
         11   -1    0    0    0    0 -0.00000000000E+00 -0.00000000000E+00 -0.45593999997E+02  0.45594000000E+02  0.51100000000E-03 0. -1.
    9900012    2    1    2    0    0  0.74694944398E+01 -0.45166600130E+01 -0.39711127846E+02  0.50528840643E+02  0.29999941618E+02 0.  0.
        -12    1    1    2    0    0 -0.74694944398E+01  0.45166600130E+01  0.39711127846E+02  0.40659159357E+02  0.00000000000E+00 0.  1.
         11    1    3    3    0    0 -0.79122012420E+00  0.39903911378E+01 -0.32624381289E+01  0.52146671537E+01  0.51100000000E-03 0. -1.
        -11    1    3    3    0    0  0.49953682077E+01 -0.17034218058E+02 -0.25231889006E+02  0.30850713305E+02  0.51100000000E-03 0.  1.
        -12    1    3    3    0    0  0.32653463563E+01  0.85271669075E+01 -0.11216800711E+02  0.14463460184E+02  0.00000000000E+00 0.  1.
</event>
<event>
 7    1  0.5714431E-011  0.5052885E+02  0.7816164E-02  0.1300439E+00
        -11   -1    0    0    0    0  0.00000000000E+00  0.00000000000E+00  0.45593999997E+02  0.45594000000E+02  0.51100000000E-03 0. -1.
         11   -1    0    0    0    0 -0.00000000000E+00 -0.00000000000E+00 -0.45593999997E+02  0.45594000000E+02  0.51100000000E-03 0.  1.
    9900012    2    1    2    0    0 -0.20886724900E+02  0.74691787569E+01  0.34075248358E+02  0.50528850242E+02  0.29999970796E+02 0.  0.
        -12    1    1    2    0    0  0.20886724900E+02 -0.74691787569E+01 -0.34075248358E+02  0.40659149758E+02  0.00000000000E+00 0.  1.
         11    1    3    3    0    0 -0.66413297368E+01  0.23063529493E+01 -0.98429607018E+00  0.70989691938E+01  0.51100000000E-03 0. -1.
        -11    1    3    3    0    0 -0.19054411261E+02  0.77208726553E+00  0.24923456098E+02  0.31382246118E+02  0.51100000000E-03 0.  1.
        -12    1    3    3    0    0  0.48090160985E+01  0.43907385421E+01  0.10136088331E+02  0.12047634931E+02  0.00000000000E+00 0.  1.
</event>
<event>
 7    1  0.5714431E-011  0.5052886E+02  0.7816164E-02  0.1300439E+00
        -11   -1    0    0    0    0  0.00000000000E+00  0.00000000000E+00  0.45593999997E+02  0.45594000000E+02  0.51100000000E-03 0. -1.
         11   -1    0    0    0    0 -0.00000000000E+00 -0.00000000000E+00 -0.45593999997E+02  0.45594000000E+02  0.51100000000E-03 0.  1.
    9900012    2    1    2    0    0  0.24324707352E+02  0.29202381141E+02  0.14446285904E+02  0.50528860456E+02  0.30000001841E+02 0.  0.
        -12    1    1    2    0    0 -0.24324707352E+02 -0.29202381141E+02 -0.14446285904E+02  0.40659139544E+02  0.00000000000E+00 0.  1.
         11    1    3    3    0    0  0.11809187891E+02  0.15071541662E+02  0.68743846254E+00  0.19159354337E+02  0.51100000000E-03 0. -1.
        -11    1    3    3    0    0  0.71682233984E+01  0.13194193132E+02  0.18731843331E+02  0.24007334586E+02  0.51100000000E-03 0.  1.
        -12    1    3    3    0    0  0.53472960628E+01  0.93664634644E+00 -0.49729958892E+01  0.73621715326E+01  0.00000000000E+00 0.  1.
</event>
<event>
 7    1  0.5714431E-011  0.5052886E+02  0.7816164E-02  0.1300439E+00
        -11   -1    0    0    0    0  0.00000000000E+00  0.00000000000E+00  0.45593999997E+02  0.45594000000E+02  0.51100000000E-03 0.  1.
         11   -1    0    0    0    0 -0.00000000000E+00 -0.00000000000E+00 -0.45593999997E+02  0.45594000000E+02  0.51100000000E-03 0. -1.
    9900012    2    1    2    0    0  0.21177842301E+02 -0.22268105062E+02 -0.26623225956E+02  0.50528859971E+02  0.30000000368E+02 0.  0.
        -12    1    1    2    0    0 -0.21177842301E+02  0.22268105062E+02  0.26623225956E+02  0.40659140029E+02  0.00000000000E+00 0.  1.
         11    1    3    3    0    0 -0.64464469608E+01 -0.66405861058E-01 -0.45792239354E+01  0.79076153338E+01  0.51100000000E-03 0. -1.
        -11    1    3    3    0    0  0.20791815506E+02 -0.12461831621E+02 -0.17448574719E+02  0.29867199389E+02  0.51100000000E-03 0.  1.
        -12    1    3    3    0    0  0.68324737559E+01 -0.97398675800E+01 -0.45954273016E+01  0.12754045248E+02  0.00000000000E+00 0.  1.
</event>
<event>
 7    1  0.5714431E-011  0.5052886E+02  0.7816164E-02  0.1300439E+00
        -11   -1    0    0    0    0  0.00000000000E+00  0.00000000000E+00  0.45593999997E+02  0.45594000000E+02  0.51100000000E-03 0.  1.
         11   -1    0    0    0    0 -0.00000000000E+00 -0.00000000000E+00 -0.45593999997E+02  0.45594000000E+02  0.51100000000E-03 0. -1.
    9900012    2    1    2    0    0 -0.24359335681E+02 -0.20981611862E+02 -0.24890973865E+02  0.50528857718E+02  0.29999993519E+02 0.  0.
        -12    1    1    2    0    0  0.24359335681E+02  0.20981611862E+02  0.24890973865E+02  0.40659142282E+02  0.00000000000E+00 0.  1.
         11    1    3    3    0    0 -0.82397972312E+01 -0.67931386376E+01 -0.35977244076E+01  0.11268744923E+02  0.51100000000E-03 0. -1.
        -11    1    3    3    0    0  0.33890422771E+01 -0.12930323545E+02 -0.74181827160E+01  0.15287521369E+02  0.51100000000E-03 0.  1.
        -12    1    3    3    0    0 -0.19508580727E+02 -0.12581496792E+01 -0.13875066742E+02  0.23972591426E+02  0.00000000000E+00 0.  1.
</event>
<event>
 7    1  0.5714431E-011  0.5052886E+02  0.7816164E-02  0.1300439E+00
        -11   -1    0    0    0    0  0.00000000000E+00  0.00000000000E+00  0.45593999997E+02  0.45594000000E+02  0.51100000000E-03 0.  1.
         11   -1    0    0    0    0 -0.00000000000E+00 -0.00000000000E+00 -0.45593999997E+02  0.45594000000E+02  0.51100000000E-03 0. -1.
    9900012    2    1    2    0    0  0.29439512972E+01  0.19036994682E+02 -0.35806304922E+02  0.50528862184E+02  0.30000007096E+02 0.  0.
        -12    1    1    2    0    0 -0.29439512972E+01 -0.19036994682E+02  0.35806304922E+02  0.40659137816E+02  0.00000000000E+00 0.  1.
         11    1    3    3    0    0 -0.59803024356E+01  0.75581730799E+01 -0.15559916345E+02  0.18303032384E+02  0.51100000000E-03 0. -1.
        -11    1    3    3    0    0  0.13861069624E+02  0.12503954992E+02 -0.19723195577E+02  0.27156630601E+02  0.51100000000E-03 0.  1.
        -12    1    3    3    0    0 -0.49368158913E+01 -0.10251333893E+01 -0.52319299962E+00  0.50691991996E+01  0.00000000000E+00 0.  1.
</event>
<event>
 7    1  0.5714431E-011  0.5052886E+02  0.7816164E-02  0.1300439E+00
        -11   -1    0    0    0    0  0.00000000000E+00  0.00000000000E+00  0.45593999997E+02  0.45594000000E+02  0.51100000000E-03 0. -1.
         11   -1    0    0    0    0 -0.00000000000E+00 -0.00000000000E+00 -0.45593999997E+02  0.45594000000E+02  0.51100000000E-03 0.  1.
    9900012    2    1    2    0    0  0.40184825131E+02  0.39883854493E+00 -0.61795350777E+01  0.50528857157E+02  0.29999991814E+02 0.  0.
        -12    1    1    2    0    0 -0.40184825131E+02 -0.39883854493E+00  0.61795350777E+01  0.40659142843E+02  0.00000000000E+00 0.  1.
         11    1    3    3    0    0  0.53793439255E+01 -0.32634060747E+01  0.71783390932E+01  0.95454550795E+01  0.51100000000E-03 0. -1.
        -11    1    3    3    0    0  0.26725272426E+02  0.90278984665E+01 -0.60790190912E+01  0.28856500314E+02  0.51100000000E-03 0.  1.
         12    1    3    3    0    0  0.80802087786E+01 -0.53656538469E+01 -0.72788550797E+01  0.12126901764E+02  0.00000000000E+00 0. -1.
</event>
<event>
 7    1  0.5714431E-011  0.5052886E+02  0.7816164E-02  0.1300439E+00
        -11   -1    0    0    0    0  0.00000000000E+00  0.00000000000E+00  0.45593999997E+02  0.45594000000E+02  0.51100000000E-03 0.  1.
         11   -1    0    0    0    0 -0.00000000000E+00 -0.00000000000E+00 -0.45593999997E+02  0.45594000000E+02  0.51100000000E-03 0. -1.
    9900012    2    1    2    0    0 -0.30203590984E+02  0.11629549608E+02 -0.24610212948E+02  0.50528856948E+02  0.29999991178E+02 0.  0.
        -12    1    1    2    0    0  0.30203590984E+02 -0.11629549608E+02  0.24610212948E+02  0.40659143052E+02  0.00000000000E+00 0.  1.
         11    1    3    3    0    0  0.76322966660E+00  0.81949707550E+01 -0.79062678038E+01  0.11412674360E+02  0.51100000000E-03 0. -1.
        -11    1    3    3    0    0 -0.22446477804E+02  0.28991136055E+01 -0.28068572546E+01  0.22806307755E+02  0.51100000000E-03 0.  1.
         12    1    3    3    0    0 -0.85203428469E+01  0.53546524734E+00 -0.13897087889E+02  0.16309874833E+02  0.00000000000E+00 0. -1.
</event>
<event>
 7    1  0.5714431E-011  0.5052886E+02  0.7816164E-02  0.1300439E+00
        -11   -1    0    0    0    0  0.00000000000E+00  0.00000000000E+00  0.45593999997E+02  0.45594000000E+02  0.51100000000E-03 0. -1.
         11   -1    0    0    0    0 -0.00000000000E+00 -0.00000000000E+00 -0.45593999997E+02  0.45594000000E+02  0.51100000000E-03 0.  1.
    9900012    2    1    2    0    0  0.18397140731E+02 -0.26148402765E+02  0.25119151384E+02  0.50528861784E+02  0.30000005878E+02 0.  0.
        -12    1    1    2    0    0 -0.18397140731E+02  0.26148402765E+02 -0.25119151384E+02  0.40659138216E+02  0.00000000000E+00 0.  1.
         11    1    3    3    0    0  0.20444820253E+02 -0.63018567344E+01  0.16494075146E+02  0.27014044285E+02  0.51100000000E-03 0. -1.
        -11    1    3    3    0    0 -0.46465883299E+01 -0.51768189833E+01  0.32331508747E+01  0.76709518792E+01  0.51100000000E-03 0.  1.
         12    1    3    3    0    0  0.25989088074E+01 -0.14669727048E+02  0.53919253633E+01  0.15843865619E+02  0.00000000000E+00 0. -1.
</event>
<event>
 7    1  0.5714431E-011  0.5052887E+02  0.7816164E-02  0.1300439E+00
        -11   -1    0    0    0    0  0.00000000000E+00  0.00000000000E+00  0.45593999997E+02  0.45594000000E+02  0.51100000000E-03 0.  1.
         11   -1    0    0    0    0 -0.00000000000E+00 -0.00000000000E+00 -0.45593999997E+02  0.45594000000E+02  0.51100000000E-03 0. -1.
    9900012    2    1    2    0    0  0.16423248493E+02  0.14708407814E+02 -0.34162913743E+02  0.50528867854E+02  0.30000024328E+02 0.  0.
        -12    1    1    2    0    0 -0.16423248493E+02 -0.14708407814E+02  0.34162913743E+02  0.40659132146E+02  0.00000000000E+00 0.  1.
         11    1    3    3    0    0 -0.45101707197E+01  0.49357751456E+01 -0.59781006702E+01  0.89689020562E+01  0.51100000000E-03 0. -1.
        -11    1    3    3    0    0  0.20877697902E+02  0.89188862771E+01 -0.31109521069E+02  0.38512687565E+02  0.51100000000E-03 0.  1.
        -12    1    3    3    0    0  0.55721310782E-01  0.85374639143E+00  0.29247079959E+01  0.30472782326E+01  0.00000000000E+00 0.  1.
</event>
<event>
 7    1  0.5714431E-011  0.5052886E+02  0.7816164E-02  0.1300439E+00
        -11   -1    0    0    0    0  0.00000000000E+00  0.00000000000E+00  0.45593999997E+02  0.45594000000E+02  0.51100000000E-03 0. -1.
         11   -1    0    0    0    0 -0.00000000000E+00 -0.00000000000E+00 -0.45593999997E+02  0.45594000000E+02  0.51100000000E-03 0.  1.
    9900012    2    1    2    0    0 -0.40657430987E+02 -0.16686471861E+00  0.33296549873E+00  0.50528863212E+02  0.30000010219E+02 0.  0.
        -12    1    1    2    0    0  0.40657430987E+02  0.16686471861E+00 -0.33296549873E+00  0.40659136788E+02  0.00000000000E+00 0.  1.
         11    1    3    3    0    0 -0.24819017420E+02 -0.48224837459E+01  0.99955882518E+01  0.27187345584E+02  0.51100000000E-03 0. -1.
        -11    1    3    3    0    0 -0.27632257036E+00  0.51937852184E+01 -0.46679965169E+01  0.69887016534E+01  0.51100000000E-03 0.  1.
        -12    1    3    3    0    0 -0.15562090997E+02 -0.53816619111E+00 -0.49946262361E+01  0.16352815975E+02  0.00000000000E+00 0.  1.
</event>
<event>
 7    1  0.5714431E-011  0.5052885E+02  0.7816164E-02  0.1300439E+00
        -11   -1    0    0    0    0  0.00000000000E+00  0.00000000000E+00  0.45593999997E+02  0.45594000000E+02  0.51100000000E-03 0. -1.
         11   -1    0    0    0    0 -0.00000000000E+00 -0.00000000000E+00 -0.45593999997E+02  0.45594000000E+02  0.51100000000E-03 0.  1.
    9900012    2    1    2    0    0  0.34893508005E+01  0.10179580175E+02  0.39209274338E+02  0.50528848316E+02  0.29999964943E+02 0.  0.
        -12    1    1    2    0    0 -0.34893508005E+01 -0.10179580175E+02 -0.39209274338E+02  0.40659151684E+02  0.00000000000E+00 0.  1.
         11    1    3    3    0    0 -0.21897329669E+01  0.92037585749E+01  0.36220820973E+02  0.37435971666E+02  0.51100000000E-03 0. -1.
        -11    1    3    3    0    0  0.32458624609E+01  0.38848698232E+01 -0.30881010677E+01  0.59299414098E+01  0.51100000000E-03 0.  1.
        -12    1    3    3    0    0  0.24332213065E+01 -0.29090482232E+01  0.60765544327E+01  0.71629352409E+01  0.00000000000E+00 0.  1.
</event>
<event>
 7    1  0.5714431E-011  0.5052884E+02  0.7816164E-02  0.1300439E+00
        -11   -1    0    0    0    0  0.00000000000E+00  0.00000000000E+00  0.45593999997E+02  0.45594000000E+02  0.51100000000E-03 0.  1.
         11   -1    0    0    0    0 -0.00000000000E+00 -0.00000000000E+00 -0.45593999997E+02  0.45594000000E+02  0.51100000000E-03 0. -1.
    9900012    2    1    2    0    0 -0.13224401415E+00 -0.36268700991E+02 -0.18377471407E+02  0.50528836023E+02  0.29999927574E+02 0.  0.
        -12    1    1    2    0    0  0.13224401415E+00  0.36268700991E+02  0.18377471407E+02  0.40659163977E+02  0.00000000000E+00 0.  1.
         11    1    3    3    0    0  0.70294657874E+01 -0.52475976537E+01 -0.28740939611E+01  0.92309851452E+01  0.51100000000E-03 0. -1.
        -11    1    3    3    0    0 -0.29104323074E+01 -0.30180842676E+02 -0.18954616000E+02  0.35757955042E+02  0.51100000000E-03 0.  1.
        -12    1    3    3    0    0 -0.42512774942E+01 -0.84026066109E+00  0.34512385538E+01  0.55398958353E+01  0.00000000000E+00 0.  1.
</event>
<event>
 7    1  0.5714431E-011  0.5052886E+02  0.7816164E-02  0.1300439E+00
        -11   -1    0    0    0    0  0.00000000000E+00  0.00000000000E+00  0.45593999997E+02  0.45594000000E+02  0.51100000000E-03 0. -1.
         11   -1    0    0    0    0 -0.00000000000E+00 -0.00000000000E+00 -0.45593999997E+02  0.45594000000E+02  0.51100000000E-03 0.  1.
    9900012    2    1    2    0    0  0.38531960898E+02 -0.12900003127E+02  0.14295014100E+01  0.50528861229E+02  0.30000004191E+02 0.  0.
        -12    1    1    2    0    0 -0.38531960898E+02  0.12900003127E+02 -0.14295014100E+01  0.40659138771E+02  0.00000000000E+00 0.  1.
         11    1    3    3    0    0  0.35767498281E+02 -0.19182362498E+02  0.10885216950E+00  0.40586805902E+02  0.51100000000E-03 0. -1.
        -11    1    3    3    0    0 -0.18979733459E+00  0.65346619673E+01  0.21175538106E+01  0.68718166781E+01  0.51100000000E-03 0.  1.
         12    1    3    3    0    0  0.29542599518E+01 -0.25230259581E+00 -0.79690457011E+00  0.30702386481E+01  0.00000000000E+00 0. -1.
</event>
<event>
 7    1  0.5714431E-011  0.5052886E+02  0.7816164E-02  0.1300439E+00
        -11   -1    0    0    0    0  0.00000000000E+00  0.00000000000E+00  0.45593999997E+02  0.45594000000E+02  0.51100000000E-03 0.  1.
         11   -1    0    0    0    0 -0.00000000000E+00 -0.00000000000E+00 -0.45593999997E+02  0.45594000000E+02  0.51100000000E-03 0. -1.
    9900012    2    1    2    0    0 -0.13902528799E+02  0.25130838325E+02 -0.28780665080E+02  0.50528855587E+02  0.29999987043E+02 0.  0.
        -12    1    1    2    0    0  0.13902528799E+02 -0.25130838325E+02  0.28780665080E+02  0.40659144413E+02  0.00000000000E+00 0.  1.
         11    1    3    3    0    0 -0.19891437334E+02  0.20235439528E+02 -0.21394925863E+02  0.35537095338E+02  0.51100000000E-03 0. -1.
        -11    1    3    3    0    0  0.59316725760E+01  0.23012548738E+01 -0.96428178518E+01  0.11552681504E+02  0.51100000000E-03 0.  1.
        -12    1    3    3    0    0  0.57235958861E-01  0.25941439231E+01  0.22570786354E+01  0.34390787451E+01  0.00000000000E+00 0.  1.
</event>
<event>
 7    1  0.5714431E-011  0.5052888E+02  0.7816164E-02  0.1300439E+00
        -11   -1    0    0    0    0  0.00000000000E+00  0.00000000000E+00  0.45593999997E+02  0.45594000000E+02  0.51100000000E-03 0. -1.
         11   -1    0    0    0    0 -0.00000000000E+00 -0.00000000000E+00 -0.45593999997E+02  0.45594000000E+02  0.51100000000E-03 0.  1.
    9900012    2    1    2    0    0  0.37533605199E+02 -0.53702638331E+00  0.15623835970E+02  0.50528878428E+02  0.30000056469E+02 0.  0.
        -12    1    1    2    0    0 -0.37533605199E+02  0.53702638331E+00 -0.15623835970E+02  0.40659121572E+02  0.00000000000E+00 0.  1.
         11    1    3    3    0    0  0.39465159275E+02  0.42549403290E+01  0.10256528316E+02  0.40997557088E+02  0.51100000000E-03 0. -1.
        -11    1    3    3    0    0 -0.97188435168E+00  0.12762066466E+01  0.46109172889E+00  0.16690921009E+01  0.51100000000E-03 0.  1.
         12    1    3    3    0    0 -0.95966972459E+00 -0.60681733589E+01  0.49062159259E+01  0.78622292389E+01  0.00000000000E+00 0. -1.
</event>
<event>
 7    1  0.5714431E-011  0.5052886E+02  0.7816164E-02  0.1300439E+00
        -11   -1    0    0    0    0  0.00000000000E+00  0.00000000000E+00  0.45593999997E+02  0.45594000000E+02  0.51100000000E-03 0. -1.
         11   -1    0    0    0    0 -0.00000000000E+00 -0.00000000000E+00 -0.45593999997E+02  0.45594000000E+02  0.51100000000E-03 0.  1.
    9900012    2    1    2    0    0 -0.18459924654E+02 -0.18157218193E+01  0.36181485375E+02  0.50528861447E+02  0.30000004853E+02 0.  0.
        -12    1    1    2    0    0  0.18459924654E+02  0.18157218193E+01 -0.36181485375E+02  0.40659138553E+02  0.00000000000E+00 0.  1.
         11    1    3    3    0    0 -0.35389759239E+01 -0.44244702694E+01  0.19912528946E+02  0.20702876540E+02  0.51100000000E-03 0. -1.
        -11    1    3    3    0    0 -0.12207385438E+02  0.10207886219E+02  0.65869282840E+01  0.17222335055E+02  0.51100000000E-03 0.  1.
        -12    1    3    3    0    0 -0.27135632930E+01 -0.75991377687E+01  0.96820281447E+01  0.12603649851E+02  0.00000000000E+00 0.  1.
</event>
<event>
 7    1  0.5714431E-011  0.5052887E+02  0.7816164E-02  0.1300439E+00
        -11   -1    0    0    0    0  0.00000000000E+00  0.00000000000E+00  0.45593999997E+02  0.45594000000E+02  0.51100000000E-03 0.  1.
         11   -1    0    0    0    0 -0.00000000000E+00 -0.00000000000E+00 -0.45593999997E+02  0.45594000000E+02  0.51100000000E-03 0. -1.
    9900012    2    1    2    0    0  0.40504961314E+02  0.34800164453E+01  0.63468545809E+00  0.50528865342E+02  0.30000016694E+02 0.  0.
        -12    1    1    2    0    0 -0.40504961314E+02 -0.34800164453E+01 -0.63468545809E+00  0.40659134658E+02  0.00000000000E+00 0.  1.
         11    1    3    3    0    0  0.14427574406E+02  0.19659180560E+01  0.11521285450E+02  0.18567707336E+02  0.51100000000E-03 0. -1.
        -11    1    3    3    0    0  0.14328396310E+02  0.50337627518E+01 -0.12396174665E+02  0.19603745939E+02  0.51100000000E-03 0.  1.
        -12    1    3    3    0    0  0.11748990599E+02 -0.35196643625E+01  0.15095746729E+01  0.12357412068E+02  0.00000000000E+00 0.  1.
</event>
<event>
 7    1  0.5714431E-011  0.5052884E+02  0.7816164E-02  0.1300439E+00
        -11   -1    0    0    0    0  0.00000000000E+00  0.00000000000E+00  0.45593999997E+02  0.45594000000E+02  0.51100000000E-03 0. -1.
         11   -1    0    0    0    0 -0.00000000000E+00 -0.00000000000E+00 -0.45593999997E+02  0.45594000000E+02  0.51100000000E-03 0.  1.
    9900012    2    1    2    0    0  0.74198492208E+00  0.28108747827E+02  0.29368602477E+02  0.50528842883E+02  0.29999948428E+02 0.  0.
        -12    1    1    2    0    0 -0.74198492208E+00 -0.28108747827E+02 -0.29368602477E+02  0.40659157117E+02  0.00000000000E+00 0.  1.
         11    1    3    3    0    0  0.88394830009E+01  0.11559770031E+02  0.11736291479E+02  0.18695060333E+02  0.51100000000E-03 0. -1.
        -11    1    3    3    0    0 -0.90303502792E+01  0.17990302790E+02  0.73816088804E+01  0.21440297819E+02  0.51100000000E-03 0.  1.
         12    1    3    3    0    0  0.93285220046E+00 -0.14413249946E+01  0.10250702117E+02  0.10393484732E+02  0.00000000000E+00 0. -1.
</event>
<event>
 7    1  0.5714431E-011  0.5052886E+02  0.7816164E-02  0.1300439E+00
        -11   -1    0    0    0    0  0.00000000000E+00  0.00000000000E+00  0.45593999997E+02  0.45594000000E+02  0.51100000000E-03 0.  1.
         11   -1    0    0    0    0 -0.00000000000E+00 -0.00000000000E+00 -0.45593999997E+02  0.45594000000E+02  0.51100000000E-03 0. -1.
    9900012    2    1    2    0    0 -0.11397143208E+02  0.50967803501E+00 -0.39025775222E+02  0.50528858634E+02  0.29999996303E+02 0.  0.
        -12    1    1    2    0    0  0.11397143208E+02 -0.50967803501E+00  0.39025775222E+02  0.40659141366E+02  0.00000000000E+00 0.  1.
         11    1    3    3    0    0 -0.59968222347E+01  0.80946033791E+01 -0.31840606626E+02  0.33396237982E+02  0.51100000000E-03 0. -1.
        -11    1    3    3    0    0  0.27589913753E+01 -0.58578097330E+01 -0.57708523655E+01  0.86734483086E+01  0.51100000000E-03 0.  1.
         12    1    3    3    0    0 -0.81593123483E+01 -0.17271156111E+01 -0.14143162303E+01  0.84591723431E+01  0.00000000000E+00 0. -1.
</event>
<event>
 7    1  0.5714431E-011  0.5052886E+02  0.7816164E-02  0.1300439E+00
        -11   -1    0    0    0    0  0.00000000000E+00  0.00000000000E+00  0.45593999997E+02  0.45594000000E+02  0.51100000000E-03 0. -1.
         11   -1    0    0    0    0 -0.00000000000E+00 -0.00000000000E+00 -0.45593999997E+02  0.45594000000E+02  0.51100000000E-03 0.  1.
    9900012    2    1    2    0    0  0.34183157818E+01 -0.39070693266E+02  0.10722027802E+02  0.50528857913E+02  0.29999994111E+02 0.  0.
        -12    1    1    2    0    0 -0.34183157818E+01  0.39070693266E+02 -0.10722027802E+02  0.40659142087E+02  0.00000000000E+00 0.  1.
         11    1    3    3    0    0  0.19896626453E+01 -0.21279534543E+02  0.16068880014E+02  0.26739226858E+02  0.51100000000E-03 0. -1.
        -11    1    3    3    0    0 -0.22866664557E+01 -0.18075552546E+02 -0.72456998785E+01  0.19607514129E+02  0.51100000000E-03 0.  1.
         12    1    3    3    0    0  0.37153195922E+01  0.28439382263E+00  0.18988476659E+01  0.41821169253E+01  0.00000000000E+00 0. -1.
</event>
<event>
 7    1  0.5714431E-011  0.5052887E+02  0.7816164E-02  0.1300439E+00
        -11   -1    0    0    0    0  0.00000000000E+00  0.00000000000E+00  0.45593999997E+02  0.45594000000E+02  0.51100000000E-03 0.  1.
         11   -1    0    0    0    0 -0.00000000000E+00 -0.00000000000E+00 -0.45593999997E+02  0.45594000000E+02  0.51100000000E-03 0. -1.
    9900012    2    1    2    0    0 -0.44006769578E+01 -0.12664353606E+02 -0.38385067719E+02  0.50528865310E+02  0.30000016596E+02 0.  0.
        -12    1    1    2    0    0  0.44006769578E+01  0.12664353606E+02  0.38385067719E+02  0.40659134690E+02  0.00000000000E+00 0.  1.
         11    1    3    3    0    0 -0.56347704198E+01 -0.11384206992E+01  0.31947038955E+01  0.65766840135E+01  0.51100000000E-03 0.  1.
        -11    1    3    3    0    0 -0.16603839477E+00 -0.98817512700E+01 -0.40182366113E+02  0.41379936244E+02  0.51100000000E-03 0. -1.
         12    1    3    3    0    0  0.14001318568E+01 -0.16441816366E+01 -0.13974055023E+01  0.25722450521E+01  0.00000000000E+00 0. -1.
</event>
<event>
 7    1  0.5714431E-011  0.5052888E+02  0.7816164E-02  0.1300439E+00
        -11   -1    0    0    0    0  0.00000000000E+00  0.00000000000E+00  0.45593999997E+02  0.45594000000E+02  0.51100000000E-03 0.  1.
         11   -1    0    0    0    0 -0.00000000000E+00 -0.00000000000E+00 -0.45593999997E+02  0.45594000000E+02  0.51100000000E-03 0. -1.
    9900012    2    1    2    0    0  0.29936695483E+02 -0.49266942290E+01 -0.27068179287E+02  0.50528875779E+02  0.30000048419E+02 0.  0.
        -12    1    1    2    0    0 -0.29936695483E+02  0.49266942290E+01  0.27068179287E+02  0.40659124221E+02  0.00000000000E+00 0.  1.
         11    1    3    3    0    0  0.35734951554E+00  0.51223702750E+01 -0.54168855232E+01  0.74638478644E+01  0.51100000000E-03 0. -1.
        -11    1    3    3    0    0  0.23929453007E+02 -0.13920965100E+02 -0.97824940804E+01  0.29361695816E+02  0.51100000000E-03 0.  1.
        -12    1    3    3    0    0  0.56498929606E+01  0.38719005957E+01 -0.11868799683E+02  0.13703332099E+02  0.00000000000E+00 0.  1.
</event>
<event>
 7    1  0.5714431E-011  0.5052886E+02  0.7816164E-02  0.1300439E+00
        -11   -1    0    0    0    0  0.00000000000E+00  0.00000000000E+00  0.45593999997E+02  0.45594000000E+02  0.51100000000E-03 0. -1.
         11   -1    0    0    0    0 -0.00000000000E+00 -0.00000000000E+00 -0.45593999997E+02  0.45594000000E+02  0.51100000000E-03 0.  1.
    9900012    2    1    2    0    0  0.31497116140E+02  0.17465022488E+02  0.18869822759E+02  0.50528861462E+02  0.30000004901E+02 0.  0.
        -12    1    1    2    0    0 -0.31497116140E+02 -0.17465022488E+02 -0.18869822759E+02  0.40659138538E+02  0.00000000000E+00 0.  1.
         11    1    3    3    0    0  0.86859520883E+01 -0.66038917426E+01  0.63654752825E+01  0.12632356299E+02  0.51100000000E-03 0. -1.
        -11    1    3    3    0    0  0.84697488577E+01  0.17593677519E+02  0.10082718865E+02  0.21975790187E+02  0.51100000000E-03 0.  1.
         12    1    3    3    0    0  0.14341415194E+02  0.64752367121E+01  0.24216286114E+01  0.15920714977E+02  0.00000000000E+00 0. -1.
</event>
<event>
 7    1  0.5714431E-011  0.5052886E+02  0.7816164E-02  0.1300439E+00
        -11   -1    0    0    0    0  0.00000000000E+00  0.00000000000E+00  0.45593999997E+02  0.45594000000E+02  0.51100000000E-03 0.  1.
         11   -1    0    0    0    0 -0.00000000000E+00 -0.00000000000E+00 -0.45593999997E+02  0.45594000000E+02  0.51100000000E-03 0. -1.
    9900012    2    1    2    0    0  0.21561738680E+02 -0.34127190995E+02  0.48571570806E+01  0.50528859392E+02  0.29999998607E+02 0.  0.
        -12    1    1    2    0    0 -0.21561738680E+02  0.34127190995E+02 -0.48571570806E+01  0.40659140608E+02  0.00000000000E+00 0.  1.
         11    1    3    3    0    0  0.18652589260E+02 -0.11959336530E+02  0.44289980111E+01  0.22595593375E+02  0.51100000000E-03 0. -1.
        -11    1    3    3    0    0  0.43043411308E+01 -0.23241673968E+02 -0.32463195737E+01  0.23858779357E+02  0.51100000000E-03 0.  1.
        -12    1    3    3    0    0 -0.13951917105E+01  0.10738195031E+01  0.36744786432E+01  0.40744866589E+01  0.00000000000E+00 0.  1.
</event>
<event>
 7    1  0.5714431E-011  0.5052885E+02  0.7816164E-02  0.1300439E+00
        -11   -1    0    0    0    0  0.00000000000E+00  0.00000000000E+00  0.45593999997E+02  0.45594000000E+02  0.51100000000E-03 0. -1.
         11   -1    0    0    0    0 -0.00000000000E+00 -0.00000000000E+00 -0.45593999997E+02  0.45594000000E+02  0.51100000000E-03 0.  1.
    9900012    2    1    2    0    0 -0.22421367925E+02  0.31273068124E+02  0.13131801333E+02  0.50528846839E+02  0.29999960452E+02 0.  0.
        -12    1    1    2    0    0  0.22421367925E+02 -0.31273068124E+02 -0.13131801333E+02  0.40659153161E+02  0.00000000000E+00 0.  1.
         11    1    3    3    0    0  0.59591162183E+01  0.16162088975E+01 -0.94108217627E+00  0.62457051825E+01  0.51100000000E-03 0. -1.
        -11    1    3    3    0    0 -0.16760539764E+02  0.12466506171E+02  0.42076684355E+01  0.21308072255E+02  0.51100000000E-03 0.  1.
         12    1    3    3    0    0 -0.11619944378E+02  0.17190353056E+02  0.98652150736E+01  0.22975069401E+02  0.00000000000E+00 0. -1.
</event>
<event>
 7    1  0.5714431E-011  0.5052886E+02  0.7816164E-02  0.1300439E+00
        -11   -1    0    0    0    0  0.00000000000E+00  0.00000000000E+00  0.45593999997E+02  0.45594000000E+02  0.51100000000E-03 0.  1.
         11   -1    0    0    0    0 -0.00000000000E+00 -0.00000000000E+00 -0.45593999997E+02  0.45594000000E+02  0.51100000000E-03 0. -1.
    9900012    2    1    2    0    0  0.20850720141E+02  0.27994234954E+02 -0.20850324164E+02  0.50528859099E+02  0.29999997717E+02 0.  0.
        -12    1    1    2    0    0 -0.20850720141E+02 -0.27994234954E+02  0.20850324164E+02  0.40659140901E+02  0.00000000000E+00 0.  1.
         11    1    3    3    0    0 -0.10279604057E+01 -0.19628755887E+01  0.43152086812E+00  0.22573864740E+01  0.51100000000E-03 0. -1.
        -11    1    3    3    0    0  0.26465742642E+02  0.24704240373E+02 -0.19271361425E+02  0.41013661107E+02  0.51100000000E-03 0.  1.
        -12    1    3    3    0    0 -0.45870620953E+01  0.52528701699E+01 -0.20104836075E+01  0.72578115175E+01  0.00000000000E+00 0.  1.
</event>
<event>
 7    1  0.5714431E-011  0.5052885E+02  0.7816164E-02  0.1300439E+00
        -11   -1    0    0    0    0  0.00000000000E+00  0.00000000000E+00  0.45593999997E+02  0.45594000000E+02  0.51100000000E-03 0.  1.
         11   -1    0    0    0    0 -0.00000000000E+00 -0.00000000000E+00 -0.45593999997E+02  0.45594000000E+02  0.51100000000E-03 0. -1.
    9900012    2    1    2    0    0 -0.58362378492E+01  0.35603366478E+02 -0.18748471810E+02  0.50528848853E+02  0.29999966575E+02 0.  0.
        -12    1    1    2    0    0  0.58362378492E+01 -0.35603366478E+02  0.18748471810E+02  0.40659151147E+02  0.00000000000E+00 0.  1.
         11    1    3    3    0    0 -0.74622087873E+01  0.14118614412E+02 -0.12170013853E+01  0.16015646273E+02  0.51100000000E-03 0. -1.
        -11    1    3    3    0    0  0.84554018125E+01  0.43982424603E+01 -0.11948355013E+02  0.15284029061E+02  0.51100000000E-03 0.  1.
        -12    1    3    3    0    0 -0.68294308744E+01  0.17086509605E+02 -0.55831154113E+01  0.19229173519E+02  0.00000000000E+00 0.  1.
</event>
<event>
 7    1  0.5714431E-011  0.5052885E+02  0.7816164E-02  0.1300439E+00
        -11   -1    0    0    0    0  0.00000000000E+00  0.00000000000E+00  0.45593999997E+02  0.45594000000E+02  0.51100000000E-03 0.  1.
         11   -1    0    0    0    0 -0.00000000000E+00 -0.00000000000E+00 -0.45593999997E+02  0.45594000000E+02  0.51100000000E-03 0. -1.
    9900012    2    1    2    0    0 -0.19746165853E+02  0.33124179499E+02 -0.12885805300E+02  0.50528852055E+02  0.29999976306E+02 0.  0.
        -12    1    1    2    0    0  0.19746165853E+02 -0.33124179499E+02  0.12885805300E+02  0.40659147945E+02  0.00000000000E+00 0.  1.
         11    1    3    3    0    0 -0.10114918005E+02  0.25579081316E+02 -0.11928988298E+02  0.29981689900E+02  0.51100000000E-03 0. -1.
        -11    1    3    3    0    0 -0.91369122972E+01 -0.28832686145E+01 -0.27190556144E+01  0.99594009822E+01  0.51100000000E-03 0.  1.
        -12    1    3    3    0    0 -0.49433555004E+00  0.10428366798E+02  0.17622386127E+01  0.10587761172E+02  0.00000000000E+00 0.  1.
</event>
<event>
 7    1  0.5714431E-011  0.5052885E+02  0.7816164E-02  0.1300439E+00
        -11   -1    0    0    0    0  0.00000000000E+00  0.00000000000E+00  0.45593999997E+02  0.45594000000E+02  0.51100000000E-03 0.  1.
         11   -1    0    0    0    0 -0.00000000000E+00 -0.00000000000E+00 -0.45593999997E+02  0.45594000000E+02  0.51100000000E-03 0. -1.
    9900012    2    1    2    0    0 -0.58147014809E+01  0.34820224562E+02 -0.20171948383E+02  0.50528852278E+02  0.29999976986E+02 0.  0.
        -12    1    1    2    0    0  0.58147014809E+01 -0.34820224562E+02  0.20171948383E+02  0.40659147722E+02  0.00000000000E+00 0.  1.
         11    1    3    3    0    0  0.64357999620E+01  0.14259253738E+02 -0.86297476601E+01  0.17866683611E+02  0.51100000000E-03 0. -1.
        -11    1    3    3    0    0 -0.10947257270E+02  0.17814149620E+02 -0.16642966619E+02  0.26724047346E+02  0.51100000000E-03 0.  1.
        -12    1    3    3    0    0 -0.13032441729E+01  0.27468212045E+01  0.51007658961E+01  0.59381213216E+01  0.00000000000E+00 0.  1.
</event>
<event>
 7    1  0.5714431E-011  0.5052886E+02  0.7816164E-02  0.1300439E+00
        -11   -1    0    0    0    0  0.00000000000E+00  0.00000000000E+00  0.45593999997E+02  0.45594000000E+02  0.51100000000E-03 0. -1.
         11   -1    0    0    0    0 -0.00000000000E+00 -0.00000000000E+00 -0.45593999997E+02  0.45594000000E+02  0.51100000000E-03 0.  1.
    9900012    2    1    2    0    0  0.19384198498E+02 -0.19305509929E+02  0.30078496395E+02  0.50528858218E+02  0.29999995040E+02 0.  0.
        -12    1    1    2    0    0 -0.19384198498E+02  0.19305509929E+02 -0.30078496395E+02  0.40659141782E+02  0.00000000000E+00 0.  1.
         11    1    3    3    0    0 -0.14078351679E+01 -0.15464772366E+02  0.12426981459E+02  0.19888968114E+02  0.51100000000E-03 0. -1.
        -11    1    3    3    0    0  0.15822193660E+02 -0.58830493734E+00  0.49017382831E+01  0.16574527245E+02  0.51100000000E-03 0.  1.
         12    1    3    3    0    0  0.49698400054E+01 -0.32524326257E+01  0.12749776653E+02  0.14065362860E+02  0.00000000000E+00 0. -1.
</event>
<event>
 7    1  0.5714431E-011  0.5052886E+02  0.7816164E-02  0.1300439E+00
        -11   -1    0    0    0    0  0.00000000000E+00  0.00000000000E+00  0.45593999997E+02  0.45594000000E+02  0.51100000000E-03 0.  1.
         11   -1    0    0    0    0 -0.00000000000E+00 -0.00000000000E+00 -0.45593999997E+02  0.45594000000E+02  0.51100000000E-03 0. -1.
    9900012    2    1    2    0    0  0.62235858723E+01 -0.36657542815E+02 -0.16451665489E+02  0.50528858793E+02  0.29999996787E+02 0.  0.
        -12    1    1    2    0    0 -0.62235858723E+01  0.36657542815E+02  0.16451665489E+02  0.40659141207E+02  0.00000000000E+00 0.  1.
         11    1    3    3    0    0 -0.16776415814E+01 -0.95379354277E+01 -0.18010300150E+02  0.20448902299E+02  0.51100000000E-03 0.  1.
        -11    1    3    3    0    0  0.55271616201E+01 -0.80534241431E+01  0.42994330575E+01  0.10672032650E+02  0.51100000000E-03 0. -1.
        -12    1    3    3    0    0  0.23740658336E+01 -0.19066183244E+02 -0.27407983965E+01  0.19407923844E+02  0.00000000000E+00 0.  1.
</event>
<event>
 7    1  0.5714431E-011  0.5052887E+02  0.7816164E-02  0.1300439E+00
        -11   -1    0    0    0    0  0.00000000000E+00  0.00000000000E+00  0.45593999997E+02  0.45594000000E+02  0.51100000000E-03 0.  1.
         11   -1    0    0    0    0 -0.00000000000E+00 -0.00000000000E+00 -0.45593999997E+02  0.45594000000E+02  0.51100000000E-03 0. -1.
    9900012    2    1    2    0    0 -0.26982209533E+02  0.17757954865E+02  0.24693728442E+02  0.50528870440E+02  0.30000032188E+02 0.  0.
        -12    1    1    2    0    0  0.26982209533E+02 -0.17757954865E+02 -0.24693728442E+02  0.40659129560E+02  0.00000000000E+00 0.  1.
         11    1    3    3    0    0 -0.27533031171E+02  0.22148002143E+02  0.19735542326E+02  0.40473366990E+02  0.51100000000E-03 0. -1.
        -11    1    3    3    0    0  0.33919676834E+01 -0.72559186261E-02  0.28221602919E+01  0.44124920836E+01  0.51100000000E-03 0.  1.
         12    1    3    3    0    0 -0.28411460452E+01 -0.43827913596E+01  0.21360258241E+01  0.56430113657E+01  0.00000000000E+00 0. -1.
</event>
<event>
 7    1  0.5714431E-011  0.5052887E+02  0.7816164E-02  0.1300439E+00
        -11   -1    0    0    0    0  0.00000000000E+00  0.00000000000E+00  0.45593999997E+02  0.45594000000E+02  0.51100000000E-03 0.  1.
         11   -1    0    0    0    0 -0.00000000000E+00 -0.00000000000E+00 -0.45593999997E+02  0.45594000000E+02  0.51100000000E-03 0. -1.
    9900012    2    1    2    0    0  0.11335578937E+01  0.36018194908E+02  0.18830026898E+02  0.50528865345E+02  0.30000016702E+02 0.  0.
        -12    1    1    2    0    0 -0.11335578937E+01 -0.36018194908E+02 -0.18830026898E+02  0.40659134655E+02  0.00000000000E+00 0.  1.
         11    1    3    3    0    0 -0.57451156184E+01  0.12702936625E+01  0.42729906747E+01  0.72717569421E+01  0.51100000000E-03 0. -1.
        -11    1    3    3    0    0  0.11168688470E+02  0.22729524922E+02  0.20810560217E+01  0.25410661143E+02  0.51100000000E-03 0.  1.
         12    1    3    3    0    0 -0.42900149577E+01  0.12018376323E+02  0.12475980202E+02  0.17846447259E+02  0.00000000000E+00 0. -1.
</event>
<event>
 7    1  0.5714431E-011  0.5052886E+02  0.7816164E-02  0.1300439E+00
        -11   -1    0    0    0    0  0.00000000000E+00  0.00000000000E+00  0.45593999997E+02  0.45594000000E+02  0.51100000000E-03 0.  1.
         11   -1    0    0    0    0 -0.00000000000E+00 -0.00000000000E+00 -0.45593999997E+02  0.45594000000E+02  0.51100000000E-03 0. -1.
    9900012    2    1    2    0    0 -0.63308540077E+01 -0.34080945246E+02 -0.21250294389E+02  0.50528861385E+02  0.30000004665E+02 0.  0.
        -12    1    1    2    0    0  0.63308540077E+01  0.34080945246E+02  0.21250294389E+02  0.40659138615E+02  0.00000000000E+00 0.  1.
         11    1    3    3    0    0  0.73247899974E+01 -0.74951449941E+01 -0.11432391354E+02  0.15509007683E+02  0.51100000000E-03 0. -1.
        -11    1    3    3    0    0 -0.75274188873E+01 -0.10741851383E+02  0.33364434939E+01  0.13534447225E+02  0.51100000000E-03 0.  1.
         12    1    3    3    0    0 -0.61282251178E+01 -0.15843948869E+02 -0.13154346529E+02  0.21485406476E+02  0.00000000000E+00 0. -1.
</event>
<event>
 7    1  0.5714431E-011  0.5052881E+02  0.7816164E-02  0.1300439E+00
        -11   -1    0    0    0    0  0.00000000000E+00  0.00000000000E+00  0.45593999997E+02  0.45594000000E+02  0.51100000000E-03 0.  1.
         11   -1    0    0    0    0 -0.00000000000E+00 -0.00000000000E+00 -0.45593999997E+02  0.45594000000E+02  0.51100000000E-03 0. -1.
    9900012    2    1    2    0    0 -0.50823291167E+01  0.25729200948E+02 -0.31070043520E+02  0.50528813399E+02  0.29999858809E+02 0.  0.
        -12    1    1    2    0    0  0.50823291167E+01 -0.25729200948E+02  0.31070043520E+02  0.40659186601E+02  0.00000000000E+00 0.  1.
         11    1    3    3    0    0  0.15520972722E+01  0.21046340270E+02 -0.69223073862E+01  0.22209812797E+02  0.51100000000E-03 0. -1.
        -11    1    3    3    0    0  0.27448437191E+01  0.13570290154E+01 -0.13086999792E+02  0.13440433721E+02  0.51100000000E-03 0.  1.
         12    1    3    3    0    0 -0.93792701080E+01  0.33258316632E+01 -0.11060736341E+02  0.14878566881E+02  0.00000000000E+00 0. -1.
</event>
<event>
 7    1  0.5714431E-011  0.5052888E+02  0.7816164E-02  0.1300439E+00
        -11   -1    0    0    0    0  0.00000000000E+00  0.00000000000E+00  0.45593999997E+02  0.45594000000E+02  0.51100000000E-03 0.  1.
         11   -1    0    0    0    0 -0.00000000000E+00 -0.00000000000E+00 -0.45593999997E+02  0.45594000000E+02  0.51100000000E-03 0. -1.
    9900012    2    1    2    0    0  0.23979235024E+02 -0.27825238631E+02 -0.17433207515E+02  0.50528876283E+02  0.30000049949E+02 0.  0.
        -12    1    1    2    0    0 -0.23979235024E+02  0.27825238631E+02  0.17433207515E+02  0.40659123717E+02  0.00000000000E+00 0.  1.
         11    1    3    3    0    0 -0.25400388566E+01 -0.57917775111E+01 -0.12313269784E+02  0.13842438266E+02  0.51100000000E-03 0. -1.
        -11    1    3    3    0    0  0.20410851679E+02 -0.12905697317E+02 -0.78071664319E+01  0.25379356522E+02  0.51100000000E-03 0.  1.
        -12    1    3    3    0    0  0.61084222016E+01 -0.91277638029E+01  0.26872287010E+01  0.11307081495E+02  0.00000000000E+00 0.  1.
</event>
<event>
 7    1  0.5714431E-011  0.5052886E+02  0.7816164E-02  0.1300439E+00
        -11   -1    0    0    0    0  0.00000000000E+00  0.00000000000E+00  0.45593999997E+02  0.45594000000E+02  0.51100000000E-03 0.  1.
         11   -1    0    0    0    0 -0.00000000000E+00 -0.00000000000E+00 -0.45593999997E+02  0.45594000000E+02  0.51100000000E-03 0. -1.
    9900012    2    1    2    0    0  0.24336298439E+02  0.26509144639E+02  0.18925533278E+02  0.50528856120E+02  0.29999988663E+02 0.  0.
        -12    1    1    2    0    0 -0.24336298439E+02 -0.26509144639E+02 -0.18925533278E+02  0.40659143880E+02  0.00000000000E+00 0.  1.
         11    1    3    3    0    0  0.23537417786E+02  0.25299473154E+02  0.13702389406E+02  0.37172958634E+02  0.51100000000E-03 0. -1.
        -11    1    3    3    0    0 -0.49632367916E+01  0.22244481080E+01 -0.10878674018E+00  0.54400113649E+01  0.51100000000E-03 0.  1.
         12    1    3    3    0    0  0.57621174437E+01 -0.10147766231E+01  0.53319306123E+01  0.79158861213E+01  0.00000000000E+00 0. -1.
</event>
<event>
 7    1  0.5714431E-011  0.5052886E+02  0.7816164E-02  0.1300439E+00
        -11   -1    0    0    0    0  0.00000000000E+00  0.00000000000E+00  0.45593999997E+02  0.45594000000E+02  0.51100000000E-03 0.  1.
         11   -1    0    0    0    0 -0.00000000000E+00 -0.00000000000E+00 -0.45593999997E+02  0.45594000000E+02  0.51100000000E-03 0. -1.
    9900012    2    1    2    0    0  0.41278830041E+01 -0.20706149662E+02 -0.34747397018E+02  0.50528860174E+02  0.30000000984E+02 0.  0.
        -12    1    1    2    0    0 -0.41278830041E+01  0.20706149662E+02  0.34747397018E+02  0.40659139826E+02  0.00000000000E+00 0.  1.
         11    1    3    3    0    0  0.41802693193E+01 -0.83465802582E+01 -0.22741524521E+02  0.24582859707E+02  0.51100000000E-03 0. -1.
        -11    1    3    3    0    0 -0.85367449880E+00 -0.10020388288E+01  0.51722751814E+01  0.53371596170E+01  0.51100000000E-03 0.  1.
         12    1    3    3    0    0  0.80128818357E+00 -0.11357530575E+02 -0.17178147679E+02  0.20608840850E+02  0.00000000000E+00 0. -1.
</event>
<event>
 7    1  0.5714431E-011  0.5052886E+02  0.7816164E-02  0.1300439E+00
        -11   -1    0    0    0    0  0.00000000000E+00  0.00000000000E+00  0.45593999997E+02  0.45594000000E+02  0.51100000000E-03 0.  1.
         11   -1    0    0    0    0 -0.00000000000E+00 -0.00000000000E+00 -0.45593999997E+02  0.45594000000E+02  0.51100000000E-03 0. -1.
    9900012    2    1    2    0    0  0.34080450858E+02  0.18252731205E+02 -0.12590732742E+02  0.50528857386E+02  0.29999992510E+02 0.  0.
        -12    1    1    2    0    0 -0.34080450858E+02 -0.18252731205E+02  0.12590732742E+02  0.40659142614E+02  0.00000000000E+00 0.  1.
         11    1    3    3    0    0  0.21722864291E+02  0.11890406254E+02 -0.21156408850E+02  0.32570818681E+02  0.51100000000E-03 0. -1.
        -11    1    3    3    0    0  0.10873147313E+02  0.19604463617E+01  0.68838486195E+01  0.13017528740E+02  0.51100000000E-03 0.  1.
         12    1    3    3    0    0  0.14844392546E+01  0.44018785887E+01  0.16818274880E+01  0.49405099645E+01  0.00000000000E+00 0. -1.
</event>
<event>
 7    1  0.5714431E-011  0.5052888E+02  0.7816164E-02  0.1300439E+00
        -11   -1    0    0    0    0  0.00000000000E+00  0.00000000000E+00  0.45593999997E+02  0.45594000000E+02  0.51100000000E-03 0.  1.
         11   -1    0    0    0    0 -0.00000000000E+00 -0.00000000000E+00 -0.45593999997E+02  0.45594000000E+02  0.51100000000E-03 0. -1.
    9900012    2    1    2    0    0 -0.10800928668E+02  0.18811486343E+02 -0.34389410672E+02  0.50528884849E+02  0.30000075987E+02 0.  0.
        -12    1    1    2    0    0  0.10800928668E+02 -0.18811486343E+02  0.34389410672E+02  0.40659115151E+02  0.00000000000E+00 0.  1.
         11    1    3    3    0    0 -0.12150640273E+01 -0.62149873064E+01 -0.79027634486E+01  0.10126999467E+02  0.51100000000E-03 0. -1.
        -11    1    3    3    0    0 -0.45231732808E+01  0.11209078327E+02 -0.26274866309E+01  0.12369568292E+02  0.51100000000E-03 0.  1.
         12    1    3    3    0    0 -0.50626913598E+01  0.13817395322E+02 -0.23859160592E+02  0.28032317090E+02  0.00000000000E+00 0. -1.
</event>
<event>
 7    1  0.5714431E-011  0.5052885E+02  0.7816164E-02  0.1300439E+00
        -11   -1    0    0    0    0  0.00000000000E+00  0.00000000000E+00  0.45593999997E+02  0.45594000000E+02  0.51100000000E-03 0. -1.
         11   -1    0    0    0    0 -0.00000000000E+00 -0.00000000000E+00 -0.45593999997E+02  0.45594000000E+02  0.51100000000E-03 0.  1.
    9900012    2    1    2    0    0  0.13050324038E+02  0.19607242810E+02  0.33142286679E+02  0.50528854726E+02  0.29999984426E+02 0.  0.
        -12    1    1    2    0    0 -0.13050324038E+02 -0.19607242810E+02 -0.33142286679E+02  0.40659145274E+02  0.00000000000E+00 0.  1.
         11    1    3    3    0    0  0.19422783346E+02  0.13610290797E+02  0.31000800602E+02  0.39032475795E+02  0.51100000000E-03 0. -1.
        -11    1    3    3    0    0 -0.46081231808E+01  0.17295187003E+01  0.41716515149E+01  0.64520315256E+01  0.51100000000E-03 0.  1.
         12    1    3    3    0    0 -0.17643361265E+01  0.42674333125E+01 -0.20301654380E+01  0.50443474057E+01  0.00000000000E+00 0. -1.
</event>
<event>
 7    1  0.5714431E-011  0.5052886E+02  0.7816164E-02  0.1300439E+00
        -11   -1    0    0    0    0  0.00000000000E+00  0.00000000000E+00  0.45593999997E+02  0.45594000000E+02  0.51100000000E-03 0.  1.
         11   -1    0    0    0    0 -0.00000000000E+00 -0.00000000000E+00 -0.45593999997E+02  0.45594000000E+02  0.51100000000E-03 0. -1.
    9900012    2    1    2    0    0  0.13146041107E+02 -0.35455224182E+02 -0.14942361714E+02  0.50528862132E+02  0.30000006937E+02 0.  0.
        -12    1    1    2    0    0 -0.13146041107E+02  0.35455224182E+02  0.14942361714E+02  0.40659137868E+02  0.00000000000E+00 0.  1.
         11    1    3    3    0    0 -0.27716893619E+01 -0.13704825234E+02 -0.12576366991E+02  0.18806102828E+02  0.51100000000E-03 0. -1.
        -11    1    3    3    0    0  0.14744108861E+02 -0.16382145954E+02  0.49341529560E+01  0.22585599789E+02  0.51100000000E-03 0.  1.
        -12    1    3    3    0    0  0.11736216081E+01 -0.53682529933E+01 -0.73001476782E+01  0.91371595151E+01  0.00000000000E+00 0.  1.
</event>
<event>
 7    1  0.5714431E-011  0.5052889E+02  0.7816164E-02  0.1300439E+00
        -11   -1    0    0    0    0  0.00000000000E+00  0.00000000000E+00  0.45593999997E+02  0.45594000000E+02  0.51100000000E-03 0.  1.
         11   -1    0    0    0    0 -0.00000000000E+00 -0.00000000000E+00 -0.45593999997E+02  0.45594000000E+02  0.51100000000E-03 0. -1.
    9900012    2    1    2    0    0  0.19670009238E+01  0.83174670692E+01 -0.39750644571E+02  0.50528891613E+02  0.30000096546E+02 0.  0.
        -12    1    1    2    0    0 -0.19670009238E+01 -0.83174670692E+01  0.39750644571E+02  0.40659108387E+02  0.00000000000E+00 0.  1.
         11    1    3    3    0    0 -0.66097064980E+01  0.14353891566E+02 -0.20032251197E+02  0.25514966419E+02  0.51100000000E-03 0. -1.
        -11    1    3    3    0    0  0.32865075420E+01 -0.42588312765E+01 -0.98758254291E+00  0.54693779541E+01  0.51100000000E-03 0.  1.
         12    1    3    3    0    0  0.52901998798E+01 -0.17775932205E+01 -0.18730810830E+02  0.19544547239E+02  0.00000000000E+00 0. -1.
</event>
<event>
 7    1  0.5714431E-011  0.5052886E+02  0.7816164E-02  0.1300439E+00
        -11   -1    0    0    0    0  0.00000000000E+00  0.00000000000E+00  0.45593999997E+02  0.45594000000E+02  0.51100000000E-03 0. -1.
         11   -1    0    0    0    0 -0.00000000000E+00 -0.00000000000E+00 -0.45593999997E+02  0.45594000000E+02  0.51100000000E-03 0.  1.
    9900012    2    1    2    0    0 -0.21519834710E+02  0.19319047533E+02  0.28580360144E+02  0.50528857492E+02  0.29999992833E+02 0.  0.
        -12    1    1    2    0    0  0.21519834710E+02 -0.19319047533E+02 -0.28580360144E+02  0.40659142508E+02  0.00000000000E+00 0.  1.
         11    1    3    3    0    0 -0.52025894758E+01  0.29902247336E+01  0.42000044372E+01  0.73245080889E+01  0.51100000000E-03 0. -1.
        -11    1    3    3    0    0 -0.90280925880E+01  0.12290650347E+02  0.29652071860E+02  0.33343843623E+02  0.51100000000E-03 0.  1.
        -12    1    3    3    0    0 -0.72891526460E+01  0.40381724517E+01 -0.52717161524E+01  0.98605057800E+01  0.00000000000E+00 0.  1.
</event>
<event>
 7    1  0.5714431E-011  0.5052884E+02  0.7816164E-02  0.1300439E+00
        -11   -1    0    0    0    0  0.00000000000E+00  0.00000000000E+00  0.45593999997E+02  0.45594000000E+02  0.51100000000E-03 0. -1.
         11   -1    0    0    0    0 -0.00000000000E+00 -0.00000000000E+00 -0.45593999997E+02  0.45594000000E+02  0.51100000000E-03 0.  1.
    9900012    2    1    2    0    0 -0.13054925117E+02 -0.36579215253E+02 -0.12029012897E+02  0.50528841012E+02  0.29999942740E+02 0.  0.
        -12    1    1    2    0    0  0.13054925117E+02  0.36579215253E+02  0.12029012897E+02  0.40659158988E+02  0.00000000000E+00 0.  1.
         11    1    3    3    0    0 -0.15316501823E+02 -0.33861063310E+02 -0.12708700349E+02  0.39276938544E+02  0.51100000000E-03 0. -1.
        -11    1    3    3    0    0 -0.11906542374E+01 -0.42684293046E+00 -0.44681384163E+01  0.46437176452E+01  0.51100000000E-03 0.  1.
         12    1    3    3    0    0  0.34522309437E+01 -0.22913090130E+01  0.51478258685E+01  0.66081848229E+01  0.00000000000E+00 0. -1.
</event>
<event>
 7    1  0.5714431E-011  0.5052884E+02  0.7816164E-02  0.1300439E+00
        -11   -1    0    0    0    0  0.00000000000E+00  0.00000000000E+00  0.45593999997E+02  0.45594000000E+02  0.51100000000E-03 0.  1.
         11   -1    0    0    0    0 -0.00000000000E+00 -0.00000000000E+00 -0.45593999997E+02  0.45594000000E+02  0.51100000000E-03 0. -1.
    9900012    2    1    2    0    0 -0.17884941335E+02  0.33393617688E+02 -0.14770334581E+02  0.50528836058E+02  0.29999927681E+02 0.  0.
        -12    1    1    2    0    0  0.17884941335E+02 -0.33393617688E+02  0.14770334581E+02  0.40659163942E+02  0.00000000000E+00 0.  1.
         11    1    3    3    0    0  0.61150737473E+01  0.18586268995E+01 -0.99323042386E+00  0.64680080258E+01  0.51100000000E-03 0. -1.
        -11    1    3    3    0    0 -0.19538616101E+02  0.19836303315E+02 -0.39030851152E+01  0.28115307611E+02  0.51100000000E-03 0.  1.
        -12    1    3    3    0    0 -0.44613989813E+01  0.11698687473E+02 -0.98740190421E+01  0.15945520421E+02  0.00000000000E+00 0.  1.
</event>
<event>
 7    1  0.5714431E-011  0.5052885E+02  0.7816164E-02  0.1300439E+00
        -11   -1    0    0    0    0  0.00000000000E+00  0.00000000000E+00  0.45593999997E+02  0.45594000000E+02  0.51100000000E-03 0.  1.
         11   -1    0    0    0    0 -0.00000000000E+00 -0.00000000000E+00 -0.45593999997E+02  0.45594000000E+02  0.51100000000E-03 0. -1.
    9900012    2    1    2    0    0 -0.26323734417E+02 -0.17746568595E+01 -0.30936673331E+02  0.50528853951E+02  0.29999982069E+02 0.  0.
        -12    1    1    2    0    0  0.26323734417E+02  0.17746568595E+01  0.30936673331E+02  0.40659146049E+02  0.00000000000E+00 0.  1.
         11    1    3    3    0    0 -0.47181604165E+01 -0.67225945343E+01 -0.30481115474E+01  0.87604394442E+01  0.51100000000E-03 0. -1.
        -11    1    3    3    0    0 -0.11975385637E+02  0.48472818970E+00 -0.28721257862E+02  0.31121623930E+02  0.51100000000E-03 0.  1.
        -12    1    3    3    0    0 -0.96301883637E+01  0.44632094850E+01  0.83269607860E+00  0.10646790577E+02  0.00000000000E+00 0.  1.
</event>
<event>
 7    1  0.5714431E-011  0.5052887E+02  0.7816164E-02  0.1300439E+00
        -11   -1    0    0    0    0  0.00000000000E+00  0.00000000000E+00  0.45593999997E+02  0.45594000000E+02  0.51100000000E-03 0.  1.
         11   -1    0    0    0    0 -0.00000000000E+00 -0.00000000000E+00 -0.45593999997E+02  0.45594000000E+02  0.51100000000E-03 0. -1.
    9900012    2    1    2    0    0 -0.23369821253E+02  0.16184053659E+02 -0.29070473970E+02  0.50528873164E+02  0.30000040468E+02 0.  0.
        -12    1    1    2    0    0  0.23369821253E+02 -0.16184053659E+02  0.29070473970E+02  0.40659126836E+02  0.00000000000E+00 0.  1.
         11    1    3    3    0    0  0.50666534838E+01  0.68623283302E+00 -0.56488931555E+01  0.76191789039E+01  0.51100000000E-03 0.  1.
        -11    1    3    3    0    0 -0.24541436551E+02  0.14135690695E+02 -0.11987549462E+02  0.30753881085E+02  0.51100000000E-03 0. -1.
         12    1    3    3    0    0 -0.38950381857E+01  0.13621301313E+01 -0.11434031353E+02  0.12155813175E+02  0.00000000000E+00 0. -1.
</event>
<event>
 7    1  0.5714431E-011  0.5052886E+02  0.7816164E-02  0.1300439E+00
        -11   -1    0    0    0    0  0.00000000000E+00  0.00000000000E+00  0.45593999997E+02  0.45594000000E+02  0.51100000000E-03 0.  1.
         11   -1    0    0    0    0 -0.00000000000E+00 -0.00000000000E+00 -0.45593999997E+02  0.45594000000E+02  0.51100000000E-03 0. -1.
    9900012    2    1    2    0    0  0.64109196160E+01 -0.91736705670E+01 -0.39088480596E+02  0.50528862807E+02  0.30000008987E+02 0.  0.
        -12    1    1    2    0    0 -0.64109196160E+01  0.91736705670E+01  0.39088480596E+02  0.40659137193E+02  0.00000000000E+00 0.  1.
         11    1    3    3    0    0  0.87401072536E+01 -0.60402360149E+01 -0.37109178799E+02  0.38600065768E+02  0.51100000000E-03 0. -1.
        -11    1    3    3    0    0 -0.62886748775E+00 -0.65075635601E+01 -0.39794031161E+01  0.76537250556E+01  0.51100000000E-03 0.  1.
         12    1    3    3    0    0 -0.17003201498E+01  0.33741290079E+01  0.20001013186E+01  0.42750719828E+01  0.00000000000E+00 0. -1.
</event>
<event>
 7    1  0.5714431E-011  0.5052884E+02  0.7816164E-02  0.1300439E+00
        -11   -1    0    0    0    0  0.00000000000E+00  0.00000000000E+00  0.45593999997E+02  0.45594000000E+02  0.51100000000E-03 0.  1.
         11   -1    0    0    0    0 -0.00000000000E+00 -0.00000000000E+00 -0.45593999997E+02  0.45594000000E+02  0.51100000000E-03 0. -1.
    9900012    2    1    2    0    0 -0.73936483486E+01  0.35766003772E+02 -0.17868807036E+02  0.50528839573E+02  0.29999938366E+02 0.  0.
        -12    1    1    2    0    0  0.73936483486E+01 -0.35766003772E+02  0.17868807036E+02  0.40659160427E+02  0.00000000000E+00 0.  1.
         11    1    3    3    0    0 -0.47743174079E+01  0.96724682612E+01 -0.11597615572E+02  0.15838416468E+02  0.51100000000E-03 0. -1.
        -11    1    3    3    0    0  0.67431910267E+01  0.19384051776E+02  0.18353060917E+01  0.20605349723E+02  0.51100000000E-03 0.  1.
        -12    1    3    3    0    0 -0.93625219673E+01  0.67094837349E+01 -0.81064975553E+01  0.14085073382E+02  0.00000000000E+00 0.  1.
</event>
<event>
 7    1  0.5714431E-011  0.5052886E+02  0.7816164E-02  0.1300439E+00
        -11   -1    0    0    0    0  0.00000000000E+00  0.00000000000E+00  0.45593999997E+02  0.45594000000E+02  0.51100000000E-03 0.  1.
         11   -1    0    0    0    0 -0.00000000000E+00 -0.00000000000E+00 -0.45593999997E+02  0.45594000000E+02  0.51100000000E-03 0. -1.
    9900012    2    1    2    0    0 -0.20341431939E+01 -0.65295049986E+00 -0.40602976323E+02  0.50528858726E+02  0.29999996583E+02 0.  0.
        -12    1    1    2    0    0  0.20341431939E+01  0.65295049986E+00  0.40602976323E+02  0.40659141274E+02  0.00000000000E+00 0.  1.
         11    1    3    3    0    0 -0.10789232785E+02 -0.56011642617E+00 -0.15264493733E+02  0.18700963710E+02  0.51100000000E-03 0. -1.
        -11    1    3    3    0    0  0.10537336472E+02 -0.37400060082E+01 -0.73352677136E+01  0.13372705693E+02  0.51100000000E-03 0.  1.
        -12    1    3    3    0    0 -0.17822468810E+01  0.36471719345E+01 -0.18003214876E+02  0.18455189323E+02  0.00000000000E+00 0.  1.
</event>
<event>
 7    1  0.5714431E-011  0.5052886E+02  0.7816164E-02  0.1300439E+00
        -11   -1    0    0    0    0  0.00000000000E+00  0.00000000000E+00  0.45593999997E+02  0.45594000000E+02  0.51100000000E-03 0. -1.
         11   -1    0    0    0    0 -0.00000000000E+00 -0.00000000000E+00 -0.45593999997E+02  0.45594000000E+02  0.51100000000E-03 0.  1.
    9900012    2    1    2    0    0  0.30235373469E+02  0.26599513021E+02 -0.56083529943E+01  0.50528861727E+02  0.30000005707E+02 0.  0.
        -12    1    1    2    0    0 -0.30235373469E+02 -0.26599513021E+02  0.56083529943E+01  0.40659138273E+02  0.00000000000E+00 0.  1.
         11    1    3    3    0    0  0.68333230595E+01  0.14142361720E+02 -0.66775860842E+01  0.17067245098E+02  0.51100000000E-03 0. -1.
        -11    1    3    3    0    0  0.23007417230E+02  0.54376514278E+01  0.65673161131E+01  0.24536481855E+02  0.51100000000E-03 0.  1.
        -12    1    3    3    0    0  0.39463317981E+00  0.70194998724E+01 -0.54980830232E+01  0.89251347741E+01  0.00000000000E+00 0.  1.
</event>
<event>
 7    1  0.5714431E-011  0.5052882E+02  0.7816164E-02  0.1300439E+00
        -11   -1    0    0    0    0  0.00000000000E+00  0.00000000000E+00  0.45593999997E+02  0.45594000000E+02  0.51100000000E-03 0.  1.
         11   -1    0    0    0    0 -0.00000000000E+00 -0.00000000000E+00 -0.45593999997E+02  0.45594000000E+02  0.51100000000E-03 0. -1.
    9900012    2    1    2    0    0  0.11730477092E+02 -0.37959239355E+02 -0.86406813614E+01  0.50528815065E+02  0.29999863871E+02 0.  0.
        -12    1    1    2    0    0 -0.11730477092E+02  0.37959239355E+02  0.86406813614E+01  0.40659184935E+02  0.00000000000E+00 0.  1.
         11    1    3    3    0    0  0.55143303536E+01  0.10382713551E+01 -0.23728161974E+01  0.60922987142E+01  0.51100000000E-03 0. -1.
        -11    1    3    3    0    0  0.10534509580E+02 -0.31888599841E+02  0.69244221233E+00  0.33590745279E+02  0.51100000000E-03 0.  1.
         12    1    3    3    0    0 -0.43183628412E+01 -0.71089108682E+01 -0.69603073763E+01  0.10845771071E+02  0.00000000000E+00 0. -1.
</event>
<event>
 7    1  0.5714431E-011  0.5052884E+02  0.7816164E-02  0.1300439E+00
        -11   -1    0    0    0    0  0.00000000000E+00  0.00000000000E+00  0.45593999997E+02  0.45594000000E+02  0.51100000000E-03 0. -1.
         11   -1    0    0    0    0 -0.00000000000E+00 -0.00000000000E+00 -0.45593999997E+02  0.45594000000E+02  0.51100000000E-03 0.  1.
    9900012    2    1    2    0    0  0.35449603587E+02 -0.16050299693E+02 -0.11784767581E+02  0.50528840373E+02  0.29999940796E+02 0.  0.
        -12    1    1    2    0    0 -0.35449603587E+02  0.16050299693E+02  0.11784767581E+02  0.40659159627E+02  0.00000000000E+00 0.  1.
         11    1    3    3    0    0  0.22591520998E+02 -0.21168225453E+02 -0.54706724415E+01  0.31438811158E+02  0.51100000000E-03 0. -1.
        -11    1    3    3    0    0  0.48902799870E+01  0.35459479157E+01  0.29899341820E+01  0.67400513089E+01  0.51100000000E-03 0.  1.
        -12    1    3    3    0    0  0.79678026016E+01  0.15719778446E+01 -0.93040293215E+01  0.12349977905E+02  0.00000000000E+00 0.  1.
</event>
<event>
 7    1  0.5714431E-011  0.5052885E+02  0.7816164E-02  0.1300439E+00
        -11   -1    0    0    0    0  0.00000000000E+00  0.00000000000E+00  0.45593999997E+02  0.45594000000E+02  0.51100000000E-03 0.  1.
         11   -1    0    0    0    0 -0.00000000000E+00 -0.00000000000E+00 -0.45593999997E+02  0.45594000000E+02  0.51100000000E-03 0. -1.
    9900012    2    1    2    0    0 -0.31481546625E+02  0.53300501943E+01 -0.25172781840E+02  0.50528853938E+02  0.29999982030E+02 0.  0.
        -12    1    1    2    0    0  0.31481546625E+02 -0.53300501943E+01  0.25172781840E+02  0.40659146062E+02  0.00000000000E+00 0.  1.
         11    1    3    3    0    0 -0.82507512682E+01  0.29972271540E+01 -0.17651263833E+02  0.19713583700E+02  0.51100000000E-03 0. -1.
        -11    1    3    3    0    0 -0.48836658231E+00  0.23536144054E+01  0.44920593892E+01  0.50947620656E+01  0.51100000000E-03 0.  1.
        -12    1    3    3    0    0 -0.22742428774E+02 -0.20791365027E-01 -0.12013577395E+02  0.25720508173E+02  0.00000000000E+00 0.  1.
</event>
<event>
 7    1  0.5714431E-011  0.5052886E+02  0.7816164E-02  0.1300439E+00
        -11   -1    0    0    0    0  0.00000000000E+00  0.00000000000E+00  0.45593999997E+02  0.45594000000E+02  0.51100000000E-03 0.  1.
         11   -1    0    0    0    0 -0.00000000000E+00 -0.00000000000E+00 -0.45593999997E+02  0.45594000000E+02  0.51100000000E-03 0. -1.
    9900012    2    1    2    0    0 -0.31656738522E+02  0.24450158637E+02  0.72942561383E+01  0.50528861742E+02  0.30000005752E+02 0.  0.
        -12    1    1    2    0    0  0.31656738522E+02 -0.24450158637E+02 -0.72942561383E+01  0.40659138258E+02  0.00000000000E+00 0.  1.
         11    1    3    3    0    0 -0.24199989696E+02  0.24294364934E+02 -0.36212960593E+01  0.34481436371E+02  0.51100000000E-03 0. -1.
        -11    1    3    3    0    0 -0.60669316208E+01 -0.32415759007E+01  0.10207849137E+02  0.12309169667E+02  0.51100000000E-03 0.  1.
        -12    1    3    3    0    0 -0.13898172055E+01  0.33973696036E+01  0.70770306020E+00  0.37382557042E+01  0.00000000000E+00 0.  1.
</event>
<event>
 7    1  0.5714431E-011  0.5052883E+02  0.7816164E-02  0.1300439E+00
        -11   -1    0    0    0    0  0.00000000000E+00  0.00000000000E+00  0.45593999997E+02  0.45594000000E+02  0.51100000000E-03 0. -1.
         11   -1    0    0    0    0 -0.00000000000E+00 -0.00000000000E+00 -0.45593999997E+02  0.45594000000E+02  0.51100000000E-03 0.  1.
    9900012    2    1    2    0    0 -0.37962423748E+02 -0.14532160484E+02 -0.91580708964E+00  0.50528831196E+02  0.29999912905E+02 0.  0.
        -12    1    1    2    0    0  0.37962423748E+02  0.14532160484E+02  0.91580708964E+00  0.40659168804E+02  0.00000000000E+00 0.  1.
         11    1    3    3    0    0 -0.34817959262E+02 -0.24558264502E+01 -0.48754110117E+01  0.35243311472E+02  0.51100000000E-03 0. -1.
        -11    1    3    3    0    0 -0.32193994096E+01 -0.11686223790E+02  0.57751563252E+01  0.13427017162E+02  0.51100000000E-03 0.  1.
         12    1    3    3    0    0  0.74934923446E-01 -0.39011024341E+00 -0.18155524032E+01  0.18585025621E+01  0.00000000000E+00 0. -1.
</event>
<event>
 7    1  0.5714431E-011  0.5052886E+02  0.7816164E-02  0.1300439E+00
        -11   -1    0    0    0    0  0.00000000000E+00  0.00000000000E+00  0.45593999997E+02  0.45594000000E+02  0.51100000000E-03 0.  1.
         11   -1    0    0    0    0 -0.00000000000E+00 -0.00000000000E+00 -0.45593999997E+02  0.45594000000E+02  0.51100000000E-03 0. -1.
    9900012    2    1    2    0    0  0.20403356381E+02 -0.23037041574E-01 -0.35169133221E+02  0.50528863095E+02  0.30000009864E+02 0.  0.
        -12    1    1    2    0    0 -0.20403356381E+02  0.23037041574E-01  0.35169133221E+02  0.40659136905E+02  0.00000000000E+00 0.  1.
         11    1    3    3    0    0  0.20170833809E+01 -0.46983395259E+01 -0.11242980377E+01  0.52351758333E+01  0.51100000000E-03 0. -1.
        -11    1    3    3    0    0  0.19164202028E+02  0.99020071479E+01 -0.33681413635E+02  0.39996925002E+02  0.51100000000E-03 0.  1.
        -12    1    3    3    0    0 -0.77792902856E+00 -0.52267046635E+01 -0.36342154894E+00  0.52967622597E+01  0.00000000000E+00 0.  1.
</event>
<event>
 7    1  0.5714431E-011  0.5052886E+02  0.7816164E-02  0.1300439E+00
        -11   -1    0    0    0    0  0.00000000000E+00  0.00000000000E+00  0.45593999997E+02  0.45594000000E+02  0.51100000000E-03 0.  1.
         11   -1    0    0    0    0 -0.00000000000E+00 -0.00000000000E+00 -0.45593999997E+02  0.45594000000E+02  0.51100000000E-03 0. -1.
    9900012    2    1    2    0    0 -0.28350560165E+02  0.21772938809E+02 -0.19373965254E+02  0.50528860121E+02  0.30000000822E+02 0.  0.
        -12    1    1    2    0    0  0.28350560165E+02 -0.21772938809E+02  0.19373965254E+02  0.40659139879E+02  0.00000000000E+00 0.  1.
         11    1    3    3    0    0  0.48546839634E+01  0.65248252391E+01 -0.30065833789E+01  0.86706888228E+01  0.51100000000E-03 0.  1.
        -11    1    3    3    0    0 -0.14855887118E+02  0.14915524121E+01 -0.27353428079E+01  0.15179071486E+02  0.51100000000E-03 0. -1.
         12    1    3    3    0    0 -0.18349357011E+02  0.13756561158E+02 -0.13632039067E+02  0.26679099811E+02  0.00000000000E+00 0. -1.
</event>
<event>
 7    1  0.5714431E-011  0.5052886E+02  0.7816164E-02  0.1300439E+00
        -11   -1    0    0    0    0  0.00000000000E+00  0.00000000000E+00  0.45593999997E+02  0.45594000000E+02  0.51100000000E-03 0.  1.
         11   -1    0    0    0    0 -0.00000000000E+00 -0.00000000000E+00 -0.45593999997E+02  0.45594000000E+02  0.51100000000E-03 0. -1.
    9900012    2    1    2    0    0 -0.18165013431E+02 -0.31632722827E+02 -0.17960198445E+02  0.50528860872E+02  0.30000003108E+02 0.  0.
        -12    1    1    2    0    0  0.18165013431E+02  0.31632722827E+02  0.17960198445E+02  0.40659139128E+02  0.00000000000E+00 0.  1.
         11    1    3    3    0    0 -0.98726752747E+01 -0.53266272242E+01 -0.32227297641E+01  0.11671703477E+02  0.51100000000E-03 0. -1.
        -11    1    3    3    0    0  0.68769696722E+01 -0.58618414455E+01 -0.90158553796E+01  0.12764777534E+02  0.51100000000E-03 0.  1.
        -12    1    3    3    0    0 -0.15169307829E+02 -0.20444254157E+02 -0.57216133011E+01  0.26092379861E+02  0.00000000000E+00 0.  1.
</event>
<event>
 7    1  0.5714431E-011  0.5052886E+02  0.7816164E-02  0.1300439E+00
        -11   -1    0    0    0    0  0.00000000000E+00  0.00000000000E+00  0.45593999997E+02  0.45594000000E+02  0.51100000000E-03 0. -1.
         11   -1    0    0    0    0 -0.00000000000E+00 -0.00000000000E+00 -0.45593999997E+02  0.45594000000E+02  0.51100000000E-03 0.  1.
    9900012    2    1    2    0    0  0.16489115714E+02 -0.25557793654E+01  0.37077526422E+02  0.50528856984E+02  0.29999991289E+02 0.  0.
        -12    1    1    2    0    0 -0.16489115714E+02  0.25557793654E+01 -0.37077526422E+02  0.40659143016E+02  0.00000000000E+00 0.  1.
         11    1    3    3    0    0  0.54232207460E+00 -0.70601683891E+01  0.31487448558E+02  0.32273820782E+02  0.51100000000E-03 0. -1.
        -11    1    3    3    0    0  0.79836808293E+01  0.42632882064E+01  0.48119908449E+01  0.10250367899E+02  0.51100000000E-03 0.  1.
         12    1    3    3    0    0  0.79631128105E+01  0.24110081728E+00  0.77808701913E+00  0.80046683034E+01  0.00000000000E+00 0. -1.
</event>
<event>
 7    1  0.5714431E-011  0.5052887E+02  0.7816164E-02  0.1300439E+00
        -11   -1    0    0    0    0  0.00000000000E+00  0.00000000000E+00  0.45593999997E+02  0.45594000000E+02  0.51100000000E-03 0. -1.
         11   -1    0    0    0    0 -0.00000000000E+00 -0.00000000000E+00 -0.45593999997E+02  0.45594000000E+02  0.51100000000E-03 0.  1.
    9900012    2    1    2    0    0 -0.22501068304E+02  0.33401713101E+02  0.55850152558E+01  0.50528869312E+02  0.30000028760E+02 0.  0.
        -12    1    1    2    0    0  0.22501068304E+02 -0.33401713101E+02 -0.55850152558E+01  0.40659130688E+02  0.00000000000E+00 0.  1.
         11    1    3    3    0    0  0.79350467599E-01  0.98836846679E+01  0.65369872796E+01  0.11850135951E+02  0.51100000000E-03 0. -1.
        -11    1    3    3    0    0 -0.21422129602E+02  0.21737516347E+02  0.62649729754E+01  0.31155691940E+02  0.51100000000E-03 0.  1.
        -12    1    3    3    0    0 -0.11582891689E+01  0.17805120869E+01 -0.72169449992E+01  0.75230414203E+01  0.00000000000E+00 0.  1.
</event>
<event>
 7    1  0.5714431E-011  0.5052887E+02  0.7816164E-02  0.1300439E+00
        -11   -1    0    0    0    0  0.00000000000E+00  0.00000000000E+00  0.45593999997E+02  0.45594000000E+02  0.51100000000E-03 0. -1.
         11   -1    0    0    0    0 -0.00000000000E+00 -0.00000000000E+00 -0.45593999997E+02  0.45594000000E+02  0.51100000000E-03 0.  1.
    9900012    2    1    2    0    0 -0.31629950894E+02  0.10105341809E+02  0.23464726505E+02  0.50528866751E+02  0.30000020975E+02 0.  0.
        -12    1    1    2    0    0  0.31629950894E+02 -0.10105341809E+02 -0.23464726505E+02  0.40659133249E+02  0.00000000000E+00 0.  1.
         11    1    3    3    0    0 -0.19150479243E+00  0.46230638648E+01  0.10442560184E+02  0.11421753676E+02  0.51100000000E-03 0. -1.
        -11    1    3    3    0    0 -0.14096888869E+02  0.54015449038E+01 -0.31198434471E+01  0.15415329596E+02  0.51100000000E-03 0.  1.
        -12    1    3    3    0    0 -0.17341557232E+02  0.80733040401E-01  0.16142009768E+02  0.23691783479E+02  0.00000000000E+00 0.  1.
</event>
<event>
 7    1  0.5714431E-011  0.5052885E+02  0.7816164E-02  0.1300439E+00
        -11   -1    0    0    0    0  0.00000000000E+00  0.00000000000E+00  0.45593999997E+02  0.45594000000E+02  0.51100000000E-03 0.  1.
         11   -1    0    0    0    0 -0.00000000000E+00 -0.00000000000E+00 -0.45593999997E+02  0.45594000000E+02  0.51100000000E-03 0. -1.
    9900012    2    1    2    0    0 -0.62111596870E+01 -0.26027526446E+02 -0.30612996609E+02  0.50528853441E+02  0.29999980520E+02 0.  0.
        -12    1    1    2    0    0  0.62111596870E+01  0.26027526446E+02  0.30612996609E+02  0.40659146559E+02  0.00000000000E+00 0.  1.
         11    1    3    3    0    0 -0.11795942325E+02 -0.73471812811E+00 -0.99396476929E+01  0.15442819127E+02  0.51100000000E-03 0. -1.
        -11    1    3    3    0    0  0.40552161825E+01 -0.81946221437E+01 -0.13557267449E+01  0.92430842056E+01  0.51100000000E-03 0.  1.
         12    1    3    3    0    0  0.15295664557E+01 -0.17098186174E+02 -0.19317622171E+02  0.25842950109E+02  0.00000000000E+00 0. -1.
</event>
<event>
 7    1  0.5714431E-011  0.5052886E+02  0.7816164E-02  0.1300439E+00
        -11   -1    0    0    0    0  0.00000000000E+00  0.00000000000E+00  0.45593999997E+02  0.45594000000E+02  0.51100000000E-03 0. -1.
         11   -1    0    0    0    0 -0.00000000000E+00 -0.00000000000E+00 -0.45593999997E+02  0.45594000000E+02  0.51100000000E-03 0.  1.
    9900012    2    1    2    0    0  0.29695254135E+02 -0.45278271475E+01  0.27401762769E+02  0.50528856629E+02  0.29999990209E+02 0.  0.
        -12    1    1    2    0    0 -0.29695254135E+02  0.45278271475E+01 -0.27401762769E+02  0.40659143371E+02  0.00000000000E+00 0.  1.
         11    1    3    3    0    0  0.89513854880E+01  0.90808861127E+01  0.69222944862E+00  0.12769846382E+02  0.51100000000E-03 0.  1.
        -11    1    3    3    0    0  0.16092401015E+02 -0.68008118556E+01  0.13059815084E+02  0.21812271376E+02  0.51100000000E-03 0. -1.
         12    1    3    3    0    0  0.46514676327E+01 -0.68079014045E+01  0.13649718237E+02  0.15946738871E+02  0.00000000000E+00 0. -1.
</event>
<event>
 7    1  0.5714431E-011  0.5052886E+02  0.7816164E-02  0.1300439E+00
        -11   -1    0    0    0    0  0.00000000000E+00  0.00000000000E+00  0.45593999997E+02  0.45594000000E+02  0.51100000000E-03 0. -1.
         11   -1    0    0    0    0 -0.00000000000E+00 -0.00000000000E+00 -0.45593999997E+02  0.45594000000E+02  0.51100000000E-03 0.  1.
    9900012    2    1    2    0    0 -0.34747478447E+01  0.36217226463E+02  0.18149501412E+02  0.50528858755E+02  0.29999996673E+02 0.  0.
        -12    1    1    2    0    0  0.34747478447E+01 -0.36217226463E+02 -0.18149501412E+02  0.40659141245E+02  0.00000000000E+00 0.  1.
         11    1    3    3    0    0 -0.47114057158E+01  0.35685855013E+02  0.76366230887E+01  0.36796679256E+02  0.51100000000E-03 0. -1.
        -11    1    3    3    0    0  0.28730241300E+01 -0.14068066378E+01  0.10720032612E+02  0.11187156566E+02  0.51100000000E-03 0.  1.
        -12    1    3    3    0    0 -0.16363662589E+01  0.19381780875E+01 -0.20715428852E+00  0.25450229334E+01  0.00000000000E+00 0.  1.
</event>
<event>
 7    1  0.5714431E-011  0.5052893E+02  0.7816164E-02  0.1300439E+00
        -11   -1    0    0    0    0  0.00000000000E+00  0.00000000000E+00  0.45593999997E+02  0.45594000000E+02  0.51100000000E-03 0. -1.
         11   -1    0    0    0    0 -0.00000000000E+00 -0.00000000000E+00 -0.45593999997E+02  0.45594000000E+02  0.51100000000E-03 0.  1.
    9900012    2    1    2    0    0  0.19709607895E+02  0.24045960320E+02  0.26200817856E+02  0.50528933269E+02  0.30000223165E+02 0.  0.
        -12    1    1    2    0    0 -0.19709607895E+02 -0.24045960320E+02 -0.26200817856E+02  0.40659066731E+02  0.00000000000E+00 0.  1.
         11    1    3    3    0    0  0.21226690775E+02  0.71268450678E+01  0.17479676379E+02  0.28406045280E+02  0.51100000000E-03 0. -1.
        -11    1    3    3    0    0 -0.13478918925E+01  0.16965839145E+02  0.10721497618E+02  0.20114845808E+02  0.51100000000E-03 0.  1.
        -12    1    3    3    0    0 -0.16919098715E+00 -0.46723892876E-01 -0.20003561410E+01  0.20080421816E+01  0.00000000000E+00 0.  1.
</event>
<event>
 7    1  0.5714431E-011  0.5052887E+02  0.7816164E-02  0.1300439E+00
        -11   -1    0    0    0    0  0.00000000000E+00  0.00000000000E+00  0.45593999997E+02  0.45594000000E+02  0.51100000000E-03 0.  1.
         11   -1    0    0    0    0 -0.00000000000E+00 -0.00000000000E+00 -0.45593999997E+02  0.45594000000E+02  0.51100000000E-03 0. -1.
    9900012    2    1    2    0    0  0.17571081480E+02 -0.24645874224E+02 -0.27147792653E+02  0.50528872285E+02  0.30000037796E+02 0.  0.
        -12    1    1    2    0    0 -0.17571081480E+02  0.24645874224E+02  0.27147792653E+02  0.40659127715E+02  0.00000000000E+00 0.  1.
         11    1    3    3    0    0  0.21268173601E+02 -0.24166447042E+02 -0.20354091222E+02  0.38087286602E+02  0.51100000000E-03 0. -1.
        -11    1    3    3    0    0  0.11121216014E+01  0.28530675662E+01  0.48760380442E+00  0.31007364811E+01  0.51100000000E-03 0.  1.
         12    1    3    3    0    0 -0.48092137225E+01 -0.33324947481E+01 -0.72813052352E+01  0.93408492014E+01  0.00000000000E+00 0. -1.
</event>
<event>
 7    1  0.5714431E-011  0.5052886E+02  0.7816164E-02  0.1300439E+00
        -11   -1    0    0    0    0  0.00000000000E+00  0.00000000000E+00  0.45593999997E+02  0.45594000000E+02  0.51100000000E-03 0.  1.
         11   -1    0    0    0    0 -0.00000000000E+00 -0.00000000000E+00 -0.45593999997E+02  0.45594000000E+02  0.51100000000E-03 0. -1.
    9900012    2    1    2    0    0 -0.13708195607E+02 -0.37887619448E+02  0.54570207712E+01  0.50528863143E+02  0.30000010010E+02 0.  0.
        -12    1    1    2    0    0  0.13708195607E+02  0.37887619448E+02 -0.54570207712E+01  0.40659136857E+02  0.00000000000E+00 0.  1.
         11    1    3    3    0    0 -0.85952259086E+01 -0.14945501719E+02 -0.66370859265E+01  0.18474220955E+02  0.51100000000E-03 0. -1.
        -11    1    3    3    0    0  0.64409404242E+01 -0.84793457698E+01  0.73705216295E+01  0.12950274421E+02  0.51100000000E-03 0.  1.
         12    1    3    3    0    0 -0.11553910123E+02 -0.14462771959E+02  0.47235850683E+01  0.19104367767E+02  0.00000000000E+00 0. -1.
</event>
<event>
 7    1  0.5714431E-011  0.5052889E+02  0.7816164E-02  0.1300439E+00
        -11   -1    0    0    0    0  0.00000000000E+00  0.00000000000E+00  0.45593999997E+02  0.45594000000E+02  0.51100000000E-03 0.  1.
         11   -1    0    0    0    0 -0.00000000000E+00 -0.00000000000E+00 -0.45593999997E+02  0.45594000000E+02  0.51100000000E-03 0. -1.
    9900012    2    1    2    0    0 -0.15307446353E+02  0.91656075188E+01 -0.36535421147E+02  0.50528889417E+02  0.30000089872E+02 0.  0.
        -12    1    1    2    0    0  0.15307446353E+02 -0.91656075188E+01  0.36535421147E+02  0.40659110583E+02  0.00000000000E+00 0.  1.
         11    1    3    3    0    0 -0.12647950796E+02  0.53590719726E+01 -0.22205020955E+02  0.26110405352E+02  0.51100000000E-03 0. -1.
        -11    1    3    3    0    0  0.81712956863E+01  0.21419388267E+01 -0.85913324251E+01  0.12048608560E+02  0.51100000000E-03 0.  1.
        -12    1    3    3    0    0 -0.10830791243E+02  0.16645967195E+01 -0.57390677663E+01  0.12369875505E+02  0.00000000000E+00 0.  1.
</event>
<event>
 7    1  0.5714431E-011  0.5052892E+02  0.7816164E-02  0.1300439E+00
        -11   -1    0    0    0    0  0.00000000000E+00  0.00000000000E+00  0.45593999997E+02  0.45594000000E+02  0.51100000000E-03 0.  1.
         11   -1    0    0    0    0 -0.00000000000E+00 -0.00000000000E+00 -0.45593999997E+02  0.45594000000E+02  0.51100000000E-03 0. -1.
    9900012    2    1    2    0    0  0.15709092958E+02  0.85011390091E+01 -0.36525549069E+02  0.50528921053E+02  0.30000186033E+02 0.  0.
        -12    1    1    2    0    0 -0.15709092958E+02 -0.85011390091E+01  0.36525549069E+02  0.40659078947E+02  0.00000000000E+00 0.  1.
         11    1    3    3    0    0  0.12592467622E+02  0.14757174223E+02 -0.34854021164E+02  0.39889186798E+02  0.51100000000E-03 0. -1.
        -11    1    3    3    0    0  0.31178441746E+01 -0.80694928803E+01 -0.17436173738E+01  0.88248438768E+01  0.51100000000E-03 0.  1.
         12    1    3    3    0    0 -0.12188386117E-02  0.18134576668E+01  0.72089468700E-01  0.18148903786E+01  0.00000000000E+00 0. -1.
</event>
<event>
 7    1  0.5714431E-011  0.5052899E+02  0.7816164E-02  0.1300438E+00
        -11   -1    0    0    0    0  0.00000000000E+00  0.00000000000E+00  0.45593999997E+02  0.45594000000E+02  0.51100000000E-03 0.  1.
         11   -1    0    0    0    0 -0.00000000000E+00 -0.00000000000E+00 -0.45593999997E+02  0.45594000000E+02  0.51100000000E-03 0. -1.
    9900012    2    1    2    0    0 -0.34325020598E+02  0.13199863567E+02 -0.17341048384E+02  0.50528986284E+02  0.30000384308E+02 0.  0.
        -12    1    1    2    0    0  0.34325020598E+02 -0.13199863567E+02  0.17341048384E+02  0.40659013716E+02  0.00000000000E+00 0.  1.
         11    1    3    3    0    0 -0.11960044990E+02 -0.39668834486E+01  0.21345962416E+01  0.12780271587E+02  0.51100000000E-03 0. -1.
        -11    1    3    3    0    0 -0.21353508689E+02  0.83914823884E+01 -0.17060660406E+02  0.28591177726E+02  0.51100000000E-03 0.  1.
        -12    1    3    3    0    0 -0.10114669189E+01  0.87752646270E+01 -0.24149842202E+01  0.91575369716E+01  0.00000000000E+00 0.  1.
</event>
<event>
 7    1  0.5714431E-011  0.5052887E+02  0.7816164E-02  0.1300439E+00
        -11   -1    0    0    0    0  0.00000000000E+00  0.00000000000E+00  0.45593999997E+02  0.45594000000E+02  0.51100000000E-03 0. -1.
         11   -1    0    0    0    0 -0.00000000000E+00 -0.00000000000E+00 -0.45593999997E+02  0.45594000000E+02  0.51100000000E-03 0.  1.
    9900012    2    1    2    0    0  0.29161700069E+01 -0.19837942411E+02  0.35371133492E+02  0.50528867063E+02  0.30000021925E+02 0.  0.
        -12    1    1    2    0    0 -0.29161700069E+01  0.19837942411E+02 -0.35371133492E+02  0.40659132937E+02  0.00000000000E+00 0.  1.
         11    1    3    3    0    0 -0.18915054432E+01 -0.20298916104E+02  0.23127168330E+02  0.30830013024E+02  0.51100000000E-03 0. -1.
        -11    1    3    3    0    0  0.49512502490E+01  0.71349613807E+01  0.59775435751E+01  0.10542939836E+02  0.51100000000E-03 0.  1.
        -12    1    3    3    0    0 -0.14357479891E+00 -0.66739876886E+01  0.62664215876E+01  0.91559142036E+01  0.00000000000E+00 0.  1.
</event>
<event>
 7    1  0.5714431E-011  0.5052886E+02  0.7816164E-02  0.1300439E+00
        -11   -1    0    0    0    0  0.00000000000E+00  0.00000000000E+00  0.45593999997E+02  0.45594000000E+02  0.51100000000E-03 0.  1.
         11   -1    0    0    0    0 -0.00000000000E+00 -0.00000000000E+00 -0.45593999997E+02  0.45594000000E+02  0.51100000000E-03 0. -1.
    9900012    2    1    2    0    0 -0.17302801427E+02  0.26564906185E+02 -0.25457498670E+02  0.50528863064E+02  0.30000009771E+02 0.  0.
        -12    1    1    2    0    0  0.17302801427E+02 -0.26564906185E+02  0.25457498670E+02  0.40659136936E+02  0.00000000000E+00 0.  1.
         11    1    3    3    0    0 -0.25241603465E+02  0.24441717035E+02 -0.21256246526E+02  0.41065363675E+02  0.51100000000E-03 0. -1.
        -11    1    3    3    0    0  0.52383709518E+01  0.20623423026E+01 -0.36420771362E+01  0.67051108960E+01  0.51100000000E-03 0.  1.
         12    1    3    3    0    0  0.27004310866E+01  0.60846846876E-01 -0.55917500808E+00  0.27583884936E+01  0.00000000000E+00 0. -1.
</event>
<event>
 7    1  0.5714431E-011  0.5052886E+02  0.7816164E-02  0.1300439E+00
        -11   -1    0    0    0    0  0.00000000000E+00  0.00000000000E+00  0.45593999997E+02  0.45594000000E+02  0.51100000000E-03 0.  1.
         11   -1    0    0    0    0 -0.00000000000E+00 -0.00000000000E+00 -0.45593999997E+02  0.45594000000E+02  0.51100000000E-03 0. -1.
    9900012    2    1    2    0    0 -0.86270152773E+01 -0.39721926753E+02  0.95323531171E+00  0.50528861850E+02  0.30000006080E+02 0.  0.
        -12    1    1    2    0    0  0.86270152773E+01  0.39721926753E+02 -0.95323531171E+00  0.40659138150E+02  0.00000000000E+00 0.  1.
         11    1    3    3    0    0 -0.15742616720E+01 -0.15045984571E+02  0.12434735783E+02  0.19582711910E+02  0.51100000000E-03 0. -1.
        -11    1    3    3    0    0 -0.67029904799E+01 -0.12588146850E+02 -0.12289774396E+02  0.18826313432E+02  0.51100000000E-03 0.  1.
         12    1    3    3    0    0 -0.34976312537E+00 -0.12087795332E+02  0.80827392485E+00  0.12119836508E+02  0.00000000000E+00 0. -1.
</event>
<event>
 7    1  0.5714431E-011  0.5052886E+02  0.7816164E-02  0.1300439E+00
        -11   -1    0    0    0    0  0.00000000000E+00  0.00000000000E+00  0.45593999997E+02  0.45594000000E+02  0.51100000000E-03 0. -1.
         11   -1    0    0    0    0 -0.00000000000E+00 -0.00000000000E+00 -0.45593999997E+02  0.45594000000E+02  0.51100000000E-03 0.  1.
    9900012    2    1    2    0    0 -0.58869242530E+00 -0.40412752302E+02 -0.44303925369E+01  0.50528862215E+02  0.30000007190E+02 0.  0.
        -12    1    1    2    0    0  0.58869242530E+00  0.40412752302E+02  0.44303925369E+01  0.40659137785E+02  0.00000000000E+00 0.  1.
         11    1    3    3    0    0 -0.14353674700E+02 -0.23737556454E+02 -0.57316055098E+01  0.28325798590E+02  0.51100000000E-03 0. -1.
        -11    1    3    3    0    0  0.67449124749E+01 -0.45013651024E+01  0.65220289038E+00  0.81352013466E+01  0.51100000000E-03 0.  1.
         12    1    3    3    0    0  0.70200697993E+01 -0.12173830746E+02  0.64901008252E+00  0.14067862279E+02  0.00000000000E+00 0. -1.
</event>
<event>
 7    1  0.5714431E-011  0.5052885E+02  0.7816164E-02  0.1300439E+00
        -11   -1    0    0    0    0  0.00000000000E+00  0.00000000000E+00  0.45593999997E+02  0.45594000000E+02  0.51100000000E-03 0. -1.
         11   -1    0    0    0    0 -0.00000000000E+00 -0.00000000000E+00 -0.45593999997E+02  0.45594000000E+02  0.51100000000E-03 0.  1.
    9900012    2    1    2    0    0 -0.37601728624E+02 -0.12401566646E+02  0.92453965972E+01  0.50528853316E+02  0.29999980140E+02 0.  0.
        -12    1    1    2    0    0  0.37601728624E+02  0.12401566646E+02 -0.92453965972E+01  0.40659146684E+02  0.00000000000E+00 0.  1.
         11    1    3    3    0    0 -0.19919762824E+02  0.55795563310E+01  0.99040776214E+01  0.22935107447E+02  0.51100000000E-03 0. -1.
        -11    1    3    3    0    0 -0.85595563811E+01 -0.16154970630E+02 -0.42757737669E+00  0.18287479437E+02  0.51100000000E-03 0.  1.
         12    1    3    3    0    0 -0.91224094194E+01 -0.18261523478E+01 -0.23110364748E+00  0.93062664323E+01  0.00000000000E+00 0. -1.
</event>
<event>
 7    1  0.5714431E-011  0.5052886E+02  0.7816164E-02  0.1300439E+00
        -11   -1    0    0    0    0  0.00000000000E+00  0.00000000000E+00  0.45593999997E+02  0.45594000000E+02  0.51100000000E-03 0. -1.
         11   -1    0    0    0    0 -0.00000000000E+00 -0.00000000000E+00 -0.45593999997E+02  0.45594000000E+02  0.51100000000E-03 0.  1.
    9900012    2    1    2    0    0  0.11480917969E+02 -0.31164714830E+02  0.23454527430E+02  0.50528858533E+02  0.29999995998E+02 0.  0.
        -12    1    1    2    0    0 -0.11480917969E+02  0.31164714830E+02 -0.23454527430E+02  0.40659141467E+02  0.00000000000E+00 0.  1.
         11    1    3    3    0    0 -0.56935551176E+00  0.36793910320E+01 -0.12233686257E+01  0.39190196633E+01  0.51100000000E-03 0.  1.
        -11    1    3    3    0    0  0.85501182174E+01 -0.11367060068E+02  0.15820751167E+02  0.21274650265E+02  0.51100000000E-03 0. -1.
         12    1    3    3    0    0  0.35001552634E+01 -0.23477045794E+02  0.88571448879E+01  0.25335188605E+02  0.00000000000E+00 0. -1.
</event>
<event>
 7    1  0.5714431E-011  0.5052887E+02  0.7816164E-02  0.1300439E+00
        -11   -1    0    0    0    0  0.00000000000E+00  0.00000000000E+00  0.45593999997E+02  0.45594000000E+02  0.51100000000E-03 0.  1.
         11   -1    0    0    0    0 -0.00000000000E+00 -0.00000000000E+00 -0.45593999997E+02  0.45594000000E+02  0.51100000000E-03 0. -1.
    9900012    2    1    2    0    0 -0.96464682511E+00  0.40585134969E+02  0.22542255287E+01  0.50528865028E+02  0.30000015738E+02 0.  0.
        -12    1    1    2    0    0  0.96464682511E+00 -0.40585134969E+02 -0.22542255287E+01  0.40659134972E+02  0.00000000000E+00 0.  1.
         11    1    3    3    0    0 -0.14901976002E+01  0.38236265272E+01 -0.75460413500E+01  0.85897350963E+01  0.51100000000E-03 0. -1.
        -11    1    3    3    0    0  0.56592395416E+01  0.21042220902E+02  0.12595190893E+02  0.25168251560E+02  0.51100000000E-03 0.  1.
        -12    1    3    3    0    0 -0.51336887665E+01  0.15719287540E+02 -0.27949240140E+01  0.16770878372E+02  0.00000000000E+00 0.  1.
</event>
<event>
 7    1  0.5714431E-011  0.5052885E+02  0.7816164E-02  0.1300439E+00
        -11   -1    0    0    0    0  0.00000000000E+00  0.00000000000E+00  0.45593999997E+02  0.45594000000E+02  0.51100000000E-03 0.  1.
         11   -1    0    0    0    0 -0.00000000000E+00 -0.00000000000E+00 -0.45593999997E+02  0.45594000000E+02  0.51100000000E-03 0. -1.
    9900012    2    1    2    0    0  0.12126513744E+02  0.91874678817E+01 -0.37705496955E+02  0.50528850940E+02  0.29999972916E+02 0.  0.
        -12    1    1    2    0    0 -0.12126513744E+02 -0.91874678817E+01  0.37705496955E+02  0.40659149060E+02  0.00000000000E+00 0.  1.
         11    1    3    3    0    0  0.99024503569E+01  0.16077394225E+02 -0.30571752212E+02  0.35932898042E+02  0.51100000000E-03 0. -1.
        -11    1    3    3    0    0 -0.30887257849E+01 -0.66298567573E+01 -0.50258304900E+01  0.88743563132E+01  0.51100000000E-03 0.  1.
        -12    1    3    3    0    0  0.53127891725E+01 -0.26006958556E+00 -0.21079142534E+01  0.57215965849E+01  0.00000000000E+00 0.  1.
</event>
<event>
 7    1  0.5714431E-011  0.5052886E+02  0.7816164E-02  0.1300439E+00
        -11   -1    0    0    0    0  0.00000000000E+00  0.00000000000E+00  0.45593999997E+02  0.45594000000E+02  0.51100000000E-03 0. -1.
         11   -1    0    0    0    0 -0.00000000000E+00 -0.00000000000E+00 -0.45593999997E+02  0.45594000000E+02  0.51100000000E-03 0.  1.
    9900012    2    1    2    0    0 -0.15061389032E+02 -0.36603667553E+02  0.93001143014E+01  0.50528855347E+02  0.29999986312E+02 0.  0.
        -12    1    1    2    0    0  0.15061389032E+02  0.36603667553E+02 -0.93001143014E+01  0.40659144653E+02  0.00000000000E+00 0.  1.
         11    1    3    3    0    0 -0.16553540450E+02 -0.16419240083E+02  0.97701907774E+01  0.25279789841E+02  0.51100000000E-03 0. -1.
        -11    1    3    3    0    0  0.25390897386E+01 -0.78461110747E+00 -0.46690902527E+01  0.53724291842E+01  0.51100000000E-03 0.  1.
        -12    1    3    3    0    0 -0.10469383206E+01 -0.19399816363E+02  0.41990137767E+01  0.19876636321E+02  0.00000000000E+00 0.  1.
</event>
<event>
 7    1  0.5714431E-011  0.5052887E+02  0.7816164E-02  0.1300439E+00
        -11   -1    0    0    0    0  0.00000000000E+00  0.00000000000E+00  0.45593999997E+02  0.45594000000E+02  0.51100000000E-03 0. -1.
         11   -1    0    0    0    0 -0.00000000000E+00 -0.00000000000E+00 -0.45593999997E+02  0.45594000000E+02  0.51100000000E-03 0.  1.
    9900012    2    1    2    0    0 -0.17797247945E+02  0.14911614044E+02  0.33377641235E+02  0.50528865698E+02  0.30000017776E+02 0.  0.
        -12    1    1    2    0    0  0.17797247945E+02 -0.14911614044E+02 -0.33377641235E+02  0.40659134302E+02  0.00000000000E+00 0.  1.
         11    1    3    3    0    0 -0.93151688953E+01  0.30367256735E+01  0.18937711562E+02  0.21322077615E+02  0.51100000000E-03 0. -1.
        -11    1    3    3    0    0 -0.41976786224E+01  0.17200078212E+02  0.13590199365E+02  0.22319424620E+02  0.51100000000E-03 0.  1.
        -12    1    3    3    0    0 -0.42844004269E+01 -0.53251898422E+01  0.84973030762E+00  0.68873634628E+01  0.00000000000E+00 0.  1.
</event>
<event>
 7    1  0.5714431E-011  0.5052887E+02  0.7816164E-02  0.1300439E+00
        -11   -1    0    0    0    0  0.00000000000E+00  0.00000000000E+00  0.45593999997E+02  0.45594000000E+02  0.51100000000E-03 0.  1.
         11   -1    0    0    0    0 -0.00000000000E+00 -0.00000000000E+00 -0.45593999997E+02  0.45594000000E+02  0.51100000000E-03 0. -1.
    9900012    2    1    2    0    0  0.26489394165E+01  0.37784232465E+02 -0.14781748315E+02  0.50528865894E+02  0.30000018372E+02 0.  0.
        -12    1    1    2    0    0 -0.26489394165E+01 -0.37784232465E+02  0.14781748315E+02  0.40659134106E+02  0.00000000000E+00 0.  1.
         11    1    3    3    0    0  0.14054451310E+02  0.14548293111E+02 -0.75829740700E+01  0.21602822271E+02  0.51100000000E-03 0. -1.
        -11    1    3    3    0    0 -0.22808557006E+01  0.58448992289E+01  0.28199626047E+01  0.68787599955E+01  0.51100000000E-03 0.  1.
         12    1    3    3    0    0 -0.91246561932E+01  0.17391040125E+02 -0.10018736850E+02  0.22047283627E+02  0.00000000000E+00 0. -1.
</event>
<event>
 7    1  0.5714431E-011  0.5052885E+02  0.7816164E-02  0.1300439E+00
        -11   -1    0    0    0    0  0.00000000000E+00  0.00000000000E+00  0.45593999997E+02  0.45594000000E+02  0.51100000000E-03 0.  1.
         11   -1    0    0    0    0 -0.00000000000E+00 -0.00000000000E+00 -0.45593999997E+02  0.45594000000E+02  0.51100000000E-03 0. -1.
    9900012    2    1    2    0    0  0.11157523958E+02  0.84724202391E+01 -0.38169283074E+02  0.50528850771E+02  0.29999972405E+02 0.  0.
        -12    1    1    2    0    0 -0.11157523958E+02 -0.84724202391E+01  0.38169283074E+02  0.40659149229E+02  0.00000000000E+00 0.  1.
         11    1    3    3    0    0  0.18763459884E+02  0.52023379899E+01 -0.11766309532E+02  0.22750335990E+02  0.51100000000E-03 0. -1.
        -11    1    3    3    0    0 -0.42030943776E+01  0.62126904079E+00 -0.14895155701E+02  0.15489275038E+02  0.51100000000E-03 0.  1.
         12    1    3    3    0    0 -0.34028415489E+01  0.26488132084E+01 -0.11507817841E+02  0.12289239744E+02  0.00000000000E+00 0. -1.
</event>
<event>
 7    1  0.5714431E-011  0.5052886E+02  0.7816164E-02  0.1300439E+00
        -11   -1    0    0    0    0  0.00000000000E+00  0.00000000000E+00  0.45593999997E+02  0.45594000000E+02  0.51100000000E-03 0.  1.
         11   -1    0    0    0    0 -0.00000000000E+00 -0.00000000000E+00 -0.45593999997E+02  0.45594000000E+02  0.51100000000E-03 0. -1.
    9900012    2    1    2    0    0  0.82191024806E+01 -0.23639667612E+02 -0.32043381895E+02  0.50528857687E+02  0.29999993424E+02 0.  0.
        -12    1    1    2    0    0 -0.82191024806E+01  0.23639667612E+02  0.32043381895E+02  0.40659142313E+02  0.00000000000E+00 0.  1.
         11    1    3    3    0    0 -0.57012224351E+00 -0.35958951427E+01 -0.23282127641E+01  0.43215826020E+01  0.51100000000E-03 0. -1.
        -11    1    3    3    0    0 -0.67667032380E+01  0.26913836310E+01 -0.31398033646E+01  0.79303331575E+01  0.51100000000E-03 0.  1.
        -12    1    3    3    0    0  0.15555927962E+02 -0.22735156100E+02 -0.26575365766E+02  0.38276941927E+02  0.00000000000E+00 0.  1.
</event>
<event>
 7    1  0.5714431E-011  0.5052885E+02  0.7816164E-02  0.1300439E+00
        -11   -1    0    0    0    0  0.00000000000E+00  0.00000000000E+00  0.45593999997E+02  0.45594000000E+02  0.51100000000E-03 0.  1.
         11   -1    0    0    0    0 -0.00000000000E+00 -0.00000000000E+00 -0.45593999997E+02  0.45594000000E+02  0.51100000000E-03 0. -1.
    9900012    2    1    2    0    0  0.10316141619E+02 -0.11699062993E+02 -0.37548308044E+02  0.50528852324E+02  0.29999977123E+02 0.  0.
        -12    1    1    2    0    0 -0.10316141619E+02  0.11699062993E+02  0.37548308044E+02  0.40659147676E+02  0.00000000000E+00 0.  1.
         11    1    3    3    0    0  0.11870985206E+01 -0.13095218258E+02 -0.23312144193E+02  0.26764715789E+02  0.51100000000E-03 0. -1.
        -11    1    3    3    0    0  0.27513996297E+00 -0.14741570739E+01  0.34591814380E+01  0.37702490050E+01  0.51100000000E-03 0.  1.
        -12    1    3    3    0    0  0.88539031359E+01  0.28703123393E+01 -0.17695345289E+02  0.19993887530E+02  0.00000000000E+00 0.  1.
</event>
<event>
 7    1  0.5714431E-011  0.5052886E+02  0.7816164E-02  0.1300439E+00
        -11   -1    0    0    0    0  0.00000000000E+00  0.00000000000E+00  0.45593999997E+02  0.45594000000E+02  0.51100000000E-03 0.  1.
         11   -1    0    0    0    0 -0.00000000000E+00 -0.00000000000E+00 -0.45593999997E+02  0.45594000000E+02  0.51100000000E-03 0. -1.
    9900012    2    1    2    0    0 -0.16366567655E+02  0.38345394770E+01 -0.37021575479E+02  0.50528864732E+02  0.30000014839E+02 0.  0.
        -12    1    1    2    0    0  0.16366567655E+02 -0.38345394770E+01  0.37021575479E+02  0.40659135268E+02  0.00000000000E+00 0.  1.
         11    1    3    3    0    0 -0.70636996904E+01  0.80447140341E+01 -0.73382679504E+01  0.12979347209E+02  0.51100000000E-03 0. -1.
        -11    1    3    3    0    0 -0.12078339982E+02 -0.77445230567E+01 -0.10325927182E+02  0.17677350099E+02  0.51100000000E-03 0.  1.
        -12    1    3    3    0    0  0.27754720170E+01  0.35343484996E+01 -0.19357380346E+02  0.19872167424E+02  0.00000000000E+00 0.  1.
</event>
<event>
 7    1  0.5714431E-011  0.5052885E+02  0.7816164E-02  0.1300439E+00
        -11   -1    0    0    0    0  0.00000000000E+00  0.00000000000E+00  0.45593999997E+02  0.45594000000E+02  0.51100000000E-03 0.  1.
         11   -1    0    0    0    0 -0.00000000000E+00 -0.00000000000E+00 -0.45593999997E+02  0.45594000000E+02  0.51100000000E-03 0. -1.
    9900012    2    1    2    0    0 -0.27511051022E+02  0.24688789976E+02 -0.16934346397E+02  0.50528851377E+02  0.29999974246E+02 0.  0.
        -12    1    1    2    0    0  0.27511051022E+02 -0.24688789976E+02  0.16934346397E+02  0.40659148623E+02  0.00000000000E+00 0.  1.
         11    1    3    3    0    0 -0.14787633452E+02  0.17697981189E+02 -0.94960872616E+01  0.24941297376E+02  0.51100000000E-03 0. -1.
        -11    1    3    3    0    0  0.16961025218E+01 -0.18165126066E+01  0.43328940327E+01  0.49950428200E+01  0.51100000000E-03 0.  1.
        -12    1    3    3    0    0 -0.14419520092E+02  0.88073213940E+01 -0.11771153168E+02  0.20592511181E+02  0.00000000000E+00 0.  1.
</event>
<event>
 7    1  0.5714431E-011  0.5052887E+02  0.7816164E-02  0.1300439E+00
        -11   -1    0    0    0    0  0.00000000000E+00  0.00000000000E+00  0.45593999997E+02  0.45594000000E+02  0.51100000000E-03 0.  1.
         11   -1    0    0    0    0 -0.00000000000E+00 -0.00000000000E+00 -0.45593999997E+02  0.45594000000E+02  0.51100000000E-03 0. -1.
    9900012    2    1    2    0    0 -0.19901231598E+02 -0.34017640161E+02 -0.99953160149E+01  0.50528865683E+02  0.30000017729E+02 0.  0.
        -12    1    1    2    0    0  0.19901231598E+02  0.34017640161E+02  0.99953160149E+01  0.40659134317E+02  0.00000000000E+00 0.  1.
         11    1    3    3    0    0 -0.88462146538E+01 -0.11689600294E+02 -0.95064196262E+01  0.17472100135E+02  0.51100000000E-03 0. -1.
        -11    1    3    3    0    0  0.76992294092E+00 -0.18569836105E+02  0.53546971119E+01  0.19341777987E+02  0.51100000000E-03 0.  1.
        -12    1    3    3    0    0 -0.11824939885E+02 -0.37582037616E+01 -0.58435935006E+01  0.13714987561E+02  0.00000000000E+00 0.  1.
</event>
<event>
 7    1  0.5714431E-011  0.5052885E+02  0.7816164E-02  0.1300439E+00
        -11   -1    0    0    0    0  0.00000000000E+00  0.00000000000E+00  0.45593999997E+02  0.45594000000E+02  0.51100000000E-03 0.  1.
         11   -1    0    0    0    0 -0.00000000000E+00 -0.00000000000E+00 -0.45593999997E+02  0.45594000000E+02  0.51100000000E-03 0. -1.
    9900012    2    1    2    0    0  0.70416429069E+01 -0.37933983033E+02 -0.12829438196E+02  0.50528852346E+02  0.29999977189E+02 0.  0.
        -12    1    1    2    0    0 -0.70416429069E+01  0.37933983033E+02  0.12829438196E+02  0.40659147654E+02  0.00000000000E+00 0.  1.
         11    1    3    3    0    0  0.15938268587E+02 -0.29332169451E+02 -0.93040399205E+01  0.34655010162E+02  0.51100000000E-03 0. -1.
        -11    1    3    3    0    0 -0.62482357317E+01 -0.28369699982E+01 -0.59497516812E+01  0.90823121428E+01  0.51100000000E-03 0.  1.
         12    1    3    3    0    0 -0.26483899479E+01 -0.57648435833E+01  0.24243534052E+01  0.67915300404E+01  0.00000000000E+00 0. -1.
</event>
<event>
 7    1  0.5714431E-011  0.5052886E+02  0.7816164E-02  0.1300439E+00
        -11   -1    0    0    0    0  0.00000000000E+00  0.00000000000E+00  0.45593999997E+02  0.45594000000E+02  0.51100000000E-03 0.  1.
         11   -1    0    0    0    0 -0.00000000000E+00 -0.00000000000E+00 -0.45593999997E+02  0.45594000000E+02  0.51100000000E-03 0. -1.
    9900012    2    1    2    0    0  0.14576857364E+02  0.29131927019E+02 -0.24331286555E+02  0.50528862677E+02  0.30000008593E+02 0.  0.
        -12    1    1    2    0    0 -0.14576857364E+02 -0.29131927019E+02  0.24331286555E+02  0.40659137323E+02  0.00000000000E+00 0.  1.
         11    1    3    3    0    0  0.13815747090E+02  0.21722246267E+02 -0.97686972513E+01  0.27534674445E+02  0.51100000000E-03 0. -1.
        -11    1    3    3    0    0 -0.73203697118E+01  0.62587528394E+01 -0.79929436119E+01  0.12515867835E+02  0.51100000000E-03 0.  1.
         12    1    3    3    0    0  0.80814799855E+01  0.11509279117E+01 -0.65696456920E+01  0.10478320397E+02  0.00000000000E+00 0. -1.
</event>
<event>
 7    1  0.5714431E-011  0.5052886E+02  0.7816164E-02  0.1300439E+00
        -11   -1    0    0    0    0  0.00000000000E+00  0.00000000000E+00  0.45593999997E+02  0.45594000000E+02  0.51100000000E-03 0.  1.
         11   -1    0    0    0    0 -0.00000000000E+00 -0.00000000000E+00 -0.45593999997E+02  0.45594000000E+02  0.51100000000E-03 0. -1.
    9900012    2    1    2    0    0 -0.30739196633E+02  0.24809350159E+02  0.96313975801E+01  0.50528857310E+02  0.29999992279E+02 0.  0.
        -12    1    1    2    0    0  0.30739196633E+02 -0.24809350159E+02 -0.96313975801E+01  0.40659142690E+02  0.00000000000E+00 0.  1.
         11    1    3    3    0    0 -0.17891423587E+02  0.72932436793E+01 -0.35538487839E+01  0.19644955657E+02  0.51100000000E-03 0. -1.
        -11    1    3    3    0    0 -0.30787549666E+01  0.71946845846E+00  0.10864120436E+02  0.11314834515E+02  0.51100000000E-03 0.  1.
        -12    1    3    3    0    0 -0.97690180797E+01  0.16796638021E+02  0.23211259285E+01  0.19569067137E+02  0.00000000000E+00 0.  1.
</event>
<event>
 7    1  0.5714431E-011  0.5052886E+02  0.7816164E-02  0.1300439E+00
        -11   -1    0    0    0    0  0.00000000000E+00  0.00000000000E+00  0.45593999997E+02  0.45594000000E+02  0.51100000000E-03 0. -1.
         11   -1    0    0    0    0 -0.00000000000E+00 -0.00000000000E+00 -0.45593999997E+02  0.45594000000E+02  0.51100000000E-03 0.  1.
    9900012    2    1    2    0    0  0.27318039827E+02  0.27846944481E+02 -0.11464647249E+02  0.50528858919E+02  0.29999997170E+02 0.  0.
        -12    1    1    2    0    0 -0.27318039827E+02 -0.27846944481E+02  0.11464647249E+02  0.40659141081E+02  0.00000000000E+00 0.  1.
         11    1    3    3    0    0  0.18971079612E+02  0.11185827807E+02 -0.11295932854E+02  0.24751216226E+02  0.51100000000E-03 0. -1.
        -11    1    3    3    0    0  0.42863281944E+01  0.39255488103E+00  0.64471903456E+01  0.77519657080E+01  0.51100000000E-03 0.  1.
        -12    1    3    3    0    0  0.40606320206E+01  0.16268561793E+02 -0.66159047405E+01  0.18025676984E+02  0.00000000000E+00 0.  1.
</event>
<event>
 7    1  0.5714431E-011  0.5052886E+02  0.7816164E-02  0.1300439E+00
        -11   -1    0    0    0    0  0.00000000000E+00  0.00000000000E+00  0.45593999997E+02  0.45594000000E+02  0.51100000000E-03 0.  1.
         11   -1    0    0    0    0 -0.00000000000E+00 -0.00000000000E+00 -0.45593999997E+02  0.45594000000E+02  0.51100000000E-03 0. -1.
    9900012    2    1    2    0    0 -0.12912330500E+02 -0.36142223301E+02 -0.13422997343E+02  0.50528862752E+02  0.30000008821E+02 0.  0.
        -12    1    1    2    0    0  0.12912330500E+02  0.36142223301E+02  0.13422997343E+02  0.40659137248E+02  0.00000000000E+00 0.  1.
         11    1    3    3    0    0 -0.89121363915E+01 -0.14618490666E+02 -0.37709856124E+01  0.17531308484E+02  0.51100000000E-03 0. -1.
        -11    1    3    3    0    0  0.61991076763E+00  0.87951549591E+00  0.54709473682E+01  0.55757602382E+01  0.51100000000E-03 0.  1.
        -12    1    3    3    0    0 -0.46201048759E+01 -0.22403248131E+02 -0.15122959099E+02  0.27421794029E+02  0.00000000000E+00 0.  1.
</event>
<event>
 7    1  0.5714431E-011  0.5052884E+02  0.7816164E-02  0.1300439E+00
        -11   -1    0    0    0    0  0.00000000000E+00  0.00000000000E+00  0.45593999997E+02  0.45594000000E+02  0.51100000000E-03 0.  1.
         11   -1    0    0    0    0 -0.00000000000E+00 -0.00000000000E+00 -0.45593999997E+02  0.45594000000E+02  0.51100000000E-03 0. -1.
    9900012    2    1    2    0    0  0.70289806382E+01  0.64319365680E+01 -0.39527090226E+02  0.50528840656E+02  0.29999941659E+02 0.  0.
        -12    1    1    2    0    0 -0.70289806382E+01 -0.64319365680E+01  0.39527090226E+02  0.40659159344E+02  0.00000000000E+00 0.  1.
         11    1    3    3    0    0 -0.45526173614E+01  0.42237548137E+01 -0.63245203123E+01  0.88637456534E+01  0.51100000000E-03 0. -1.
        -11    1    3    3    0    0  0.17132424710E+02 -0.23130494875E+01 -0.27630183313E+02  0.32592901137E+02  0.51100000000E-03 0.  1.
        -12    1    3    3    0    0 -0.55508267105E+01  0.45212312418E+01 -0.55723866007E+01  0.90721938658E+01  0.00000000000E+00 0.  1.
</event>
<event>
 7    1  0.5714431E-011  0.5052885E+02  0.7816164E-02  0.1300439E+00
        -11   -1    0    0    0    0  0.00000000000E+00  0.00000000000E+00  0.45593999997E+02  0.45594000000E+02  0.51100000000E-03 0. -1.
         11   -1    0    0    0    0 -0.00000000000E+00 -0.00000000000E+00 -0.45593999997E+02  0.45594000000E+02  0.51100000000E-03 0.  1.
    9900012    2    1    2    0    0  0.28663869004E+02  0.20707703098E+02  0.20068377554E+02  0.50528854270E+02  0.29999983038E+02 0.  0.
        -12    1    1    2    0    0 -0.28663869004E+02 -0.20707703098E+02 -0.20068377554E+02  0.40659145730E+02  0.00000000000E+00 0.  1.
         11    1    3    3    0    0 -0.11496952468E+01  0.12461674183E+02  0.38054739406E+01  0.13080395819E+02  0.51100000000E-03 0. -1.
        -11    1    3    3    0    0  0.16155911643E+02  0.56741572367E+00  0.14437399807E+02  0.21674269424E+02  0.51100000000E-03 0.  1.
         12    1    3    3    0    0  0.13657652608E+02  0.76786131913E+01  0.18255038061E+01  0.15774189027E+02  0.00000000000E+00 0. -1.
</event>
<event>
 7    1  0.5714431E-011  0.5052886E+02  0.7816164E-02  0.1300439E+00
        -11   -1    0    0    0    0  0.00000000000E+00  0.00000000000E+00  0.45593999997E+02  0.45594000000E+02  0.51100000000E-03 0.  1.
         11   -1    0    0    0    0 -0.00000000000E+00 -0.00000000000E+00 -0.45593999997E+02  0.45594000000E+02  0.51100000000E-03 0. -1.
    9900012    2    1    2    0    0  0.18041215638E+02 -0.25238361682E+02 -0.26281274404E+02  0.50528859006E+02  0.29999997434E+02 0.  0.
        -12    1    1    2    0    0 -0.18041215638E+02  0.25238361682E+02  0.26281274404E+02  0.40659140994E+02  0.00000000000E+00 0.  1.
         11    1    3    3    0    0 -0.33187443771E+01 -0.84090121542E+01 -0.18588967402E+02  0.20670637605E+02  0.51100000000E-03 0. -1.
        -11    1    3    3    0    0  0.15564450081E+02 -0.16557509179E+02 -0.78836826486E+01  0.24053184173E+02  0.51100000000E-03 0.  1.
         12    1    3    3    0    0  0.57955099341E+01 -0.27184034918E+00  0.19137564716E+00  0.58050372273E+01  0.00000000000E+00 0. -1.
</event>
<event>
 7    1  0.5714431E-011  0.5052886E+02  0.7816164E-02  0.1300439E+00
        -11   -1    0    0    0    0  0.00000000000E+00  0.00000000000E+00  0.45593999997E+02  0.45594000000E+02  0.51100000000E-03 0.  1.
         11   -1    0    0    0    0 -0.00000000000E+00 -0.00000000000E+00 -0.45593999997E+02  0.45594000000E+02  0.51100000000E-03 0. -1.
    9900012    2    1    2    0    0 -0.36801886641E+02  0.18649889314E+01  0.17184544871E+02  0.50528860480E+02  0.30000001916E+02 0.  0.
        -12    1    1    2    0    0  0.36801886641E+02 -0.18649889314E+01 -0.17184544871E+02  0.40659139520E+02  0.00000000000E+00 0.  1.
         11    1    3    3    0    0 -0.21549713821E+02 -0.25781194916E+01  0.13036863333E+02  0.25317912073E+02  0.51100000000E-03 0.  1.
        -11    1    3    3    0    0  0.61889007435E-01  0.60902798701E+01 -0.44762552618E+01  0.75585845616E+01  0.51100000000E-03 0. -1.
         12    1    3    3    0    0 -0.15314061827E+02 -0.16471714471E+01  0.86239368000E+01  0.17652363846E+02  0.00000000000E+00 0. -1.
</event>
<event>
 7    1  0.5714431E-011  0.5052886E+02  0.7816164E-02  0.1300439E+00
        -11   -1    0    0    0    0  0.00000000000E+00  0.00000000000E+00  0.45593999997E+02  0.45594000000E+02  0.51100000000E-03 0.  1.
         11   -1    0    0    0    0 -0.00000000000E+00 -0.00000000000E+00 -0.45593999997E+02  0.45594000000E+02  0.51100000000E-03 0. -1.
    9900012    2    1    2    0    0 -0.39904473720E+02 -0.60850816388E+01 -0.48755338152E+01  0.50528855008E+02  0.29999985284E+02 0.  0.
        -12    1    1    2    0    0  0.39904473720E+02  0.60850816388E+01  0.48755338152E+01  0.40659144992E+02  0.00000000000E+00 0.  1.
         11    1    3    3    0    0  0.35545176221E+01 -0.37856427282E+01 -0.19512537231E+01  0.55473487131E+01  0.51100000000E-03 0. -1.
        -11    1    3    3    0    0 -0.18882524582E+02  0.42026971455E+01  0.36182979991E+00  0.19347953870E+02  0.51100000000E-03 0.  1.
         12    1    3    3    0    0 -0.24576466761E+02 -0.65021360561E+01 -0.32861098920E+01  0.25633552426E+02  0.00000000000E+00 0. -1.
</event>
<event>
 7    1  0.5714431E-011  0.5052887E+02  0.7816164E-02  0.1300439E+00
        -11   -1    0    0    0    0  0.00000000000E+00  0.00000000000E+00  0.45593999997E+02  0.45594000000E+02  0.51100000000E-03 0.  1.
         11   -1    0    0    0    0 -0.00000000000E+00 -0.00000000000E+00 -0.45593999997E+02  0.45594000000E+02  0.51100000000E-03 0. -1.
    9900012    2    1    2    0    0  0.15608134123E+02 -0.33771420444E+02 -0.16402496652E+02  0.50528873275E+02  0.30000040807E+02 0.  0.
        -12    1    1    2    0    0 -0.15608134123E+02  0.33771420444E+02  0.16402496652E+02  0.40659126725E+02  0.00000000000E+00 0.  1.
         11    1    3    3    0    0  0.14224495777E+02 -0.38581916899E+02 -0.11941931803E+02  0.42819508721E+02  0.51100000000E-03 0. -1.
        -11    1    3    3    0    0  0.68859960503E+00  0.19026277210E+01 -0.42561088038E+01  0.47126026855E+01  0.51100000000E-03 0.  1.
         12    1    3    3    0    0  0.69503874078E+00  0.29078687333E+01 -0.20445604470E+00  0.29967618683E+01  0.00000000000E+00 0. -1.
</event>
<event>
 7    1  0.5714431E-011  0.5052886E+02  0.7816164E-02  0.1300439E+00
        -11   -1    0    0    0    0  0.00000000000E+00  0.00000000000E+00  0.45593999997E+02  0.45594000000E+02  0.51100000000E-03 0.  1.
         11   -1    0    0    0    0 -0.00000000000E+00 -0.00000000000E+00 -0.45593999997E+02  0.45594000000E+02  0.51100000000E-03 0. -1.
    9900012    2    1    2    0    0 -0.15605140435E+02 -0.10266879308E+02 -0.36114214334E+02  0.50528859629E+02  0.29999999329E+02 0.  0.
        -12    1    1    2    0    0  0.15605140435E+02  0.10266879308E+02  0.36114214334E+02  0.40659140371E+02  0.00000000000E+00 0.  1.
         11    1    3    3    0    0 -0.14745776346E+02 -0.53625222495E+01 -0.31886946904E+02  0.35538316618E+02  0.51100000000E-03 0. -1.
        -11    1    3    3    0    0  0.56517253421E+00  0.46432402046E+01 -0.79116705973E+00  0.47439482679E+01  0.51100000000E-03 0.  1.
         12    1    3    3    0    0 -0.14245366232E+01 -0.95475972629E+01 -0.34361003710E+01  0.10246594744E+02  0.00000000000E+00 0. -1.
</event>
<event>
 7    1  0.5714431E-011  0.5052887E+02  0.7816164E-02  0.1300439E+00
        -11   -1    0    0    0    0  0.00000000000E+00  0.00000000000E+00  0.45593999997E+02  0.45594000000E+02  0.51100000000E-03 0.  1.
         11   -1    0    0    0    0 -0.00000000000E+00 -0.00000000000E+00 -0.45593999997E+02  0.45594000000E+02  0.51100000000E-03 0. -1.
    9900012    2    1    2    0    0 -0.13421423420E+02 -0.10442433022E+02 -0.36932182180E+02  0.50528867021E+02  0.30000021796E+02 0.  0.
        -12    1    1    2    0    0  0.13421423420E+02  0.10442433022E+02  0.36932182180E+02  0.40659132979E+02  0.00000000000E+00 0.  1.
         11    1    3    3    0    0 -0.48018331808E+01 -0.80219699430E+00 -0.15930523474E+02  0.16657811992E+02  0.51100000000E-03 0. -1.
        -11    1    3    3    0    0 -0.55677526205E+01 -0.81059691397E+01  0.24803322540E+01  0.10141925522E+02  0.51100000000E-03 0.  1.
        -12    1    3    3    0    0 -0.30518376184E+01 -0.15342668877E+01 -0.23481990960E+02  0.23729129507E+02  0.00000000000E+00 0.  1.
</event>
<event>
 7    1  0.5714431E-011  0.5052886E+02  0.7816164E-02  0.1300439E+00
        -11   -1    0    0    0    0  0.00000000000E+00  0.00000000000E+00  0.45593999997E+02  0.45594000000E+02  0.51100000000E-03 0. -1.
         11   -1    0    0    0    0 -0.00000000000E+00 -0.00000000000E+00 -0.45593999997E+02  0.45594000000E+02  0.51100000000E-03 0.  1.
    9900012    2    1    2    0    0 -0.20250566988E+02 -0.19014347786E+02  0.29690654902E+02  0.50528857442E+02  0.29999992681E+02 0.  0.
        -12    1    1    2    0    0  0.20250566988E+02  0.19014347786E+02 -0.29690654902E+02  0.40659142558E+02  0.00000000000E+00 0.  1.
         11    1    3    3    0    0 -0.29796199883E+01  0.35354646823E+01  0.49282262701E+01  0.67575927834E+01  0.51100000000E-03 0. -1.
        -11    1    3    3    0    0 -0.57512620158E+01 -0.81997805836E+01 -0.30076884419E+01  0.10457514352E+02  0.51100000000E-03 0.  1.
        -12    1    3    3    0    0 -0.11519684983E+02 -0.14350031885E+02  0.27770117074E+02  0.33313750307E+02  0.00000000000E+00 0.  1.
</event>
<event>
 7    1  0.5714431E-011  0.5052887E+02  0.7816164E-02  0.1300439E+00
        -11   -1    0    0    0    0  0.00000000000E+00  0.00000000000E+00  0.45593999997E+02  0.45594000000E+02  0.51100000000E-03 0.  1.
         11   -1    0    0    0    0 -0.00000000000E+00 -0.00000000000E+00 -0.45593999997E+02  0.45594000000E+02  0.51100000000E-03 0. -1.
    9900012    2    1    2    0    0  0.29689244868E+02  0.54818954366E+01 -0.27233484839E+02  0.50528866525E+02  0.30000020290E+02 0.  0.
        -12    1    1    2    0    0 -0.29689244868E+02 -0.54818954366E+01  0.27233484839E+02  0.40659133475E+02  0.00000000000E+00 0.  1.
         11    1    3    3    0    0  0.99383291586E+01  0.35018363298E+01  0.36755231967E+01  0.11159870751E+02  0.51100000000E-03 0. -1.
        -11    1    3    3    0    0  0.10197777478E+02 -0.47704290773E+01 -0.21827787255E+02  0.24560210825E+02  0.51100000000E-03 0.  1.
         12    1    3    3    0    0  0.95531382318E+01  0.67504881841E+01 -0.90812207810E+01  0.14808784949E+02  0.00000000000E+00 0. -1.
</event>
<event>
 7    1  0.5714431E-011  0.5052886E+02  0.7816164E-02  0.1300439E+00
        -11   -1    0    0    0    0  0.00000000000E+00  0.00000000000E+00  0.45593999997E+02  0.45594000000E+02  0.51100000000E-03 0.  1.
         11   -1    0    0    0    0 -0.00000000000E+00 -0.00000000000E+00 -0.45593999997E+02  0.45594000000E+02  0.51100000000E-03 0. -1.
    9900012    2    1    2    0    0  0.27359313452E+02 -0.20845446785E+02 -0.21681817134E+02  0.50528857381E+02  0.29999992497E+02 0.  0.
        -12    1    1    2    0    0 -0.27359313452E+02  0.20845446785E+02  0.21681817134E+02  0.40659142619E+02  0.00000000000E+00 0.  1.
         11    1    3    3    0    0  0.15184247580E+02 -0.17237342602E+02 -0.20831192831E+02  0.31010094318E+02  0.51100000000E-03 0. -1.
        -11    1    3    3    0    0  0.14828153217E+02 -0.13931208138E+01 -0.33350755905E+01  0.15262294811E+02  0.51100000000E-03 0.  1.
        -12    1    3    3    0    0 -0.26530873450E+01 -0.22149833694E+01  0.24844512882E+01  0.42564682532E+01  0.00000000000E+00 0.  1.
</event>
<event>
 7    1  0.5714431E-011  0.5052885E+02  0.7816164E-02  0.1300439E+00
        -11   -1    0    0    0    0  0.00000000000E+00  0.00000000000E+00  0.45593999997E+02  0.45594000000E+02  0.51100000000E-03 0. -1.
         11   -1    0    0    0    0 -0.00000000000E+00 -0.00000000000E+00 -0.45593999997E+02  0.45594000000E+02  0.51100000000E-03 0.  1.
    9900012    2    1    2    0    0  0.12357988213E+02 -0.37962309168E+02  0.77012661221E+01  0.50528852322E+02  0.29999977117E+02 0.  0.
        -12    1    1    2    0    0 -0.12357988213E+02  0.37962309168E+02 -0.77012661221E+01  0.40659147678E+02  0.00000000000E+00 0.  1.
         11    1    3    3    0    0  0.12028532057E+02 -0.17358672785E+02  0.15544118269E+02  0.26222675633E+02  0.51100000000E-03 0. -1.
        -11    1    3    3    0    0  0.24282602362E+01 -0.90339487907E+01 -0.83465368768E+01  0.12536879860E+02  0.51100000000E-03 0.  1.
         12    1    3    3    0    0 -0.20988040800E+01 -0.11569687592E+02  0.50368472947E+00  0.11769296829E+02  0.00000000000E+00 0. -1.
</event>
<event>
 7    1  0.5714431E-011  0.5052886E+02  0.7816164E-02  0.1300439E+00
        -11   -1    0    0    0    0  0.00000000000E+00  0.00000000000E+00  0.45593999997E+02  0.45594000000E+02  0.51100000000E-03 0.  1.
         11   -1    0    0    0    0 -0.00000000000E+00 -0.00000000000E+00 -0.45593999997E+02  0.45594000000E+02  0.51100000000E-03 0. -1.
    9900012    2    1    2    0    0 -0.44057569847E+01 -0.31103810110E+02 -0.25812947605E+02  0.50528856354E+02  0.29999989375E+02 0.  0.
        -12    1    1    2    0    0  0.44057569847E+01  0.31103810110E+02  0.25812947605E+02  0.40659143646E+02  0.00000000000E+00 0.  1.
         11    1    3    3    0    0 -0.38497234852E+01 -0.18626334377E+02 -0.82884240986E+01  0.20747498103E+02  0.51100000000E-03 0. -1.
        -11    1    3    3    0    0  0.92468767177E+01 -0.37493993915E+01 -0.11823761256E+02  0.15471394744E+02  0.51100000000E-03 0.  1.
        -12    1    3    3    0    0 -0.98029102173E+01 -0.87280763419E+01 -0.57007622499E+01  0.14309963508E+02  0.00000000000E+00 0.  1.
</event>
<event>
 7    1  0.5714431E-011  0.5052884E+02  0.7816164E-02  0.1300439E+00
        -11   -1    0    0    0    0  0.00000000000E+00  0.00000000000E+00  0.45593999997E+02  0.45594000000E+02  0.51100000000E-03 0.  1.
         11   -1    0    0    0    0 -0.00000000000E+00 -0.00000000000E+00 -0.45593999997E+02  0.45594000000E+02  0.51100000000E-03 0. -1.
    9900012    2    1    2    0    0  0.11877138142E+02 -0.36202861449E+02 -0.14193430442E+02  0.50528842911E+02  0.29999948511E+02 0.  0.
        -12    1    1    2    0    0 -0.11877138142E+02  0.36202861449E+02  0.14193430442E+02  0.40659157089E+02  0.00000000000E+00 0.  1.
         11    1    3    3    0    0  0.33220621913E+00 -0.90522475949E+00 -0.17050263668E+00  0.97921613930E+00  0.51100000000E-03 0. -1.
        -11    1    3    3    0    0  0.92024787432E+01 -0.23301863586E+02 -0.23293712685E+02  0.34209056002E+02  0.51100000000E-03 0.  1.
        -12    1    3    3    0    0  0.23424531795E+01 -0.11995773103E+02  0.92707848802E+01  0.15340570769E+02  0.00000000000E+00 0.  1.
</event>
<event>
 7    1  0.5714431E-011  0.5052886E+02  0.7816164E-02  0.1300439E+00
        -11   -1    0    0    0    0  0.00000000000E+00  0.00000000000E+00  0.45593999997E+02  0.45594000000E+02  0.51100000000E-03 0.  1.
         11   -1    0    0    0    0 -0.00000000000E+00 -0.00000000000E+00 -0.45593999997E+02  0.45594000000E+02  0.51100000000E-03 0. -1.
    9900012    2    1    2    0    0  0.31948348555E+02 -0.27778840191E+01  0.24995033687E+02  0.50528864200E+02  0.30000013221E+02 0.  0.
        -12    1    1    2    0    0 -0.31948348555E+02  0.27778840191E+01 -0.24995033687E+02  0.40659135800E+02  0.00000000000E+00 0.  1.
         11    1    3    3    0    0  0.11575864657E+02 -0.28271502266E+01 -0.49424223892E+01  0.12900424811E+02  0.51100000000E-03 0. -1.
        -11    1    3    3    0    0  0.73217064197E+01  0.18478332757E+01  0.19204213254E+02  0.20635495625E+02  0.51100000000E-03 0.  1.
         12    1    3    3    0    0  0.13050777478E+02 -0.17985670681E+01  0.10733242822E+02  0.16992943764E+02  0.00000000000E+00 0. -1.
</event>
<event>
 7    1  0.5714431E-011  0.5052886E+02  0.7816164E-02  0.1300439E+00
        -11   -1    0    0    0    0  0.00000000000E+00  0.00000000000E+00  0.45593999997E+02  0.45594000000E+02  0.51100000000E-03 0. -1.
         11   -1    0    0    0    0 -0.00000000000E+00 -0.00000000000E+00 -0.45593999997E+02  0.45594000000E+02  0.51100000000E-03 0.  1.
    9900012    2    1    2    0    0 -0.30999711561E+02  0.10033132096E+01  0.26290247745E+02  0.50528857354E+02  0.29999992412E+02 0.  0.
        -12    1    1    2    0    0  0.30999711561E+02 -0.10033132096E+01 -0.26290247745E+02  0.40659142646E+02  0.00000000000E+00 0.  1.
         11    1    3    3    0    0 -0.21762614195E+02  0.12310419897E+02  0.12656970212E+02  0.28024216490E+02  0.51100000000E-03 0. -1.
        -11    1    3    3    0    0 -0.37138324206E+01 -0.51456870602E+01 -0.24070503904E+00  0.63504791746E+01  0.51100000000E-03 0.  1.
         12    1    3    3    0    0 -0.55232649453E+01 -0.61614196273E+01  0.13873982572E+02  0.16154161689E+02  0.00000000000E+00 0. -1.
</event>
<event>
 7    1  0.5714431E-011  0.5052886E+02  0.7816164E-02  0.1300439E+00
        -11   -1    0    0    0    0  0.00000000000E+00  0.00000000000E+00  0.45593999997E+02  0.45594000000E+02  0.51100000000E-03 0. -1.
         11   -1    0    0    0    0 -0.00000000000E+00 -0.00000000000E+00 -0.45593999997E+02  0.45594000000E+02  0.51100000000E-03 0.  1.
    9900012    2    1    2    0    0  0.21726635802E+02 -0.30271786400E+02  0.16270760380E+02  0.50528863284E+02  0.30000010437E+02 0.  0.
        -12    1    1    2    0    0 -0.21726635802E+02  0.30271786400E+02 -0.16270760380E+02  0.40659136716E+02  0.00000000000E+00 0.  1.
         11    1    3    3    0    0 -0.57366992951E+01 -0.90214476342E+01  0.27362584697E+01  0.11035549234E+02  0.51100000000E-03 0. -1.
        -11    1    3    3    0    0  0.24063407701E+02 -0.11495265213E+02  0.11059261529E+02  0.28870330417E+02  0.51100000000E-03 0.  1.
        -12    1    3    3    0    0  0.33999273961E+01 -0.97550735533E+01  0.24752403811E+01  0.10622983633E+02  0.00000000000E+00 0.  1.
</event>
<event>
 7    1  0.5714431E-011  0.5052886E+02  0.7816164E-02  0.1300439E+00
        -11   -1    0    0    0    0  0.00000000000E+00  0.00000000000E+00  0.45593999997E+02  0.45594000000E+02  0.51100000000E-03 0.  1.
         11   -1    0    0    0    0 -0.00000000000E+00 -0.00000000000E+00 -0.45593999997E+02  0.45594000000E+02  0.51100000000E-03 0. -1.
    9900012    2    1    2    0    0 -0.39526397673E+02  0.93620663926E+01  0.17836065679E+01  0.50528860160E+02  0.30000000942E+02 0.  0.
        -12    1    1    2    0    0  0.39526397673E+02 -0.93620663926E+01 -0.17836065679E+01  0.40659139840E+02  0.00000000000E+00 0.  1.
         11    1    3    3    0    0 -0.31130804583E+02  0.16915210321E+01  0.25762156506E+01  0.31282984588E+02  0.51100000000E-03 0. -1.
        -11    1    3    3    0    0  0.11576404413E+01 -0.38984096779E+01 -0.11897346395E+01  0.42371214500E+01  0.51100000000E-03 0.  1.
        -12    1    3    3    0    0 -0.95532335310E+01  0.11568955038E+02  0.39712555678E+00  0.15008754122E+02  0.00000000000E+00 0.  1.
</event>
<event>
 7    1  0.5714431E-011  0.5052886E+02  0.7816164E-02  0.1300439E+00
        -11   -1    0    0    0    0  0.00000000000E+00  0.00000000000E+00  0.45593999997E+02  0.45594000000E+02  0.51100000000E-03 0.  1.
         11   -1    0    0    0    0 -0.00000000000E+00 -0.00000000000E+00 -0.45593999997E+02  0.45594000000E+02  0.51100000000E-03 0. -1.
    9900012    2    1    2    0    0 -0.17721286861E+01 -0.91937695872E+01 -0.39566396801E+02  0.50528860866E+02  0.30000003089E+02 0.  0.
        -12    1    1    2    0    0  0.17721286861E+01  0.91937695872E+01  0.39566396801E+02  0.40659139134E+02  0.00000000000E+00 0.  1.
         11    1    3    3    0    0  0.42450963776E+01 -0.15950103906E+02 -0.26002535666E+02  0.30798677231E+02  0.51100000000E-03 0. -1.
        -11    1    3    3    0    0 -0.43406577154E+01  0.98753588808E+01 -0.10238126447E+02  0.14872231031E+02  0.51100000000E-03 0.  1.
         12    1    3    3    0    0 -0.16765673483E+01 -0.31190245621E+01 -0.33257346881E+01  0.48579526046E+01  0.00000000000E+00 0. -1.
</event>
<event>
 7    1  0.5714431E-011  0.5052886E+02  0.7816164E-02  0.1300439E+00
        -11   -1    0    0    0    0  0.00000000000E+00  0.00000000000E+00  0.45593999997E+02  0.45594000000E+02  0.51100000000E-03 0. -1.
         11   -1    0    0    0    0 -0.00000000000E+00 -0.00000000000E+00 -0.45593999997E+02  0.45594000000E+02  0.51100000000E-03 0.  1.
    9900012    2    1    2    0    0 -0.31895216746E+02 -0.19141552750E+01  0.25143524689E+02  0.50528859878E+02  0.30000000085E+02 0.  0.
        -12    1    1    2    0    0  0.31895216746E+02  0.19141552750E+01 -0.25143524689E+02  0.40659140122E+02  0.00000000000E+00 0.  1.
         11    1    3    3    0    0 -0.48102478751E+01 -0.23784545539E+01 -0.34895844220E+01  0.64009944840E+01  0.51100000000E-03 0.  1.
        -11    1    3    3    0    0 -0.26712688011E+02 -0.45834539580E+01  0.28096067406E+02  0.39037991174E+02  0.51100000000E-03 0. -1.
        -12    1    3    3    0    0 -0.37228085930E+00  0.50477532369E+01  0.53704170558E+00  0.50898742197E+01  0.00000000000E+00 0.  1.
</event>
<event>
 7    1  0.5714431E-011  0.5052891E+02  0.7816164E-02  0.1300439E+00
        -11   -1    0    0    0    0  0.00000000000E+00  0.00000000000E+00  0.45593999997E+02  0.45594000000E+02  0.51100000000E-03 0.  1.
         11   -1    0    0    0    0 -0.00000000000E+00 -0.00000000000E+00 -0.45593999997E+02  0.45594000000E+02  0.51100000000E-03 0. -1.
    9900012    2    1    2    0    0 -0.79257969262E+01  0.30213640746E+02 -0.26028430053E+02  0.50528911040E+02  0.30000155596E+02 0.  0.
        -12    1    1    2    0    0  0.79257969262E+01 -0.30213640746E+02  0.26028430053E+02  0.40659088960E+02  0.00000000000E+00 0.  1.
         11    1    3    3    0    0 -0.37379737703E+01  0.25636503581E+02 -0.13493641983E+02  0.29210976327E+02  0.51100000000E-03 0. -1.
        -11    1    3    3    0    0  0.39909778355E+01 -0.60880486216E+00 -0.10733301591E+02  0.11467445694E+02  0.51100000000E-03 0.  1.
        -12    1    3    3    0    0 -0.81788009914E+01  0.51859420279E+01 -0.18014864789E+01  0.98504890187E+01  0.00000000000E+00 0.  1.
</event>
<event>
 7    1  0.5714431E-011  0.5052886E+02  0.7816164E-02  0.1300439E+00
        -11   -1    0    0    0    0  0.00000000000E+00  0.00000000000E+00  0.45593999997E+02  0.45594000000E+02  0.51100000000E-03 0.  1.
         11   -1    0    0    0    0 -0.00000000000E+00 -0.00000000000E+00 -0.45593999997E+02  0.45594000000E+02  0.51100000000E-03 0. -1.
    9900012    2    1    2    0    0  0.43869206460E+00  0.16599457736E+02 -0.37113759365E+02  0.50528861027E+02  0.30000003577E+02 0.  0.
        -12    1    1    2    0    0 -0.43869206460E+00 -0.16599457736E+02  0.37113759365E+02  0.40659138973E+02  0.00000000000E+00 0.  1.
         11    1    3    3    0    0 -0.11748742862E+01 -0.33936256303E+01 -0.10344787870E+01  0.37372678695E+01  0.51100000000E-03 0. -1.
        -11    1    3    3    0    0 -0.48330939751E+01  0.70854675199E+01 -0.29882786463E+02  0.31089283916E+02  0.51100000000E-03 0.  1.
        -12    1    3    3    0    0  0.64466603259E+01  0.12907615846E+02 -0.61964941145E+01  0.15702309241E+02  0.00000000000E+00 0.  1.
</event>
<event>
 7    1  0.5714431E-011  0.5052889E+02  0.7816164E-02  0.1300439E+00
        -11   -1    0    0    0    0  0.00000000000E+00  0.00000000000E+00  0.45593999997E+02  0.45594000000E+02  0.51100000000E-03 0.  1.
         11   -1    0    0    0    0 -0.00000000000E+00 -0.00000000000E+00 -0.45593999997E+02  0.45594000000E+02  0.51100000000E-03 0. -1.
    9900012    2    1    2    0    0 -0.16931118046E+01 -0.10569406584E+02 -0.39224792647E+02  0.50528888582E+02  0.30000087333E+02 0.  0.
        -12    1    1    2    0    0  0.16931118046E+01  0.10569406584E+02  0.39224792647E+02  0.40659111418E+02  0.00000000000E+00 0.  1.
         11    1    3    3    0    0 -0.63997758386E+01 -0.17040552379E+02 -0.34269099948E+02  0.38803463346E+02  0.51100000000E-03 0. -1.
        -11    1    3    3    0    0  0.17413451742E+01  0.62737369772E+01 -0.71924207214E+00  0.65505242610E+01  0.51100000000E-03 0.  1.
         12    1    3    3    0    0  0.29653188598E+01  0.19740881696E+00 -0.42364506273E+01  0.51749009748E+01  0.00000000000E+00 0. -1.
</event>
<event>
 7    1  0.5714431E-011  0.5052887E+02  0.7816164E-02  0.1300439E+00
        -11   -1    0    0    0    0  0.00000000000E+00  0.00000000000E+00  0.45593999997E+02  0.45594000000E+02  0.51100000000E-03 0.  1.
         11   -1    0    0    0    0 -0.00000000000E+00 -0.00000000000E+00 -0.45593999997E+02  0.45594000000E+02  0.51100000000E-03 0. -1.
    9900012    2    1    2    0    0  0.67383249723E+01  0.13685248939E+02 -0.37689172719E+02  0.50528870617E+02  0.30000032727E+02 0.  0.
        -12    1    1    2    0    0 -0.67383249723E+01 -0.13685248939E+02  0.37689172719E+02  0.40659129383E+02  0.00000000000E+00 0.  1.
         11    1    3    3    0    0  0.48796465316E+01  0.47276169170E+01 -0.31620852364E+02  0.32342535715E+02  0.51100000000E-03 0.  1.
        -11    1    3    3    0    0 -0.39956391138E+01  0.26156898953E+01  0.30218386384E+01  0.56514135023E+01  0.51100000000E-03 0. -1.
         12    1    3    3    0    0  0.58543175545E+01  0.63419421266E+01 -0.90901589937E+01  0.12534921400E+02  0.00000000000E+00 0. -1.
</event>
<event>
 7    1  0.5714431E-011  0.5052887E+02  0.7816164E-02  0.1300439E+00
        -11   -1    0    0    0    0  0.00000000000E+00  0.00000000000E+00  0.45593999997E+02  0.45594000000E+02  0.51100000000E-03 0.  1.
         11   -1    0    0    0    0 -0.00000000000E+00 -0.00000000000E+00 -0.45593999997E+02  0.45594000000E+02  0.51100000000E-03 0. -1.
    9900012    2    1    2    0    0 -0.25409176091E+02  0.24122158859E+02 -0.20631536498E+02  0.50528867251E+02  0.30000022497E+02 0.  0.
        -12    1    1    2    0    0  0.25409176091E+02 -0.24122158859E+02  0.20631536498E+02  0.40659132749E+02  0.00000000000E+00 0.  1.
         11    1    3    3    0    0 -0.42718652582E+01  0.63047536516E+01 -0.19623497254E+02  0.21049474961E+02  0.51100000000E-03 0. -1.
        -11    1    3    3    0    0 -0.88803190701E+01  0.21258151604E+01  0.19847524490E+01  0.93444314663E+01  0.51100000000E-03 0.  1.
         12    1    3    3    0    0 -0.12256991763E+02  0.15691590047E+02 -0.29927916922E+01  0.20134960824E+02  0.00000000000E+00 0. -1.
</event>
<event>
 7    1  0.5714431E-011  0.5052889E+02  0.7816164E-02  0.1300439E+00
        -11   -1    0    0    0    0  0.00000000000E+00  0.00000000000E+00  0.45593999997E+02  0.45594000000E+02  0.51100000000E-03 0.  1.
         11   -1    0    0    0    0 -0.00000000000E+00 -0.00000000000E+00 -0.45593999997E+02  0.45594000000E+02  0.51100000000E-03 0. -1.
    9900012    2    1    2    0    0  0.30946026683E+02 -0.25914283149E+02 -0.48945755552E+01  0.50528886526E+02  0.30000081085E+02 0.  0.
        -12    1    1    2    0    0 -0.30946026683E+02  0.25914283149E+02  0.48945755552E+01  0.40659113474E+02  0.00000000000E+00 0.  1.
         11    1    3    3    0    0  0.65700694570E+01 -0.21480576582E+02 -0.58363738263E+01  0.23208710491E+02  0.51100000000E-03 0. -1.
        -11    1    3    3    0    0  0.87167797334E+01  0.20966774887E+00 -0.48660070538E+01  0.99852007688E+01  0.51100000000E-03 0.  1.
         12    1    3    3    0    0  0.15659177493E+02 -0.46433743162E+01  0.58078053248E+01  0.17334975266E+02  0.00000000000E+00 0. -1.
</event>
<event>
 7    1  0.5714431E-011  0.5052886E+02  0.7816164E-02  0.1300439E+00
        -11   -1    0    0    0    0  0.00000000000E+00  0.00000000000E+00  0.45593999997E+02  0.45594000000E+02  0.51100000000E-03 0. -1.
         11   -1    0    0    0    0 -0.00000000000E+00 -0.00000000000E+00 -0.45593999997E+02  0.45594000000E+02  0.51100000000E-03 0.  1.
    9900012    2    1    2    0    0  0.37621889542E+02  0.38836084639E+01  0.14922366874E+02  0.50528855635E+02  0.29999987188E+02 0.  0.
        -12    1    1    2    0    0 -0.37621889542E+02 -0.38836084639E+01 -0.14922366874E+02  0.40659144365E+02  0.00000000000E+00 0.  1.
         11    1    3    3    0    0  0.46033733806E+01 -0.10208198184E+02  0.50020489397E+01  0.12264536293E+02  0.51100000000E-03 0. -1.
        -11    1    3    3    0    0  0.24167318009E+02  0.91933393730E+01  0.30510079624E+01  0.26036232416E+02  0.51100000000E-03 0.  1.
        -12    1    3    3    0    0  0.88511981521E+01  0.48984672744E+01  0.68693099717E+01  0.12228086925E+02  0.00000000000E+00 0.  1.
</event>
<event>
 7    1  0.5714431E-011  0.5052886E+02  0.7816164E-02  0.1300439E+00
        -11   -1    0    0    0    0  0.00000000000E+00  0.00000000000E+00  0.45593999997E+02  0.45594000000E+02  0.51100000000E-03 0.  1.
         11   -1    0    0    0    0 -0.00000000000E+00 -0.00000000000E+00 -0.45593999997E+02  0.45594000000E+02  0.51100000000E-03 0. -1.
    9900012    2    1    2    0    0 -0.48289534881E+01  0.39890885436E+02 -0.62100144196E+01  0.50528858202E+02  0.29999994991E+02 0.  0.
        -12    1    1    2    0    0  0.48289534881E+01 -0.39890885436E+02  0.62100144196E+01  0.40659141798E+02  0.00000000000E+00 0.  1.
         11    1    3    3    0    0  0.34558906802E+01 -0.11951879301E+01 -0.60115676022E+01  0.70363768999E+01  0.51100000000E-03 0.  1.
        -11    1    3    3    0    0 -0.35079199340E+01  0.21114678810E+02  0.56573474969E+01  0.22139122486E+02  0.51100000000E-03 0. -1.
         12    1    3    3    0    0 -0.47769242343E+01  0.19971394556E+02 -0.58557943144E+01  0.21353358816E+02  0.00000000000E+00 0. -1.
</event>
<event>
 7    1  0.5714431E-011  0.5052886E+02  0.7816164E-02  0.1300439E+00
        -11   -1    0    0    0    0  0.00000000000E+00  0.00000000000E+00  0.45593999997E+02  0.45594000000E+02  0.51100000000E-03 0.  1.
         11   -1    0    0    0    0 -0.00000000000E+00 -0.00000000000E+00 -0.45593999997E+02  0.45594000000E+02  0.51100000000E-03 0. -1.
    9900012    2    1    2    0    0  0.93479000979E+01  0.19049224606E+02 -0.34682985029E+02  0.50528860254E+02  0.30000001229E+02 0.  0.
        -12    1    1    2    0    0 -0.93479000979E+01 -0.19049224606E+02  0.34682985029E+02  0.40659139746E+02  0.00000000000E+00 0.  1.
         11    1    3    3    0    0  0.43808552861E+01  0.50351404477E+01 -0.81202080371E+01  0.10511056616E+02  0.51100000000E-03 0. -1.
        -11    1    3    3    0    0 -0.70763467114E+01  0.10161315192E+02 -0.24157929944E+02  0.27146502328E+02  0.51100000000E-03 0.  1.
        -12    1    3    3    0    0  0.12043391523E+02  0.38527689657E+01 -0.24048470482E+01  0.12871301310E+02  0.00000000000E+00 0.  1.
</event>
<event>
 7    1  0.5714431E-011  0.5052887E+02  0.7816164E-02  0.1300439E+00
        -11   -1    0    0    0    0  0.00000000000E+00  0.00000000000E+00  0.45593999997E+02  0.45594000000E+02  0.51100000000E-03 0.  1.
         11   -1    0    0    0    0 -0.00000000000E+00 -0.00000000000E+00 -0.45593999997E+02  0.45594000000E+02  0.51100000000E-03 0. -1.
    9900012    2    1    2    0    0 -0.18369264759E+02 -0.31385500998E+02 -0.18184745651E+02  0.50528873902E+02  0.30000042712E+02 0.  0.
        -12    1    1    2    0    0  0.18369264759E+02  0.31385500998E+02  0.18184745651E+02  0.40659126098E+02  0.00000000000E+00 0.  1.
         11    1    3    3    0    0 -0.52217687317E+01  0.31371699334E+01  0.20620376890E+01  0.64312287761E+01  0.51100000000E-03 0. -1.
        -11    1    3    3    0    0 -0.45826778530E+01 -0.26971894428E+02 -0.11335462916E+02  0.29613793157E+02  0.51100000000E-03 0.  1.
        -12    1    3    3    0    0 -0.85648181738E+01 -0.75507765032E+01 -0.89113204244E+01  0.14483851969E+02  0.00000000000E+00 0.  1.
</event>
<event>
 7    1  0.5714431E-011  0.5052886E+02  0.7816164E-02  0.1300439E+00
        -11   -1    0    0    0    0  0.00000000000E+00  0.00000000000E+00  0.45593999997E+02  0.45594000000E+02  0.51100000000E-03 0.  1.
         11   -1    0    0    0    0 -0.00000000000E+00 -0.00000000000E+00 -0.45593999997E+02  0.45594000000E+02  0.51100000000E-03 0. -1.
    9900012    2    1    2    0    0 -0.40027930324E+02 -0.67753091849E+01 -0.22418725958E+01  0.50528855723E+02  0.29999987457E+02 0.  0.
        -12    1    1    2    0    0  0.40027930324E+02  0.67753091849E+01  0.22418725958E+01  0.40659144277E+02  0.00000000000E+00 0.  1.
         11    1    3    3    0    0 -0.12548802173E+02  0.68279554907E+01 -0.87612245677E+01  0.16758653536E+02  0.51100000000E-03 0. -1.
        -11    1    3    3    0    0 -0.27515724489E+02 -0.12899548949E+02  0.85923410309E+01  0.31580718514E+02  0.51100000000E-03 0.  1.
        -12    1    3    3    0    0  0.36596337485E-01 -0.70371572692E+00 -0.20729890590E+01  0.21894836731E+01  0.00000000000E+00 0.  1.
</event>
<event>
 7    1  0.5714431E-011  0.5052887E+02  0.7816164E-02  0.1300439E+00
        -11   -1    0    0    0    0  0.00000000000E+00  0.00000000000E+00  0.45593999997E+02  0.45594000000E+02  0.51100000000E-03 0.  1.
         11   -1    0    0    0    0 -0.00000000000E+00 -0.00000000000E+00 -0.45593999997E+02  0.45594000000E+02  0.51100000000E-03 0. -1.
    9900012    2    1    2    0    0 -0.20705002622E+02 -0.47107748487E+01 -0.34673851961E+02  0.50528873804E+02  0.30000042413E+02 0.  0.
        -12    1    1    2    0    0  0.20705002622E+02  0.47107748487E+01  0.34673851961E+02  0.40659126196E+02  0.00000000000E+00 0.  1.
         11    1    3    3    0    0 -0.10392312044E+02  0.17181400320E+01 -0.28398439184E+02  0.30288999705E+02  0.51100000000E-03 0. -1.
        -11    1    3    3    0    0 -0.80969220211E+01  0.35161008885E+01 -0.13751440990E+01  0.89338755995E+01  0.51100000000E-03 0.  1.
        -12    1    3    3    0    0 -0.22157685568E+01 -0.99450157691E+01 -0.49002686783E+01  0.11305998499E+02  0.00000000000E+00 0.  1.
</event>
<event>
 7    1  0.5714431E-011  0.5052886E+02  0.7816164E-02  0.1300439E+00
        -11   -1    0    0    0    0  0.00000000000E+00  0.00000000000E+00  0.45593999997E+02  0.45594000000E+02  0.51100000000E-03 0.  1.
         11   -1    0    0    0    0 -0.00000000000E+00 -0.00000000000E+00 -0.45593999997E+02  0.45594000000E+02  0.51100000000E-03 0. -1.
    9900012    2    1    2    0    0 -0.38535569386E+02  0.10136151263E+02 -0.80891412144E+01  0.50528857413E+02  0.29999992593E+02 0.  0.
        -12    1    1    2    0    0  0.38535569386E+02 -0.10136151263E+02  0.80891412144E+01  0.40659142587E+02  0.00000000000E+00 0.  1.
         11    1    3    3    0    0 -0.11188676759E+02  0.38765833493E+01 -0.14547868604E+02  0.18757794840E+02  0.51100000000E-03 0. -1.
        -11    1    3    3    0    0 -0.28500509951E+02  0.71400294081E+01  0.70314247156E+01  0.30210925527E+02  0.51100000000E-03 0.  1.
         12    1    3    3    0    0  0.11536173247E+01 -0.88046149444E+00 -0.57269732643E+00  0.15601370461E+01  0.00000000000E+00 0. -1.
</event>
<event>
 7    1  0.5714431E-011  0.5052885E+02  0.7816164E-02  0.1300439E+00
        -11   -1    0    0    0    0  0.00000000000E+00  0.00000000000E+00  0.45593999997E+02  0.45594000000E+02  0.51100000000E-03 0.  1.
         11   -1    0    0    0    0 -0.00000000000E+00 -0.00000000000E+00 -0.45593999997E+02  0.45594000000E+02  0.51100000000E-03 0. -1.
    9900012    2    1    2    0    0 -0.40751146900E+01 -0.19515926263E+02 -0.35435695178E+02  0.50528850594E+02  0.29999971867E+02 0.  0.
        -12    1    1    2    0    0  0.40751146900E+01  0.19515926263E+02  0.35435695178E+02  0.40659149406E+02  0.00000000000E+00 0.  1.
         11    1    3    3    0    0 -0.67903598897E+01 -0.54757566505E+01 -0.27589582315E+02  0.28935755579E+02  0.51100000000E-03 0. -1.
        -11    1    3    3    0    0  0.56162982747E+01 -0.98239313755E+01  0.10136884950E+01  0.11361337888E+02  0.51100000000E-03 0.  1.
        -12    1    3    3    0    0 -0.29010530750E+01 -0.42162382367E+01 -0.88598013582E+01  0.10231757128E+02  0.00000000000E+00 0.  1.
</event>
<event>
 7    1  0.5714431E-011  0.5052886E+02  0.7816164E-02  0.1300439E+00
        -11   -1    0    0    0    0  0.00000000000E+00  0.00000000000E+00  0.45593999997E+02  0.45594000000E+02  0.51100000000E-03 0.  1.
         11   -1    0    0    0    0 -0.00000000000E+00 -0.00000000000E+00 -0.45593999997E+02  0.45594000000E+02  0.51100000000E-03 0. -1.
    9900012    2    1    2    0    0  0.21597374738E+02 -0.53018361024E+01 -0.34038359791E+02  0.50528855901E+02  0.29999987996E+02 0.  0.
        -12    1    1    2    0    0 -0.21597374738E+02  0.53018361024E+01  0.34038359791E+02  0.40659144099E+02  0.00000000000E+00 0.  1.
         11    1    3    3    0    0 -0.55360589762E+01 -0.29060418268E+00 -0.76895224269E+01  0.94795123922E+01  0.51100000000E-03 0.  1.
        -11    1    3    3    0    0  0.20187679349E+02 -0.10104504256E+02 -0.21449174552E+02  0.31140174903E+02  0.51100000000E-03 0. -1.
         12    1    3    3    0    0  0.69457543654E+01  0.50932723360E+01 -0.48996628120E+01  0.99091686061E+01  0.00000000000E+00 0. -1.
</event>
<event>
 7    1  0.5714431E-011  0.5052886E+02  0.7816164E-02  0.1300439E+00
        -11   -1    0    0    0    0  0.00000000000E+00  0.00000000000E+00  0.45593999997E+02  0.45594000000E+02  0.51100000000E-03 0.  1.
         11   -1    0    0    0    0 -0.00000000000E+00 -0.00000000000E+00 -0.45593999997E+02  0.45594000000E+02  0.51100000000E-03 0. -1.
    9900012    2    1    2    0    0 -0.30955098153E+02  0.10640899868E+02 -0.24118843349E+02  0.50528862575E+02  0.30000008281E+02 0.  0.
        -12    1    1    2    0    0  0.30955098153E+02 -0.10640899868E+02  0.24118843349E+02  0.40659137425E+02  0.00000000000E+00 0.  1.
         11    1    3    3    0    0 -0.12042731056E+02  0.35675165461E+01 -0.43569682499E+01  0.13294273887E+02  0.51100000000E-03 0. -1.
        -11    1    3    3    0    0  0.30373105386E+01 -0.87081833599E+00 -0.12342914343E+02  0.12740922833E+02  0.51100000000E-03 0.  1.
        -12    1    3    3    0    0 -0.21949677636E+02  0.79442016581E+01 -0.74189607560E+01  0.24493665855E+02  0.00000000000E+00 0.  1.
</event>
<event>
 7    1  0.5714431E-011  0.5052886E+02  0.7816164E-02  0.1300439E+00
        -11   -1    0    0    0    0  0.00000000000E+00  0.00000000000E+00  0.45593999997E+02  0.45594000000E+02  0.51100000000E-03 0. -1.
         11   -1    0    0    0    0 -0.00000000000E+00 -0.00000000000E+00 -0.45593999997E+02  0.45594000000E+02  0.51100000000E-03 0.  1.
    9900012    2    1    2    0    0  0.18022533054E+02  0.35303196620E+02  0.90575103246E+01  0.50528857331E+02  0.29999992344E+02 0.  0.
        -12    1    1    2    0    0 -0.18022533054E+02 -0.35303196620E+02 -0.90575103246E+01  0.40659142669E+02  0.00000000000E+00 0.  1.
         11    1    3    3    0    0  0.18050277960E+02  0.24606888748E+02  0.15322596587E+02  0.34148110852E+02  0.51100000000E-03 0. -1.
        -11    1    3    3    0    0 -0.44569736618E+01  0.67892287788E+01 -0.51503190950E+00  0.81377822385E+01  0.51100000000E-03 0.  1.
         12    1    3    3    0    0  0.44292287557E+01  0.39070790933E+01 -0.57500543534E+01  0.82429642410E+01  0.00000000000E+00 0. -1.
</event>
<event>
 7    1  0.5714431E-011  0.5052882E+02  0.7816164E-02  0.1300439E+00
        -11   -1    0    0    0    0  0.00000000000E+00  0.00000000000E+00  0.45593999997E+02  0.45594000000E+02  0.51100000000E-03 0.  1.
         11   -1    0    0    0    0 -0.00000000000E+00 -0.00000000000E+00 -0.45593999997E+02  0.45594000000E+02  0.51100000000E-03 0. -1.
    9900012    2    1    2    0    0  0.28932177671E+02 -0.22667226560E+02  0.17386622892E+02  0.50528822434E+02  0.29999886272E+02 0.  0.
        -12    1    1    2    0    0 -0.28932177671E+02  0.22667226560E+02 -0.17386622892E+02  0.40659177566E+02  0.00000000000E+00 0.  1.
         11    1    3    3    0    0  0.22754882379E+02 -0.27435037934E+02  0.63484750009E+01  0.36204545483E+02  0.51100000000E-03 0. -1.
        -11    1    3    3    0    0  0.40839386617E+01  0.36709015786E+01  0.37166761617E+01  0.66308186029E+01  0.51100000000E-03 0.  1.
         12    1    3    3    0    0  0.20933566305E+01  0.10969097951E+01  0.73214717295E+01  0.76934583489E+01  0.00000000000E+00 0. -1.
</event>
<event>
 7    1  0.5714431E-011  0.5052888E+02  0.7816164E-02  0.1300439E+00
        -11   -1    0    0    0    0  0.00000000000E+00  0.00000000000E+00  0.45593999997E+02  0.45594000000E+02  0.51100000000E-03 0.  1.
         11   -1    0    0    0    0 -0.00000000000E+00 -0.00000000000E+00 -0.45593999997E+02  0.45594000000E+02  0.51100000000E-03 0. -1.
    9900012    2    1    2    0    0 -0.23983460371E+02  0.32176631737E+02  0.65285380820E+01  0.50528882808E+02  0.30000069784E+02 0.  0.
        -12    1    1    2    0    0  0.23983460371E+02 -0.32176631737E+02 -0.65285380820E+01  0.40659117192E+02  0.00000000000E+00 0.  1.
         11    1    3    3    0    0 -0.10018254715E+02  0.23277024963E+02 -0.93331064453E+00  0.25358556498E+02  0.51100000000E-03 0. -1.
        -11    1    3    3    0    0 -0.55703115597E+01  0.16458152468E+01  0.11883476625E+02  0.13227021420E+02  0.51100000000E-03 0.  1.
        -12    1    3    3    0    0 -0.83948940961E+01  0.72537915279E+01 -0.44216278984E+01  0.11943304890E+02  0.00000000000E+00 0.  1.
</event>
<event>
 7    1  0.5714431E-011  0.5052886E+02  0.7816164E-02  0.1300439E+00
        -11   -1    0    0    0    0  0.00000000000E+00  0.00000000000E+00  0.45593999997E+02  0.45594000000E+02  0.51100000000E-03 0.  1.
         11   -1    0    0    0    0 -0.00000000000E+00 -0.00000000000E+00 -0.45593999997E+02  0.45594000000E+02  0.51100000000E-03 0. -1.
    9900012    2    1    2    0    0 -0.20656597424E+02  0.30706074592E+01 -0.34886128180E+02  0.50528860969E+02  0.30000003402E+02 0.  0.
        -12    1    1    2    0    0  0.20656597424E+02 -0.30706074592E+01  0.34886128180E+02  0.40659139031E+02  0.00000000000E+00 0.  1.
         11    1    3    3    0    0 -0.61742244932E+01  0.87400793722E-01 -0.16033074399E+02  0.17181040770E+02  0.51100000000E-03 0. -1.
        -11    1    3    3    0    0 -0.72244837317E+01  0.12090506289E+02 -0.43357824561E+01  0.14736774318E+02  0.51100000000E-03 0.  1.
        -12    1    3    3    0    0 -0.72578891994E+01 -0.91072996239E+01 -0.14517271325E+02  0.18611045881E+02  0.00000000000E+00 0.  1.
</event>
<event>
 7    1  0.5714431E-011  0.5052888E+02  0.7816164E-02  0.1300439E+00
        -11   -1    0    0    0    0  0.00000000000E+00  0.00000000000E+00  0.45593999997E+02  0.45594000000E+02  0.51100000000E-03 0. -1.
         11   -1    0    0    0    0 -0.00000000000E+00 -0.00000000000E+00 -0.45593999997E+02  0.45594000000E+02  0.51100000000E-03 0.  1.
    9900012    2    1    2    0    0  0.19216416512E+02  0.29119187376E+02  0.20879802920E+02  0.50528881625E+02  0.30000066187E+02 0.  0.
        -12    1    1    2    0    0 -0.19216416512E+02 -0.29119187376E+02 -0.20879802920E+02  0.40659118375E+02  0.00000000000E+00 0.  1.
         11    1    3    3    0    0  0.11564176804E+02  0.18504339586E+02  0.19247227087E+02  0.29096331719E+02  0.51100000000E-03 0. -1.
        -11    1    3    3    0    0  0.28664778028E+01  0.11173626213E+02 -0.55360808455E+01  0.12795108797E+02  0.51100000000E-03 0.  1.
         12    1    3    3    0    0  0.47857619052E+01 -0.55877842277E+00  0.71686566788E+01  0.86374411094E+01  0.00000000000E+00 0. -1.
</event>
<event>
 7    1  0.5714431E-011  0.5052886E+02  0.7816164E-02  0.1300439E+00
        -11   -1    0    0    0    0  0.00000000000E+00  0.00000000000E+00  0.45593999997E+02  0.45594000000E+02  0.51100000000E-03 0.  1.
         11   -1    0    0    0    0 -0.00000000000E+00 -0.00000000000E+00 -0.45593999997E+02  0.45594000000E+02  0.51100000000E-03 0. -1.
    9900012    2    1    2    0    0 -0.24695736420E+02  0.27274473955E+02 -0.17302871344E+02  0.50528859778E+02  0.29999999781E+02 0.  0.
        -12    1    1    2    0    0  0.24695736420E+02 -0.27274473955E+02  0.17302871344E+02  0.40659140222E+02  0.00000000000E+00 0.  1.
         11    1    3    3    0    0  0.79370834623E-01  0.10386530877E+02  0.55110677080E+01  0.11758324325E+02  0.51100000000E-03 0. -1.
        -11    1    3    3    0    0 -0.14005266979E+02  0.42770742283E+01 -0.90118886352E+01  0.17194621373E+02  0.51100000000E-03 0.  1.
         12    1    3    3    0    0 -0.10769840276E+02  0.12610868850E+02 -0.13802050417E+02  0.21575914081E+02  0.00000000000E+00 0. -1.
</event>
<event>
 7    1  0.5714431E-011  0.5052885E+02  0.7816164E-02  0.1300439E+00
        -11   -1    0    0    0    0  0.00000000000E+00  0.00000000000E+00  0.45593999997E+02  0.45594000000E+02  0.51100000000E-03 0.  1.
         11   -1    0    0    0    0 -0.00000000000E+00 -0.00000000000E+00 -0.45593999997E+02  0.45594000000E+02  0.51100000000E-03 0. -1.
    9900012    2    1    2    0    0 -0.16636796766E+02  0.37099604577E+02  0.50075320083E-01  0.50528853748E+02  0.29999981452E+02 0.  0.
        -12    1    1    2    0    0  0.16636796766E+02 -0.37099604577E+02 -0.50075320083E-01  0.40659146252E+02  0.00000000000E+00 0.  1.
         11    1    3    3    0    0 -0.72925224867E+01  0.33447984483E+02 -0.47691717243E+01  0.34564339273E+02  0.51100000000E-03 0. -1.
        -11    1    3    3    0    0 -0.41325634153E+01 -0.28244761655E+01 -0.18196544845E+01  0.53260575189E+01  0.51100000000E-03 0.  1.
        -12    1    3    3    0    0 -0.52117108635E+01  0.64760962596E+01  0.66389015289E+01  0.10638456956E+02  0.00000000000E+00 0.  1.
</event>
<event>
 7    1  0.5714431E-011  0.5052885E+02  0.7816164E-02  0.1300439E+00
        -11   -1    0    0    0    0  0.00000000000E+00  0.00000000000E+00  0.45593999997E+02  0.45594000000E+02  0.51100000000E-03 0. -1.
         11   -1    0    0    0    0 -0.00000000000E+00 -0.00000000000E+00 -0.45593999997E+02  0.45594000000E+02  0.51100000000E-03 0.  1.
    9900012    2    1    2    0    0 -0.36059449653E+02 -0.18265988322E+02 -0.43858697788E+01  0.50528854752E+02  0.29999984503E+02 0.  0.
        -12    1    1    2    0    0  0.36059449653E+02  0.18265988322E+02  0.43858697788E+01  0.40659145248E+02  0.00000000000E+00 0.  1.
         11    1    3    3    0    0 -0.19272995910E+02 -0.52339303658E+01  0.60646918643E+01  0.20871580824E+02  0.51100000000E-03 0. -1.
        -11    1    3    3    0    0 -0.13623338382E+01 -0.12231402193E+02 -0.44154674157E+01  0.13075148406E+02  0.51100000000E-03 0.  1.
         12    1    3    3    0    0 -0.15424119905E+02 -0.80065576346E+00 -0.60350942274E+01  0.16582125522E+02  0.00000000000E+00 0. -1.
</event>
<event>
 7    1  0.5714431E-011  0.5052886E+02  0.7816164E-02  0.1300439E+00
        -11   -1    0    0    0    0  0.00000000000E+00  0.00000000000E+00  0.45593999997E+02  0.45594000000E+02  0.51100000000E-03 0. -1.
         11   -1    0    0    0    0 -0.00000000000E+00 -0.00000000000E+00 -0.45593999997E+02  0.45594000000E+02  0.51100000000E-03 0.  1.
    9900012    2    1    2    0    0  0.26997844171E+02  0.29436560429E+02  0.76007306576E+01  0.50528858515E+02  0.29999995942E+02 0.  0.
        -12    1    1    2    0    0 -0.26997844171E+02 -0.29436560429E+02 -0.76007306576E+01  0.40659141485E+02  0.00000000000E+00 0.  1.
         11    1    3    3    0    0  0.16100770868E+02  0.13131986682E+02  0.17468375951E+02  0.27144576906E+02  0.51100000000E-03 0. -1.
        -11    1    3    3    0    0  0.37792365293E+01  0.10775353849E+02 -0.85725029106E+01  0.14278609377E+02  0.51100000000E-03 0.  1.
         12    1    3    3    0    0  0.71178367732E+01  0.55292198982E+01 -0.12951423826E+01  0.91056722323E+01  0.00000000000E+00 0. -1.
</event>
<event>
 7    1  0.5714431E-011  0.5052887E+02  0.7816164E-02  0.1300439E+00
        -11   -1    0    0    0    0  0.00000000000E+00  0.00000000000E+00  0.45593999997E+02  0.45594000000E+02  0.51100000000E-03 0.  1.
         11   -1    0    0    0    0 -0.00000000000E+00 -0.00000000000E+00 -0.45593999997E+02  0.45594000000E+02  0.51100000000E-03 0. -1.
    9900012    2    1    2    0    0  0.16473351728E+02 -0.14571480867E+02 -0.34197448327E+02  0.50528870104E+02  0.30000031170E+02 0.  0.
        -12    1    1    2    0    0 -0.16473351728E+02  0.14571480867E+02  0.34197448327E+02  0.40659129896E+02  0.00000000000E+00 0.  1.
         11    1    3    3    0    0  0.15518467279E+02 -0.52573166607E+01 -0.18552377595E+02  0.24751826596E+02  0.51100000000E-03 0. -1.
        -11    1    3    3    0    0 -0.85846797578E+01 -0.39061920917E+01 -0.60435303425E+01  0.11201755330E+02  0.51100000000E-03 0.  1.
        -12    1    3    3    0    0  0.95395642068E+01 -0.54079721145E+01 -0.96015403892E+01  0.14575288179E+02  0.00000000000E+00 0.  1.
</event>
<event>
 7    1  0.5714431E-011  0.5052887E+02  0.7816164E-02  0.1300439E+00
        -11   -1    0    0    0    0  0.00000000000E+00  0.00000000000E+00  0.45593999997E+02  0.45594000000E+02  0.51100000000E-03 0.  1.
         11   -1    0    0    0    0 -0.00000000000E+00 -0.00000000000E+00 -0.45593999997E+02  0.45594000000E+02  0.51100000000E-03 0. -1.
    9900012    2    1    2    0    0 -0.14489348463E+02  0.20792095128E+01 -0.37932841684E+02  0.50528870530E+02  0.30000032462E+02 0.  0.
        -12    1    1    2    0    0  0.14489348463E+02 -0.20792095128E+01  0.37932841684E+02  0.40659129470E+02  0.00000000000E+00 0.  1.
         11    1    3    3    0    0 -0.12585888499E+02  0.32214876000E+01 -0.12157853441E+02  0.17793143967E+02  0.51100000000E-03 0. -1.
        -11    1    3    3    0    0  0.37838184064E+01  0.72146435138E+01 -0.48092447786E+01  0.94602958921E+01  0.51100000000E-03 0.  1.
        -12    1    3    3    0    0 -0.56872783703E+01 -0.83569216010E+01 -0.20965743464E+02  0.23275430671E+02  0.00000000000E+00 0.  1.
</event>
<event>
 7    1  0.5714431E-011  0.5052886E+02  0.7816164E-02  0.1300439E+00
        -11   -1    0    0    0    0  0.00000000000E+00  0.00000000000E+00  0.45593999997E+02  0.45594000000E+02  0.51100000000E-03 0. -1.
         11   -1    0    0    0    0 -0.00000000000E+00 -0.00000000000E+00 -0.45593999997E+02  0.45594000000E+02  0.51100000000E-03 0.  1.
    9900012    2    1    2    0    0  0.20112467312E+02  0.42232257357E+01  0.35083023897E+02  0.50528861510E+02  0.30000005046E+02 0.  0.
        -12    1    1    2    0    0 -0.20112467312E+02 -0.42232257357E+01 -0.35083023897E+02  0.40659138490E+02  0.00000000000E+00 0.  1.
         11    1    3    3    0    0  0.22249956342E+02  0.28738684209E+01  0.13334226883E+02  0.26098300400E+02  0.51100000000E-03 0. -1.
        -11    1    3    3    0    0 -0.45905644665E-01  0.27413367234E+01  0.21745968921E+02  0.21918124895E+02  0.51100000000E-03 0.  1.
         12    1    3    3    0    0 -0.20915833861E+01 -0.13919794087E+01  0.28280935022E-02  0.25124362148E+01  0.00000000000E+00 0. -1.
</event>
<event>
 7    1  0.5714431E-011  0.5052886E+02  0.7816164E-02  0.1300439E+00
        -11   -1    0    0    0    0  0.00000000000E+00  0.00000000000E+00  0.45593999997E+02  0.45594000000E+02  0.51100000000E-03 0.  1.
         11   -1    0    0    0    0 -0.00000000000E+00 -0.00000000000E+00 -0.45593999997E+02  0.45594000000E+02  0.51100000000E-03 0. -1.
    9900012    2    1    2    0    0 -0.77553505755E+01  0.39512428166E+02 -0.56381142883E+01  0.50528858656E+02  0.29999996370E+02 0.  0.
        -12    1    1    2    0    0  0.77553505755E+01 -0.39512428166E+02  0.56381142883E+01  0.40659141344E+02  0.00000000000E+00 0.  1.
         11    1    3    3    0    0  0.17646941680E+01  0.16813418119E+02 -0.16474067212E+02  0.23605085578E+02  0.51100000000E-03 0. -1.
        -11    1    3    3    0    0 -0.67448015589E+01  0.17469883445E+02  0.82898684834E+01  0.20479528691E+02  0.51100000000E-03 0.  1.
        -12    1    3    3    0    0 -0.27752431846E+01  0.52291266015E+01  0.25460844404E+01  0.64442443875E+01  0.00000000000E+00 0.  1.
</event>
<event>
 7    1  0.5714431E-011  0.5052886E+02  0.7816164E-02  0.1300439E+00
        -11   -1    0    0    0    0  0.00000000000E+00  0.00000000000E+00  0.45593999997E+02  0.45594000000E+02  0.51100000000E-03 0.  1.
         11   -1    0    0    0    0 -0.00000000000E+00 -0.00000000000E+00 -0.45593999997E+02  0.45594000000E+02  0.51100000000E-03 0. -1.
    9900012    2    1    2    0    0  0.33682027805E+01 -0.38418636046E+02 -0.12877470075E+02  0.50528860546E+02  0.30000002115E+02 0.  0.
        -12    1    1    2    0    0 -0.33682027805E+01  0.38418636046E+02  0.12877470075E+02  0.40659139454E+02  0.00000000000E+00 0.  1.
         11    1    3    3    0    0  0.46544024053E+01 -0.17442610271E+02 -0.14123525923E+02  0.22921215055E+02  0.51100000000E-03 0. -1.
        -11    1    3    3    0    0 -0.12728116049E+01 -0.24255874697E+02  0.13428808623E+01  0.24326340374E+02  0.51100000000E-03 0.  1.
        -12    1    3    3    0    0 -0.13388019829E-01  0.32798489221E+01 -0.96825014122E-01  0.32813051176E+01  0.00000000000E+00 0.  1.
</event>
<event>
 7    1  0.5714431E-011  0.5052874E+02  0.7816164E-02  0.1300439E+00
        -11   -1    0    0    0    0  0.00000000000E+00  0.00000000000E+00  0.45593999997E+02  0.45594000000E+02  0.51100000000E-03 0.  1.
         11   -1    0    0    0    0 -0.00000000000E+00 -0.00000000000E+00 -0.45593999997E+02  0.45594000000E+02  0.51100000000E-03 0. -1.
    9900012    2    1    2    0    0  0.19478249349E+02 -0.10771378429E+02 -0.34025731816E+02  0.50528742547E+02  0.29999643444E+02 0.  0.
        -12    1    1    2    0    0 -0.19478249349E+02  0.10771378429E+02  0.34025731816E+02  0.40659257453E+02  0.00000000000E+00 0.  1.
         11    1    3    3    0    0 -0.29940637554E+01 -0.80654654897E+01 -0.21881355327E+02  0.23511908951E+02  0.51100000000E-03 0. -1.
        -11    1    3    3    0    0  0.95395695668E+01 -0.14151348522E+00 -0.71396290035E+00  0.95672962152E+01  0.51100000000E-03 0.  1.
         12    1    3    3    0    0  0.12932743538E+02 -0.25643994544E+01 -0.11430413589E+02  0.17449537381E+02  0.00000000000E+00 0. -1.
</event>
<event>
 7    1  0.5714431E-011  0.5052886E+02  0.7816164E-02  0.1300439E+00
        -11   -1    0    0    0    0  0.00000000000E+00  0.00000000000E+00  0.45593999997E+02  0.45594000000E+02  0.51100000000E-03 0.  1.
         11   -1    0    0    0    0 -0.00000000000E+00 -0.00000000000E+00 -0.45593999997E+02  0.45594000000E+02  0.51100000000E-03 0. -1.
    9900012    2    1    2    0    0  0.38597378356E+02  0.93995788242E+01 -0.86634900902E+01  0.50528858856E+02  0.29999996978E+02 0.  0.
        -12    1    1    2    0    0 -0.38597378356E+02 -0.93995788242E+01  0.86634900902E+01  0.40659141144E+02  0.00000000000E+00 0.  1.
         11    1    3    3    0    0  0.10432444730E+02  0.81979053801E+01 -0.12360448504E+02  0.18133456459E+02  0.51100000000E-03 0. -1.
        -11    1    3    3    0    0  0.10403935247E+02  0.59498362953E+01  0.67556856324E+01  0.13757968934E+02  0.51100000000E-03 0.  1.
         12    1    3    3    0    0  0.17760998379E+02 -0.47481628512E+01 -0.30587272188E+01  0.18637433463E+02  0.00000000000E+00 0. -1.
</event>
<event>
 7    1  0.9490768E-011  0.5052885E+02  0.7816164E-02  0.1300439E+00
        -11   -1    0    0    0    0  0.00000000000E+00  0.00000000000E+00  0.45593999997E+02  0.45594000000E+02  0.51100000000E-03 0.  1.
         11   -1    0    0    0    0 -0.00000000000E+00 -0.00000000000E+00 -0.45593999997E+02  0.45594000000E+02  0.51100000000E-03 0. -1.
    9900012    2    1    2    0    0  0.20931626318E+02  0.12030899569E+02 -0.32715303433E+02  0.50528848466E+02  0.29999965397E+02 0.  0.
        -12    1    1    2    0    0 -0.20931626318E+02 -0.12030899569E+02  0.32715303433E+02  0.40659151534E+02  0.00000000000E+00 0.  1.
         11    1    3    3    0    0 -0.45424717128E+00  0.11149770288E+02 -0.15143693203E+02  0.18811038304E+02  0.51100000000E-03 0. -1.
        -11    1    3    3    0    0  0.54643833785E+01 -0.43565421355E+01  0.57860539837E+00  0.70123982741E+01  0.51100000000E-03 0.  1.
         12    1    3    3    0    0  0.15921490111E+02  0.52376714166E+01 -0.18150215628E+02  0.24705411888E+02  0.00000000000E+00 0. -1.
</event>
<event>
 7    1  0.5714431E-011  0.5052887E+02  0.7816164E-02  0.1300439E+00
        -11   -1    0    0    0    0  0.00000000000E+00  0.00000000000E+00  0.45593999997E+02  0.45594000000E+02  0.51100000000E-03 0.  1.
         11   -1    0    0    0    0 -0.00000000000E+00 -0.00000000000E+00 -0.45593999997E+02  0.45594000000E+02  0.51100000000E-03 0. -1.
    9900012    2    1    2    0    0  0.24812633713E+02  0.80333186798E+01 -0.31192371774E+02  0.50528867475E+02  0.30000023177E+02 0.  0.
        -12    1    1    2    0    0 -0.24812633713E+02 -0.80333186798E+01  0.31192371774E+02  0.40659132525E+02  0.00000000000E+00 0.  1.
         11    1    3    3    0    0  0.53619339504E+01 -0.25181726966E+01 -0.93295743852E+01  0.11051356835E+02  0.51100000000E-03 0. -1.
        -11    1    3    3    0    0  0.18172461861E+02  0.32785645760E+01 -0.23507372986E+01  0.18614868302E+02  0.51100000000E-03 0.  1.
        -12    1    3    3    0    0  0.12782379012E+01  0.72729268004E+01 -0.19512060091E+02  0.20862642339E+02  0.00000000000E+00 0.  1.
</event>
<event>
 7    1  0.5714431E-011  0.5052887E+02  0.7816164E-02  0.1300439E+00
        -11   -1    0    0    0    0  0.00000000000E+00  0.00000000000E+00  0.45593999997E+02  0.45594000000E+02  0.51100000000E-03 0. -1.
         11   -1    0    0    0    0 -0.00000000000E+00 -0.00000000000E+00 -0.45593999997E+02  0.45594000000E+02  0.51100000000E-03 0.  1.
    9900012    2    1    2    0    0 -0.31170549299E+02  0.74134941741E+01  0.25032020642E+02  0.50528866993E+02  0.30000021711E+02 0.  0.
        -12    1    1    2    0    0  0.31170549299E+02 -0.74134941741E+01 -0.25032020642E+02  0.40659133007E+02  0.00000000000E+00 0.  1.
         11    1    3    3    0    0 -0.11288433971E+02  0.11835918854E+02  0.15394451928E+02  0.22461230310E+02  0.51100000000E-03 0. -1.
        -11    1    3    3    0    0  0.22014937466E+01 -0.10013698619E+00 -0.17812088810E+01  0.28336032663E+01  0.51100000000E-03 0.  1.
         12    1    3    3    0    0 -0.22083609075E+02 -0.43222876937E+01  0.11418777595E+02  0.25234033416E+02  0.00000000000E+00 0. -1.
</event>
<event>
 7    1  0.5714431E-011  0.5052886E+02  0.7816164E-02  0.1300439E+00
        -11   -1    0    0    0    0  0.00000000000E+00  0.00000000000E+00  0.45593999997E+02  0.45594000000E+02  0.51100000000E-03 0. -1.
         11   -1    0    0    0    0 -0.00000000000E+00 -0.00000000000E+00 -0.45593999997E+02  0.45594000000E+02  0.51100000000E-03 0.  1.
    9900012    2    1    2    0    0 -0.35908741418E+02  0.15495320364E+02  0.11118592686E+02  0.50528858756E+02  0.29999996674E+02 0.  0.
        -12    1    1    2    0    0  0.35908741418E+02 -0.15495320364E+02 -0.11118592686E+02  0.40659141244E+02  0.00000000000E+00 0.  1.
         11    1    3    3    0    0 -0.35882952391E+01 -0.51635248379E+01  0.62228403335E+01  0.88465582885E+01  0.51100000000E-03 0. -1.
        -11    1    3    3    0    0 -0.31674133856E+02  0.16982870184E+02  0.80097069990E+01  0.36821516015E+02  0.51100000000E-03 0.  1.
         12    1    3    3    0    0 -0.64631232315E+00  0.36759750177E+01 -0.31139546461E+01  0.48607844519E+01  0.00000000000E+00 0. -1.
</event>
<event>
 7    1  0.5714431E-011  0.5052886E+02  0.7816164E-02  0.1300439E+00
        -11   -1    0    0    0    0  0.00000000000E+00  0.00000000000E+00  0.45593999997E+02  0.45594000000E+02  0.51100000000E-03 0. -1.
         11   -1    0    0    0    0 -0.00000000000E+00 -0.00000000000E+00 -0.45593999997E+02  0.45594000000E+02  0.51100000000E-03 0.  1.
    9900012    2    1    2    0    0  0.73153663218E+01  0.34675923986E+02  0.19930670951E+02  0.50528856708E+02  0.29999990451E+02 0.  0.
        -12    1    1    2    0    0 -0.73153663218E+01 -0.34675923986E+02 -0.19930670951E+02  0.40659143292E+02  0.00000000000E+00 0.  1.
         11    1    3    3    0    0  0.33787010383E+01  0.35681254062E+02  0.15057992323E+02  0.38875579034E+02  0.51100000000E-03 0. -1.
        -11    1    3    3    0    0  0.40838393763E+01 -0.20323380777E+01 -0.17974408732E+01  0.49029517709E+01  0.51100000000E-03 0.  1.
         12    1    3    3    0    0 -0.14717409290E+00  0.10270080009E+01  0.66701195011E+01  0.67503259038E+01  0.00000000000E+00 0. -1.
</event>
<event>
 7    1  0.5714431E-011  0.5052886E+02  0.7816164E-02  0.1300439E+00
        -11   -1    0    0    0    0  0.00000000000E+00  0.00000000000E+00  0.45593999997E+02  0.45594000000E+02  0.51100000000E-03 0. -1.
         11   -1    0    0    0    0 -0.00000000000E+00 -0.00000000000E+00 -0.45593999997E+02  0.45594000000E+02  0.51100000000E-03 0.  1.
    9900012    2    1    2    0    0 -0.68081137781E+01  0.10072787241E+01  0.40072443894E+02  0.50528858552E+02  0.29999996054E+02 0.  0.
        -12    1    1    2    0    0  0.68081137781E+01 -0.10072787241E+01 -0.40072443894E+02  0.40659141448E+02  0.00000000000E+00 0.  1.
         11    1    3    3    0    0 -0.69739608886E+01  0.52334365454E+00  0.34184141990E+02  0.34892199457E+02  0.51100000000E-03 0. -1.
        -11    1    3    3    0    0  0.27112246271E+01 -0.59920024382E+01  0.56562799633E+01  0.86745798448E+01  0.51100000000E-03 0.  1.
         12    1    3    3    0    0 -0.25453775166E+01  0.64759375078E+01  0.23202194048E+00  0.69620792503E+01  0.00000000000E+00 0. -1.
</event>
<event>
 7    1  0.5714431E-011  0.5052885E+02  0.7816164E-02  0.1300439E+00
        -11   -1    0    0    0    0  0.00000000000E+00  0.00000000000E+00  0.45593999997E+02  0.45594000000E+02  0.51100000000E-03 0. -1.
         11   -1    0    0    0    0 -0.00000000000E+00 -0.00000000000E+00 -0.45593999997E+02  0.45594000000E+02  0.51100000000E-03 0.  1.
    9900012    2    1    2    0    0 -0.35640977957E+02  0.84076297169E+01 -0.17669143700E+02  0.50528853597E+02  0.29999980992E+02 0.  0.
        -12    1    1    2    0    0  0.35640977957E+02 -0.84076297169E+01  0.17669143700E+02  0.40659146403E+02  0.00000000000E+00 0.  1.
         11    1    3    3    0    0 -0.76682170711E+01  0.11042888995E+02 -0.12062104286E+02  0.18062151325E+02  0.51100000000E-03 0. -1.
        -11    1    3    3    0    0 -0.20356004400E+02 -0.88026823665E+01 -0.38078994717E+01  0.22502316117E+02  0.51100000000E-03 0.  1.
         12    1    3    3    0    0 -0.76167564862E+01  0.61674230884E+01 -0.17991399418E+01  0.99643861553E+01  0.00000000000E+00 0. -1.
</event>
<event>
 7    1  0.5714431E-011  0.5052885E+02  0.7816164E-02  0.1300439E+00
        -11   -1    0    0    0    0  0.00000000000E+00  0.00000000000E+00  0.45593999997E+02  0.45594000000E+02  0.51100000000E-03 0.  1.
         11   -1    0    0    0    0 -0.00000000000E+00 -0.00000000000E+00 -0.45593999997E+02  0.45594000000E+02  0.51100000000E-03 0. -1.
    9900012    2    1    2    0    0  0.32140465265E+02 -0.22501982108E+02 -0.10668528142E+02  0.50528853440E+02  0.29999980516E+02 0.  0.
        -12    1    1    2    0    0 -0.32140465265E+02  0.22501982108E+02  0.10668528142E+02  0.40659146560E+02  0.00000000000E+00 0.  1.
         11    1    3    3    0    0 -0.39029547882E+01 -0.19860260847E+01 -0.34236669766E+00  0.43925585830E+01  0.51100000000E-03 0.  1.
        -11    1    3    3    0    0  0.19899332601E+02 -0.11146646976E+02 -0.14476158613E+02  0.27014632058E+02  0.51100000000E-03 0. -1.
         12    1    3    3    0    0  0.16144087453E+02 -0.93693090472E+01  0.41499971685E+01  0.19121662799E+02  0.00000000000E+00 0. -1.
</event>
<event>
 7    1  0.5714431E-011  0.5052886E+02  0.7816164E-02  0.1300439E+00
        -11   -1    0    0    0    0  0.00000000000E+00  0.00000000000E+00  0.45593999997E+02  0.45594000000E+02  0.51100000000E-03 0.  1.
         11   -1    0    0    0    0 -0.00000000000E+00 -0.00000000000E+00 -0.45593999997E+02  0.45594000000E+02  0.51100000000E-03 0. -1.
    9900012    2    1    2    0    0 -0.22162449688E+02 -0.27739652951E+02 -0.19811693537E+02  0.50528859296E+02  0.29999998315E+02 0.  0.
        -12    1    1    2    0    0  0.22162449688E+02  0.27739652951E+02  0.19811693537E+02  0.40659140704E+02  0.00000000000E+00 0.  1.
         11    1    3    3    0    0 -0.14101282322E+02 -0.21612191135E+01 -0.14064281055E+02  0.20032998604E+02  0.51100000000E-03 0. -1.
        -11    1    3    3    0    0 -0.10891366031E+02 -0.24682284923E+02 -0.50661713239E+01  0.27450011570E+02  0.51100000000E-03 0.  1.
        -12    1    3    3    0    0  0.28301986649E+01 -0.89614891375E+00 -0.68124115809E+00  0.30458491220E+01  0.00000000000E+00 0.  1.
</event>
<event>
 7    1  0.5714431E-011  0.5052884E+02  0.7816164E-02  0.1300439E+00
        -11   -1    0    0    0    0  0.00000000000E+00  0.00000000000E+00  0.45593999997E+02  0.45594000000E+02  0.51100000000E-03 0.  1.
         11   -1    0    0    0    0 -0.00000000000E+00 -0.00000000000E+00 -0.45593999997E+02  0.45594000000E+02  0.51100000000E-03 0. -1.
    9900012    2    1    2    0    0  0.18213794976E+02 -0.25144008726E+02 -0.26252693204E+02  0.50528838638E+02  0.29999935523E+02 0.  0.
        -12    1    1    2    0    0 -0.18213794976E+02  0.25144008726E+02  0.26252693204E+02  0.40659161362E+02  0.00000000000E+00 0.  1.
         11    1    3    3    0    0  0.21046218631E+01 -0.21167998691E+02 -0.23338780628E+02  0.31578668167E+02  0.51100000000E-03 0. -1.
        -11    1    3    3    0    0  0.14302507325E+01  0.20109419338E+01  0.93133200229E+00  0.26375906010E+01  0.51100000000E-03 0.  1.
         12    1    3    3    0    0  0.14678922380E+02 -0.59869519689E+01 -0.38452445786E+01  0.16312579869E+02  0.00000000000E+00 0. -1.
</event>
<event>
 7    1  0.5714431E-011  0.5052886E+02  0.7816164E-02  0.1300439E+00
        -11   -1    0    0    0    0  0.00000000000E+00  0.00000000000E+00  0.45593999997E+02  0.45594000000E+02  0.51100000000E-03 0. -1.
         11   -1    0    0    0    0 -0.00000000000E+00 -0.00000000000E+00 -0.45593999997E+02  0.45594000000E+02  0.51100000000E-03 0.  1.
    9900012    2    1    2    0    0  0.24352601821E+02 -0.22056635898E+02  0.23950398942E+02  0.50528855739E+02  0.29999987503E+02 0.  0.
        -12    1    1    2    0    0 -0.24352601821E+02  0.22056635898E+02 -0.23950398942E+02  0.40659144261E+02  0.00000000000E+00 0.  1.
         11    1    3    3    0    0  0.18934740072E+01 -0.93472779926E+01 -0.29675423971E+01  0.99881508712E+01  0.51100000000E-03 0. -1.
        -11    1    3    3    0    0  0.19345829233E+02 -0.49671604010E+01  0.24962978244E+02  0.31970049644E+02  0.51100000000E-03 0.  1.
        -12    1    3    3    0    0  0.31132985804E+01 -0.77421975049E+01  0.19549630946E+01  0.85706552233E+01  0.00000000000E+00 0.  1.
</event>
<event>
 7    1  0.8982446E-011  0.5052885E+02  0.7816164E-02  0.1300439E+00
        -11   -1    0    0    0    0  0.00000000000E+00  0.00000000000E+00  0.45593999997E+02  0.45594000000E+02  0.51100000000E-03 0. -1.
         11   -1    0    0    0    0 -0.00000000000E+00 -0.00000000000E+00 -0.45593999997E+02  0.45594000000E+02  0.51100000000E-03 0.  1.
    9900012    2    1    2    0    0  0.26777413539E+02  0.27543739082E+02  0.13322115530E+02  0.50528853420E+02  0.29999980454E+02 0.  0.
        -12    1    1    2    0    0 -0.26777413539E+02 -0.27543739082E+02 -0.13322115530E+02  0.40659146580E+02  0.00000000000E+00 0.  1.
         11    1    3    3    0    0  0.25115342439E+02  0.10571999074E+02  0.15201514231E+02  0.31203102818E+02  0.51100000000E-03 0. -1.
        -11    1    3    3    0    0 -0.21527450750E+01  0.59000740610E+00  0.63049531056E+00  0.23194707791E+01  0.51100000000E-03 0.  1.
         12    1    3    3    0    0  0.38148161749E+01  0.16381732601E+02 -0.25098940113E+01  0.17006279823E+02  0.00000000000E+00 0. -1.
</event>
<event>
 7    1  0.5714431E-011  0.5052886E+02  0.7816164E-02  0.1300439E+00
        -11   -1    0    0    0    0  0.00000000000E+00  0.00000000000E+00  0.45593999997E+02  0.45594000000E+02  0.51100000000E-03 0.  1.
         11   -1    0    0    0    0 -0.00000000000E+00 -0.00000000000E+00 -0.45593999997E+02  0.45594000000E+02  0.51100000000E-03 0. -1.
    9900012    2    1    2    0    0  0.32536057479E+02  0.17723978757E+02 -0.16746088697E+02  0.50528856552E+02  0.29999989975E+02 0.  0.
        -12    1    1    2    0    0 -0.32536057479E+02 -0.17723978757E+02  0.16746088697E+02  0.40659143448E+02  0.00000000000E+00 0.  1.
         11    1    3    3    0    0  0.31640393713E+02  0.78042025721E+01 -0.88704912488E+01  0.33774335040E+02  0.51100000000E-03 0. -1.
        -11    1    3    3    0    0  0.30624076774E+01  0.11109224268E+02 -0.40790100689E+01  0.12224218912E+02  0.51100000000E-03 0.  1.
         12    1    3    3    0    0 -0.21667439110E+01 -0.11894480826E+01 -0.37965873795E+01  0.45303026000E+01  0.00000000000E+00 0. -1.
</event>
<event>
 7    1  0.5714431E-011  0.5052886E+02  0.7816164E-02  0.1300439E+00
        -11   -1    0    0    0    0  0.00000000000E+00  0.00000000000E+00  0.45593999997E+02  0.45594000000E+02  0.51100000000E-03 0. -1.
         11   -1    0    0    0    0 -0.00000000000E+00 -0.00000000000E+00 -0.45593999997E+02  0.45594000000E+02  0.51100000000E-03 0.  1.
    9900012    2    1    2    0    0 -0.93947159408E+01  0.31020006337E+02  0.24549214299E+02  0.50528863223E+02  0.30000010251E+02 0.  0.
        -12    1    1    2    0    0  0.93947159408E+01 -0.31020006337E+02 -0.24549214299E+02  0.40659136777E+02  0.00000000000E+00 0.  1.
         11    1    3    3    0    0 -0.18099493932E+02  0.15723894363E+02  0.20462694837E+02  0.31520698196E+02  0.51100000000E-03 0. -1.
        -11    1    3    3    0    0  0.26525155451E+01  0.10530015782E+02  0.24935907221E+01  0.11141591719E+02  0.51100000000E-03 0.  1.
         12    1    3    3    0    0  0.60522624458E+01  0.47660961927E+01  0.15929287398E+01  0.78665733074E+01  0.00000000000E+00 0. -1.
</event>
<event>
 7    1  0.5714431E-011  0.5052886E+02  0.7816164E-02  0.1300439E+00
        -11   -1    0    0    0    0  0.00000000000E+00  0.00000000000E+00  0.45593999997E+02  0.45594000000E+02  0.51100000000E-03 0.  1.
         11   -1    0    0    0    0 -0.00000000000E+00 -0.00000000000E+00 -0.45593999997E+02  0.45594000000E+02  0.51100000000E-03 0. -1.
    9900012    2    1    2    0    0 -0.84657753431E+01 -0.81067526369E+01 -0.38932980212E+02  0.50528859101E+02  0.29999997724E+02 0.  0.
        -12    1    1    2    0    0  0.84657753431E+01  0.81067526369E+01  0.38932980212E+02  0.40659140899E+02  0.00000000000E+00 0.  1.
         11    1    3    3    0    0 -0.73025484226E+01 -0.11807981205E+02 -0.24082612665E+02  0.27797983139E+02  0.51100000000E-03 0. -1.
        -11    1    3    3    0    0  0.36980078183E+01  0.36167354790E+01 -0.16735186499E+02  0.17516349641E+02  0.51100000000E-03 0.  1.
        -12    1    3    3    0    0 -0.48612347388E+01  0.84493089425E-01  0.18848189515E+01  0.52145263205E+01  0.00000000000E+00 0.  1.
</event>
<event>
 7    1  0.5714431E-011  0.5052884E+02  0.7816164E-02  0.1300439E+00
        -11   -1    0    0    0    0  0.00000000000E+00  0.00000000000E+00  0.45593999997E+02  0.45594000000E+02  0.51100000000E-03 0.  1.
         11   -1    0    0    0    0 -0.00000000000E+00 -0.00000000000E+00 -0.45593999997E+02  0.45594000000E+02  0.51100000000E-03 0. -1.
    9900012    2    1    2    0    0  0.24502318927E+02 -0.13559388279E+02 -0.29477903501E+02  0.50528838202E+02  0.29999934199E+02 0.  0.
        -12    1    1    2    0    0 -0.24502318927E+02  0.13559388279E+02  0.29477903501E+02  0.40659161798E+02  0.00000000000E+00 0.  1.
         11    1    3    3    0    0  0.84575835850E+01 -0.19802669397E+02 -0.24473912848E+02  0.32598295134E+02  0.51100000000E-03 0. -1.
        -11    1    3    3    0    0  0.34254548728E+01  0.14316281819E+01 -0.10995421737E+01  0.38719883250E+01  0.51100000000E-03 0.  1.
         12    1    3    3    0    0  0.12619280469E+02  0.48116529357E+01 -0.39044484799E+01  0.14058554743E+02  0.00000000000E+00 0. -1.
</event>
<event>
 7    1  0.5714431E-011  0.5052887E+02  0.7816164E-02  0.1300439E+00
        -11   -1    0    0    0    0  0.00000000000E+00  0.00000000000E+00  0.45593999997E+02  0.45594000000E+02  0.51100000000E-03 0.  1.
         11   -1    0    0    0    0 -0.00000000000E+00 -0.00000000000E+00 -0.45593999997E+02  0.45594000000E+02  0.51100000000E-03 0. -1.
    9900012    2    1    2    0    0  0.16144152062E+02  0.10636592306E+02 -0.35768624743E+02  0.50528865015E+02  0.30000015701E+02 0.  0.
        -12    1    1    2    0    0 -0.16144152062E+02 -0.10636592306E+02  0.35768624743E+02  0.40659134985E+02  0.00000000000E+00 0.  1.
         11    1    3    3    0    0  0.18842505890E+02  0.15701863288E+00 -0.11608651616E+02  0.22132001168E+02  0.51100000000E-03 0. -1.
        -11    1    3    3    0    0 -0.32906352652E+01 -0.20232486348E+00 -0.10738825340E+02  0.11233502826E+02  0.51100000000E-03 0.  1.
         12    1    3    3    0    0  0.59228143706E+00  0.10681898537E+02 -0.13421147787E+02  0.17163361022E+02  0.00000000000E+00 0. -1.
</event>
<event>
 7    1  0.5714431E-011  0.5052886E+02  0.7816164E-02  0.1300439E+00
        -11   -1    0    0    0    0  0.00000000000E+00  0.00000000000E+00  0.45593999997E+02  0.45594000000E+02  0.51100000000E-03 0. -1.
         11   -1    0    0    0    0 -0.00000000000E+00 -0.00000000000E+00 -0.45593999997E+02  0.45594000000E+02  0.51100000000E-03 0.  1.
    9900012    2    1    2    0    0  0.30424167288E+02  0.83661048665E+01 -0.25642613879E+02  0.50528864344E+02  0.30000013659E+02 0.  0.
        -12    1    1    2    0    0 -0.30424167288E+02 -0.83661048665E+01  0.25642613879E+02  0.40659135656E+02  0.00000000000E+00 0.  1.
         11    1    3    3    0    0  0.30461858599E+02  0.10290114867E+02 -0.19933185518E+02  0.37830453056E+02  0.51100000000E-03 0. -1.
        -11    1    3    3    0    0  0.11412139327E+01 -0.48300872936E+01 -0.75700169992E+01  0.90519207980E+01  0.51100000000E-03 0.  1.
         12    1    3    3    0    0 -0.11789052441E+01  0.29060772928E+01  0.18605886387E+01  0.36464904893E+01  0.00000000000E+00 0. -1.
</event>
<event>
 7    1  0.5714431E-011  0.5052886E+02  0.7816164E-02  0.1300439E+00
        -11   -1    0    0    0    0  0.00000000000E+00  0.00000000000E+00  0.45593999997E+02  0.45594000000E+02  0.51100000000E-03 0.  1.
         11   -1    0    0    0    0 -0.00000000000E+00 -0.00000000000E+00 -0.45593999997E+02  0.45594000000E+02  0.51100000000E-03 0. -1.
    9900012    2    1    2    0    0 -0.35256393223E+01 -0.35489901892E+02 -0.19524409357E+02  0.50528857982E+02  0.29999994321E+02 0.  0.
        -12    1    1    2    0    0  0.35256393223E+01  0.35489901892E+02  0.19524409357E+02  0.40659142018E+02  0.00000000000E+00 0.  1.
         11    1    3    3    0    0  0.56829437400E+01 -0.70449661635E+01  0.39763527426E+01  0.98862924897E+01  0.51100000000E-03 0.  1.
        -11    1    3    3    0    0 -0.12377322330E+02 -0.25271927430E+02 -0.17450852586E+02  0.33111941658E+02  0.51100000000E-03 0. -1.
        -12    1    3    3    0    0  0.31687392679E+01 -0.31730082979E+01 -0.60499095142E+01  0.75306238345E+01  0.00000000000E+00 0.  1.
</event>
<event>
 7    1  0.5714431E-011  0.5052885E+02  0.7816164E-02  0.1300439E+00
        -11   -1    0    0    0    0  0.00000000000E+00  0.00000000000E+00  0.45593999997E+02  0.45594000000E+02  0.51100000000E-03 0.  1.
         11   -1    0    0    0    0 -0.00000000000E+00 -0.00000000000E+00 -0.45593999997E+02  0.45594000000E+02  0.51100000000E-03 0. -1.
    9900012    2    1    2    0    0  0.10804952123E+02  0.11380696281E+02 -0.37508652932E+02  0.50528852407E+02  0.29999977377E+02 0.  0.
        -12    1    1    2    0    0 -0.10804952123E+02 -0.11380696281E+02  0.37508652932E+02  0.40659147593E+02  0.00000000000E+00 0.  1.
         11    1    3    3    0    0  0.40588839695E+01 -0.27344651355E+01 -0.13057398870E+02  0.13944443487E+02  0.51100000000E-03 0. -1.
        -11    1    3    3    0    0  0.64485303748E+01  0.19701989527E+02 -0.14951948959E+02  0.25559982653E+02  0.51100000000E-03 0.  1.
        -12    1    3    3    0    0  0.29753777878E+00 -0.55868281107E+01 -0.94993051030E+01  0.11024426267E+02  0.00000000000E+00 0.  1.
</event>
<event>
 7    1  0.5714431E-011  0.5052886E+02  0.7816164E-02  0.1300439E+00
        -11   -1    0    0    0    0  0.00000000000E+00  0.00000000000E+00  0.45593999997E+02  0.45594000000E+02  0.51100000000E-03 0. -1.
         11   -1    0    0    0    0 -0.00000000000E+00 -0.00000000000E+00 -0.45593999997E+02  0.45594000000E+02  0.51100000000E-03 0.  1.
    9900012    2    1    2    0    0  0.10584057877E+02 -0.13359113892E+02  0.36914463867E+02  0.50528857760E+02  0.29999993647E+02 0.  0.
        -12    1    1    2    0    0 -0.10584057877E+02  0.13359113892E+02 -0.36914463867E+02  0.40659142240E+02  0.00000000000E+00 0.  1.
         11    1    3    3    0    0  0.10590255397E+01 -0.69432277767E+01  0.20482434160E+02  0.21653176590E+02  0.51100000000E-03 0. -1.
        -11    1    3    3    0    0  0.52410734042E+01 -0.87144768253E+01 -0.15154207648E+01  0.10281413187E+02  0.51100000000E-03 0.  1.
        -12    1    3    3    0    0  0.42839589332E+01  0.22985907100E+01  0.17947450471E+02  0.18594267983E+02  0.00000000000E+00 0.  1.
</event>
<event>
 7    1  0.5714431E-011  0.5052887E+02  0.7816164E-02  0.1300439E+00
        -11   -1    0    0    0    0  0.00000000000E+00  0.00000000000E+00  0.45593999997E+02  0.45594000000E+02  0.51100000000E-03 0.  1.
         11   -1    0    0    0    0 -0.00000000000E+00 -0.00000000000E+00 -0.45593999997E+02  0.45594000000E+02  0.51100000000E-03 0. -1.
    9900012    2    1    2    0    0 -0.46685323419E+01  0.27948766989E+02 -0.29158812039E+02  0.50528867078E+02  0.30000021970E+02 0.  0.
        -12    1    1    2    0    0  0.46685323419E+01 -0.27948766989E+02  0.29158812039E+02  0.40659132922E+02  0.00000000000E+00 0.  1.
         11    1    3    3    0    0  0.80778558953E+01  0.16626546316E+02 -0.26639775210E+02  0.32424858084E+02  0.51100000000E-03 0. -1.
        -11    1    3    3    0    0 -0.11834560766E+02  0.85866786041E+01 -0.35420575709E+01  0.15044402616E+02  0.51100000000E-03 0.  1.
         12    1    3    3    0    0 -0.91182747112E+00  0.27355420692E+01  0.10230207421E+01  0.30596063780E+01  0.00000000000E+00 0. -1.
</event>
<event>
 7    1  0.5714431E-011  0.5052886E+02  0.7816164E-02  0.1300439E+00
        -11   -1    0    0    0    0  0.00000000000E+00  0.00000000000E+00  0.45593999997E+02  0.45594000000E+02  0.51100000000E-03 0.  1.
         11   -1    0    0    0    0 -0.00000000000E+00 -0.00000000000E+00 -0.45593999997E+02  0.45594000000E+02  0.51100000000E-03 0. -1.
    9900012    2    1    2    0    0 -0.22820611506E+02 -0.12808509984E+02 -0.31117962490E+02  0.50528858014E+02  0.29999994419E+02 0.  0.
        -12    1    1    2    0    0  0.22820611506E+02  0.12808509984E+02  0.31117962490E+02  0.40659141986E+02  0.00000000000E+00 0.  1.
         11    1    3    3    0    0 -0.13887068101E+02  0.15810324923E+01 -0.23448441181E+02  0.27297980114E+02  0.51100000000E-03 0. -1.
        -11    1    3    3    0    0 -0.12483710327E+01 -0.11045442978E+02 -0.95344738044E+01  0.14644672471E+02  0.51100000000E-03 0.  1.
         12    1    3    3    0    0 -0.76851723726E+01 -0.33440994990E+01  0.18649524961E+01  0.85862054289E+01  0.00000000000E+00 0. -1.
</event>
<event>
 7    1  0.5714431E-011  0.5052887E+02  0.7816164E-02  0.1300439E+00
        -11   -1    0    0    0    0  0.00000000000E+00  0.00000000000E+00  0.45593999997E+02  0.45594000000E+02  0.51100000000E-03 0.  1.
         11   -1    0    0    0    0 -0.00000000000E+00 -0.00000000000E+00 -0.45593999997E+02  0.45594000000E+02  0.51100000000E-03 0. -1.
    9900012    2    1    2    0    0  0.17391508991E+02  0.99394714773E+01 -0.35382299063E+02  0.50528871071E+02  0.30000034109E+02 0.  0.
        -12    1    1    2    0    0 -0.17391508991E+02 -0.99394714773E+01  0.35382299063E+02  0.40659128929E+02  0.00000000000E+00 0.  1.
         11    1    3    3    0    0  0.40738310155E+01  0.15720640817E+01 -0.30563230950E+02  0.30873590186E+02  0.51100000000E-03 0. -1.
        -11    1    3    3    0    0  0.90427600820E+01  0.43912886640E+00  0.71846650944E+00  0.90818796760E+01  0.51100000000E-03 0.  1.
        -12    1    3    3    0    0  0.42749178938E+01  0.79282785292E+01 -0.55375346222E+01  0.10573401209E+02  0.00000000000E+00 0.  1.
</event>
<event>
 7    1  0.5714431E-011  0.5052886E+02  0.7816164E-02  0.1300439E+00
        -11   -1    0    0    0    0  0.00000000000E+00  0.00000000000E+00  0.45593999997E+02  0.45594000000E+02  0.51100000000E-03 0.  1.
         11   -1    0    0    0    0 -0.00000000000E+00 -0.00000000000E+00 -0.45593999997E+02  0.45594000000E+02  0.51100000000E-03 0. -1.
    9900012    2    1    2    0    0 -0.35425865773E+02  0.31656272522E+01 -0.19701585716E+02  0.50528860297E+02  0.30000001359E+02 0.  0.
        -12    1    1    2    0    0  0.35425865773E+02 -0.31656272522E+01  0.19701585716E+02  0.40659139703E+02  0.00000000000E+00 0.  1.
         11    1    3    3    0    0 -0.20708728622E+02  0.93938147324E+01 -0.20460360045E+02  0.30589565701E+02  0.51100000000E-03 0. -1.
        -11    1    3    3    0    0 -0.16407955114E+02 -0.42786425760E+01 -0.70714228466E+00  0.16971382495E+02  0.51100000000E-03 0.  1.
        -12    1    3    3    0    0  0.16908179634E+01 -0.19495449041E+01  0.14659166137E+01  0.29679121006E+01  0.00000000000E+00 0.  1.
</event>
<event>
 7    1  0.5714431E-011  0.5052886E+02  0.7816164E-02  0.1300439E+00
        -11   -1    0    0    0    0  0.00000000000E+00  0.00000000000E+00  0.45593999997E+02  0.45594000000E+02  0.51100000000E-03 0. -1.
         11   -1    0    0    0    0 -0.00000000000E+00 -0.00000000000E+00 -0.45593999997E+02  0.45594000000E+02  0.51100000000E-03 0.  1.
    9900012    2    1    2    0    0 -0.39527757432E+02 -0.68641196308E+01  0.66034492177E+01  0.50528864649E+02  0.30000014587E+02 0.  0.
        -12    1    1    2    0    0  0.39527757432E+02  0.68641196308E+01 -0.66034492177E+01  0.40659135351E+02  0.00000000000E+00 0.  1.
         11    1    3    3    0    0 -0.31213110686E+02  0.59229350683E+01  0.10176137429E+02  0.33360054133E+02  0.51100000000E-03 0. -1.
        -11    1    3    3    0    0 -0.20575845512E+01 -0.27230346488E+01 -0.40653000562E+01  0.53080351065E+01  0.51100000000E-03 0.  1.
         12    1    3    3    0    0 -0.62570621944E+01 -0.10064020050E+02  0.49261184447E+00  0.11860775409E+02  0.00000000000E+00 0. -1.
</event>
<event>
 7    1  0.5714431E-011  0.5052886E+02  0.7816164E-02  0.1300439E+00
        -11   -1    0    0    0    0  0.00000000000E+00  0.00000000000E+00  0.45593999997E+02  0.45594000000E+02  0.51100000000E-03 0. -1.
         11   -1    0    0    0    0 -0.00000000000E+00 -0.00000000000E+00 -0.45593999997E+02  0.45594000000E+02  0.51100000000E-03 0.  1.
    9900012    2    1    2    0    0 -0.38910892319E+02 -0.97705450131E+01  0.66064132853E+01  0.50528858501E+02  0.29999995901E+02 0.  0.
        -12    1    1    2    0    0  0.38910892319E+02  0.97705450131E+01 -0.66064132853E+01  0.40659141499E+02  0.00000000000E+00 0.  1.
         11    1    3    3    0    0  0.25478929527E+01 -0.94845372339E+00  0.21466561805E+01  0.34640230921E+01  0.51100000000E-03 0.  1.
        -11    1    3    3    0    0 -0.38218430580E+02 -0.10317104427E+02 -0.20516699304E+01  0.39639632056E+02  0.51100000000E-03 0. -1.
         12    1    3    3    0    0 -0.32403546918E+01  0.14950131374E+01  0.65114270352E+01  0.74252033537E+01  0.00000000000E+00 0. -1.
</event>
<event>
 7    1  0.5714431E-011  0.5052886E+02  0.7816164E-02  0.1300439E+00
        -11   -1    0    0    0    0  0.00000000000E+00  0.00000000000E+00  0.45593999997E+02  0.45594000000E+02  0.51100000000E-03 0. -1.
         11   -1    0    0    0    0 -0.00000000000E+00 -0.00000000000E+00 -0.45593999997E+02  0.45594000000E+02  0.51100000000E-03 0.  1.
    9900012    2    1    2    0    0  0.12680821609E+02  0.33399528233E+02  0.19412214612E+02  0.50528858359E+02  0.29999995468E+02 0.  0.
        -12    1    1    2    0    0 -0.12680821609E+02 -0.33399528233E+02 -0.19412214612E+02  0.40659141641E+02  0.00000000000E+00 0.  1.
         11    1    3    3    0    0  0.77017077472E+01  0.34017794948E+01  0.97822708567E+01  0.12906635089E+02  0.51100000000E-03 0. -1.
        -11    1    3    3    0    0 -0.66001324124E+01  0.81956061050E+01 -0.13409496385E+01  0.10607914662E+02  0.51100000000E-03 0.  1.
        -12    1    3    3    0    0  0.11579246274E+02  0.21802142633E+02  0.10970893394E+02  0.27014308607E+02  0.00000000000E+00 0.  1.
</event>
<event>
 7    1  0.5714431E-011  0.5052885E+02  0.7816164E-02  0.1300439E+00
        -11   -1    0    0    0    0  0.00000000000E+00  0.00000000000E+00  0.45593999997E+02  0.45594000000E+02  0.51100000000E-03 0.  1.
         11   -1    0    0    0    0 -0.00000000000E+00 -0.00000000000E+00 -0.45593999997E+02  0.45594000000E+02  0.51100000000E-03 0. -1.
    9900012    2    1    2    0    0 -0.31357882273E+02  0.73683810861E+01 -0.24810417491E+02  0.50528848059E+02  0.29999964161E+02 0.  0.
        -12    1    1    2    0    0  0.31357882273E+02 -0.73683810861E+01  0.24810417491E+02  0.40659151941E+02  0.00000000000E+00 0.  1.
         11    1    3    3    0    0 -0.90978029663E+01 -0.15918382189E+01 -0.31577535299E+01  0.97609105797E+01  0.51100000000E-03 0. -1.
        -11    1    3    3    0    0 -0.35917368363E+01  0.61937311351E+00 -0.19916705606E+02  0.20247453148E+02  0.51100000000E-03 0.  1.
        -12    1    3    3    0    0 -0.18668342470E+02  0.83408461915E+01 -0.17359583551E+01  0.20520484331E+02  0.00000000000E+00 0.  1.
</event>
<event>
 7    1  0.5714431E-011  0.5052885E+02  0.7816164E-02  0.1300439E+00
        -11   -1    0    0    0    0  0.00000000000E+00  0.00000000000E+00  0.45593999997E+02  0.45594000000E+02  0.51100000000E-03 0.  1.
         11   -1    0    0    0    0 -0.00000000000E+00 -0.00000000000E+00 -0.45593999997E+02  0.45594000000E+02  0.51100000000E-03 0. -1.
    9900012    2    1    2    0    0 -0.29752209074E+02  0.11437460936E+02 -0.25241972486E+02  0.50528848110E+02  0.29999964317E+02 0.  0.
        -12    1    1    2    0    0  0.29752209074E+02 -0.11437460936E+02  0.25241972486E+02  0.40659151890E+02  0.00000000000E+00 0.  1.
         11    1    3    3    0    0 -0.18180619375E+02  0.56371775311E+01 -0.45852720656E+01  0.19579004356E+02  0.51100000000E-03 0. -1.
        -11    1    3    3    0    0 -0.29099625374E+01  0.11631831617E+02 -0.14548312153E+02  0.18852606597E+02  0.51100000000E-03 0.  1.
        -12    1    3    3    0    0 -0.86616271611E+01 -0.58315482127E+01 -0.61083882670E+01  0.12097237158E+02  0.00000000000E+00 0.  1.
</event>
<event>
 7    1  0.5714431E-011  0.5052886E+02  0.7816164E-02  0.1300439E+00
        -11   -1    0    0    0    0  0.00000000000E+00  0.00000000000E+00  0.45593999997E+02  0.45594000000E+02  0.51100000000E-03 0. -1.
         11   -1    0    0    0    0 -0.00000000000E+00 -0.00000000000E+00 -0.45593999997E+02  0.45594000000E+02  0.51100000000E-03 0.  1.
    9900012    2    1    2    0    0 -0.12301505011E+02  0.41534272301E+01  0.38530352712E+02  0.50528855107E+02  0.29999985583E+02 0.  0.
        -12    1    1    2    0    0  0.12301505011E+02 -0.41534272301E+01 -0.38530352712E+02  0.40659144893E+02  0.00000000000E+00 0.  1.
         11    1    3    3    0    0 -0.17973414791E+01 -0.11123344916E+02  0.24400328350E+02  0.26876295548E+02  0.51100000000E-03 0. -1.
        -11    1    3    3    0    0 -0.18944747048E+01  0.52691846929E+01  0.56937115157E+01  0.79857180529E+01  0.51100000000E-03 0.  1.
         12    1    3    3    0    0 -0.86096888276E+01  0.10007587453E+02  0.84363128464E+01  0.15666841506E+02  0.00000000000E+00 0. -1.
</event>
<event>
 7    1  0.5714431E-011  0.5052886E+02  0.7816164E-02  0.1300439E+00
        -11   -1    0    0    0    0  0.00000000000E+00  0.00000000000E+00  0.45593999997E+02  0.45594000000E+02  0.51100000000E-03 0.  1.
         11   -1    0    0    0    0 -0.00000000000E+00 -0.00000000000E+00 -0.45593999997E+02  0.45594000000E+02  0.51100000000E-03 0. -1.
    9900012    2    1    2    0    0  0.11349221645E+02  0.38689152569E+02 -0.52450413195E+01  0.50528858139E+02  0.29999994798E+02 0.  0.
        -12    1    1    2    0    0 -0.11349221645E+02 -0.38689152569E+02  0.52450413195E+01  0.40659141861E+02  0.00000000000E+00 0.  1.
         11    1    3    3    0    0 -0.46128838861E+01  0.19237528293E+02 -0.45378694958E+01  0.20296636480E+02  0.51100000000E-03 0. -1.
        -11    1    3    3    0    0  0.10144399525E+02  0.10094603611E+01  0.28150961083E+01  0.10576039821E+02  0.51100000000E-03 0.  1.
        -12    1    3    3    0    0  0.58177060061E+01  0.18442163915E+02 -0.35222679320E+01  0.19656181837E+02  0.00000000000E+00 0.  1.
</event>
<event>
 7    1  0.5714431E-011  0.5052895E+02  0.7816164E-02  0.1300438E+00
        -11   -1    0    0    0    0  0.00000000000E+00  0.00000000000E+00  0.45593999997E+02  0.45594000000E+02  0.51100000000E-03 0.  1.
         11   -1    0    0    0    0 -0.00000000000E+00 -0.00000000000E+00 -0.45593999997E+02  0.45594000000E+02  0.51100000000E-03 0. -1.
    9900012    2    1    2    0    0 -0.25916740099E+02 -0.21821062990E+02 -0.22479362924E+02  0.50528954698E+02  0.30000288299E+02 0.  0.
        -12    1    1    2    0    0  0.25916740099E+02  0.21821062990E+02  0.22479362924E+02  0.40659045302E+02  0.00000000000E+00 0.  1.
         11    1    3    3    0    0 -0.89716729951E+01 -0.11713343553E+02 -0.14627682937E+02  0.20776487718E+02  0.51100000000E-03 0. -1.
        -11    1    3    3    0    0 -0.39492924454E+01  0.37948177820E+01  0.44797558018E+01  0.70757165801E+01  0.51100000000E-03 0.  1.
        -12    1    3    3    0    0 -0.12995774658E+02 -0.13902537219E+02 -0.12331435789E+02  0.22676750400E+02  0.00000000000E+00 0.  1.
</event>
<event>
 7    1  0.5714431E-011  0.5052886E+02  0.7816164E-02  0.1300439E+00
        -11   -1    0    0    0    0  0.00000000000E+00  0.00000000000E+00  0.45593999997E+02  0.45594000000E+02  0.51100000000E-03 0.  1.
         11   -1    0    0    0    0 -0.00000000000E+00 -0.00000000000E+00 -0.45593999997E+02  0.45594000000E+02  0.51100000000E-03 0. -1.
    9900012    2    1    2    0    0 -0.22215106872E+02 -0.22592208263E+01 -0.33978678637E+02  0.50528860142E+02  0.30000000887E+02 0.  0.
        -12    1    1    2    0    0  0.22215106872E+02  0.22592208263E+01  0.33978678637E+02  0.40659139858E+02  0.00000000000E+00 0.  1.
         11    1    3    3    0    0 -0.99964685291E+01  0.98828816946E+01 -0.22416549484E+02  0.26459448684E+02  0.51100000000E-03 0. -1.
        -11    1    3    3    0    0 -0.11493218553E+02 -0.14508557723E+02 -0.11000145631E+02  0.21531268520E+02  0.51100000000E-03 0.  1.
         12    1    3    3    0    0 -0.72541979004E+00  0.23664552018E+01 -0.56198352159E+00  0.25381429377E+01  0.00000000000E+00 0. -1.
</event>
<event>
 7    1  0.5714431E-011  0.5052885E+02  0.7816164E-02  0.1300439E+00
        -11   -1    0    0    0    0  0.00000000000E+00  0.00000000000E+00  0.45593999997E+02  0.45594000000E+02  0.51100000000E-03 0.  1.
         11   -1    0    0    0    0 -0.00000000000E+00 -0.00000000000E+00 -0.45593999997E+02  0.45594000000E+02  0.51100000000E-03 0. -1.
    9900012    2    1    2    0    0 -0.15901396955E+01 -0.60648485562E+01 -0.40172816514E+02  0.50528854424E+02  0.29999983507E+02 0.  0.
        -12    1    1    2    0    0  0.15901396955E+01  0.60648485562E+01  0.40172816514E+02  0.40659145576E+02  0.00000000000E+00 0.  1.
         11    1    3    3    0    0 -0.32487431964E+01 -0.10433532481E+02 -0.21875206498E+02  0.24452762461E+02  0.51100000000E-03 0. -1.
        -11    1    3    3    0    0  0.33688409984E+00  0.81196921042E+01 -0.83859548423E+00  0.81698306843E+01  0.51100000000E-03 0.  1.
        -12    1    3    3    0    0  0.13217194011E+01 -0.37510081792E+01 -0.17459014533E+02  0.17906261279E+02  0.00000000000E+00 0.  1.
</event>
<event>
 7    1  0.5714431E-011  0.5052885E+02  0.7816164E-02  0.1300439E+00
        -11   -1    0    0    0    0  0.00000000000E+00  0.00000000000E+00  0.45593999997E+02  0.45594000000E+02  0.51100000000E-03 0.  1.
         11   -1    0    0    0    0 -0.00000000000E+00 -0.00000000000E+00 -0.45593999997E+02  0.45594000000E+02  0.51100000000E-03 0. -1.
    9900012    2    1    2    0    0  0.40855473135E+00  0.30104426865E+02 -0.27326228050E+02  0.50528853756E+02  0.29999981476E+02 0.  0.
        -12    1    1    2    0    0 -0.40855473135E+00 -0.30104426865E+02  0.27326228050E+02  0.40659146244E+02  0.00000000000E+00 0.  1.
         11    1    3    3    0    0 -0.21253680971E+01  0.78964704702E+01 -0.28456816064E+01  0.86584836722E+01  0.51100000000E-03 0. -1.
        -11    1    3    3    0    0  0.74226667171E+01  0.10483940975E+02 -0.26075803469E+02  0.29068135929E+02  0.51100000000E-03 0.  1.
        -12    1    3    3    0    0 -0.48887438887E+01  0.11724015420E+02  0.15952570249E+01  0.12802234155E+02  0.00000000000E+00 0.  1.
</event>
<event>
 7    1  0.5714431E-011  0.5052886E+02  0.7816164E-02  0.1300439E+00
        -11   -1    0    0    0    0  0.00000000000E+00  0.00000000000E+00  0.45593999997E+02  0.45594000000E+02  0.51100000000E-03 0.  1.
         11   -1    0    0    0    0 -0.00000000000E+00 -0.00000000000E+00 -0.45593999997E+02  0.45594000000E+02  0.51100000000E-03 0. -1.
    9900012    2    1    2    0    0 -0.25220379520E+02  0.21753340683E+02 -0.23321450246E+02  0.50528863074E+02  0.30000009799E+02 0.  0.
        -12    1    1    2    0    0  0.25220379520E+02 -0.21753340683E+02  0.23321450246E+02  0.40659136926E+02  0.00000000000E+00 0.  1.
         11    1    3    3    0    0 -0.94588924283E+01 -0.24699163442E+00  0.35944975923E+01  0.10121860700E+02  0.51100000000E-03 0.  1.
        -11    1    3    3    0    0 -0.14485522595E+02  0.90544476716E+01 -0.14166989889E+02  0.22192723813E+02  0.51100000000E-03 0. -1.
         12    1    3    3    0    0 -0.12759644974E+01  0.12945884646E+02 -0.12748957949E+02  0.18214278560E+02  0.00000000000E+00 0. -1.
</event>
<event>
 7    1  0.5714431E-011  0.5052886E+02  0.7816164E-02  0.1300439E+00
        -11   -1    0    0    0    0  0.00000000000E+00  0.00000000000E+00  0.45593999997E+02  0.45594000000E+02  0.51100000000E-03 0. -1.
         11   -1    0    0    0    0 -0.00000000000E+00 -0.00000000000E+00 -0.45593999997E+02  0.45594000000E+02  0.51100000000E-03 0.  1.
    9900012    2    1    2    0    0 -0.37256921119E+02 -0.11134882121E+02  0.11878629303E+02  0.50528860741E+02  0.30000002710E+02 0.  0.
        -12    1    1    2    0    0  0.37256921119E+02  0.11134882121E+02 -0.11878629303E+02  0.40659139259E+02  0.00000000000E+00 0.  1.
         11    1    3    3    0    0 -0.17511761492E+02 -0.42791633423E+01  0.98712212406E+01  0.20552713653E+02  0.51100000000E-03 0. -1.
        -11    1    3    3    0    0 -0.46542514185E+01 -0.10067268186E+02 -0.59820084297E+01  0.12601443176E+02  0.51100000000E-03 0.  1.
        -12    1    3    3    0    0 -0.15090908209E+02  0.32115494077E+01  0.79894164925E+01  0.17374703912E+02  0.00000000000E+00 0.  1.
</event>
<event>
 7    1  0.5714431E-011  0.5052885E+02  0.7816164E-02  0.1300439E+00
        -11   -1    0    0    0    0  0.00000000000E+00  0.00000000000E+00  0.45593999997E+02  0.45594000000E+02  0.51100000000E-03 0. -1.
         11   -1    0    0    0    0 -0.00000000000E+00 -0.00000000000E+00 -0.45593999997E+02  0.45594000000E+02  0.51100000000E-03 0.  1.
    9900012    2    1    2    0    0  0.15535726488E+02 -0.37508724291E+02 -0.22143904817E+01  0.50528847025E+02  0.29999961019E+02 0.  0.
        -12    1    1    2    0    0 -0.15535726488E+02  0.37508724291E+02  0.22143904817E+01  0.40659152975E+02  0.00000000000E+00 0.  1.
         11    1    3    3    0    0  0.86187625133E+01 -0.16662784603E+02 -0.73143815859E+01  0.20135333030E+02  0.51100000000E-03 0. -1.
        -11    1    3    3    0    0  0.28762317952E+01 -0.20659064662E+02  0.10733642873E+02  0.23458063681E+02  0.51100000000E-03 0.  1.
        -12    1    3    3    0    0  0.40407321791E+01 -0.18687502514E+00 -0.56336517686E+01  0.69354503147E+01  0.00000000000E+00 0.  1.
</event>
<event>
 7    1  0.5714431E-011  0.5052886E+02  0.7816164E-02  0.1300439E+00
        -11   -1    0    0    0    0  0.00000000000E+00  0.00000000000E+00  0.45593999997E+02  0.45594000000E+02  0.51100000000E-03 0. -1.
         11   -1    0    0    0    0 -0.00000000000E+00 -0.00000000000E+00 -0.45593999997E+02  0.45594000000E+02  0.51100000000E-03 0.  1.
    9900012    2    1    2    0    0 -0.59143421223E+01 -0.29049208644E+02  0.27826786841E+02  0.50528855500E+02  0.29999986777E+02 0.  0.
        -12    1    1    2    0    0  0.59143421223E+01  0.29049208644E+02 -0.27826786841E+02  0.40659144500E+02  0.00000000000E+00 0.  1.
         11    1    3    3    0    0  0.24553336540E+01 -0.11346369685E+02  0.46574410796E+01  0.12508418208E+02  0.51100000000E-03 0. -1.
        -11    1    3    3    0    0 -0.16164691217E+02 -0.14031455291E+02  0.18037558743E+02  0.27991650637E+02  0.51100000000E-03 0.  1.
        -12    1    3    3    0    0  0.77950154410E+01 -0.36713836682E+01  0.51317870183E+01  0.10028786655E+02  0.00000000000E+00 0.  1.
</event>
<event>
 7    1  0.5714431E-011  0.5052886E+02  0.7816164E-02  0.1300439E+00
        -11   -1    0    0    0    0  0.00000000000E+00  0.00000000000E+00  0.45593999997E+02  0.45594000000E+02  0.51100000000E-03 0.  1.
         11   -1    0    0    0    0 -0.00000000000E+00 -0.00000000000E+00 -0.45593999997E+02  0.45594000000E+02  0.51100000000E-03 0. -1.
    9900012    2    1    2    0    0 -0.25151575257E+02  0.79858985753E+01 -0.30932005235E+02  0.50528864965E+02  0.30000015546E+02 0.  0.
        -12    1    1    2    0    0  0.25151575257E+02 -0.79858985753E+01  0.30932005235E+02  0.40659135035E+02  0.00000000000E+00 0.  1.
         11    1    3    3    0    0 -0.12620247251E+02  0.13356877318E+02 -0.24888848343E+02  0.30937543284E+02  0.51100000000E-03 0. -1.
        -11    1    3    3    0    0 -0.74133156467E+01  0.10142494852E+00  0.28674039563E+01  0.79491849650E+01  0.51100000000E-03 0.  1.
        -12    1    3    3    0    0 -0.51180123596E+01 -0.54724036911E+01 -0.89105608484E+01  0.11642136716E+02  0.00000000000E+00 0.  1.
</event>
<event>
 7    1  0.5714431E-011  0.5052887E+02  0.7816164E-02  0.1300439E+00
        -11   -1    0    0    0    0  0.00000000000E+00  0.00000000000E+00  0.45593999997E+02  0.45594000000E+02  0.51100000000E-03 0.  1.
         11   -1    0    0    0    0 -0.00000000000E+00 -0.00000000000E+00 -0.45593999997E+02  0.45594000000E+02  0.51100000000E-03 0. -1.
    9900012    2    1    2    0    0 -0.20881536592E+02  0.21784503724E+02 -0.27249989993E+02  0.50528866616E+02  0.30000020565E+02 0.  0.
        -12    1    1    2    0    0  0.20881536592E+02 -0.21784503724E+02  0.27249989993E+02  0.40659133384E+02  0.00000000000E+00 0.  1.
         11    1    3    3    0    0 -0.61143609662E+01  0.24647388126E+01 -0.14857226002E+02  0.16254153690E+02  0.51100000000E-03 0. -1.
        -11    1    3    3    0    0 -0.18175799758E+02  0.21018452153E+02 -0.12489348030E+02  0.30465042954E+02  0.51100000000E-03 0.  1.
        -12    1    3    3    0    0  0.34086241321E+01 -0.16986872414E+01  0.96584038400E-01  0.38096699719E+01  0.00000000000E+00 0.  1.
</event>
<event>
 7    1  0.5714431E-011  0.5052885E+02  0.7816164E-02  0.1300439E+00
        -11   -1    0    0    0    0  0.00000000000E+00  0.00000000000E+00  0.45593999997E+02  0.45594000000E+02  0.51100000000E-03 0. -1.
         11   -1    0    0    0    0 -0.00000000000E+00 -0.00000000000E+00 -0.45593999997E+02  0.45594000000E+02  0.51100000000E-03 0.  1.
    9900012    2    1    2    0    0  0.24963218581E+02 -0.14719488192E+02  0.28519129380E+02  0.50528851519E+02  0.29999974677E+02 0.  0.
        -12    1    1    2    0    0 -0.24963218581E+02  0.14719488192E+02 -0.28519129380E+02  0.40659148481E+02  0.00000000000E+00 0.  1.
         11    1    3    3    0    0  0.14481479363E+02  0.94673331238E-01  0.18210120687E+02  0.23266514635E+02  0.51100000000E-03 0. -1.
        -11    1    3    3    0    0 -0.13369482444E+01 -0.13231759367E+02  0.59007771092E+01  0.14549434948E+02  0.51100000000E-03 0.  1.
        -12    1    3    3    0    0  0.11818687463E+02 -0.15824021562E+01  0.44082315845E+01  0.12712901936E+02  0.00000000000E+00 0.  1.
</event>
<event>
 7    1  0.5714431E-011  0.5052886E+02  0.7816164E-02  0.1300439E+00
        -11   -1    0    0    0    0  0.00000000000E+00  0.00000000000E+00  0.45593999997E+02  0.45594000000E+02  0.51100000000E-03 0. -1.
         11   -1    0    0    0    0 -0.00000000000E+00 -0.00000000000E+00 -0.45593999997E+02  0.45594000000E+02  0.51100000000E-03 0.  1.
    9900012    2    1    2    0    0 -0.14112190895E+02  0.35432997554E+02  0.14089503641E+02  0.50528863753E+02  0.30000011862E+02 0.  0.
        -12    1    1    2    0    0  0.14112190895E+02 -0.35432997554E+02 -0.14089503641E+02  0.40659136247E+02  0.00000000000E+00 0.  1.
         11    1    3    3    0    0 -0.31542240052E+01  0.14366961645E+02  0.18853071161E+02  0.23912277358E+02  0.51100000000E-03 0. -1.
        -11    1    3    3    0    0 -0.13643511750E+01 -0.44878981164E+00 -0.25875597902E+01  0.29594479810E+01  0.51100000000E-03 0.  1.
         12    1    3    3    0    0 -0.95936157153E+01  0.21514825721E+02 -0.21760077298E+01  0.23657138414E+02  0.00000000000E+00 0. -1.
</event>
<event>
 7    1  0.5714431E-011  0.5052886E+02  0.7816164E-02  0.1300439E+00
        -11   -1    0    0    0    0  0.00000000000E+00  0.00000000000E+00  0.45593999997E+02  0.45594000000E+02  0.51100000000E-03 0.  1.
         11   -1    0    0    0    0 -0.00000000000E+00 -0.00000000000E+00 -0.45593999997E+02  0.45594000000E+02  0.51100000000E-03 0. -1.
    9900012    2    1    2    0    0 -0.25349024594E+02 -0.14441686221E+02 -0.28320136668E+02  0.50528862163E+02  0.30000007030E+02 0.  0.
        -12    1    1    2    0    0  0.25349024594E+02  0.14441686221E+02  0.28320136668E+02  0.40659137837E+02  0.00000000000E+00 0.  1.
         11    1    3    3    0    0 -0.93301296691E+00 -0.51793540121E+01 -0.16399166979E+02  0.17222917843E+02  0.51100000000E-03 0. -1.
        -11    1    3    3    0    0 -0.65954088368E+01 -0.32416807935E+01  0.42593857250E+01  0.84941320397E+01  0.51100000000E-03 0.  1.
        -12    1    3    3    0    0 -0.17820602790E+02 -0.60206514156E+01 -0.16180355414E+02  0.24811812280E+02  0.00000000000E+00 0.  1.
</event>
<event>
 7    1  0.5714431E-011  0.5052886E+02  0.7816164E-02  0.1300439E+00
        -11   -1    0    0    0    0  0.00000000000E+00  0.00000000000E+00  0.45593999997E+02  0.45594000000E+02  0.51100000000E-03 0.  1.
         11   -1    0    0    0    0 -0.00000000000E+00 -0.00000000000E+00 -0.45593999997E+02  0.45594000000E+02  0.51100000000E-03 0. -1.
    9900012    2    1    2    0    0  0.13183131314E+02 -0.28366747216E+02 -0.25974960099E+02  0.50528857719E+02  0.29999993522E+02 0.  0.
        -12    1    1    2    0    0 -0.13183131314E+02  0.28366747216E+02  0.25974960099E+02  0.40659142281E+02  0.00000000000E+00 0.  1.
         11    1    3    3    0    0  0.63481051021E+01 -0.12216376788E+02 -0.64958489593E+01  0.15222823463E+02  0.51100000000E-03 0. -1.
        -11    1    3    3    0    0  0.65523635783E+01  0.49894830819E+01 -0.43976712217E+01  0.93363762950E+01  0.51100000000E-03 0.  1.
        -12    1    3    3    0    0  0.28266263386E+00 -0.21139853510E+02 -0.15081439918E+02  0.25969657961E+02  0.00000000000E+00 0.  1.
</event>
<event>
 7    1  0.5714431E-011  0.5052886E+02  0.7816164E-02  0.1300439E+00
        -11   -1    0    0    0    0  0.00000000000E+00  0.00000000000E+00  0.45593999997E+02  0.45594000000E+02  0.51100000000E-03 0. -1.
         11   -1    0    0    0    0 -0.00000000000E+00 -0.00000000000E+00 -0.45593999997E+02  0.45594000000E+02  0.51100000000E-03 0.  1.
    9900012    2    1    2    0    0  0.96408703422E+01  0.53324531321E+01  0.39138011840E+02  0.50528863165E+02  0.30000010076E+02 0.  0.
        -12    1    1    2    0    0 -0.96408703422E+01 -0.53324531321E+01 -0.39138011840E+02  0.40659136835E+02  0.00000000000E+00 0.  1.
         11    1    3    3    0    0 -0.38130975266E+01  0.42824801364E+01  0.94213537062E+01  0.11029109428E+02  0.51100000000E-03 0. -1.
        -11    1    3    3    0    0  0.15233650307E+02 -0.75359416302E+01  0.16877652008E+02  0.23952236962E+02  0.51100000000E-03 0.  1.
        -12    1    3    3    0    0 -0.17796824379E+01  0.85859146259E+01  0.12839006126E+02  0.15547516774E+02  0.00000000000E+00 0.  1.
</event>
<event>
 7    1  0.5714431E-011  0.5052886E+02  0.7816164E-02  0.1300439E+00
        -11   -1    0    0    0    0  0.00000000000E+00  0.00000000000E+00  0.45593999997E+02  0.45594000000E+02  0.51100000000E-03 0.  1.
         11   -1    0    0    0    0 -0.00000000000E+00 -0.00000000000E+00 -0.45593999997E+02  0.45594000000E+02  0.51100000000E-03 0. -1.
    9900012    2    1    2    0    0  0.29974200602E+02  0.22994265339E+02 -0.15032513843E+02  0.50528863110E+02  0.30000009908E+02 0.  0.
        -12    1    1    2    0    0 -0.29974200602E+02 -0.22994265339E+02  0.15032513843E+02  0.40659136890E+02  0.00000000000E+00 0.  1.
         11    1    3    3    0    0  0.44812067480E+01 -0.12924732839E+01  0.96177714499E+00  0.47620076276E+01  0.51100000000E-03 0. -1.
        -11    1    3    3    0    0  0.14912017175E+02  0.25306913569E+02 -0.38458547819E+01  0.29624292901E+02  0.51100000000E-03 0.  1.
        -12    1    3    3    0    0  0.10580976680E+02 -0.10201749467E+01 -0.12148436206E+02  0.16142562581E+02  0.00000000000E+00 0.  1.
</event>
<event>
 7    1  0.5714431E-011  0.5052886E+02  0.7816164E-02  0.1300439E+00
        -11   -1    0    0    0    0  0.00000000000E+00  0.00000000000E+00  0.45593999997E+02  0.45594000000E+02  0.51100000000E-03 0.  1.
         11   -1    0    0    0    0 -0.00000000000E+00 -0.00000000000E+00 -0.45593999997E+02  0.45594000000E+02  0.51100000000E-03 0. -1.
    9900012    2    1    2    0    0  0.98124576163E+01 -0.36899634045E+02 -0.13974930640E+02  0.50528855843E+02  0.29999987822E+02 0.  0.
        -12    1    1    2    0    0 -0.98124576163E+01  0.36899634045E+02  0.13974930640E+02  0.40659144157E+02  0.00000000000E+00 0.  1.
         11    1    3    3    0    0  0.51218448292E+01 -0.57687789640E+01 -0.97401950779E+01  0.12425115919E+02  0.51100000000E-03 0. -1.
        -11    1    3    3    0    0  0.72756156893E+01 -0.12891978884E+02  0.71592293886E+01  0.16443608755E+02  0.51100000000E-03 0.  1.
        -12    1    3    3    0    0 -0.25850029022E+01 -0.18238876198E+02 -0.11393964951E+02  0.21660131169E+02  0.00000000000E+00 0.  1.
</event>
<event>
 7    1  0.5714431E-011  0.5052885E+02  0.7816164E-02  0.1300439E+00
        -11   -1    0    0    0    0  0.00000000000E+00  0.00000000000E+00  0.45593999997E+02  0.45594000000E+02  0.51100000000E-03 0.  1.
         11   -1    0    0    0    0 -0.00000000000E+00 -0.00000000000E+00 -0.45593999997E+02  0.45594000000E+02  0.51100000000E-03 0. -1.
    9900012    2    1    2    0    0  0.84080150691E+01 -0.11324095015E+02 -0.38134456213E+02  0.50528848558E+02  0.29999965678E+02 0.  0.
        -12    1    1    2    0    0 -0.84080150691E+01  0.11324095015E+02  0.38134456213E+02  0.40659151442E+02  0.00000000000E+00 0.  1.
         11    1    3    3    0    0  0.12249227703E+02 -0.74612402923E+01 -0.38119904307E+02  0.40728869253E+02  0.51100000000E-03 0. -1.
        -11    1    3    3    0    0  0.48428831781E+00 -0.20948460148E+01  0.33928165602E+01  0.40167299477E+01  0.51100000000E-03 0.  1.
         12    1    3    3    0    0 -0.43255009513E+01 -0.17680087077E+01 -0.34073684664E+01  0.57832493580E+01  0.00000000000E+00 0. -1.
</event>
<event>
 7    1  0.5714431E-011  0.5052885E+02  0.7816164E-02  0.1300439E+00
        -11   -1    0    0    0    0  0.00000000000E+00  0.00000000000E+00  0.45593999997E+02  0.45594000000E+02  0.51100000000E-03 0.  1.
         11   -1    0    0    0    0 -0.00000000000E+00 -0.00000000000E+00 -0.45593999997E+02  0.45594000000E+02  0.51100000000E-03 0. -1.
    9900012    2    1    2    0    0 -0.58011173495E+01  0.32170011233E+01 -0.40114389791E+02  0.50528851865E+02  0.29999975728E+02 0.  0.
        -12    1    1    2    0    0  0.58011173495E+01 -0.32170011233E+01  0.40114389791E+02  0.40659148135E+02  0.00000000000E+00 0.  1.
         11    1    3    3    0    0 -0.42630606939E+01 -0.13223807296E+00  0.18031103266E+01  0.46305918087E+01  0.51100000000E-03 0. -1.
        -11    1    3    3    0    0  0.76953299747E+01 -0.46352458216E-01 -0.26623093600E+02  0.27712981887E+02  0.51100000000E-03 0.  1.
         12    1    3    3    0    0 -0.92333866303E+01  0.33955916545E+01 -0.15294406518E+02  0.18185278169E+02  0.00000000000E+00 0. -1.
</event>
<event>
 7    1  0.5714431E-011  0.5052886E+02  0.7816164E-02  0.1300439E+00
        -11   -1    0    0    0    0  0.00000000000E+00  0.00000000000E+00  0.45593999997E+02  0.45594000000E+02  0.51100000000E-03 0.  1.
         11   -1    0    0    0    0 -0.00000000000E+00 -0.00000000000E+00 -0.45593999997E+02  0.45594000000E+02  0.51100000000E-03 0. -1.
    9900012    2    1    2    0    0  0.24276538588E+02  0.24908319227E+02 -0.21056852750E+02  0.50528859081E+02  0.29999997663E+02 0.  0.
        -12    1    1    2    0    0 -0.24276538588E+02 -0.24908319227E+02  0.21056852750E+02  0.40659140919E+02  0.00000000000E+00 0.  1.
         11    1    3    3    0    0 -0.11986170738E+01  0.14180856831E+02 -0.13604454560E+02  0.19687929487E+02  0.51100000000E-03 0. -1.
        -11    1    3    3    0    0  0.72237048265E+01  0.18584790764E+01  0.29701695662E+01  0.80285592363E+01  0.51100000000E-03 0.  1.
         12    1    3    3    0    0  0.18251450835E+02  0.88689833196E+01 -0.10422567756E+02  0.22812370358E+02  0.00000000000E+00 0. -1.
</event>
<event>
 7    1  0.5714431E-011  0.5052886E+02  0.7816164E-02  0.1300439E+00
        -11   -1    0    0    0    0  0.00000000000E+00  0.00000000000E+00  0.45593999997E+02  0.45594000000E+02  0.51100000000E-03 0.  1.
         11   -1    0    0    0    0 -0.00000000000E+00 -0.00000000000E+00 -0.45593999997E+02  0.45594000000E+02  0.51100000000E-03 0. -1.
    9900012    2    1    2    0    0  0.15455274110E+02 -0.36857014015E+02 -0.74740042180E+01  0.50528859343E+02  0.29999998459E+02 0.  0.
        -12    1    1    2    0    0 -0.15455274110E+02  0.36857014015E+02  0.74740042180E+01  0.40659140657E+02  0.00000000000E+00 0.  1.
         11    1    3    3    0    0  0.84515445133E+01 -0.22504506376E+02 -0.14010008455E+02  0.27823762309E+02  0.51100000000E-03 0. -1.
        -11    1    3    3    0    0  0.73832289362E+01 -0.56598377567E+01  0.97062458831E+01  0.13444591565E+02  0.51100000000E-03 0.  1.
        -12    1    3    3    0    0 -0.37949933924E+00 -0.86926698827E+01 -0.31702416463E+01  0.92605054686E+01  0.00000000000E+00 0.  1.
</event>
<event>
 7    1  0.5714431E-011  0.5052885E+02  0.7816164E-02  0.1300439E+00
        -11   -1    0    0    0    0  0.00000000000E+00  0.00000000000E+00  0.45593999997E+02  0.45594000000E+02  0.51100000000E-03 0.  1.
         11   -1    0    0    0    0 -0.00000000000E+00 -0.00000000000E+00 -0.45593999997E+02  0.45594000000E+02  0.51100000000E-03 0. -1.
    9900012    2    1    2    0    0  0.24254814851E+02  0.19331476950E+02 -0.26290005411E+02  0.50528850611E+02  0.29999971916E+02 0.  0.
        -12    1    1    2    0    0 -0.24254814851E+02 -0.19331476950E+02  0.26290005411E+02  0.40659149389E+02  0.00000000000E+00 0.  1.
         11    1    3    3    0    0  0.78987612625E+00 -0.35819221310E+01 -0.70913838373E+01  0.79838459051E+01  0.51100000000E-03 0. -1.
        -11    1    3    3    0    0  0.14086687939E+02  0.24673993964E+02 -0.14849813374E+02  0.32058660495E+02  0.51100000000E-03 0.  1.
        -12    1    3    3    0    0  0.93782507857E+01 -0.17605948831E+01 -0.43488081994E+01  0.10486344210E+02  0.00000000000E+00 0.  1.
</event>
<event>
 7    1  0.5714431E-011  0.5052886E+02  0.7816164E-02  0.1300439E+00
        -11   -1    0    0    0    0  0.00000000000E+00  0.00000000000E+00  0.45593999997E+02  0.45594000000E+02  0.51100000000E-03 0.  1.
         11   -1    0    0    0    0 -0.00000000000E+00 -0.00000000000E+00 -0.45593999997E+02  0.45594000000E+02  0.51100000000E-03 0. -1.
    9900012    2    1    2    0    0  0.22558344977E+02 -0.33253848041E+02 -0.62022908802E+01  0.50528858964E+02  0.29999997307E+02 0.  0.
        -12    1    1    2    0    0 -0.22558344977E+02  0.33253848041E+02  0.62022908802E+01  0.40659141036E+02  0.00000000000E+00 0.  1.
         11    1    3    3    0    0  0.81090864406E+01 -0.32052226303E+02 -0.51363216924E+01  0.33458695352E+02  0.51100000000E-03 0. -1.
        -11    1    3    3    0    0  0.19296716225E+01  0.28337840800E+01  0.13711317361E+01  0.36924202471E+01  0.51100000000E-03 0.  1.
        -12    1    3    3    0    0  0.12519586914E+02 -0.40354058173E+01 -0.24371009239E+01  0.13377743365E+02  0.00000000000E+00 0.  1.
</event>
<event>
 7    1  0.5714431E-011  0.5052885E+02  0.7816164E-02  0.1300439E+00
        -11   -1    0    0    0    0  0.00000000000E+00  0.00000000000E+00  0.45593999997E+02  0.45594000000E+02  0.51100000000E-03 0. -1.
         11   -1    0    0    0    0 -0.00000000000E+00 -0.00000000000E+00 -0.45593999997E+02  0.45594000000E+02  0.51100000000E-03 0.  1.
    9900012    2    1    2    0    0 -0.11245458346E+02  0.25327099340E+02  0.29753055956E+02  0.50528848101E+02  0.29999964289E+02 0.  0.
        -12    1    1    2    0    0  0.11245458346E+02 -0.25327099340E+02 -0.29753055956E+02  0.40659151899E+02  0.00000000000E+00 0.  1.
         11    1    3    3    0    0 -0.87264086483E+01  0.57457648787E+01  0.11028061563E+02  0.15191516186E+02  0.51100000000E-03 0. -1.
        -11    1    3    3    0    0  0.88464548866E+01  0.36114854226E+01  0.10157292138E+02  0.13945363920E+02  0.51100000000E-03 0.  1.
        -12    1    3    3    0    0 -0.11365504584E+02  0.15969849039E+02  0.85677022547E+01  0.21391967995E+02  0.00000000000E+00 0.  1.
</event>
<event>
 7    1  0.5714431E-011  0.5052886E+02  0.7816164E-02  0.1300439E+00
        -11   -1    0    0    0    0  0.00000000000E+00  0.00000000000E+00  0.45593999997E+02  0.45594000000E+02  0.51100000000E-03 0.  1.
         11   -1    0    0    0    0 -0.00000000000E+00 -0.00000000000E+00 -0.45593999997E+02  0.45594000000E+02  0.51100000000E-03 0. -1.
    9900012    2    1    2    0    0 -0.33848160711E+02 -0.15667184335E+01  0.22472501218E+02  0.50528857103E+02  0.29999991649E+02 0.  0.
        -12    1    1    2    0    0  0.33848160711E+02  0.15667184335E+01 -0.22472501218E+02  0.40659142897E+02  0.00000000000E+00 0.  1.
         11    1    3    3    0    0 -0.13944275707E+02  0.92236546914E+01 -0.18148737066E+01  0.16817027017E+02  0.51100000000E-03 0. -1.
        -11    1    3    3    0    0 -0.12183018746E+02 -0.93476584176E+01  0.14094159229E+02  0.20843463923E+02  0.51100000000E-03 0.  1.
         12    1    3    3    0    0 -0.77208662580E+01 -0.14427147073E+01  0.10193215695E+02  0.12868366163E+02  0.00000000000E+00 0. -1.
</event>
<event>
 7    1  0.5714431E-011  0.5052884E+02  0.7816164E-02  0.1300439E+00
        -11   -1    0    0    0    0  0.00000000000E+00  0.00000000000E+00  0.45593999997E+02  0.45594000000E+02  0.51100000000E-03 0. -1.
         11   -1    0    0    0    0 -0.00000000000E+00 -0.00000000000E+00 -0.45593999997E+02  0.45594000000E+02  0.51100000000E-03 0.  1.
    9900012    2    1    2    0    0  0.21584316624E+02 -0.26478817577E+02 -0.22048954967E+02  0.50528844580E+02  0.29999953584E+02 0.  0.
        -12    1    1    2    0    0 -0.21584316624E+02  0.26478817577E+02  0.22048954967E+02  0.40659155420E+02  0.00000000000E+00 0.  1.
         11    1    3    3    0    0  0.14313675283E+02 -0.20572118200E+02 -0.19672661346E+00  0.25062562697E+02  0.51100000000E-03 0. -1.
        -11    1    3    3    0    0  0.93759197256E+01 -0.56726568819E+01 -0.18231802667E+02  0.21271707396E+02  0.51100000000E-03 0.  1.
         12    1    3    3    0    0 -0.21052783851E+01 -0.23404249489E+00 -0.36204256861E+01  0.41945744858E+01  0.00000000000E+00 0. -1.
</event>
<event>
 7    1  0.5714431E-011  0.5052886E+02  0.7816164E-02  0.1300439E+00
        -11   -1    0    0    0    0  0.00000000000E+00  0.00000000000E+00  0.45593999997E+02  0.45594000000E+02  0.51100000000E-03 0.  1.
         11   -1    0    0    0    0 -0.00000000000E+00 -0.00000000000E+00 -0.45593999997E+02  0.45594000000E+02  0.51100000000E-03 0. -1.
    9900012    2    1    2    0    0 -0.15677636565E+02 -0.32318340924E+02 -0.19049995230E+02  0.50528858757E+02  0.29999996678E+02 0.  0.
        -12    1    1    2    0    0  0.15677636565E+02  0.32318340924E+02  0.19049995230E+02  0.40659141243E+02  0.00000000000E+00 0.  1.
         11    1    3    3    0    0 -0.17032432213E+02 -0.35277275882E+02 -0.16689325634E+02  0.42580788287E+02  0.51100000000E-03 0. -1.
        -11    1    3    3    0    0  0.27582049497E+01  0.91007390400E+00 -0.40213441558E+01  0.49605582484E+01  0.51100000000E-03 0.  1.
         12    1    3    3    0    0 -0.14034093015E+01  0.20488610536E+01  0.16606745597E+01  0.29875122222E+01  0.00000000000E+00 0. -1.
</event>
<event>
 7    1  0.5714431E-011  0.5052888E+02  0.7816164E-02  0.1300439E+00
        -11   -1    0    0    0    0  0.00000000000E+00  0.00000000000E+00  0.45593999997E+02  0.45594000000E+02  0.51100000000E-03 0.  1.
         11   -1    0    0    0    0 -0.00000000000E+00 -0.00000000000E+00 -0.45593999997E+02  0.45594000000E+02  0.51100000000E-03 0. -1.
    9900012    2    1    2    0    0  0.26839612556E+02  0.23500799957E+02 -0.19506704372E+02  0.50528881512E+02  0.30000065843E+02 0.  0.
        -12    1    1    2    0    0 -0.26839612556E+02 -0.23500799957E+02  0.19506704372E+02  0.40659118488E+02  0.00000000000E+00 0.  1.
         11    1    3    3    0    0  0.12218429144E+02  0.10715146027E+02 -0.89035063078E+01  0.18530428758E+02  0.51100000000E-03 0. -1.
        -11    1    3    3    0    0  0.10633623585E+01  0.70082976693E+01  0.63628487668E+01  0.95253777047E+01  0.51100000000E-03 0.  1.
        -12    1    3    3    0    0  0.13557821053E+02  0.57773562609E+01 -0.16966046831E+02  0.22473075049E+02  0.00000000000E+00 0.  1.
</event>
<event>
 7    1  0.5714431E-011  0.5052886E+02  0.7816164E-02  0.1300439E+00
        -11   -1    0    0    0    0  0.00000000000E+00  0.00000000000E+00  0.45593999997E+02  0.45594000000E+02  0.51100000000E-03 0.  1.
         11   -1    0    0    0    0 -0.00000000000E+00 -0.00000000000E+00 -0.45593999997E+02  0.45594000000E+02  0.51100000000E-03 0. -1.
    9900012    2    1    2    0    0 -0.29250638057E+02 -0.20708121349E+02 -0.19202592843E+02  0.50528859718E+02  0.29999999600E+02 0.  0.
        -12    1    1    2    0    0  0.29250638057E+02  0.20708121349E+02  0.19202592843E+02  0.40659140282E+02  0.00000000000E+00 0.  1.
         11    1    3    3    0    0 -0.21201972563E+02 -0.19265318296E+02 -0.59265174626E+01  0.29254055088E+02  0.51100000000E-03 0.  1.
        -11    1    3    3    0    0  0.41891315661E+01  0.54141163827E+00 -0.35382438232E+01  0.55100925086E+01  0.51100000000E-03 0. -1.
         12    1    3    3    0    0 -0.12237797060E+02 -0.19842146909E+01 -0.97378315575E+01  0.15764712121E+02  0.00000000000E+00 0. -1.
</event>
<event>
 7    1  0.5714431E-011  0.5052886E+02  0.7816164E-02  0.1300439E+00
        -11   -1    0    0    0    0  0.00000000000E+00  0.00000000000E+00  0.45593999997E+02  0.45594000000E+02  0.51100000000E-03 0.  1.
         11   -1    0    0    0    0 -0.00000000000E+00 -0.00000000000E+00 -0.45593999997E+02  0.45594000000E+02  0.51100000000E-03 0. -1.
    9900012    2    1    2    0    0  0.97616330506E+00  0.15296310201E+02 -0.37659472700E+02  0.50528857306E+02  0.29999992267E+02 0.  0.
        -12    1    1    2    0    0 -0.97616330506E+00 -0.15296310201E+02  0.37659472700E+02  0.40659142694E+02  0.00000000000E+00 0.  1.
         11    1    3    3    0    0 -0.10767965281E+02 -0.23442527167E+00 -0.12513388118E+02  0.16510266925E+02  0.51100000000E-03 0. -1.
        -11    1    3    3    0    0  0.86226062726E+01  0.17061789751E+02 -0.18973222064E+02  0.26933940747E+02  0.51100000000E-03 0.  1.
         12    1    3    3    0    0  0.31215223133E+01 -0.15310542778E+01 -0.61728625187E+01  0.70846496335E+01  0.00000000000E+00 0. -1.
</event>
<event>
 7    1  0.5714431E-011  0.5052885E+02  0.7816164E-02  0.1300439E+00
        -11   -1    0    0    0    0  0.00000000000E+00  0.00000000000E+00  0.45593999997E+02  0.45594000000E+02  0.51100000000E-03 0.  1.
         11   -1    0    0    0    0 -0.00000000000E+00 -0.00000000000E+00 -0.45593999997E+02  0.45594000000E+02  0.51100000000E-03 0. -1.
    9900012    2    1    2    0    0  0.30414491370E+02 -0.99587969103E+01 -0.25078822256E+02  0.50528852850E+02  0.29999978723E+02 0.  0.
        -12    1    1    2    0    0 -0.30414491370E+02  0.99587969103E+01  0.25078822256E+02  0.40659147150E+02  0.00000000000E+00 0.  1.
         11    1    3    3    0    0  0.37689580105E+01 -0.40016629075E+01 -0.15448024630E+02  0.16396945317E+02  0.51100000000E-03 0. -1.
        -11    1    3    3    0    0  0.24558020896E+02 -0.73385282077E+01 -0.13918993599E+02  0.29166569385E+02  0.51100000000E-03 0.  1.
        -12    1    3    3    0    0  0.20875124630E+01  0.13813942048E+01  0.42881959719E+01  0.49653381482E+01  0.00000000000E+00 0.  1.
</event>
<event>
 7    1  0.5714431E-011  0.5052888E+02  0.7816164E-02  0.1300439E+00
        -11   -1    0    0    0    0  0.00000000000E+00  0.00000000000E+00  0.45593999997E+02  0.45594000000E+02  0.51100000000E-03 0. -1.
         11   -1    0    0    0    0 -0.00000000000E+00 -0.00000000000E+00 -0.45593999997E+02  0.45594000000E+02  0.51100000000E-03 0.  1.
    9900012    2    1    2    0    0 -0.16964658747E+02 -0.36810047095E+02  0.32225403797E+01  0.50528880727E+02  0.30000063458E+02 0.  0.
        -12    1    1    2    0    0  0.16964658747E+02  0.36810047095E+02 -0.32225403797E+01  0.40659119273E+02  0.00000000000E+00 0.  1.
         11    1    3    3    0    0 -0.22338431784E+01 -0.42603738640E+01  0.18591718183E+01  0.51572629289E+01  0.51100000000E-03 0. -1.
        -11    1    3    3    0    0 -0.18273523920E+02 -0.14260457968E+02  0.94903064675E+01  0.25046921069E+02  0.51100000000E-03 0.  1.
        -12    1    3    3    0    0  0.35427083520E+01 -0.18289215263E+02 -0.81269379060E+01  0.20324696729E+02  0.00000000000E+00 0.  1.
</event>
<event>
 7    1  0.5714431E-011  0.5052886E+02  0.7816164E-02  0.1300439E+00
        -11   -1    0    0    0    0  0.00000000000E+00  0.00000000000E+00  0.45593999997E+02  0.45594000000E+02  0.51100000000E-03 0. -1.
         11   -1    0    0    0    0 -0.00000000000E+00 -0.00000000000E+00 -0.45593999997E+02  0.45594000000E+02  0.51100000000E-03 0.  1.
    9900012    2    1    2    0    0 -0.11166404692E+02  0.21466405735E+02  0.32675227709E+02  0.50528859887E+02  0.30000000112E+02 0.  0.
        -12    1    1    2    0    0  0.11166404692E+02 -0.21466405735E+02 -0.32675227709E+02  0.40659140113E+02  0.00000000000E+00 0.  1.
         11    1    3    3    0    0 -0.36369260264E+01  0.62224925958E+01 -0.18814729600E+01  0.74489318555E+01  0.51100000000E-03 0. -1.
        -11    1    3    3    0    0 -0.68722220844E+01  0.19153259749E+02  0.33103712693E+02  0.38857825334E+02  0.51100000000E-03 0.  1.
        -12    1    3    3    0    0 -0.65725658147E+00 -0.39093466094E+01  0.14529879755E+01  0.42221026969E+01  0.00000000000E+00 0.  1.
</event>
<event>
 7    1  0.5714431E-011  0.5052888E+02  0.7816164E-02  0.1300439E+00
        -11   -1    0    0    0    0  0.00000000000E+00  0.00000000000E+00  0.45593999997E+02  0.45594000000E+02  0.51100000000E-03 0. -1.
         11   -1    0    0    0    0 -0.00000000000E+00 -0.00000000000E+00 -0.45593999997E+02  0.45594000000E+02  0.51100000000E-03 0.  1.
    9900012    2    1    2    0    0 -0.60222211059E+01 -0.32104719408E+02  0.24211239815E+02  0.50528876932E+02  0.30000051922E+02 0.  0.
        -12    1    1    2    0    0  0.60222211059E+01  0.32104719408E+02 -0.24211239815E+02  0.40659123068E+02  0.00000000000E+00 0.  1.
         11    1    3    3    0    0  0.29635844118E+01  0.45428773378E+01  0.57603943718E+01  0.79121874758E+01  0.51100000000E-03 0. -1.
        -11    1    3    3    0    0 -0.52286276569E+01 -0.20664429118E+02  0.14342317482E+02  0.25691618263E+02  0.51100000000E-03 0.  1.
         12    1    3    3    0    0 -0.37571778608E+01 -0.15983167628E+02  0.41085279615E+01  0.16925071193E+02  0.00000000000E+00 0. -1.
</event>
<event>
 7    1  0.5714431E-011  0.5052885E+02  0.7816164E-02  0.1300439E+00
        -11   -1    0    0    0    0  0.00000000000E+00  0.00000000000E+00  0.45593999997E+02  0.45594000000E+02  0.51100000000E-03 0. -1.
         11   -1    0    0    0    0 -0.00000000000E+00 -0.00000000000E+00 -0.45593999997E+02  0.45594000000E+02  0.51100000000E-03 0.  1.
    9900012    2    1    2    0    0  0.21964255656E+02  0.32585512919E+02 -0.10436573464E+02  0.50528852882E+02  0.29999978820E+02 0.  0.
        -12    1    1    2    0    0 -0.21964255656E+02 -0.32585512919E+02  0.10436573464E+02  0.40659147118E+02  0.00000000000E+00 0.  1.
         11    1    3    3    0    0  0.22103728466E+02  0.25072433315E+02 -0.18807558551E+02  0.38352652885E+02  0.51100000000E-03 0. -1.
        -11    1    3    3    0    0 -0.22816181763E+01  0.27247039063E+01  0.28014863907E+01  0.45252755869E+01  0.51100000000E-03 0.  1.
         12    1    3    3    0    0  0.21421453661E+01  0.47883756975E+01  0.55694986964E+01  0.76509244094E+01  0.00000000000E+00 0. -1.
</event>
<event>
 7    1  0.5714431E-011  0.5052887E+02  0.7816164E-02  0.1300439E+00
        -11   -1    0    0    0    0  0.00000000000E+00  0.00000000000E+00  0.45593999997E+02  0.45594000000E+02  0.51100000000E-03 0. -1.
         11   -1    0    0    0    0 -0.00000000000E+00 -0.00000000000E+00 -0.45593999997E+02  0.45594000000E+02  0.51100000000E-03 0.  1.
    9900012    2    1    2    0    0 -0.36602766447E+02 -0.12888854602E+02  0.12135876604E+02  0.50528873282E+02  0.30000040827E+02 0.  0.
        -12    1    1    2    0    0  0.36602766447E+02  0.12888854602E+02 -0.12135876604E+02  0.40659126718E+02  0.00000000000E+00 0.  1.
         11    1    3    3    0    0 -0.28777569122E+02  0.17380332598E+01  0.14801192998E+02  0.32407476894E+02  0.51100000000E-03 0. -1.
        -11    1    3    3    0    0 -0.16559749873E+01 -0.72366012659E+01  0.15965269674E+01  0.75933885492E+01  0.51100000000E-03 0.  1.
         12    1    3    3    0    0 -0.61692223374E+01 -0.73902865956E+01 -0.42618433612E+01  0.10528007839E+02  0.00000000000E+00 0. -1.
</event>
<event>
 7    1  0.5714431E-011  0.5052886E+02  0.7816164E-02  0.1300439E+00
        -11   -1    0    0    0    0  0.00000000000E+00  0.00000000000E+00  0.45593999997E+02  0.45594000000E+02  0.51100000000E-03 0. -1.
         11   -1    0    0    0    0 -0.00000000000E+00 -0.00000000000E+00 -0.45593999997E+02  0.45594000000E+02  0.51100000000E-03 0.  1.
    9900012    2    1    2    0    0  0.15922305436E-01 -0.31304545449E+02  0.25945915050E+02  0.50528864163E+02  0.30000013109E+02 0.  0.
        -12    1    1    2    0    0 -0.15922305436E-01  0.31304545449E+02 -0.25945915050E+02  0.40659135837E+02  0.00000000000E+00 0.  1.
         11    1    3    3    0    0 -0.32096755768E+00 -0.98151821546E+01  0.36185327300E+01  0.10465877903E+02  0.51100000000E-03 0. -1.
        -11    1    3    3    0    0 -0.45990084656E+01 -0.37812863914E+01  0.20778540467E+02  0.21614734554E+02  0.51100000000E-03 0.  1.
        -12    1    3    3    0    0  0.49358983287E+01 -0.17708076903E+02  0.15488418524E+01  0.18448251705E+02  0.00000000000E+00 0.  1.
</event>
<event>
 7    1  0.5714431E-011  0.5052886E+02  0.7816164E-02  0.1300439E+00
        -11   -1    0    0    0    0  0.00000000000E+00  0.00000000000E+00  0.45593999997E+02  0.45594000000E+02  0.51100000000E-03 0.  1.
         11   -1    0    0    0    0 -0.00000000000E+00 -0.00000000000E+00 -0.45593999997E+02  0.45594000000E+02  0.51100000000E-03 0. -1.
    9900012    2    1    2    0    0  0.35560295428E+02 -0.14577449989E+02 -0.13271350941E+02  0.50528863083E+02  0.30000009826E+02 0.  0.
        -12    1    1    2    0    0 -0.35560295428E+02  0.14577449989E+02  0.13271350941E+02  0.40659136917E+02  0.00000000000E+00 0.  1.
         11    1    3    3    0    0  0.29811474423E+01  0.53259371189E+00  0.65789473855E+01  0.72424750671E+01  0.51100000000E-03 0.  1.
        -11    1    3    3    0    0  0.22434829113E+02 -0.14165098942E+02 -0.19786432669E+02  0.33097953160E+02  0.51100000000E-03 0. -1.
         12    1    3    3    0    0  0.10144318872E+02 -0.94494475858E+00 -0.63865656751E-01  0.10188434855E+02  0.00000000000E+00 0. -1.
</event>
<event>
 7    1  0.5714431E-011  0.5052886E+02  0.7816164E-02  0.1300439E+00
        -11   -1    0    0    0    0  0.00000000000E+00  0.00000000000E+00  0.45593999997E+02  0.45594000000E+02  0.51100000000E-03 0.  1.
         11   -1    0    0    0    0 -0.00000000000E+00 -0.00000000000E+00 -0.45593999997E+02  0.45594000000E+02  0.51100000000E-03 0. -1.
    9900012    2    1    2    0    0 -0.28872063545E+02 -0.28361629325E+02 -0.38971082464E+01  0.50528861740E+02  0.30000005745E+02 0.  0.
        -12    1    1    2    0    0  0.28872063545E+02  0.28361629325E+02  0.38971082464E+01  0.40659138260E+02  0.00000000000E+00 0.  1.
         11    1    3    3    0    0 -0.14781548458E+02 -0.14498695596E+02 -0.14742553355E+02  0.25417498470E+02  0.51100000000E-03 0. -1.
        -11    1    3    3    0    0 -0.11892611216E+02 -0.40570424952E+01  0.53430866546E+01  0.13654390158E+02  0.51100000000E-03 0.  1.
         12    1    3    3    0    0 -0.21979038715E+01 -0.98058912347E+01  0.55023584536E+01  0.11456973112E+02  0.00000000000E+00 0. -1.
</event>
<event>
 7    1  0.5714431E-011  0.5052886E+02  0.7816164E-02  0.1300439E+00
        -11   -1    0    0    0    0  0.00000000000E+00  0.00000000000E+00  0.45593999997E+02  0.45594000000E+02  0.51100000000E-03 0.  1.
         11   -1    0    0    0    0 -0.00000000000E+00 -0.00000000000E+00 -0.45593999997E+02  0.45594000000E+02  0.51100000000E-03 0. -1.
    9900012    2    1    2    0    0 -0.21544987746E+02  0.14614868738E+02 -0.31231153276E+02  0.50528858098E+02  0.29999994675E+02 0.  0.
        -12    1    1    2    0    0  0.21544987746E+02 -0.14614868738E+02  0.31231153276E+02  0.40659141902E+02  0.00000000000E+00 0.  1.
         11    1    3    3    0    0 -0.26794232219E+02  0.18056161902E+02 -0.26817338748E+02  0.41989588241E+02  0.51100000000E-03 0. -1.
        -11    1    3    3    0    0  0.85361003165E-01 -0.19261281538E+01 -0.11209206587E+01  0.22301837480E+01  0.51100000000E-03 0.  1.
         12    1    3    3    0    0  0.51638834699E+01 -0.15151650099E+01 -0.32928938694E+01  0.63090861092E+01  0.00000000000E+00 0. -1.
</event>
<event>
 7    1  0.5714431E-011  0.5052886E+02  0.7816164E-02  0.1300439E+00
        -11   -1    0    0    0    0  0.00000000000E+00  0.00000000000E+00  0.45593999997E+02  0.45594000000E+02  0.51100000000E-03 0.  1.
         11   -1    0    0    0    0 -0.00000000000E+00 -0.00000000000E+00 -0.45593999997E+02  0.45594000000E+02  0.51100000000E-03 0. -1.
    9900012    2    1    2    0    0  0.17598333324E+02  0.98466467589E+01  0.35305922587E+02  0.50528856405E+02  0.29999989528E+02 0.  0.
        -12    1    1    2    0    0 -0.17598333324E+02 -0.98466467589E+01 -0.35305922587E+02  0.40659143595E+02  0.00000000000E+00 0.  1.
         11    1    3    3    0    0  0.10446769766E+02 -0.30030191476E+01  0.52806739265E+01  0.12084644799E+02  0.51100000000E-03 0. -1.
        -11    1    3    3    0    0  0.37733278391E+01  0.15931734934E+02  0.13266282746E+02  0.21072551795E+02  0.51100000000E-03 0.  1.
        -12    1    3    3    0    0  0.33782357195E+01 -0.30820690274E+01  0.16758965914E+02  0.17371659811E+02  0.00000000000E+00 0.  1.
</event>
<event>
 7    1  0.5714431E-011  0.5052885E+02  0.7816164E-02  0.1300439E+00
        -11   -1    0    0    0    0  0.00000000000E+00  0.00000000000E+00  0.45593999997E+02  0.45594000000E+02  0.51100000000E-03 0.  1.
         11   -1    0    0    0    0 -0.00000000000E+00 -0.00000000000E+00 -0.45593999997E+02  0.45594000000E+02  0.51100000000E-03 0. -1.
    9900012    2    1    2    0    0 -0.38315893074E+02  0.12327906363E+02 -0.57516620926E+01  0.50528849072E+02  0.29999967240E+02 0.  0.
        -12    1    1    2    0    0  0.38315893074E+02 -0.12327906363E+02  0.57516620926E+01  0.40659150928E+02  0.00000000000E+00 0.  1.
         11    1    3    3    0    0 -0.24314074001E+02  0.19171797821E+02  0.45009175308E+01  0.31288820449E+02  0.51100000000E-03 0. -1.
        -11    1    3    3    0    0 -0.43935812630E+01 -0.35762436616E+01 -0.15559075912E+01  0.58748552098E+01  0.51100000000E-03 0.  1.
         12    1    3    3    0    0 -0.96082378095E+01 -0.32676477963E+01 -0.86966720321E+01  0.13365173413E+02  0.00000000000E+00 0. -1.
</event>
<event>
 7    1  0.5714431E-011  0.5052884E+02  0.7816164E-02  0.1300439E+00
        -11   -1    0    0    0    0  0.00000000000E+00  0.00000000000E+00  0.45593999997E+02  0.45594000000E+02  0.51100000000E-03 0. -1.
         11   -1    0    0    0    0 -0.00000000000E+00 -0.00000000000E+00 -0.45593999997E+02  0.45594000000E+02  0.51100000000E-03 0.  1.
    9900012    2    1    2    0    0  0.17730348508E+01  0.35749732974E+02  0.19286779184E+02  0.50528844677E+02  0.29999953881E+02 0.  0.
        -12    1    1    2    0    0 -0.17730348508E+01 -0.35749732974E+02 -0.19286779184E+02  0.40659155323E+02  0.00000000000E+00 0.  1.
         11    1    3    3    0    0 -0.27133634172E+01  0.27396420981E+02  0.51584435483E+01  0.28009565576E+02  0.51100000000E-03 0. -1.
        -11    1    3    3    0    0  0.41848585129E+01  0.80579480808E+01  0.17183591301E+02  0.19435003944E+02  0.51100000000E-03 0.  1.
         12    1    3    3    0    0  0.30153975507E+00  0.29536391145E+00 -0.30552556659E+01  0.30842751577E+01  0.00000000000E+00 0. -1.
</event>
<event>
 7    1  0.5714431E-011  0.5052886E+02  0.7816164E-02  0.1300439E+00
        -11   -1    0    0    0    0  0.00000000000E+00  0.00000000000E+00  0.45593999997E+02  0.45594000000E+02  0.51100000000E-03 0.  1.
         11   -1    0    0    0    0 -0.00000000000E+00 -0.00000000000E+00 -0.45593999997E+02  0.45594000000E+02  0.51100000000E-03 0. -1.
    9900012    2    1    2    0    0 -0.26480995554E+02  0.28698328823E+02 -0.11328222960E+02  0.50528857877E+02  0.29999994002E+02 0.  0.
        -12    1    1    2    0    0  0.26480995554E+02 -0.28698328823E+02  0.11328222960E+02  0.40659142123E+02  0.00000000000E+00 0.  1.
         11    1    3    3    0    0 -0.47411535890E+01  0.50320502273E+01  0.11789863510E+01  0.70135637105E+01  0.51100000000E-03 0. -1.
        -11    1    3    3    0    0 -0.10929386719E+02  0.18662300296E+02 -0.19987651396E+02  0.29448924513E+02  0.51100000000E-03 0.  1.
        -12    1    3    3    0    0 -0.10810455246E+02  0.50039783004E+01  0.74804420846E+01  0.14066369654E+02  0.00000000000E+00 0.  1.
</event>
<event>
 7    1  0.5714431E-011  0.5052886E+02  0.7816164E-02  0.1300439E+00
        -11   -1    0    0    0    0  0.00000000000E+00  0.00000000000E+00  0.45593999997E+02  0.45594000000E+02  0.51100000000E-03 0. -1.
         11   -1    0    0    0    0 -0.00000000000E+00 -0.00000000000E+00 -0.45593999997E+02  0.45594000000E+02  0.51100000000E-03 0.  1.
    9900012    2    1    2    0    0  0.19722245123E+02  0.13243111716E+02  0.32997250925E+02  0.50528861676E+02  0.30000005550E+02 0.  0.
        -12    1    1    2    0    0 -0.19722245123E+02 -0.13243111716E+02 -0.32997250925E+02  0.40659138324E+02  0.00000000000E+00 0.  1.
         11    1    3    3    0    0  0.20701508472E+02  0.42563704370E+01  0.13846184837E+02  0.25266301215E+02  0.51100000000E-03 0. -1.
        -11    1    3    3    0    0 -0.36632660934E+01  0.11182089573E+02  0.18190386532E+02  0.21664459563E+02  0.51100000000E-03 0.  1.
        -12    1    3    3    0    0  0.26840027443E+01 -0.21953482934E+01  0.96067955625E+00  0.35981008978E+01  0.00000000000E+00 0.  1.
</event>
<event>
 7    1  0.5714431E-011  0.5052885E+02  0.7816164E-02  0.1300439E+00
        -11   -1    0    0    0    0  0.00000000000E+00  0.00000000000E+00  0.45593999997E+02  0.45594000000E+02  0.51100000000E-03 0.  1.
         11   -1    0    0    0    0 -0.00000000000E+00 -0.00000000000E+00 -0.45593999997E+02  0.45594000000E+02  0.51100000000E-03 0. -1.
    9900012    2    1    2    0    0 -0.39844793693E+02  0.78151779761E+01  0.21170247021E+01  0.50528851154E+02  0.29999973569E+02 0.  0.
        -12    1    1    2    0    0  0.39844793693E+02 -0.78151779761E+01 -0.21170247021E+01  0.40659148846E+02  0.00000000000E+00 0.  1.
         11    1    3    3    0    0 -0.94769914789E+01  0.40881693345E+01 -0.82824382877E+01  0.13233490857E+02  0.51100000000E-03 0. -1.
        -11    1    3    3    0    0 -0.25319353566E+02  0.10440517147E+02  0.73205287096E+01  0.28348971836E+02  0.51100000000E-03 0.  1.
        -12    1    3    3    0    0 -0.50484486488E+01 -0.67135085057E+01  0.30789342803E+01  0.89463884623E+01  0.00000000000E+00 0.  1.
</event>
<event>
 7    1  0.5714431E-011  0.5052885E+02  0.7816164E-02  0.1300439E+00
        -11   -1    0    0    0    0  0.00000000000E+00  0.00000000000E+00  0.45593999997E+02  0.45594000000E+02  0.51100000000E-03 0. -1.
         11   -1    0    0    0    0 -0.00000000000E+00 -0.00000000000E+00 -0.45593999997E+02  0.45594000000E+02  0.51100000000E-03 0.  1.
    9900012    2    1    2    0    0 -0.10001169075E+02  0.15419900818E+02  0.36268026353E+02  0.50528850235E+02  0.29999970774E+02 0.  0.
        -12    1    1    2    0    0  0.10001169075E+02 -0.15419900818E+02 -0.36268026353E+02  0.40659149765E+02  0.00000000000E+00 0.  1.
         11    1    3    3    0    0  0.55715408504E+01 -0.42759441601E+01  0.17336386535E+02  0.18704974319E+02  0.51100000000E-03 0. -1.
        -11    1    3    3    0    0 -0.46818014536E+01  0.54672999876E+01  0.28313003604E+01  0.77347848061E+01  0.51100000000E-03 0.  1.
         12    1    3    3    0    0 -0.10890908471E+02  0.14228544990E+02  0.16100339457E+02  0.24089091110E+02  0.00000000000E+00 0. -1.
</event>
<event>
 7    1  0.5714431E-011  0.5052886E+02  0.7816164E-02  0.1300439E+00
        -11   -1    0    0    0    0  0.00000000000E+00  0.00000000000E+00  0.45593999997E+02  0.45594000000E+02  0.51100000000E-03 0.  1.
         11   -1    0    0    0    0 -0.00000000000E+00 -0.00000000000E+00 -0.45593999997E+02  0.45594000000E+02  0.51100000000E-03 0. -1.
    9900012    2    1    2    0    0 -0.29031395284E+02  0.53969699393E+01 -0.27950251230E+02  0.50528859078E+02  0.29999997653E+02 0.  0.
        -12    1    1    2    0    0  0.29031395284E+02 -0.53969699393E+01  0.27950251230E+02  0.40659140922E+02  0.00000000000E+00 0.  1.
         11    1    3    3    0    0  0.17400178809E+01  0.44804890921E+01 -0.11680666378E+02  0.12630930767E+02  0.51100000000E-03 0. -1.
        -11    1    3    3    0    0 -0.29735458916E+02  0.22243282305E+01 -0.18516021050E+02  0.35099689298E+02  0.51100000000E-03 0.  1.
        -12    1    3    3    0    0 -0.10359542490E+01 -0.13078473834E+01  0.22464361979E+01  0.27982390132E+01  0.00000000000E+00 0.  1.
</event>
<event>
 7    1  0.5714431E-011  0.5052891E+02  0.7816164E-02  0.1300439E+00
        -11   -1    0    0    0    0  0.00000000000E+00  0.00000000000E+00  0.45593999997E+02  0.45594000000E+02  0.51100000000E-03 0.  1.
         11   -1    0    0    0    0 -0.00000000000E+00 -0.00000000000E+00 -0.45593999997E+02  0.45594000000E+02  0.51100000000E-03 0. -1.
    9900012    2    1    2    0    0 -0.21912117820E+02  0.10588499096E+02 -0.32571525781E+02  0.50528911075E+02  0.30000155704E+02 0.  0.
        -12    1    1    2    0    0  0.21912117820E+02 -0.10588499096E+02  0.32571525781E+02  0.40659088925E+02  0.00000000000E+00 0.  1.
         11    1    3    3    0    0 -0.96496700602E+01 -0.75926035760E+00 -0.14325812349E+02  0.17289346671E+02  0.51100000000E-03 0. -1.
        -11    1    3    3    0    0 -0.31704713971E-01  0.12694286023E+02 -0.16490087571E+02  0.20810307330E+02  0.51100000000E-03 0.  1.
        -12    1    3    3    0    0 -0.12230743046E+02 -0.13465265697E+01 -0.17556258611E+01  0.12429257075E+02  0.00000000000E+00 0.  1.
</event>
<event>
 7    1  0.5714431E-011  0.5052886E+02  0.7816164E-02  0.1300439E+00
        -11   -1    0    0    0    0  0.00000000000E+00  0.00000000000E+00  0.45593999997E+02  0.45594000000E+02  0.51100000000E-03 0.  1.
         11   -1    0    0    0    0 -0.00000000000E+00 -0.00000000000E+00 -0.45593999997E+02  0.45594000000E+02  0.51100000000E-03 0. -1.
    9900012    2    1    2    0    0  0.25563746944E+02  0.46309890929E+01 -0.31276417556E+02  0.50528861876E+02  0.30000006160E+02 0.  0.
        -12    1    1    2    0    0 -0.25563746944E+02 -0.46309890929E+01  0.31276417556E+02  0.40659138124E+02  0.00000000000E+00 0.  1.
         11    1    3    3    0    0  0.19770175625E+02 -0.61451438705E+01 -0.16298128989E+02  0.26348655492E+02  0.51100000000E-03 0. -1.
        -11    1    3    3    0    0  0.67997699247E+01  0.13293501935E+02 -0.85562554662E+01  0.17209403610E+02  0.51100000000E-03 0.  1.
         12    1    3    3    0    0 -0.10061986056E+01 -0.25173689720E+01 -0.64220331014E+01  0.69708027751E+01  0.00000000000E+00 0. -1.
</event>
<event>
 7    1  0.5714431E-011  0.5052886E+02  0.7816164E-02  0.1300439E+00
        -11   -1    0    0    0    0  0.00000000000E+00  0.00000000000E+00  0.45593999997E+02  0.45594000000E+02  0.51100000000E-03 0.  1.
         11   -1    0    0    0    0 -0.00000000000E+00 -0.00000000000E+00 -0.45593999997E+02  0.45594000000E+02  0.51100000000E-03 0. -1.
    9900012    2    1    2    0    0  0.23938305804E+02 -0.28812344066E+02 -0.15810490992E+02  0.50528864732E+02  0.30000014839E+02 0.  0.
        -12    1    1    2    0    0 -0.23938305804E+02  0.28812344066E+02  0.15810490992E+02  0.40659135268E+02  0.00000000000E+00 0.  1.
         11    1    3    3    0    0  0.81470649874E+01 -0.86495860190E+01 -0.33061146885E+01  0.12333709937E+02  0.51100000000E-03 0. -1.
        -11    1    3    3    0    0  0.75262587583E+01 -0.10816999928E+02 -0.19768732051E+02  0.23758258049E+02  0.51100000000E-03 0.  1.
        -12    1    3    3    0    0  0.82649820582E+01 -0.93457581186E+01  0.72643557476E+01  0.14436896746E+02  0.00000000000E+00 0.  1.
</event>
<event>
 7    1  0.5714431E-011  0.5052885E+02  0.7816164E-02  0.1300439E+00
        -11   -1    0    0    0    0  0.00000000000E+00  0.00000000000E+00  0.45593999997E+02  0.45594000000E+02  0.51100000000E-03 0.  1.
         11   -1    0    0    0    0 -0.00000000000E+00 -0.00000000000E+00 -0.45593999997E+02  0.45594000000E+02  0.51100000000E-03 0. -1.
    9900012    2    1    2    0    0 -0.20130539710E+02  0.22718908226E+02 -0.27051409750E+02  0.50528853557E+02  0.29999980872E+02 0.  0.
        -12    1    1    2    0    0  0.20130539710E+02 -0.22718908226E+02  0.27051409750E+02  0.40659146443E+02  0.00000000000E+00 0.  1.
         11    1    3    3    0    0 -0.13437239900E+02 -0.79002397824E+00 -0.19825624898E+01  0.13605664566E+02  0.51100000000E-03 0. -1.
        -11    1    3    3    0    0  0.27254863774E+01  0.15290297138E+01 -0.38017155223E+01  0.49213056228E+01  0.51100000000E-03 0.  1.
         12    1    3    3    0    0 -0.94187861877E+01  0.21979902490E+02 -0.21267131738E+02  0.32001883368E+02  0.00000000000E+00 0. -1.
</event>
<event>
 7    1  0.5714431E-011  0.5052886E+02  0.7816164E-02  0.1300439E+00
        -11   -1    0    0    0    0  0.00000000000E+00  0.00000000000E+00  0.45593999997E+02  0.45594000000E+02  0.51100000000E-03 0. -1.
         11   -1    0    0    0    0 -0.00000000000E+00 -0.00000000000E+00 -0.45593999997E+02  0.45594000000E+02  0.51100000000E-03 0.  1.
    9900012    2    1    2    0    0  0.81533811826E+01 -0.12336038775E+01  0.39814142718E+02  0.50528863713E+02  0.30000011742E+02 0.  0.
        -12    1    1    2    0    0 -0.81533811826E+01  0.12336038775E+01 -0.39814142718E+02  0.40659136287E+02  0.00000000000E+00 0.  1.
         11    1    3    3    0    0  0.46811203155E+01 -0.14791468669E+02  0.28568093742E+02  0.32509020488E+02  0.51100000000E-03 0. -1.
        -11    1    3    3    0    0  0.20196566253E+01  0.48962809293E+01  0.41378545232E+01  0.67211918689E+01  0.51100000000E-03 0.  1.
         12    1    3    3    0    0  0.14526042418E+01  0.86615838620E+01  0.71081944528E+01  0.11298651356E+02  0.00000000000E+00 0. -1.
</event>
<event>
 7    1  0.5714431E-011  0.5052887E+02  0.7816164E-02  0.1300439E+00
        -11   -1    0    0    0    0  0.00000000000E+00  0.00000000000E+00  0.45593999997E+02  0.45594000000E+02  0.51100000000E-03 0.  1.
         11   -1    0    0    0    0 -0.00000000000E+00 -0.00000000000E+00 -0.45593999997E+02  0.45594000000E+02  0.51100000000E-03 0. -1.
    9900012    2    1    2    0    0 -0.76864491838E+01 -0.19492537136E+02 -0.34844287350E+02  0.50528869833E+02  0.30000030343E+02 0.  0.
        -12    1    1    2    0    0  0.76864491838E+01  0.19492537136E+02  0.34844287350E+02  0.40659130167E+02  0.00000000000E+00 0.  1.
         11    1    3    3    0    0 -0.13697575067E+01  0.29390080966E+01  0.29019938651E+01  0.43515023697E+01  0.51100000000E-03 0.  1.
        -11    1    3    3    0    0 -0.79949265938E+01 -0.17498467643E+02 -0.35749178632E+02  0.40597031840E+02  0.51100000000E-03 0. -1.
         12    1    3    3    0    0  0.16782349167E+01 -0.49330775888E+01 -0.19971025829E+01  0.55803356225E+01  0.00000000000E+00 0. -1.
</event>
<event>
 7    1  0.5714431E-011  0.5052885E+02  0.7816164E-02  0.1300439E+00
        -11   -1    0    0    0    0  0.00000000000E+00  0.00000000000E+00  0.45593999997E+02  0.45594000000E+02  0.51100000000E-03 0.  1.
         11   -1    0    0    0    0 -0.00000000000E+00 -0.00000000000E+00 -0.45593999997E+02  0.45594000000E+02  0.51100000000E-03 0. -1.
    9900012    2    1    2    0    0  0.69401380698E+01 -0.30869068031E+02 -0.25536278979E+02  0.50528850702E+02  0.29999972195E+02 0.  0.
        -12    1    1    2    0    0 -0.69401380698E+01  0.30869068031E+02  0.25536278979E+02  0.40659149298E+02  0.00000000000E+00 0.  1.
         11    1    3    3    0    0  0.11157912417E+02 -0.88954548670E+01 -0.21312025466E+02  0.25648207667E+02  0.51100000000E-03 0. -1.
        -11    1    3    3    0    0 -0.39194145156E+01 -0.18316999513E+02 -0.72893656097E+01  0.20099978422E+02  0.51100000000E-03 0.  1.
        -12    1    3    3    0    0 -0.29835983135E+00 -0.36566136509E+01  0.30651120969E+01  0.47806646136E+01  0.00000000000E+00 0.  1.
</event>
<event>
 7    1  0.5714431E-011  0.5052886E+02  0.7816164E-02  0.1300439E+00
        -11   -1    0    0    0    0  0.00000000000E+00  0.00000000000E+00  0.45593999997E+02  0.45594000000E+02  0.51100000000E-03 0. -1.
         11   -1    0    0    0    0 -0.00000000000E+00 -0.00000000000E+00 -0.45593999997E+02  0.45594000000E+02  0.51100000000E-03 0.  1.
    9900012    2    1    2    0    0  0.15890794777E+02  0.13164427597E+02  0.35033504064E+02  0.50528856876E+02  0.29999990959E+02 0.  0.
        -12    1    1    2    0    0 -0.15890794777E+02 -0.13164427597E+02 -0.35033504064E+02  0.40659143124E+02  0.00000000000E+00 0.  1.
         11    1    3    3    0    0  0.79524699044E+01 -0.18765314739E+00  0.17831014249E+02  0.19524908724E+02  0.51100000000E-03 0. -1.
        -11    1    3    3    0    0  0.25441222944E+01  0.17907043036E+02  0.15304711082E+02  0.23693225406E+02  0.51100000000E-03 0.  1.
        -12    1    3    3    0    0  0.53942025784E+01 -0.45549622924E+01  0.18977787326E+01  0.73107227454E+01  0.00000000000E+00 0.  1.
</event>
<event>
 7    1  0.5714431E-011  0.5052886E+02  0.7816164E-02  0.1300439E+00
        -11   -1    0    0    0    0  0.00000000000E+00  0.00000000000E+00  0.45593999997E+02  0.45594000000E+02  0.51100000000E-03 0.  1.
         11   -1    0    0    0    0 -0.00000000000E+00 -0.00000000000E+00 -0.45593999997E+02  0.45594000000E+02  0.51100000000E-03 0. -1.
    9900012    2    1    2    0    0 -0.17018988356E+02 -0.18735236308E+02 -0.31819966895E+02  0.50528864036E+02  0.30000012724E+02 0.  0.
        -12    1    1    2    0    0  0.17018988356E+02  0.18735236308E+02  0.31819966895E+02  0.40659135964E+02  0.00000000000E+00 0.  1.
         11    1    3    3    0    0  0.43339067687E+01 -0.12713416364E+02 -0.13140841140E+02  0.18790833128E+02  0.51100000000E-03 0. -1.
        -11    1    3    3    0    0 -0.11611763083E+02 -0.74117994368E+01 -0.45251972572E+01  0.14499835284E+02  0.51100000000E-03 0.  1.
         12    1    3    3    0    0 -0.97411320408E+01  0.13899794931E+01 -0.14153928498E+02  0.17238195623E+02  0.00000000000E+00 0. -1.
</event>
<event>
 7    1  0.5714431E-011  0.5052889E+02  0.7816164E-02  0.1300439E+00
        -11   -1    0    0    0    0  0.00000000000E+00  0.00000000000E+00  0.45593999997E+02  0.45594000000E+02  0.51100000000E-03 0. -1.
         11   -1    0    0    0    0 -0.00000000000E+00 -0.00000000000E+00 -0.45593999997E+02  0.45594000000E+02  0.51100000000E-03 0.  1.
    9900012    2    1    2    0    0  0.80974775163E+01  0.39381157229E+02  0.60596107205E+01  0.50528885783E+02  0.30000078825E+02 0.  0.
        -12    1    1    2    0    0 -0.80974775163E+01 -0.39381157229E+02 -0.60596107205E+01  0.40659114217E+02  0.00000000000E+00 0.  1.
         11    1    3    3    0    0  0.15993877024E+01  0.89612910098E+01  0.11076628675E+02  0.14337171292E+02  0.51100000000E-03 0. -1.
        -11    1    3    3    0    0 -0.34979573178E+00  0.27595386523E+02 -0.67589468191E+00  0.27605878872E+02  0.51100000000E-03 0.  1.
        -12    1    3    3    0    0  0.68478855458E+01  0.28244796962E+01 -0.43411232726E+01  0.85858356186E+01  0.00000000000E+00 0.  1.
</event>
<event>
 7    1  0.5714431E-011  0.5052890E+02  0.7816164E-02  0.1300439E+00
        -11   -1    0    0    0    0  0.00000000000E+00  0.00000000000E+00  0.45593999997E+02  0.45594000000E+02  0.51100000000E-03 0.  1.
         11   -1    0    0    0    0 -0.00000000000E+00 -0.00000000000E+00 -0.45593999997E+02  0.45594000000E+02  0.51100000000E-03 0. -1.
    9900012    2    1    2    0    0 -0.29042572669E+02 -0.78193354252E+01 -0.27359629978E+02  0.50528900326E+02  0.30000123031E+02 0.  0.
        -12    1    1    2    0    0  0.29042572669E+02  0.78193354252E+01  0.27359629978E+02  0.40659099674E+02  0.00000000000E+00 0.  1.
         11    1    3    3    0    0 -0.30317888287E+02  0.88080377316E+00 -0.13354897909E+02  0.33140661790E+02  0.51100000000E-03 0. -1.
        -11    1    3    3    0    0 -0.11941899513E+00 -0.41311158423E+01 -0.10984915659E+02  0.11736641397E+02  0.51100000000E-03 0.  1.
         12    1    3    3    0    0  0.13947346125E+01 -0.45690233561E+01 -0.30198164103E+01  0.56515971388E+01  0.00000000000E+00 0. -1.
</event>
<event>
 7    1  0.5714431E-011  0.5052881E+02  0.7816164E-02  0.1300439E+00
        -11   -1    0    0    0    0  0.00000000000E+00  0.00000000000E+00  0.45593999997E+02  0.45594000000E+02  0.51100000000E-03 0.  1.
         11   -1    0    0    0    0 -0.00000000000E+00 -0.00000000000E+00 -0.45593999997E+02  0.45594000000E+02  0.51100000000E-03 0. -1.
    9900012    2    1    2    0    0 -0.40045054141E+02 -0.62329874755E+01 -0.32731184727E+01  0.50528809175E+02  0.29999845967E+02 0.  0.
        -12    1    1    2    0    0  0.40045054141E+02  0.62329874755E+01  0.32731184727E+01  0.40659190825E+02  0.00000000000E+00 0.  1.
         11    1    3    3    0    0 -0.20018819011E+02 -0.72380697798E+00  0.98050053164E+01  0.22302805668E+02  0.51100000000E-03 0. -1.
        -11    1    3    3    0    0 -0.52352674497E+01  0.23522442901E+01 -0.94978113030E+01  0.11097274363E+02  0.51100000000E-03 0.  1.
         12    1    3    3    0    0 -0.14790967680E+02 -0.78614247876E+01 -0.35803124860E+01  0.17128729145E+02  0.00000000000E+00 0. -1.
</event>
<event>
 7    1  0.5714431E-011  0.5052886E+02  0.7816164E-02  0.1300439E+00
        -11   -1    0    0    0    0  0.00000000000E+00  0.00000000000E+00  0.45593999997E+02  0.45594000000E+02  0.51100000000E-03 0. -1.
         11   -1    0    0    0    0 -0.00000000000E+00 -0.00000000000E+00 -0.45593999997E+02  0.45594000000E+02  0.51100000000E-03 0.  1.
    9900012    2    1    2    0    0 -0.28475773898E+02  0.10707033918E+02  0.26975086998E+02  0.50528860893E+02  0.30000003169E+02 0.  0.
        -12    1    1    2    0    0  0.28475773898E+02 -0.10707033918E+02 -0.26975086998E+02  0.40659139107E+02  0.00000000000E+00 0.  1.
         11    1    3    3    0    0 -0.76934970111E+01 -0.70948229392E+00 -0.58214657891E+01  0.96738164951E+01  0.51100000000E-03 0.  1.
        -11    1    3    3    0    0 -0.76252308034E+01  0.57039642367E+01  0.17239293939E+02  0.19694481679E+02  0.51100000000E-03 0. -1.
        -12    1    3    3    0    0 -0.13157046083E+02  0.57125519754E+01  0.15557258848E+02  0.21160562719E+02  0.00000000000E+00 0.  1.
</event>
<event>
 7    1  0.5714431E-011  0.5052886E+02  0.7816164E-02  0.1300439E+00
        -11   -1    0    0    0    0  0.00000000000E+00  0.00000000000E+00  0.45593999997E+02  0.45594000000E+02  0.51100000000E-03 0. -1.
         11   -1    0    0    0    0 -0.00000000000E+00 -0.00000000000E+00 -0.45593999997E+02  0.45594000000E+02  0.51100000000E-03 0.  1.
    9900012    2    1    2    0    0  0.36727682219E+02  0.50777860479E+01 -0.16687086157E+02  0.50528863306E+02  0.30000010504E+02 0.  0.
        -12    1    1    2    0    0 -0.36727682219E+02 -0.50777860479E+01  0.16687086157E+02  0.40659136694E+02  0.00000000000E+00 0.  1.
         11    1    3    3    0    0  0.51816334703E+01 -0.33237833628E+01 -0.16544703966E+00  0.61582655227E+01  0.51100000000E-03 0. -1.
        -11    1    3    3    0    0  0.14220969571E+02  0.13928560772E+01 -0.20764524779E+02  0.25205981694E+02  0.51100000000E-03 0.  1.
        -12    1    3    3    0    0  0.17325079177E+02  0.70087133334E+01  0.42428856619E+01  0.19164616089E+02  0.00000000000E+00 0.  1.
</event>
<event>
 7    1  0.5714431E-011  0.5052887E+02  0.7816164E-02  0.1300439E+00
        -11   -1    0    0    0    0  0.00000000000E+00  0.00000000000E+00  0.45593999997E+02  0.45594000000E+02  0.51100000000E-03 0. -1.
         11   -1    0    0    0    0 -0.00000000000E+00 -0.00000000000E+00 -0.45593999997E+02  0.45594000000E+02  0.51100000000E-03 0.  1.
    9900012    2    1    2    0    0 -0.12759497316E+02  0.27661873436E+02  0.26929177504E+02  0.50528872921E+02  0.30000039732E+02 0.  0.
        -12    1    1    2    0    0  0.12759497316E+02 -0.27661873436E+02 -0.26929177504E+02  0.40659127079E+02  0.00000000000E+00 0.  1.
         11    1    3    3    0    0  0.40437715872E+01  0.72864794438E+01  0.21486485397E+02  0.23045909101E+02  0.51100000000E-03 0.  1.
        -11    1    3    3    0    0 -0.12333950192E+02  0.17566848541E+02  0.30228478918E+01  0.21676210569E+02  0.51100000000E-03 0. -1.
        -12    1    3    3    0    0 -0.44693187114E+01  0.28085454513E+01  0.24198442159E+01  0.58067532516E+01  0.00000000000E+00 0.  1.
</event>
<event>
 7    1  0.5714431E-011  0.5052886E+02  0.7816164E-02  0.1300439E+00
        -11   -1    0    0    0    0  0.00000000000E+00  0.00000000000E+00  0.45593999997E+02  0.45594000000E+02  0.51100000000E-03 0. -1.
         11   -1    0    0    0    0 -0.00000000000E+00 -0.00000000000E+00 -0.45593999997E+02  0.45594000000E+02  0.51100000000E-03 0.  1.
    9900012    2    1    2    0    0 -0.18683431862E+02 -0.17300497478E+02  0.31698390500E+02  0.50528858353E+02  0.29999995450E+02 0.  0.
        -12    1    1    2    0    0  0.18683431862E+02  0.17300497478E+02 -0.31698390500E+02  0.40659141647E+02  0.00000000000E+00 0.  1.
         11    1    3    3    0    0  0.45320417296E+01 -0.25390982471E+01  0.31074216513E+01  0.60533041992E+01  0.51100000000E-03 0. -1.
        -11    1    3    3    0    0 -0.12133709222E+02 -0.11016081002E+02  0.34516470152E+01  0.16747979207E+02  0.51100000000E-03 0.  1.
         12    1    3    3    0    0 -0.11081764370E+02 -0.37453182289E+01  0.25139321834E+02  0.27727574947E+02  0.00000000000E+00 0. -1.
</event>
<event>
 7    1  0.5714431E-011  0.5052888E+02  0.7816164E-02  0.1300439E+00
        -11   -1    0    0    0    0  0.00000000000E+00  0.00000000000E+00  0.45593999997E+02  0.45594000000E+02  0.51100000000E-03 0. -1.
         11   -1    0    0    0    0 -0.00000000000E+00 -0.00000000000E+00 -0.45593999997E+02  0.45594000000E+02  0.51100000000E-03 0.  1.
    9900012    2    1    2    0    0  0.59973668469E+01  0.64842140223E+01 -0.39688170997E+02  0.50528876084E+02  0.30000049344E+02 0.  0.
        -12    1    1    2    0    0 -0.59973668469E+01 -0.64842140223E+01  0.39688170997E+02  0.40659123916E+02  0.00000000000E+00 0.  1.
         11    1    3    3    0    0 -0.82274283177E+01 -0.14651030840E+01 -0.71854228378E+01  0.11021225222E+02  0.51100000000E-03 0. -1.
        -11    1    3    3    0    0  0.65473667801E+01  0.98540958163E+01 -0.94694731531E+01  0.15153947940E+02  0.51100000000E-03 0.  1.
        -12    1    3    3    0    0  0.76774283845E+01 -0.19047787099E+01 -0.23033275006E+02  0.24353702922E+02  0.00000000000E+00 0.  1.
</event>
<event>
 7    1  0.5714431E-011  0.5052887E+02  0.7816164E-02  0.1300439E+00
        -11   -1    0    0    0    0  0.00000000000E+00  0.00000000000E+00  0.45593999997E+02  0.45594000000E+02  0.51100000000E-03 0.  1.
         11   -1    0    0    0    0 -0.00000000000E+00 -0.00000000000E+00 -0.45593999997E+02  0.45594000000E+02  0.51100000000E-03 0. -1.
    9900012    2    1    2    0    0 -0.30350138646E+02  0.52208932725E+01 -0.26547628414E+02  0.50528865518E+02  0.30000017229E+02 0.  0.
        -12    1    1    2    0    0  0.30350138646E+02 -0.52208932725E+01  0.26547628414E+02  0.40659134482E+02  0.00000000000E+00 0.  1.
         11    1    3    3    0    0 -0.11562265776E+02  0.13933186371E+02 -0.25607322554E+01  0.18285978844E+02  0.51100000000E-03 0. -1.
        -11    1    3    3    0    0 -0.60751188754E+01 -0.17255054692E+01 -0.37532879936E+01  0.73465372454E+01  0.51100000000E-03 0.  1.
         12    1    3    3    0    0 -0.12712753995E+02 -0.69867876293E+01 -0.20233608165E+02  0.24896349429E+02  0.00000000000E+00 0. -1.
</event>
<event>
 7    1  0.5714431E-011  0.5052884E+02  0.7816164E-02  0.1300439E+00
        -11   -1    0    0    0    0  0.00000000000E+00  0.00000000000E+00  0.45593999997E+02  0.45594000000E+02  0.51100000000E-03 0. -1.
         11   -1    0    0    0    0 -0.00000000000E+00 -0.00000000000E+00 -0.45593999997E+02  0.45594000000E+02  0.51100000000E-03 0.  1.
    9900012    2    1    2    0    0  0.26830628448E+02  0.23282906541E+02  0.19778546029E+02  0.50528840602E+02  0.29999941494E+02 0.  0.
        -12    1    1    2    0    0 -0.26830628448E+02 -0.23282906541E+02 -0.19778546029E+02  0.40659159398E+02  0.00000000000E+00 0.  1.
         11    1    3    3    0    0  0.98287072461E+01  0.13184327691E+02  0.13814311709E+02  0.21477085255E+02  0.51100000000E-03 0. -1.
        -11    1    3    3    0    0 -0.44871006986E+01  0.17044126185E+01 -0.10995510368E+01  0.49242367730E+01  0.51100000000E-03 0.  1.
        -12    1    3    3    0    0  0.21489021901E+02  0.83941662313E+01  0.70637853566E+01  0.24127518574E+02  0.00000000000E+00 0.  1.
</event>
<event>
 7    1  0.5943117E-011  0.5052886E+02  0.7816164E-02  0.1300439E+00
        -11   -1    0    0    0    0  0.00000000000E+00  0.00000000000E+00  0.45593999997E+02  0.45594000000E+02  0.51100000000E-03 0.  1.
         11   -1    0    0    0    0 -0.00000000000E+00 -0.00000000000E+00 -0.45593999997E+02  0.45594000000E+02  0.51100000000E-03 0. -1.
    9900012    2    1    2    0    0  0.37188859959E+02  0.16322845378E+02  0.19284731237E+01  0.50528860869E+02  0.30000003096E+02 0.  0.
        -12    1    1    2    0    0 -0.37188859959E+02 -0.16322845378E+02 -0.19284731237E+01  0.40659139131E+02  0.00000000000E+00 0.  1.
         11    1    3    3    0    0  0.70060211397E+01  0.13384956224E+02 -0.63683199088E+01  0.16395026199E+02  0.51100000000E-03 0. -1.
        -11    1    3    3    0    0  0.14460045336E+02 -0.52467939577E+01  0.40456277199E+01  0.15905623593E+02  0.51100000000E-03 0.  1.
         12    1    3    3    0    0  0.15722793483E+02  0.81846831116E+01  0.42511653126E+01  0.18228211077E+02  0.00000000000E+00 0. -1.
</event>
<event>
 7    1  0.5714431E-011  0.5052882E+02  0.7816164E-02  0.1300439E+00
        -11   -1    0    0    0    0  0.00000000000E+00  0.00000000000E+00  0.45593999997E+02  0.45594000000E+02  0.51100000000E-03 0.  1.
         11   -1    0    0    0    0 -0.00000000000E+00 -0.00000000000E+00 -0.45593999997E+02  0.45594000000E+02  0.51100000000E-03 0. -1.
    9900012    2    1    2    0    0 -0.29901101729E+02  0.27141163230E+02  0.47381584822E+01  0.50528821800E+02  0.29999884344E+02 0.  0.
        -12    1    1    2    0    0  0.29901101729E+02 -0.27141163230E+02 -0.47381584822E+01  0.40659178200E+02  0.00000000000E+00 0.  1.
         11    1    3    3    0    0  0.47965403870E+01  0.35704515379E+01  0.20267710908E+01  0.63136934661E+01  0.51100000000E-03 0.  1.
        -11    1    3    3    0    0 -0.22728437520E+02  0.21194895033E+02  0.58315729939E+01  0.31619814855E+02  0.51100000000E-03 0. -1.
         12    1    3    3    0    0 -0.11969204596E+02  0.23758166582E+01 -0.31201856026E+01  0.12595313480E+02  0.00000000000E+00 0. -1.
</event>
<event>
 7    1  0.5714431E-011  0.5052886E+02  0.7816164E-02  0.1300439E+00
        -11   -1    0    0    0    0  0.00000000000E+00  0.00000000000E+00  0.45593999997E+02  0.45594000000E+02  0.51100000000E-03 0.  1.
         11   -1    0    0    0    0 -0.00000000000E+00 -0.00000000000E+00 -0.45593999997E+02  0.45594000000E+02  0.51100000000E-03 0. -1.
    9900012    2    1    2    0    0 -0.97352157366E+01  0.32430075210E+02 -0.22509593663E+02  0.50528855759E+02  0.29999987565E+02 0.  0.
        -12    1    1    2    0    0  0.97352157366E+01 -0.32430075210E+02  0.22509593663E+02  0.40659144241E+02  0.00000000000E+00 0.  1.
         11    1    3    3    0    0 -0.17432986594E+01  0.21450005386E+02 -0.10893743700E+01  0.21548284341E+02  0.51100000000E-03 0. -1.
        -11    1    3    3    0    0 -0.11848159414E+02  0.63087822624E+01 -0.15601644809E+02  0.20581324936E+02  0.51100000000E-03 0.  1.
        -12    1    3    3    0    0  0.38562423363E+01  0.46712875619E+01 -0.58185744842E+01  0.83992464822E+01  0.00000000000E+00 0.  1.
</event>
<event>
 7    1  0.5714431E-011  0.5052880E+02  0.7816164E-02  0.1300439E+00
        -11   -1    0    0    0    0  0.00000000000E+00  0.00000000000E+00  0.45593999997E+02  0.45594000000E+02  0.51100000000E-03 0.  1.
         11   -1    0    0    0    0 -0.00000000000E+00 -0.00000000000E+00 -0.45593999997E+02  0.45594000000E+02  0.51100000000E-03 0. -1.
    9900012    2    1    2    0    0  0.90975107817E+01 -0.98621152811E+01 -0.38381566866E+02  0.50528798147E+02  0.29999812447E+02 0.  0.
        -12    1    1    2    0    0 -0.90975107817E+01  0.98621152811E+01  0.38381566866E+02  0.40659201853E+02  0.00000000000E+00 0.  1.
         11    1    3    3    0    0  0.58068051214E+01 -0.24158227717E+01 -0.20378356296E+02  0.21326804518E+02  0.51100000000E-03 0. -1.
        -11    1    3    3    0    0  0.22327875893E+01  0.33114656666E+01  0.33862701559E+01  0.52362172520E+01  0.51100000000E-03 0.  1.
        -12    1    3    3    0    0  0.10579180710E+01 -0.10757758176E+02 -0.21389480726E+02  0.23965776377E+02  0.00000000000E+00 0.  1.
</event>
<event>
 7    1  0.5714431E-011  0.5052887E+02  0.7816164E-02  0.1300439E+00
        -11   -1    0    0    0    0  0.00000000000E+00  0.00000000000E+00  0.45593999997E+02  0.45594000000E+02  0.51100000000E-03 0.  1.
         11   -1    0    0    0    0 -0.00000000000E+00 -0.00000000000E+00 -0.45593999997E+02  0.45594000000E+02  0.51100000000E-03 0. -1.
    9900012    2    1    2    0    0 -0.40382964815E+02 -0.35490324466E+01 -0.31281870824E+01  0.50528867779E+02  0.30000024102E+02 0.  0.
        -12    1    1    2    0    0  0.40382964815E+02  0.35490324466E+01  0.31281870824E+01  0.40659132221E+02  0.00000000000E+00 0.  1.
         11    1    3    3    0    0 -0.22123828064E+02 -0.14327189055E+02 -0.57923402794E+01  0.26986724895E+02  0.51100000000E-03 0. -1.
        -11    1    3    3    0    0 -0.14846071464E+02  0.56927425491E+01  0.54574955807E+01  0.16810633954E+02  0.51100000000E-03 0.  1.
         12    1    3    3    0    0 -0.34130652864E+01  0.50854140590E+01 -0.27933423837E+01  0.67315089299E+01  0.00000000000E+00 0. -1.
</event>
<event>
 7    1  0.5714431E-011  0.5052886E+02  0.7816164E-02  0.1300439E+00
        -11   -1    0    0    0    0  0.00000000000E+00  0.00000000000E+00  0.45593999997E+02  0.45594000000E+02  0.51100000000E-03 0.  1.
         11   -1    0    0    0    0 -0.00000000000E+00 -0.00000000000E+00 -0.45593999997E+02  0.45594000000E+02  0.51100000000E-03 0. -1.
    9900012    2    1    2    0    0  0.17256965409E+02  0.36807314365E+02 -0.76455970571E+00  0.50528858378E+02  0.29999995527E+02 0.  0.
        -12    1    1    2    0    0 -0.17256965409E+02 -0.36807314365E+02  0.76455970571E+00  0.40659141622E+02  0.00000000000E+00 0.  1.
         11    1    3    3    0    0  0.16950771124E+01  0.45292347734E+01 -0.63567479271E+01  0.79872084310E+01  0.51100000000E-03 0. -1.
        -11    1    3    3    0    0  0.14737231026E+02  0.34862882100E+02  0.82556117857E+01  0.38739665110E+02  0.51100000000E-03 0.  1.
        -12    1    3    3    0    0  0.82465726988E+00 -0.25848025083E+01 -0.26634235643E+01  0.38019848372E+01  0.00000000000E+00 0.  1.
</event>
<event>
 7    1  0.5714431E-011  0.5052878E+02  0.7816164E-02  0.1300439E+00
        -11   -1    0    0    0    0  0.00000000000E+00  0.00000000000E+00  0.45593999997E+02  0.45594000000E+02  0.51100000000E-03 0. -1.
         11   -1    0    0    0    0 -0.00000000000E+00 -0.00000000000E+00 -0.45593999997E+02  0.45594000000E+02  0.51100000000E-03 0.  1.
    9900012    2    1    2    0    0  0.27412542268E+02  0.12588747812E+02  0.27262580745E+02  0.50528777750E+02  0.29999750449E+02 0.  0.
        -12    1    1    2    0    0 -0.27412542268E+02 -0.12588747812E+02 -0.27262580745E+02  0.40659222250E+02  0.00000000000E+00 0.  1.
         11    1    3    3    0    0  0.16368403835E+02 -0.69323469304E+01  0.74852656452E+01  0.19287593943E+02  0.51100000000E-03 0.  1.
        -11    1    3    3    0    0  0.59817954523E+01  0.17107302604E+02  0.17484259000E+02  0.25182156227E+02  0.51100000000E-03 0. -1.
         12    1    3    3    0    0  0.50623429802E+01  0.24137921383E+01  0.22930561004E+01  0.60590275800E+01  0.00000000000E+00 0. -1.
</event>
<event>
 7    1  0.5714431E-011  0.5052886E+02  0.7816164E-02  0.1300439E+00
        -11   -1    0    0    0    0  0.00000000000E+00  0.00000000000E+00  0.45593999997E+02  0.45594000000E+02  0.51100000000E-03 0.  1.
         11   -1    0    0    0    0 -0.00000000000E+00 -0.00000000000E+00 -0.45593999997E+02  0.45594000000E+02  0.51100000000E-03 0. -1.
    9900012    2    1    2    0    0  0.13134848050E+02 -0.34826667199E+02 -0.16362909246E+02  0.50528858587E+02  0.29999996161E+02 0.  0.
        -12    1    1    2    0    0 -0.13134848050E+02  0.34826667199E+02  0.16362909246E+02  0.40659141413E+02  0.00000000000E+00 0.  1.
         11    1    3    3    0    0  0.45480026166E+01 -0.29007324215E+02 -0.60759090136E+01  0.29983759880E+02  0.51100000000E-03 0. -1.
        -11    1    3    3    0    0 -0.25198789818E+01  0.31715917663E+00  0.17265720427E+01  0.30710635464E+01  0.51100000000E-03 0.  1.
         12    1    3    3    0    0  0.11106724415E+02 -0.61365021601E+01 -0.12013572275E+02  0.17474035161E+02  0.00000000000E+00 0. -1.
</event>
<event>
 7    1  0.5714431E-011  0.5052886E+02  0.7816164E-02  0.1300439E+00
        -11   -1    0    0    0    0  0.00000000000E+00  0.00000000000E+00  0.45593999997E+02  0.45594000000E+02  0.51100000000E-03 0.  1.
         11   -1    0    0    0    0 -0.00000000000E+00 -0.00000000000E+00 -0.45593999997E+02  0.45594000000E+02  0.51100000000E-03 0. -1.
    9900012    2    1    2    0    0  0.28214267271E+02 -0.94170076402E+00 -0.29261481062E+02  0.50528856478E+02  0.29999989752E+02 0.  0.
        -12    1    1    2    0    0 -0.28214267271E+02  0.94170076402E+00  0.29261481062E+02  0.40659143522E+02  0.00000000000E+00 0.  1.
         11    1    3    3    0    0  0.55485994718E+01  0.94990507743E+01 -0.18044923631E+02  0.21133816287E+02  0.51100000000E-03 0. -1.
        -11    1    3    3    0    0  0.46196216495E+01 -0.34698688280E+01  0.18308609928E+01  0.60607710817E+01  0.51100000000E-03 0.  1.
         12    1    3    3    0    0  0.18046046149E+02 -0.69708827103E+01 -0.13047418424E+02  0.23334269110E+02  0.00000000000E+00 0. -1.
</event>
<event>
 7    1  0.5714431E-011  0.5052885E+02  0.7816164E-02  0.1300439E+00
        -11   -1    0    0    0    0  0.00000000000E+00  0.00000000000E+00  0.45593999997E+02  0.45594000000E+02  0.51100000000E-03 0.  1.
         11   -1    0    0    0    0 -0.00000000000E+00 -0.00000000000E+00 -0.45593999997E+02  0.45594000000E+02  0.51100000000E-03 0. -1.
    9900012    2    1    2    0    0 -0.19058734621E+02 -0.35913324590E+02 -0.40521669967E+00  0.50528850365E+02  0.29999971171E+02 0.  0.
        -12    1    1    2    0    0  0.19058734621E+02  0.35913324590E+02  0.40521669967E+00  0.40659149635E+02  0.00000000000E+00 0.  1.
         11    1    3    3    0    0 -0.25804465656E+01 -0.12462731908E+01  0.12661507924E+01  0.31328963331E+01  0.51100000000E-03 0. -1.
        -11    1    3    3    0    0 -0.12659213905E+02 -0.36950618198E+01 -0.81792484658E+01  0.15518030941E+02  0.51100000000E-03 0.  1.
        -12    1    3    3    0    0 -0.38190741500E+01 -0.30971989579E+02  0.65078809737E+01  0.31877923091E+02  0.00000000000E+00 0.  1.
</event>
<event>
 7    1  0.5714431E-011  0.5052888E+02  0.7816164E-02  0.1300439E+00
        -11   -1    0    0    0    0  0.00000000000E+00  0.00000000000E+00  0.45593999997E+02  0.45594000000E+02  0.51100000000E-03 0.  1.
         11   -1    0    0    0    0 -0.00000000000E+00 -0.00000000000E+00 -0.45593999997E+02  0.45594000000E+02  0.51100000000E-03 0. -1.
    9900012    2    1    2    0    0 -0.13375229810E+01 -0.40460313590E+02 -0.37866086196E+01  0.50528876198E+02  0.30000049691E+02 0.  0.
        -12    1    1    2    0    0  0.13375229810E+01  0.40460313590E+02  0.37866086196E+01  0.40659123802E+02  0.00000000000E+00 0.  1.
         11    1    3    3    0    0 -0.19798112562E+00 -0.10236474797E+02 -0.59761404591E+01  0.11854909019E+02  0.51100000000E-03 0. -1.
        -11    1    3    3    0    0  0.49330046284E+01 -0.11528315802E+02  0.11417522632E+02  0.16958668084E+02  0.51100000000E-03 0.  1.
        -12    1    3    3    0    0 -0.60725464838E+01 -0.18695522991E+02 -0.92279907922E+01  0.21715299094E+02  0.00000000000E+00 0.  1.
</event>
<event>
 7    1  0.5714431E-011  0.5052885E+02  0.7816164E-02  0.1300439E+00
        -11   -1    0    0    0    0  0.00000000000E+00  0.00000000000E+00  0.45593999997E+02  0.45594000000E+02  0.51100000000E-03 0. -1.
         11   -1    0    0    0    0 -0.00000000000E+00 -0.00000000000E+00 -0.45593999997E+02  0.45594000000E+02  0.51100000000E-03 0.  1.
    9900012    2    1    2    0    0 -0.34055911577E+02 -0.21920304645E+02  0.35863260857E+01  0.50528848461E+02  0.29999965383E+02 0.  0.
        -12    1    1    2    0    0  0.34055911577E+02  0.21920304645E+02 -0.35863260857E+01  0.40659151539E+02  0.00000000000E+00 0.  1.
         11    1    3    3    0    0 -0.21301410754E+02 -0.11457220093E+02  0.13204023233E+02  0.27556564049E+02  0.51100000000E-03 0. -1.
        -11    1    3    3    0    0 -0.15152143009E+02 -0.86700620035E+01 -0.97117560405E+01  0.19976877097E+02  0.51100000000E-03 0.  1.
        -12    1    3    3    0    0  0.23976421858E+01 -0.17930225479E+01  0.94058893040E-01  0.29954073152E+01  0.00000000000E+00 0.  1.
</event>
<event>
 7    1  0.5714431E-011  0.5052887E+02  0.7816164E-02  0.1300439E+00
        -11   -1    0    0    0    0  0.00000000000E+00  0.00000000000E+00  0.45593999997E+02  0.45594000000E+02  0.51100000000E-03 0.  1.
         11   -1    0    0    0    0 -0.00000000000E+00 -0.00000000000E+00 -0.45593999997E+02  0.45594000000E+02  0.51100000000E-03 0. -1.
    9900012    2    1    2    0    0 -0.11043603439E+02 -0.80829300364E+01 -0.38286681201E+02  0.50528869509E+02  0.30000029360E+02 0.  0.
        -12    1    1    2    0    0  0.11043603439E+02  0.80829300364E+01  0.38286681201E+02  0.40659130491E+02  0.00000000000E+00 0.  1.
         11    1    3    3    0    0 -0.11073573192E+02 -0.57057680352E+01 -0.22333469804E+02  0.25572713698E+02  0.51100000000E-03 0. -1.
        -11    1    3    3    0    0  0.74425240334E+01 -0.53296640921E+00 -0.21784242503E+00  0.74647620702E+01  0.51100000000E-03 0.  1.
        -12    1    3    3    0    0 -0.74125542798E+01 -0.18441955920E+01 -0.15735368972E+02  0.17491393741E+02  0.00000000000E+00 0.  1.
</event>
<event>
 7    1  0.5714431E-011  0.5052890E+02  0.7816164E-02  0.1300439E+00
        -11   -1    0    0    0    0  0.00000000000E+00  0.00000000000E+00  0.45593999997E+02  0.45594000000E+02  0.51100000000E-03 0. -1.
         11   -1    0    0    0    0 -0.00000000000E+00 -0.00000000000E+00 -0.45593999997E+02  0.45594000000E+02  0.51100000000E-03 0.  1.
    9900012    2    1    2    0    0  0.38845532605E+02 -0.11916523443E+02  0.14775426265E+01  0.50528904258E+02  0.30000134983E+02 0.  0.
        -12    1    1    2    0    0 -0.38845532605E+02  0.11916523443E+02 -0.14775426265E+01  0.40659095742E+02  0.00000000000E+00 0.  1.
         11    1    3    3    0    0  0.12741071194E+02 -0.25235775036E+01  0.13944546188E+02  0.19056592225E+02  0.51100000000E-03 0. -1.
        -11    1    3    3    0    0  0.77306181721E+01  0.88799931772E+00 -0.24634872218E+01  0.81620934609E+01  0.51100000000E-03 0.  1.
         12    1    3    3    0    0  0.18373843238E+02 -0.10280945257E+02 -0.10003516340E+02  0.23310218572E+02  0.00000000000E+00 0. -1.
</event>
<event>
 7    1  0.5714431E-011  0.5052889E+02  0.7816164E-02  0.1300439E+00
        -11   -1    0    0    0    0  0.00000000000E+00  0.00000000000E+00  0.45593999997E+02  0.45594000000E+02  0.51100000000E-03 0. -1.
         11   -1    0    0    0    0 -0.00000000000E+00 -0.00000000000E+00 -0.45593999997E+02  0.45594000000E+02  0.51100000000E-03 0.  1.
    9900012    2    1    2    0    0 -0.38015720670E+02 -0.25580845001E+01 -0.14192406640E+02  0.50528890066E+02  0.30000091844E+02 0.  0.
        -12    1    1    2    0    0  0.38015720670E+02  0.25580845001E+01  0.14192406640E+02  0.40659109934E+02  0.00000000000E+00 0.  1.
         11    1    3    3    0    0 -0.87455705892E+01  0.57419205188E+00  0.32657776419E+01  0.93530746448E+01  0.51100000000E-03 0. -1.
        -11    1    3    3    0    0 -0.23884585870E+02  0.56035909042E+01 -0.18687585960E+02  0.30839901791E+02  0.51100000000E-03 0.  1.
        -12    1    3    3    0    0 -0.53855642115E+01 -0.87358674562E+01  0.12294016775E+01  0.10335913630E+02  0.00000000000E+00 0.  1.
</event>
<event>
 7    1  0.5714431E-011  0.5052882E+02  0.7816164E-02  0.1300439E+00
        -11   -1    0    0    0    0  0.00000000000E+00  0.00000000000E+00  0.45593999997E+02  0.45594000000E+02  0.51100000000E-03 0. -1.
         11   -1    0    0    0    0 -0.00000000000E+00 -0.00000000000E+00 -0.45593999997E+02  0.45594000000E+02  0.51100000000E-03 0.  1.
    9900012    2    1    2    0    0  0.32555063421E+02 -0.24356037187E+02  0.34711153218E+00  0.50528816680E+02  0.29999868780E+02 0.  0.
        -12    1    1    2    0    0 -0.32555063421E+02  0.24356037187E+02 -0.34711153218E+00  0.40659183320E+02  0.00000000000E+00 0.  1.
         11    1    3    3    0    0  0.21691424647E+02 -0.25311616444E+02  0.69964528539E+01  0.34060918705E+02  0.51100000000E-03 0. -1.
        -11    1    3    3    0    0  0.12354886166E+02  0.20424900205E+01 -0.38241969873E+01  0.13093489241E+02  0.51100000000E-03 0.  1.
         12    1    3    3    0    0 -0.14912473915E+01 -0.10869107639E+01 -0.28251443345E+01  0.33744087337E+01  0.00000000000E+00 0. -1.
</event>
<event>
 7    1  0.5714431E-011  0.5052886E+02  0.7816164E-02  0.1300439E+00
        -11   -1    0    0    0    0  0.00000000000E+00  0.00000000000E+00  0.45593999997E+02  0.45594000000E+02  0.51100000000E-03 0. -1.
         11   -1    0    0    0    0 -0.00000000000E+00 -0.00000000000E+00 -0.45593999997E+02  0.45594000000E+02  0.51100000000E-03 0.  1.
    9900012    2    1    2    0    0 -0.19756273626E+02 -0.28384802257E+02  0.21381257754E+02  0.50528861668E+02  0.30000005526E+02 0.  0.
        -12    1    1    2    0    0  0.19756273626E+02  0.28384802257E+02 -0.21381257754E+02  0.40659138332E+02  0.00000000000E+00 0.  1.
         11    1    3    3    0    0  0.32967863190E+01 -0.13759956314E+02  0.17183914844E+02  0.22259652455E+02  0.51100000000E-03 0. -1.
        -11    1    3    3    0    0 -0.17495192680E+02 -0.11411650008E+02  0.57062057047E+00  0.20895768254E+02  0.51100000000E-03 0.  1.
         12    1    3    3    0    0 -0.55578672648E+01 -0.32131959357E+01  0.36267223397E+01  0.73734409595E+01  0.00000000000E+00 0. -1.
</event>
<event>
 7    1  0.5714431E-011  0.5052887E+02  0.7816164E-02  0.1300439E+00
        -11   -1    0    0    0    0  0.00000000000E+00  0.00000000000E+00  0.45593999997E+02  0.45594000000E+02  0.51100000000E-03 0. -1.
         11   -1    0    0    0    0 -0.00000000000E+00 -0.00000000000E+00 -0.45593999997E+02  0.45594000000E+02  0.51100000000E-03 0.  1.
    9900012    2    1    2    0    0  0.11485916607E+02  0.14467425269E+02  0.36220607538E+02  0.50528867144E+02  0.30000022170E+02 0.  0.
        -12    1    1    2    0    0 -0.11485916607E+02 -0.14467425269E+02 -0.36220607538E+02  0.40659132856E+02  0.00000000000E+00 0.  1.
         11    1    3    3    0    0 -0.63898565401E+01  0.51820308063E+01  0.13314342309E+02  0.15651051763E+02  0.51100000000E-03 0. -1.
        -11    1    3    3    0    0  0.17256268237E+02  0.85754888183E+00  0.11801976562E+02  0.20923690749E+02  0.51100000000E-03 0.  1.
        -12    1    3    3    0    0  0.61950491030E+00  0.84278455804E+01  0.11104288666E+02  0.13954124632E+02  0.00000000000E+00 0.  1.
</event>
<event>
 7    1  0.5714431E-011  0.5052887E+02  0.7816164E-02  0.1300439E+00
        -11   -1    0    0    0    0  0.00000000000E+00  0.00000000000E+00  0.45593999997E+02  0.45594000000E+02  0.51100000000E-03 0.  1.
         11   -1    0    0    0    0 -0.00000000000E+00 -0.00000000000E+00 -0.45593999997E+02  0.45594000000E+02  0.51100000000E-03 0. -1.
    9900012    2    1    2    0    0 -0.67182966301E+01  0.33250216624E+02 -0.22415456562E+02  0.50528866856E+02  0.30000021295E+02 0.  0.
        -12    1    1    2    0    0  0.67182966301E+01 -0.33250216624E+02  0.22415456562E+02  0.40659133144E+02  0.00000000000E+00 0.  1.
         11    1    3    3    0    0 -0.69760044387E+01  0.22659251439E+02  0.15144270446E+01  0.23757100060E+02  0.51100000000E-03 0. -1.
        -11    1    3    3    0    0  0.20621428993E+01  0.95950003566E+01 -0.18118783547E+02  0.20605989000E+02  0.51100000000E-03 0.  1.
         12    1    3    3    0    0 -0.18044350907E+01  0.99596482876E+00 -0.58111000589E+01  0.61657777962E+01  0.00000000000E+00 0. -1.
</event>
<event>
 7    1  0.5714431E-011  0.5052887E+02  0.7816164E-02  0.1300439E+00
        -11   -1    0    0    0    0  0.00000000000E+00  0.00000000000E+00  0.45593999997E+02  0.45594000000E+02  0.51100000000E-03 0.  1.
         11   -1    0    0    0    0 -0.00000000000E+00 -0.00000000000E+00 -0.45593999997E+02  0.45594000000E+02  0.51100000000E-03 0. -1.
    9900012    2    1    2    0    0 -0.13847006783E+02 -0.33170240686E+02 -0.19004229085E+02  0.50528865884E+02  0.30000018340E+02 0.  0.
        -12    1    1    2    0    0  0.13847006783E+02  0.33170240686E+02  0.19004229085E+02  0.40659134116E+02  0.00000000000E+00 0.  1.
         11    1    3    3    0    0 -0.39696657341E+00 -0.30251000874E+02 -0.19362230834E+02  0.35919028655E+02  0.51100000000E-03 0. -1.
        -11    1    3    3    0    0 -0.61316948938E+01  0.10760492108E+01 -0.39560355952E+00  0.62379537200E+01  0.51100000000E-03 0.  1.
         12    1    3    3    0    0 -0.73183453156E+01 -0.39952890222E+01  0.75360530898E+00  0.83718835091E+01  0.00000000000E+00 0. -1.
</event>
<event>
 7    1  0.5714431E-011  0.5052885E+02  0.7816164E-02  0.1300439E+00
        -11   -1    0    0    0    0  0.00000000000E+00  0.00000000000E+00  0.45593999997E+02  0.45594000000E+02  0.51100000000E-03 0. -1.
         11   -1    0    0    0    0 -0.00000000000E+00 -0.00000000000E+00 -0.45593999997E+02  0.45594000000E+02  0.51100000000E-03 0.  1.
    9900012    2    1    2    0    0 -0.24341417816E+02  0.90560462715E+01  0.31283380371E+02  0.50528849950E+02  0.29999969907E+02 0.  0.
        -12    1    1    2    0    0  0.24341417816E+02 -0.90560462715E+01 -0.31283380371E+02  0.40659150050E+02  0.00000000000E+00 0.  1.
         11    1    3    3    0    0 -0.14891492137E+02 -0.41285372559E+00  0.11010150034E+02  0.18524318889E+02  0.51100000000E-03 0. -1.
        -11    1    3    3    0    0  0.26578090756E+01 -0.46941514627E+01  0.81543862653E+01  0.97771684379E+01  0.51100000000E-03 0.  1.
        -12    1    3    3    0    0 -0.12107734755E+02  0.14163051460E+02  0.12118844071E+02  0.22227362623E+02  0.00000000000E+00 0.  1.
</event>
<event>
 7    1  0.6227062E-011  0.5052886E+02  0.7816164E-02  0.1300439E+00
        -11   -1    0    0    0    0  0.00000000000E+00  0.00000000000E+00  0.45593999997E+02  0.45594000000E+02  0.51100000000E-03 0. -1.
         11   -1    0    0    0    0 -0.00000000000E+00 -0.00000000000E+00 -0.45593999997E+02  0.45594000000E+02  0.51100000000E-03 0.  1.
    9900012    2    1    2    0    0  0.37716920949E+02  0.91930462903E+01  0.12086671560E+02  0.50528857665E+02  0.29999993359E+02 0.  0.
        -12    1    1    2    0    0 -0.37716920949E+02 -0.91930462903E+01 -0.12086671560E+02  0.40659142335E+02  0.00000000000E+00 0.  1.
         11    1    3    3    0    0  0.26825812181E+02  0.10649519472E+02  0.35767524820E+01  0.29083150152E+02  0.51100000000E-03 0. -1.
        -11    1    3    3    0    0  0.66484252869E+01 -0.49320022990E+01  0.12266223100E+02  0.14798190257E+02  0.51100000000E-03 0.  1.
         12    1    3    3    0    0  0.42426834814E+01  0.34755291171E+01 -0.37563040223E+01  0.66475172565E+01  0.00000000000E+00 0. -1.
</event>
<event>
 7    1  0.5714431E-011  0.5052886E+02  0.7816164E-02  0.1300439E+00
        -11   -1    0    0    0    0  0.00000000000E+00  0.00000000000E+00  0.45593999997E+02  0.45594000000E+02  0.51100000000E-03 0. -1.
         11   -1    0    0    0    0 -0.00000000000E+00 -0.00000000000E+00 -0.45593999997E+02  0.45594000000E+02  0.51100000000E-03 0.  1.
    9900012    2    1    2    0    0  0.27038866454E+02  0.21398801867E+02  0.21544302886E+02  0.50528855797E+02  0.29999987680E+02 0.  0.
        -12    1    1    2    0    0 -0.27038866454E+02 -0.21398801867E+02 -0.21544302886E+02  0.40659144203E+02  0.00000000000E+00 0.  1.
         11    1    3    3    0    0  0.28830816239E+02  0.15182076481E+02  0.17052896914E+02  0.36776523826E+02  0.51100000000E-03 0. -1.
        -11    1    3    3    0    0  0.13623060253E+01 -0.20397709804E+01  0.42541670722E+01  0.49106497633E+01  0.51100000000E-03 0.  1.
         12    1    3    3    0    0 -0.31542558102E+01  0.82564963667E+01  0.23723890000E+00  0.88416822079E+01  0.00000000000E+00 0. -1.
</event>
<event>
 7    1  0.5714431E-011  0.5052897E+02  0.7816164E-02  0.1300438E+00
        -11   -1    0    0    0    0  0.00000000000E+00  0.00000000000E+00  0.45593999997E+02  0.45594000000E+02  0.51100000000E-03 0.  1.
         11   -1    0    0    0    0 -0.00000000000E+00 -0.00000000000E+00 -0.45593999997E+02  0.45594000000E+02  0.51100000000E-03 0. -1.
    9900012    2    1    2    0    0 -0.19271556345E+02 -0.27768316153E+02 -0.22598332441E+02  0.50528967854E+02  0.30000328288E+02 0.  0.
        -12    1    1    2    0    0  0.19271556345E+02  0.27768316153E+02  0.22598332441E+02  0.40659032146E+02  0.00000000000E+00 0.  1.
         11    1    3    3    0    0 -0.10016860682E+02 -0.92248940114E+01 -0.20947835153E+02  0.24984954779E+02  0.51100000000E-03 0. -1.
        -11    1    3    3    0    0 -0.10526760805E+02 -0.18205667000E+02 -0.52805021807E+01  0.21682774442E+02  0.51100000000E-03 0.  1.
         12    1    3    3    0    0  0.12720651414E+01 -0.33775514154E+00  0.36300048930E+01  0.38612386333E+01  0.00000000000E+00 0. -1.
</event>
<event>
 7    1  0.5714431E-011  0.5052888E+02  0.7816164E-02  0.1300439E+00
        -11   -1    0    0    0    0  0.00000000000E+00  0.00000000000E+00  0.45593999997E+02  0.45594000000E+02  0.51100000000E-03 0. -1.
         11   -1    0    0    0    0 -0.00000000000E+00 -0.00000000000E+00 -0.45593999997E+02  0.45594000000E+02  0.51100000000E-03 0.  1.
    9900012    2    1    2    0    0  0.23979144393E+02 -0.32606049889E+02  0.38742893556E+01  0.50528880812E+02  0.30000063716E+02 0.  0.
        -12    1    1    2    0    0 -0.23979144393E+02  0.32606049889E+02 -0.38742893556E+01  0.40659119188E+02  0.00000000000E+00 0.  1.
         11    1    3    3    0    0  0.13419301756E+02 -0.81325310211E+01  0.16345757620E+01  0.15776170594E+02  0.51100000000E-03 0. -1.
        -11    1    3    3    0    0 -0.59766818904E+01 -0.36900779496E+01  0.40913086293E+01  0.81287273453E+01  0.51100000000E-03 0.  1.
        -12    1    3    3    0    0  0.16536524527E+02 -0.20783440918E+02 -0.18515950356E+01  0.26623982873E+02  0.00000000000E+00 0.  1.
</event>
<event>
 7    1  0.5714431E-011  0.5052890E+02  0.7816164E-02  0.1300439E+00
        -11   -1    0    0    0    0  0.00000000000E+00  0.00000000000E+00  0.45593999997E+02  0.45594000000E+02  0.51100000000E-03 0. -1.
         11   -1    0    0    0    0 -0.00000000000E+00 -0.00000000000E+00 -0.45593999997E+02  0.45594000000E+02  0.51100000000E-03 0.  1.
    9900012    2    1    2    0    0 -0.29986071965E+01 -0.40135049763E+02  0.57748258988E+01  0.50528899189E+02  0.30000119574E+02 0.  0.
        -12    1    1    2    0    0  0.29986071965E+01  0.40135049763E+02 -0.57748258988E+01  0.40659100811E+02  0.00000000000E+00 0.  1.
         11    1    3    3    0    0 -0.11290095720E+02 -0.94447994424E+01  0.81864541655E+01  0.16843055837E+02  0.51100000000E-03 0. -1.
        -11    1    3    3    0    0  0.81945715870E+00 -0.11406710721E+02 -0.56459634636E+01  0.12753880319E+02  0.51100000000E-03 0.  1.
         12    1    3    3    0    0  0.74720313645E+01 -0.19283539600E+02  0.32343351969E+01  0.20931963033E+02  0.00000000000E+00 0. -1.
</event>
<event>
 7    1  0.5714431E-011  0.5052886E+02  0.7816164E-02  0.1300439E+00
        -11   -1    0    0    0    0  0.00000000000E+00  0.00000000000E+00  0.45593999997E+02  0.45594000000E+02  0.51100000000E-03 0. -1.
         11   -1    0    0    0    0 -0.00000000000E+00 -0.00000000000E+00 -0.45593999997E+02  0.45594000000E+02  0.51100000000E-03 0.  1.
    9900012    2    1    2    0    0  0.20200529340E+02 -0.15038002358E+02  0.31921196308E+02  0.50528859893E+02  0.30000000131E+02 0.  0.
        -12    1    1    2    0    0 -0.20200529340E+02  0.15038002358E+02 -0.31921196308E+02  0.40659140107E+02  0.00000000000E+00 0.  1.
         11    1    3    3    0    0  0.10873723886E+02 -0.53085794128E+01  0.78637186814E+01  0.14431110778E+02  0.51100000000E-03 0. -1.
        -11    1    3    3    0    0 -0.80339890529E+00 -0.61672379311E+01  0.24572302611E+02  0.25347156239E+02  0.51100000000E-03 0.  1.
        -12    1    3    3    0    0  0.10130204359E+02 -0.35621850141E+01 -0.51482498504E+00  0.10750592876E+02  0.00000000000E+00 0.  1.
</event>
<event>
 7    1  0.5714431E-011  0.5052886E+02  0.7816164E-02  0.1300439E+00
        -11   -1    0    0    0    0  0.00000000000E+00  0.00000000000E+00  0.45593999997E+02  0.45594000000E+02  0.51100000000E-03 0.  1.
         11   -1    0    0    0    0 -0.00000000000E+00 -0.00000000000E+00 -0.45593999997E+02  0.45594000000E+02  0.51100000000E-03 0. -1.
    9900012    2    1    2    0    0 -0.30464466323E+02 -0.26731728777E+02 -0.32398192594E+01  0.50528862521E+02  0.30000008118E+02 0.  0.
        -12    1    1    2    0    0  0.30464466323E+02  0.26731728777E+02  0.32398192594E+01  0.40659137479E+02  0.00000000000E+00 0.  1.
         11    1    3    3    0    0 -0.21774949692E+02 -0.95961144632E+01 -0.95727366783E+01  0.25648998707E+02  0.51100000000E-03 0. -1.
        -11    1    3    3    0    0 -0.77651495987E+01 -0.33130802712E+01  0.70629431329E+01  0.11007234672E+02  0.51100000000E-03 0.  1.
         12    1    3    3    0    0 -0.92436703241E+00 -0.13822534042E+02 -0.73002571406E+00  0.13872629142E+02  0.00000000000E+00 0. -1.
</event>
<event>
 7    1  0.5714431E-011  0.5052885E+02  0.7816164E-02  0.1300439E+00
        -11   -1    0    0    0    0  0.00000000000E+00  0.00000000000E+00  0.45593999997E+02  0.45594000000E+02  0.51100000000E-03 0.  1.
         11   -1    0    0    0    0 -0.00000000000E+00 -0.00000000000E+00 -0.45593999997E+02  0.45594000000E+02  0.51100000000E-03 0. -1.
    9900012    2    1    2    0    0  0.51266800589E+01  0.23873609661E+02 -0.32510528804E+02  0.50528848880E+02  0.29999966657E+02 0.  0.
        -12    1    1    2    0    0 -0.51266800589E+01 -0.23873609661E+02  0.32510528804E+02  0.40659151120E+02  0.00000000000E+00 0.  1.
         11    1    3    3    0    0 -0.62954467102E+01  0.18529649408E+02 -0.93848160071E+01  0.21703809071E+02  0.51100000000E-03 0.  1.
        -11    1    3    3    0    0  0.78303912450E+01  0.84965285646E+01 -0.20052270723E+02  0.23143024567E+02  0.51100000000E-03 0. -1.
        -12    1    3    3    0    0  0.35917355241E+01 -0.31525683113E+01 -0.30734420741E+01  0.56820152424E+01  0.00000000000E+00 0.  1.
</event>
<event>
 7    1  0.5714431E-011  0.5052887E+02  0.7816164E-02  0.1300439E+00
        -11   -1    0    0    0    0  0.00000000000E+00  0.00000000000E+00  0.45593999997E+02  0.45594000000E+02  0.51100000000E-03 0.  1.
         11   -1    0    0    0    0 -0.00000000000E+00 -0.00000000000E+00 -0.45593999997E+02  0.45594000000E+02  0.51100000000E-03 0. -1.
    9900012    2    1    2    0    0 -0.77067993093E+01 -0.85360066481E+01 -0.38998808015E+02  0.50528865827E+02  0.30000018168E+02 0.  0.
        -12    1    1    2    0    0  0.77067993093E+01  0.85360066481E+01  0.38998808015E+02  0.40659134173E+02  0.00000000000E+00 0.  1.
         11    1    3    3    0    0 -0.57892589000E+01 -0.36690678381E+01 -0.37171615968E+02  0.37798235558E+02  0.51100000000E-03 0. -1.
        -11    1    3    3    0    0  0.38607053868E+01  0.11029772768E+01  0.63518939975E+00  0.40651040321E+01  0.51100000000E-03 0.  1.
        -12    1    3    3    0    0 -0.57782457962E+01 -0.59699160868E+01 -0.24623814472E+01  0.86655262365E+01  0.00000000000E+00 0.  1.
</event>
<event>
 7    1  0.5714431E-011  0.5052887E+02  0.7816164E-02  0.1300439E+00
        -11   -1    0    0    0    0  0.00000000000E+00  0.00000000000E+00  0.45593999997E+02  0.45594000000E+02  0.51100000000E-03 0. -1.
         11   -1    0    0    0    0 -0.00000000000E+00 -0.00000000000E+00 -0.45593999997E+02  0.45594000000E+02  0.51100000000E-03 0.  1.
    9900012    2    1    2    0    0  0.14011144734E+02 -0.34363613044E+02  0.16613091243E+02  0.50528869674E+02  0.30000029861E+02 0.  0.
        -12    1    1    2    0    0 -0.14011144734E+02  0.34363613044E+02 -0.16613091243E+02  0.40659130326E+02  0.00000000000E+00 0.  1.
         11    1    3    3    0    0  0.39829641968E+01 -0.99854412923E+01  0.10944046252E+02  0.15340964449E+02  0.51100000000E-03 0. -1.
        -11    1    3    3    0    0 -0.30155819836E+01 -0.11430758581E+02 -0.61610414949E+01  0.13330956793E+02  0.51100000000E-03 0.  1.
        -12    1    3    3    0    0  0.13043762521E+02 -0.12947413170E+02  0.11830086486E+02  0.21856948432E+02  0.00000000000E+00 0.  1.
</event>
<event>
 7    1  0.5714431E-011  0.5052886E+02  0.7816164E-02  0.1300439E+00
        -11   -1    0    0    0    0  0.00000000000E+00  0.00000000000E+00  0.45593999997E+02  0.45594000000E+02  0.51100000000E-03 0.  1.
         11   -1    0    0    0    0 -0.00000000000E+00 -0.00000000000E+00 -0.45593999997E+02  0.45594000000E+02  0.51100000000E-03 0. -1.
    9900012    2    1    2    0    0  0.30559990072E+02  0.14437795734E+02 -0.22600937847E+02  0.50528864121E+02  0.30000012983E+02 0.  0.
        -12    1    1    2    0    0 -0.30559990072E+02 -0.14437795734E+02  0.22600937847E+02  0.40659135879E+02  0.00000000000E+00 0.  1.
         11    1    3    3    0    0  0.25370781167E+02  0.22199157169E+02 -0.21573248368E+02  0.40023545088E+02  0.51100000000E-03 0. -1.
        -11    1    3    3    0    0  0.12712471227E+00 -0.18286583113E+01  0.14338516640E+01  0.23272478956E+01  0.51100000000E-03 0.  1.
         12    1    3    3    0    0  0.50620841924E+01 -0.59327031239E+01 -0.24615411437E+01  0.81780711374E+01  0.00000000000E+00 0. -1.
</event>
<event>
 7    1  0.5714431E-011  0.5052885E+02  0.7816164E-02  0.1300439E+00
        -11   -1    0    0    0    0  0.00000000000E+00  0.00000000000E+00  0.45593999997E+02  0.45594000000E+02  0.51100000000E-03 0.  1.
         11   -1    0    0    0    0 -0.00000000000E+00 -0.00000000000E+00 -0.45593999997E+02  0.45594000000E+02  0.51100000000E-03 0. -1.
    9900012    2    1    2    0    0  0.96368633942E+01 -0.14616569860E+01 -0.39473547511E+02  0.50528849366E+02  0.29999968131E+02 0.  0.
        -12    1    1    2    0    0 -0.96368633942E+01  0.14616569860E+01  0.39473547511E+02  0.40659150634E+02  0.00000000000E+00 0.  1.
         11    1    3    3    0    0  0.16358996024E+02  0.16182430552E+00 -0.31717566750E+02  0.35688191028E+02  0.51100000000E-03 0. -1.
        -11    1    3    3    0    0 -0.81942889182E+01 -0.78401010174E+00 -0.93894461284E+01  0.12486902801E+02  0.51100000000E-03 0.  1.
         12    1    3    3    0    0  0.14721562880E+01 -0.83947118974E+00  0.16334653679E+01  0.23537555359E+01  0.00000000000E+00 0. -1.
</event>
<event>
 7    1  0.5714431E-011  0.5052886E+02  0.7816164E-02  0.1300439E+00
        -11   -1    0    0    0    0  0.00000000000E+00  0.00000000000E+00  0.45593999997E+02  0.45594000000E+02  0.51100000000E-03 0.  1.
         11   -1    0    0    0    0 -0.00000000000E+00 -0.00000000000E+00 -0.45593999997E+02  0.45594000000E+02  0.51100000000E-03 0. -1.
    9900012    2    1    2    0    0  0.40443500228E+02  0.40415149804E+01  0.10747394770E+01  0.50528860573E+02  0.30000002197E+02 0.  0.
        -12    1    1    2    0    0 -0.40443500228E+02 -0.40415149804E+01 -0.10747394770E+01  0.40659139427E+02  0.00000000000E+00 0.  1.
         11    1    3    3    0    0  0.20889164821E+02  0.10591288266E+02  0.66912346225E+01  0.24357857358E+02  0.51100000000E-03 0. -1.
        -11    1    3    3    0    0  0.32024640921E+00 -0.60114360742E+01 -0.30824412094E+01  0.67632363190E+01  0.51100000000E-03 0.  1.
        -12    1    3    3    0    0  0.19234088998E+02 -0.53833721175E+00 -0.25340539361E+01  0.19407766896E+02  0.00000000000E+00 0.  1.
</event>
<event>
 7    1  0.5714431E-011  0.5052886E+02  0.7816164E-02  0.1300439E+00
        -11   -1    0    0    0    0  0.00000000000E+00  0.00000000000E+00  0.45593999997E+02  0.45594000000E+02  0.51100000000E-03 0.  1.
         11   -1    0    0    0    0 -0.00000000000E+00 -0.00000000000E+00 -0.45593999997E+02  0.45594000000E+02  0.51100000000E-03 0. -1.
    9900012    2    1    2    0    0 -0.35710711277E+00  0.99849624291E+01 -0.39412418758E+02  0.50528858929E+02  0.29999997202E+02 0.  0.
        -12    1    1    2    0    0  0.35710711277E+00 -0.99849624291E+01  0.39412418758E+02  0.40659141071E+02  0.00000000000E+00 0.  1.
         11    1    3    3    0    0  0.38435469083E+01  0.72154628063E-01 -0.18150115450E+02  0.18552755867E+02  0.51100000000E-03 0. -1.
        -11    1    3    3    0    0 -0.69193346674E+01 -0.37607249501E+01 -0.18727403411E+01  0.80948996927E+01  0.51100000000E-03 0.  1.
        -12    1    3    3    0    0  0.27186806462E+01  0.13673532751E+02 -0.19389562967E+02  0.23881203370E+02  0.00000000000E+00 0.  1.
</event>
<event>
 7    1  0.5714431E-011  0.5052886E+02  0.7816164E-02  0.1300439E+00
        -11   -1    0    0    0    0  0.00000000000E+00  0.00000000000E+00  0.45593999997E+02  0.45594000000E+02  0.51100000000E-03 0.  1.
         11   -1    0    0    0    0 -0.00000000000E+00 -0.00000000000E+00 -0.45593999997E+02  0.45594000000E+02  0.51100000000E-03 0. -1.
    9900012    2    1    2    0    0 -0.35116835494E+01 -0.11454806705E+02 -0.38853847602E+02  0.50528855992E+02  0.29999988274E+02 0.  0.
        -12    1    1    2    0    0  0.35116835494E+01  0.11454806705E+02  0.38853847602E+02  0.40659144008E+02  0.00000000000E+00 0.  1.
         11    1    3    3    0    0 -0.34732979684E+01 -0.13938023388E+01 -0.23132652947E+02  0.23433440130E+02  0.51100000000E-03 0. -1.
        -11    1    3    3    0    0 -0.75376447356E+01 -0.11184015505E+02 -0.59865610257E+01  0.14755920986E+02  0.51100000000E-03 0.  1.
        -12    1    3    3    0    0  0.74992591546E+01  0.11230111386E+01 -0.97346336291E+01  0.12339494875E+02  0.00000000000E+00 0.  1.
</event>
<event>
 7    1  0.5714431E-011  0.5052886E+02  0.7816164E-02  0.1300439E+00
        -11   -1    0    0    0    0  0.00000000000E+00  0.00000000000E+00  0.45593999997E+02  0.45594000000E+02  0.51100000000E-03 0.  1.
         11   -1    0    0    0    0 -0.00000000000E+00 -0.00000000000E+00 -0.45593999997E+02  0.45594000000E+02  0.51100000000E-03 0. -1.
    9900012    2    1    2    0    0 -0.59247093389E+01 -0.21006260788E+02 -0.34304525541E+02  0.50528860245E+02  0.30000001201E+02 0.  0.
        -12    1    1    2    0    0  0.59247093389E+01  0.21006260788E+02  0.34304525541E+02  0.40659139755E+02  0.00000000000E+00 0.  1.
         11    1    3    3    0    0 -0.18806040875E+01 -0.85589451757E-01 -0.26863765519E+02  0.26929647146E+02  0.51100000000E-03 0. -1.
        -11    1    3    3    0    0 -0.28743476425E+01 -0.88763987958E+01 -0.66788802404E+01  0.11474309194E+02  0.51100000000E-03 0.  1.
         12    1    3    3    0    0 -0.11697576089E+01 -0.12044272541E+02 -0.76187978092E+00  0.12124903905E+02  0.00000000000E+00 0. -1.
</event>
<event>
 7    1  0.5714431E-011  0.5052887E+02  0.7816164E-02  0.1300439E+00
        -11   -1    0    0    0    0  0.00000000000E+00  0.00000000000E+00  0.45593999997E+02  0.45594000000E+02  0.51100000000E-03 0.  1.
         11   -1    0    0    0    0 -0.00000000000E+00 -0.00000000000E+00 -0.45593999997E+02  0.45594000000E+02  0.51100000000E-03 0. -1.
    9900012    2    1    2    0    0  0.46471082603E+01  0.11344786357E+02 -0.38766808594E+02  0.50528865218E+02  0.30000016316E+02 0.  0.
        -12    1    1    2    0    0 -0.46471082603E+01 -0.11344786357E+02  0.38766808594E+02  0.40659134782E+02  0.00000000000E+00 0.  1.
         11    1    3    3    0    0 -0.11998513540E+02  0.86773633842E+01 -0.13949519870E+02  0.20343305222E+02  0.51100000000E-03 0. -1.
        -11    1    3    3    0    0  0.70707636302E+01  0.17760488083E+01 -0.13429201783E+02  0.15280494379E+02  0.51100000000E-03 0.  1.
         12    1    3    3    0    0  0.95748581700E+01  0.89137416439E+00 -0.11388086940E+02  0.14905065617E+02  0.00000000000E+00 0. -1.
</event>
<event>
 7    1  0.5714431E-011  0.5052885E+02  0.7816164E-02  0.1300439E+00
        -11   -1    0    0    0    0  0.00000000000E+00  0.00000000000E+00  0.45593999997E+02  0.45594000000E+02  0.51100000000E-03 0. -1.
         11   -1    0    0    0    0 -0.00000000000E+00 -0.00000000000E+00 -0.45593999997E+02  0.45594000000E+02  0.51100000000E-03 0.  1.
    9900012    2    1    2    0    0 -0.20551542114E+02  0.93015124124E+01  0.33827246441E+02  0.50528848284E+02  0.29999964845E+02 0.  0.
        -12    1    1    2    0    0  0.20551542114E+02 -0.93015124124E+01 -0.33827246441E+02  0.40659151716E+02  0.00000000000E+00 0.  1.
         11    1    3    3    0    0 -0.13227592612E+02  0.37371675229E+01  0.30860690137E+02  0.33783395676E+02  0.51100000000E-03 0. -1.
        -11    1    3    3    0    0  0.35014230189E+01 -0.11160047447E+01  0.13829648552E+01  0.39265788925E+01  0.51100000000E-03 0.  1.
         12    1    3    3    0    0 -0.10825372521E+02  0.66803496342E+01  0.15835914485E+01  0.12818873715E+02  0.00000000000E+00 0. -1.
</event>
<event>
 7    1  0.5714431E-011  0.5052886E+02  0.7816164E-02  0.1300439E+00
        -11   -1    0    0    0    0  0.00000000000E+00  0.00000000000E+00  0.45593999997E+02  0.45594000000E+02  0.51100000000E-03 0.  1.
         11   -1    0    0    0    0 -0.00000000000E+00 -0.00000000000E+00 -0.45593999997E+02  0.45594000000E+02  0.51100000000E-03 0. -1.
    9900012    2    1    2    0    0 -0.22003574366E+02 -0.69836806856E+01 -0.33469941519E+02  0.50528855074E+02  0.29999985483E+02 0.  0.
        -12    1    1    2    0    0  0.22003574366E+02  0.69836806856E+01  0.33469941519E+02  0.40659144926E+02  0.00000000000E+00 0.  1.
         11    1    3    3    0    0 -0.24752340668E+02 -0.20203557002E+01 -0.18040250279E+02  0.30695453020E+02  0.51100000000E-03 0. -1.
        -11    1    3    3    0    0  0.56918790197E+01  0.39219711502E+00 -0.43289524826E+01  0.71617829630E+01  0.51100000000E-03 0.  1.
         12    1    3    3    0    0 -0.29431127181E+01 -0.53555221004E+01 -0.11100738758E+02  0.12671619092E+02  0.00000000000E+00 0. -1.
</event>
<event>
 7    1  0.5714431E-011  0.5052886E+02  0.7816164E-02  0.1300439E+00
        -11   -1    0    0    0    0  0.00000000000E+00  0.00000000000E+00  0.45593999997E+02  0.45594000000E+02  0.51100000000E-03 0.  1.
         11   -1    0    0    0    0 -0.00000000000E+00 -0.00000000000E+00 -0.45593999997E+02  0.45594000000E+02  0.51100000000E-03 0. -1.
    9900012    2    1    2    0    0  0.38767886078E+02 -0.64313709226E+01 -0.10433321716E+02  0.50528859270E+02  0.29999998237E+02 0.  0.
        -12    1    1    2    0    0 -0.38767886078E+02  0.64313709226E+01  0.10433321716E+02  0.40659140730E+02  0.00000000000E+00 0.  1.
         11    1    3    3    0    0  0.31862119311E+02 -0.65027311681E+01  0.33136292781E+01  0.32687310977E+02  0.51100000000E-03 0. -1.
        -11    1    3    3    0    0 -0.21774827482E+01  0.32337423389E+00 -0.36083731478E+01  0.42268616074E+01  0.51100000000E-03 0.  1.
         12    1    3    3    0    0  0.90832495145E+01 -0.25201398838E+00 -0.10138577847E+02  0.13614686685E+02  0.00000000000E+00 0. -1.
</event>
<event>
 7    1  0.5714431E-011  0.5052886E+02  0.7816164E-02  0.1300439E+00
        -11   -1    0    0    0    0  0.00000000000E+00  0.00000000000E+00  0.45593999997E+02  0.45594000000E+02  0.51100000000E-03 0.  1.
         11   -1    0    0    0    0 -0.00000000000E+00 -0.00000000000E+00 -0.45593999997E+02  0.45594000000E+02  0.51100000000E-03 0. -1.
    9900012    2    1    2    0    0  0.38831831279E+01 -0.68784797009E+01 -0.39884497598E+02  0.50528859050E+02  0.29999997568E+02 0.  0.
        -12    1    1    2    0    0 -0.38831831279E+01  0.68784797009E+01  0.39884497598E+02  0.40659140950E+02  0.00000000000E+00 0.  1.
         11    1    3    3    0    0 -0.24362890966E+01 -0.10164216930E+02 -0.38128758240E+02  0.39535414701E+02  0.51100000000E-03 0. -1.
        -11    1    3    3    0    0  0.33469206668E+01  0.22365818954E+01  0.31847842514E+01  0.51329355650E+01  0.51100000000E-03 0.  1.
         12    1    3    3    0    0  0.29725515577E+01  0.10491553341E+01 -0.49405236091E+01  0.58605087843E+01  0.00000000000E+00 0. -1.
</event>
<event>
 7    1  0.5714431E-011  0.5052885E+02  0.7816164E-02  0.1300439E+00
        -11   -1    0    0    0    0  0.00000000000E+00  0.00000000000E+00  0.45593999997E+02  0.45594000000E+02  0.51100000000E-03 0.  1.
         11   -1    0    0    0    0 -0.00000000000E+00 -0.00000000000E+00 -0.45593999997E+02  0.45594000000E+02  0.51100000000E-03 0. -1.
    9900012    2    1    2    0    0 -0.43891294796E+01 -0.40378839784E+02  0.18578193964E+01  0.50528847860E+02  0.29999963554E+02 0.  0.
        -12    1    1    2    0    0  0.43891294796E+01  0.40378839784E+02 -0.18578193964E+01  0.40659152140E+02  0.00000000000E+00 0.  1.
         11    1    3    3    0    0 -0.13503324848E+02 -0.18793670340E+02 -0.51850447294E+01  0.23715533220E+02  0.51100000000E-03 0. -1.
        -11    1    3    3    0    0  0.69316894947E+01 -0.18448632701E+02  0.98879564216E+01  0.22049309519E+02  0.51100000000E-03 0.  1.
         12    1    3    3    0    0  0.21825058734E+01 -0.31365367424E+01 -0.28450922958E+01  0.47640051213E+01  0.00000000000E+00 0. -1.
</event>
<event>
 7    1  0.5714431E-011  0.5052886E+02  0.7816164E-02  0.1300439E+00
        -11   -1    0    0    0    0  0.00000000000E+00  0.00000000000E+00  0.45593999997E+02  0.45594000000E+02  0.51100000000E-03 0.  1.
         11   -1    0    0    0    0 -0.00000000000E+00 -0.00000000000E+00 -0.45593999997E+02  0.45594000000E+02  0.51100000000E-03 0. -1.
    9900012    2    1    2    0    0  0.11651934303E+02 -0.98834606727E+01 -0.37679105366E+02  0.50528863893E+02  0.30000012288E+02 0.  0.
        -12    1    1    2    0    0 -0.11651934303E+02  0.98834606727E+01  0.37679105366E+02  0.40659136107E+02  0.00000000000E+00 0.  1.
         11    1    3    3    0    0 -0.20315991787E+01 -0.12977448950E+02 -0.24676521082E+02  0.27954825513E+02  0.51100000000E-03 0. -1.
        -11    1    3    3    0    0  0.21849756073E+01  0.16917569896E-01  0.23096573065E+01  0.31794530572E+01  0.51100000000E-03 0.  1.
         12    1    3    3    0    0  0.11498557874E+02  0.30770707076E+01 -0.15312241590E+02  0.19394585322E+02  0.00000000000E+00 0. -1.
</event>
<event>
 7    1  0.5714431E-011  0.5052885E+02  0.7816164E-02  0.1300439E+00
        -11   -1    0    0    0    0  0.00000000000E+00  0.00000000000E+00  0.45593999997E+02  0.45594000000E+02  0.51100000000E-03 0. -1.
         11   -1    0    0    0    0 -0.00000000000E+00 -0.00000000000E+00 -0.45593999997E+02  0.45594000000E+02  0.51100000000E-03 0.  1.
    9900012    2    1    2    0    0 -0.17124240113E+02  0.36332159920E+00  0.36875396406E+02  0.50528850204E+02  0.29999970679E+02 0.  0.
        -12    1    1    2    0    0  0.17124240113E+02 -0.36332159920E+00 -0.36875396406E+02  0.40659149796E+02  0.00000000000E+00 0.  1.
         11    1    3    3    0    0 -0.88112353267E+01  0.72462475013E+01  0.32440176862E+02  0.34387658337E+02  0.51100000000E-03 0. -1.
        -11    1    3    3    0    0 -0.44195126973E+01 -0.36998870626E+01 -0.35024507158E+01  0.67445102146E+01  0.51100000000E-03 0.  1.
         12    1    3    3    0    0 -0.38934920892E+01 -0.31830388396E+01  0.79376702602E+01  0.93966816517E+01  0.00000000000E+00 0. -1.
</event>
<event>
 7    1  0.5714431E-011  0.5052889E+02  0.7816164E-02  0.1300439E+00
        -11   -1    0    0    0    0  0.00000000000E+00  0.00000000000E+00  0.45593999997E+02  0.45594000000E+02  0.51100000000E-03 0. -1.
         11   -1    0    0    0    0 -0.00000000000E+00 -0.00000000000E+00 -0.45593999997E+02  0.45594000000E+02  0.51100000000E-03 0.  1.
    9900012    2    1    2    0    0  0.30585927812E+02 -0.14642429343E+02  0.22433535374E+02  0.50528889993E+02  0.30000091623E+02 0.  0.
        -12    1    1    2    0    0 -0.30585927812E+02  0.14642429343E+02 -0.22433535374E+02  0.40659110007E+02  0.00000000000E+00 0.  1.
         11    1    3    3    0    0  0.41921047840E+01 -0.16803619081E+02  0.10213973451E+02  0.20106233129E+02  0.51100000000E-03 0. -1.
        -11    1    3    3    0    0  0.19711898702E+02  0.31778578245E+01  0.12672839185E+02  0.23648648673E+02  0.51100000000E-03 0.  1.
        -12    1    3    3    0    0  0.66819243255E+01 -0.10166680871E+01 -0.45327726232E+00  0.67740081906E+01  0.00000000000E+00 0.  1.
</event>
<event>
 7    1  0.5714431E-011  0.5052887E+02  0.7816164E-02  0.1300439E+00
        -11   -1    0    0    0    0  0.00000000000E+00  0.00000000000E+00  0.45593999997E+02  0.45594000000E+02  0.51100000000E-03 0.  1.
         11   -1    0    0    0    0 -0.00000000000E+00 -0.00000000000E+00 -0.45593999997E+02  0.45594000000E+02  0.51100000000E-03 0. -1.
    9900012    2    1    2    0    0  0.28821332109E+02 -0.23312947625E+02 -0.16703368284E+02  0.50528865435E+02  0.30000016977E+02 0.  0.
        -12    1    1    2    0    0 -0.28821332109E+02  0.23312947625E+02  0.16703368284E+02  0.40659134565E+02  0.00000000000E+00 0.  1.
         11    1    3    3    0    0  0.16907114349E+02 -0.17604714715E+02 -0.48519009854E+01  0.24886089272E+02  0.51100000000E-03 0. -1.
        -11    1    3    3    0    0  0.12365180788E+01  0.64429106656E+01 -0.36154342416E+01  0.74907569591E+01  0.51100000000E-03 0.  1.
        -12    1    3    3    0    0  0.10677699681E+02 -0.12151143576E+02 -0.82360330570E+01  0.18152019204E+02  0.00000000000E+00 0.  1.
</event>
<event>
 7    1  0.5714431E-011  0.5052885E+02  0.7816164E-02  0.1300439E+00
        -11   -1    0    0    0    0  0.00000000000E+00  0.00000000000E+00  0.45593999997E+02  0.45594000000E+02  0.51100000000E-03 0.  1.
         11   -1    0    0    0    0 -0.00000000000E+00 -0.00000000000E+00 -0.45593999997E+02  0.45594000000E+02  0.51100000000E-03 0. -1.
    9900012    2    1    2    0    0  0.22337108603E+02 -0.24089597678E+02 -0.23956438495E+02  0.50528854874E+02  0.29999984874E+02 0.  0.
        -12    1    1    2    0    0 -0.22337108603E+02  0.24089597678E+02  0.23956438495E+02  0.40659145126E+02  0.00000000000E+00 0.  1.
         11    1    3    3    0    0  0.12010547331E+01  0.34962823622E+01 -0.12152586277E+02  0.12702435841E+02  0.51100000000E-03 0.  1.
        -11    1    3    3    0    0  0.15268335522E+02 -0.19294513765E+02 -0.12589150043E+02  0.27638506293E+02  0.51100000000E-03 0. -1.
         12    1    3    3    0    0  0.58677183479E+01 -0.82913662754E+01  0.78529782445E+00  0.10187912740E+02  0.00000000000E+00 0. -1.
</event>
<event>
 7    1  0.5714431E-011  0.5052886E+02  0.7816164E-02  0.1300439E+00
        -11   -1    0    0    0    0  0.00000000000E+00  0.00000000000E+00  0.45593999997E+02  0.45594000000E+02  0.51100000000E-03 0.  1.
         11   -1    0    0    0    0 -0.00000000000E+00 -0.00000000000E+00 -0.45593999997E+02  0.45594000000E+02  0.51100000000E-03 0. -1.
    9900012    2    1    2    0    0  0.20849217271E+02 -0.24475932414E+02 -0.24887838739E+02  0.50528860247E+02  0.30000001206E+02 0.  0.
        -12    1    1    2    0    0 -0.20849217271E+02  0.24475932414E+02  0.24887838739E+02  0.40659139753E+02  0.00000000000E+00 0.  1.
         11    1    3    3    0    0  0.16752428206E+02 -0.10178186876E+02 -0.81880712052E+01  0.21243442499E+02  0.51100000000E-03 0. -1.
        -11    1    3    3    0    0 -0.54823031216E+01 -0.73021043840E+01 -0.41739609964E+00  0.91406014964E+01  0.51100000000E-03 0.  1.
        -12    1    3    3    0    0  0.95790921867E+01 -0.69956411536E+01 -0.16282371434E+02  0.20144816251E+02  0.00000000000E+00 0.  1.
</event>
<event>
 7    1  0.5714431E-011  0.5052885E+02  0.7816164E-02  0.1300439E+00
        -11   -1    0    0    0    0  0.00000000000E+00  0.00000000000E+00  0.45593999997E+02  0.45594000000E+02  0.51100000000E-03 0.  1.
         11   -1    0    0    0    0 -0.00000000000E+00 -0.00000000000E+00 -0.45593999997E+02  0.45594000000E+02  0.51100000000E-03 0. -1.
    9900012    2    1    2    0    0  0.25647910110E+02 -0.28861064428E+02 -0.12743248925E+02  0.50528846958E+02  0.29999960814E+02 0.  0.
        -12    1    1    2    0    0 -0.25647910110E+02  0.28861064428E+02  0.12743248925E+02  0.40659153042E+02  0.00000000000E+00 0.  1.
         11    1    3    3    0    0  0.13562498579E+02 -0.27619197573E+02 -0.51799998959E+01  0.31202465311E+02  0.51100000000E-03 0. -1.
        -11    1    3    3    0    0  0.10803900843E+02  0.19826299943E+01 -0.10183298304E+02  0.14978473211E+02  0.51100000000E-03 0.  1.
        -12    1    3    3    0    0  0.12815106877E+01 -0.32244968492E+01  0.26200492745E+01  0.43479084367E+01  0.00000000000E+00 0.  1.
</event>
<event>
 7    1  0.5714431E-011  0.5052886E+02  0.7816164E-02  0.1300439E+00
        -11   -1    0    0    0    0  0.00000000000E+00  0.00000000000E+00  0.45593999997E+02  0.45594000000E+02  0.51100000000E-03 0.  1.
         11   -1    0    0    0    0 -0.00000000000E+00 -0.00000000000E+00 -0.45593999997E+02  0.45594000000E+02  0.51100000000E-03 0. -1.
    9900012    2    1    2    0    0  0.36029026542E+02  0.32416783576E+01 -0.18562502689E+02  0.50528859106E+02  0.29999997738E+02 0.  0.
        -12    1    1    2    0    0 -0.36029026542E+02 -0.32416783576E+01  0.18562502689E+02  0.40659140894E+02  0.00000000000E+00 0.  1.
         11    1    3    3    0    0  0.30135381490E+02 -0.20636792617E+01 -0.51885917011E+00  0.30210415501E+02  0.51100000000E-03 0. -1.
        -11    1    3    3    0    0  0.39647654204E+01  0.44884849164E+01 -0.76476672383E+01  0.97135305699E+01  0.51100000000E-03 0.  1.
         12    1    3    3    0    0  0.19288796321E+01  0.81687270290E+00 -0.10395976281E+02  0.10604913035E+02  0.00000000000E+00 0. -1.
</event>
<event>
 7    1  0.5714431E-011  0.5052886E+02  0.7816164E-02  0.1300439E+00
        -11   -1    0    0    0    0  0.00000000000E+00  0.00000000000E+00  0.45593999997E+02  0.45594000000E+02  0.51100000000E-03 0. -1.
         11   -1    0    0    0    0 -0.00000000000E+00 -0.00000000000E+00 -0.45593999997E+02  0.45594000000E+02  0.51100000000E-03 0.  1.
    9900012    2    1    2    0    0  0.16612546533E+02  0.36914727355E+02  0.38067945355E+01  0.50528862249E+02  0.30000007293E+02 0.  0.
        -12    1    1    2    0    0 -0.16612546533E+02 -0.36914727355E+02 -0.38067945355E+01  0.40659137751E+02  0.00000000000E+00 0.  1.
         11    1    3    3    0    0  0.39490687176E+01  0.26059039263E+02  0.14018375107E+02  0.29852696895E+02  0.51100000000E-03 0. -1.
        -11    1    3    3    0    0  0.10975214962E+01  0.12076407024E+01  0.98730061852E+00  0.19072787612E+01  0.51100000000E-03 0.  1.
         12    1    3    3    0    0  0.11565956319E+02  0.96480473901E+01 -0.11198881190E+02  0.18768886593E+02  0.00000000000E+00 0. -1.
</event>
<event>
 7    1  0.5714431E-011  0.5052885E+02  0.7816164E-02  0.1300439E+00
        -11   -1    0    0    0    0  0.00000000000E+00  0.00000000000E+00  0.45593999997E+02  0.45594000000E+02  0.51100000000E-03 0. -1.
         11   -1    0    0    0    0 -0.00000000000E+00 -0.00000000000E+00 -0.45593999997E+02  0.45594000000E+02  0.51100000000E-03 0.  1.
    9900012    2    1    2    0    0 -0.40011959663E+02 -0.57475190406E+01 -0.43790054248E+01  0.50528848758E+02  0.29999966285E+02 0.  0.
        -12    1    1    2    0    0  0.40011959663E+02  0.57475190406E+01  0.43790054248E+01  0.40659151242E+02  0.00000000000E+00 0.  1.
         11    1    3    3    0    0 -0.13345920091E+02  0.14428515784E+01 -0.26620387788E+01  0.13685096071E+02  0.51100000000E-03 0. -1.
        -11    1    3    3    0    0 -0.97609566256E+01 -0.52814776182E+01  0.10982785122E+02  0.15613835191E+02  0.51100000000E-03 0.  1.
        -12    1    3    3    0    0 -0.16905082946E+02 -0.19088930008E+01 -0.12699751768E+02  0.21229917496E+02  0.00000000000E+00 0.  1.
</event>
<event>
 7    1  0.5714431E-011  0.5052885E+02  0.7816164E-02  0.1300439E+00
        -11   -1    0    0    0    0  0.00000000000E+00  0.00000000000E+00  0.45593999997E+02  0.45594000000E+02  0.51100000000E-03 0. -1.
         11   -1    0    0    0    0 -0.00000000000E+00 -0.00000000000E+00 -0.45593999997E+02  0.45594000000E+02  0.51100000000E-03 0.  1.
    9900012    2    1    2    0    0  0.28700479045E+02 -0.14452846526E+02 -0.24911124069E+02  0.50528851307E+02  0.29999974031E+02 0.  0.
        -12    1    1    2    0    0 -0.28700479045E+02  0.14452846526E+02  0.24911124069E+02  0.40659148693E+02  0.00000000000E+00 0.  1.
         11    1    3    3    0    0  0.12833122006E+02 -0.14461722486E+02 -0.45911130777E+01  0.19872311321E+02  0.51100000000E-03 0. -1.
        -11    1    3    3    0    0  0.12663626886E+02 -0.35284728535E+00 -0.23134983284E+02  0.26376493303E+02  0.51100000000E-03 0.  1.
        -12    1    3    3    0    0  0.32037301529E+01  0.36172324465E+00  0.28149722934E+01  0.42800466832E+01  0.00000000000E+00 0.  1.
</event>
<event>
 7    1  0.5714431E-011  0.5052886E+02  0.7816164E-02  0.1300439E+00
        -11   -1    0    0    0    0  0.00000000000E+00  0.00000000000E+00  0.45593999997E+02  0.45594000000E+02  0.51100000000E-03 0.  1.
         11   -1    0    0    0    0 -0.00000000000E+00 -0.00000000000E+00 -0.45593999997E+02  0.45594000000E+02  0.51100000000E-03 0. -1.
    9900012    2    1    2    0    0  0.28963349669E+02  0.20088958582E+01 -0.28464960765E+02  0.50528864766E+02  0.30000014943E+02 0.  0.
        -12    1    1    2    0    0 -0.28963349669E+02 -0.20088958582E+01  0.28464960765E+02  0.40659135234E+02  0.00000000000E+00 0.  1.
         11    1    3    3    0    0  0.21318453441E+02 -0.10429820125E+02 -0.16032318981E+02  0.28640755177E+02  0.51100000000E-03 0. -1.
        -11    1    3    3    0    0  0.10319490502E+02  0.93731204885E+01 -0.98425047381E+01  0.17065232834E+02  0.51100000000E-03 0.  1.
         12    1    3    3    0    0 -0.26745942741E+01  0.30655954948E+01 -0.25901370463E+01  0.48228767543E+01  0.00000000000E+00 0. -1.
</event>
<event>
 7    1  0.5714431E-011  0.5052886E+02  0.7816164E-02  0.1300439E+00
        -11   -1    0    0    0    0  0.00000000000E+00  0.00000000000E+00  0.45593999997E+02  0.45594000000E+02  0.51100000000E-03 0.  1.
         11   -1    0    0    0    0 -0.00000000000E+00 -0.00000000000E+00 -0.45593999997E+02  0.45594000000E+02  0.51100000000E-03 0. -1.
    9900012    2    1    2    0    0 -0.21101546481E+02  0.33141293559E+02  0.10466392780E+02  0.50528856127E+02  0.29999988684E+02 0.  0.
        -12    1    1    2    0    0  0.21101546481E+02 -0.33141293559E+02 -0.10466392780E+02  0.40659143873E+02  0.00000000000E+00 0.  1.
         11    1    3    3    0    0 -0.91477388489E+01  0.31412476508E+02 -0.21207149588E+01  0.32786006750E+02  0.51100000000E-03 0. -1.
        -11    1    3    3    0    0 -0.53266209370E+01  0.96101660368E+00  0.79517273749E+01  0.96190650286E+01  0.51100000000E-03 0.  1.
         12    1    3    3    0    0 -0.66271866950E+01  0.76780044720E+00  0.46353803638E+01  0.81237843481E+01  0.00000000000E+00 0. -1.
</event>
<event>
 7    1  0.5714431E-011  0.5052885E+02  0.7816164E-02  0.1300439E+00
        -11   -1    0    0    0    0  0.00000000000E+00  0.00000000000E+00  0.45593999997E+02  0.45594000000E+02  0.51100000000E-03 0. -1.
         11   -1    0    0    0    0 -0.00000000000E+00 -0.00000000000E+00 -0.45593999997E+02  0.45594000000E+02  0.51100000000E-03 0.  1.
    9900012    2    1    2    0    0 -0.48630945209E+01 -0.11465527157E+02  0.38704756120E+02  0.50528854072E+02  0.29999982436E+02 0.  0.
        -12    1    1    2    0    0  0.48630945209E+01  0.11465527157E+02 -0.38704756120E+02  0.40659145928E+02  0.00000000000E+00 0.  1.
         11    1    3    3    0    0 -0.10725584689E+02 -0.98755714069E+01  0.11868155475E+02  0.18799419996E+02  0.51100000000E-03 0. -1.
        -11    1    3    3    0    0 -0.47331812102E+00  0.65736088030E+01  0.10767861848E+02  0.12624706404E+02  0.51100000000E-03 0.  1.
         12    1    3    3    0    0  0.63358082894E+01 -0.81635645534E+01  0.16068738796E+02  0.19104727672E+02  0.00000000000E+00 0. -1.
</event>
<event>
 7    1  0.5714431E-011  0.5052887E+02  0.7816164E-02  0.1300439E+00
        -11   -1    0    0    0    0  0.00000000000E+00  0.00000000000E+00  0.45593999997E+02  0.45594000000E+02  0.51100000000E-03 0. -1.
         11   -1    0    0    0    0 -0.00000000000E+00 -0.00000000000E+00 -0.45593999997E+02  0.45594000000E+02  0.51100000000E-03 0.  1.
    9900012    2    1    2    0    0  0.13536207184E+02 -0.28861637853E+02  0.25237709201E+02  0.50528868059E+02  0.30000024951E+02 0.  0.
        -12    1    1    2    0    0 -0.13536207184E+02  0.28861637853E+02 -0.25237709201E+02  0.40659131941E+02  0.00000000000E+00 0.  1.
         11    1    3    3    0    0  0.12001752256E+02 -0.22516168555E+02  0.58049756615E+01  0.26167110010E+02  0.51100000000E-03 0. -1.
        -11    1    3    3    0    0  0.11495244257E+01 -0.82543076243E+01  0.20508461082E+02  0.22137117630E+02  0.51100000000E-03 0.  1.
        -12    1    3    3    0    0  0.38493050308E+00  0.19088383261E+01 -0.10757275419E+01  0.22246404185E+01  0.00000000000E+00 0.  1.
</event>
<event>
 7    1  0.5714431E-011  0.5052886E+02  0.7816164E-02  0.1300439E+00
        -11   -1    0    0    0    0  0.00000000000E+00  0.00000000000E+00  0.45593999997E+02  0.45594000000E+02  0.51100000000E-03 0.  1.
         11   -1    0    0    0    0 -0.00000000000E+00 -0.00000000000E+00 -0.45593999997E+02  0.45594000000E+02  0.51100000000E-03 0. -1.
    9900012    2    1    2    0    0 -0.38661371688E+02 -0.69487122648E+01 -0.10496646073E+02  0.50528857833E+02  0.29999993870E+02 0.  0.
        -12    1    1    2    0    0  0.38661371688E+02  0.69487122648E+01  0.10496646073E+02  0.40659142167E+02  0.00000000000E+00 0.  1.
         11    1    3    3    0    0 -0.29407647799E+02  0.61637499179E+01 -0.59153696548E+01  0.30623408703E+02  0.51100000000E-03 0. -1.
        -11    1    3    3    0    0 -0.10433141764E+02 -0.14081827401E+02 -0.51651647860E+01  0.18270939701E+02  0.51100000000E-03 0.  1.
         12    1    3    3    0    0  0.11794178754E+01  0.96936521835E+00  0.58388836759E+00  0.16345094301E+01  0.00000000000E+00 0. -1.
</event>
<event>
 7    1  0.5714431E-011  0.5052888E+02  0.7816164E-02  0.1300439E+00
        -11   -1    0    0    0    0  0.00000000000E+00  0.00000000000E+00  0.45593999997E+02  0.45594000000E+02  0.51100000000E-03 0.  1.
         11   -1    0    0    0    0 -0.00000000000E+00 -0.00000000000E+00 -0.45593999997E+02  0.45594000000E+02  0.51100000000E-03 0. -1.
    9900012    2    1    2    0    0 -0.85299684618E+01  0.18396516276E+02 -0.35241621065E+02  0.50528880133E+02  0.30000061654E+02 0.  0.
        -12    1    1    2    0    0  0.85299684618E+01 -0.18396516276E+02  0.35241621065E+02  0.40659119867E+02  0.00000000000E+00 0.  1.
         11    1    3    3    0    0  0.23245952785E+01 -0.17083061331E+01 -0.19762623301E+02  0.19972063816E+02  0.51100000000E-03 0. -1.
        -11    1    3    3    0    0  0.12645616015E+01  0.61925073321E+01  0.23022175030E+00  0.63244972462E+01  0.51100000000E-03 0.  1.
         12    1    3    3    0    0 -0.12119125342E+02  0.13912315077E+02 -0.15709219514E+02  0.24232319072E+02  0.00000000000E+00 0. -1.
</event>
<event>
 7    1  0.5714431E-011  0.5052886E+02  0.7816164E-02  0.1300439E+00
        -11   -1    0    0    0    0  0.00000000000E+00  0.00000000000E+00  0.45593999997E+02  0.45594000000E+02  0.51100000000E-03 0.  1.
         11   -1    0    0    0    0 -0.00000000000E+00 -0.00000000000E+00 -0.45593999997E+02  0.45594000000E+02  0.51100000000E-03 0. -1.
    9900012    2    1    2    0    0 -0.16805324472E+02 -0.36370142333E+02 -0.69252864485E+01  0.50528858638E+02  0.29999996316E+02 0.  0.
        -12    1    1    2    0    0  0.16805324472E+02  0.36370142333E+02  0.69252864485E+01  0.40659141362E+02  0.00000000000E+00 0.  1.
         11    1    3    3    0    0  0.15727965605E+00 -0.90761606004E+01 -0.84838193731E+01  0.12424838814E+02  0.51100000000E-03 0. -1.
        -11    1    3    3    0    0  0.18456897367E+01 -0.75121916739E+01  0.68115941376E+01  0.10307153308E+02  0.51100000000E-03 0.  1.
        -12    1    3    3    0    0 -0.18808293865E+02 -0.19781790058E+02 -0.52530612129E+01  0.27796866516E+02  0.00000000000E+00 0.  1.
</event>
<event>
 7    1  0.5714431E-011  0.5052874E+02  0.7816164E-02  0.1300439E+00
        -11   -1    0    0    0    0  0.00000000000E+00  0.00000000000E+00  0.45593999997E+02  0.45594000000E+02  0.51100000000E-03 0.  1.
         11   -1    0    0    0    0 -0.00000000000E+00 -0.00000000000E+00 -0.45593999997E+02  0.45594000000E+02  0.51100000000E-03 0. -1.
    9900012    2    1    2    0    0 -0.31686558558E+02 -0.24270838614E+02  0.77500680932E+01  0.50528743296E+02  0.29999645719E+02 0.  0.
        -12    1    1    2    0    0  0.31686558558E+02  0.24270838614E+02 -0.77500680932E+01  0.40659256704E+02  0.00000000000E+00 0.  1.
         11    1    3    3    0    0 -0.63724389246E+01  0.27071035266E+01 -0.50400506883E+01  0.85637899643E+01  0.51100000000E-03 0.  1.
        -11    1    3    3    0    0 -0.19032818772E+02 -0.25411899168E+02  0.55115301128E+01  0.32224055831E+02  0.51100000000E-03 0. -1.
         12    1    3    3    0    0 -0.62813008612E+01 -0.15660429730E+01  0.72785886687E+01  0.97408975002E+01  0.00000000000E+00 0. -1.
</event>
<event>
 7    1  0.5714431E-011  0.5052887E+02  0.7816164E-02  0.1300439E+00
        -11   -1    0    0    0    0  0.00000000000E+00  0.00000000000E+00  0.45593999997E+02  0.45594000000E+02  0.51100000000E-03 0.  1.
         11   -1    0    0    0    0 -0.00000000000E+00 -0.00000000000E+00 -0.45593999997E+02  0.45594000000E+02  0.51100000000E-03 0. -1.
    9900012    2    1    2    0    0 -0.28161902241E+02 -0.22700439661E+02 -0.18567776351E+02  0.50528867972E+02  0.30000024688E+02 0.  0.
        -12    1    1    2    0    0  0.28161902241E+02  0.22700439661E+02  0.18567776351E+02  0.40659132028E+02  0.00000000000E+00 0.  1.
         11    1    3    3    0    0 -0.12072215940E+02 -0.12336285541E+02 -0.19236375334E+02  0.25844931320E+02  0.51100000000E-03 0. -1.
        -11    1    3    3    0    0 -0.80260743849E+00 -0.83432485844E+01  0.33610927944E+01  0.90305548376E+01  0.51100000000E-03 0.  1.
         12    1    3    3    0    0 -0.15287078862E+02 -0.20209055356E+01 -0.26924938112E+01  0.15653381815E+02  0.00000000000E+00 0. -1.
</event>
<event>
 7    1  0.5714431E-011  0.5052890E+02  0.7816164E-02  0.1300439E+00
        -11   -1    0    0    0    0  0.00000000000E+00  0.00000000000E+00  0.45593999997E+02  0.45594000000E+02  0.51100000000E-03 0.  1.
         11   -1    0    0    0    0 -0.00000000000E+00 -0.00000000000E+00 -0.45593999997E+02  0.45594000000E+02  0.51100000000E-03 0. -1.
    9900012    2    1    2    0    0  0.22839132662E+02  0.29801897521E+02 -0.15600750958E+02  0.50528898841E+02  0.30000118516E+02 0.  0.
        -12    1    1    2    0    0 -0.22839132662E+02 -0.29801897521E+02  0.15600750958E+02  0.40659101159E+02  0.00000000000E+00 0.  1.
         11    1    3    3    0    0  0.15037225081E+02  0.19400201261E+02 -0.22071077586E+01  0.24644619534E+02  0.51100000000E-03 0. -1.
        -11    1    3    3    0    0  0.69114687222E+01  0.94502915862E+01 -0.17791062881E+02  0.21297848006E+02  0.51100000000E-03 0.  1.
        -12    1    3    3    0    0  0.89043885929E+00  0.95140467457E+00  0.43974196818E+01  0.45864313005E+01  0.00000000000E+00 0.  1.
</event>
<event>
 7    1  0.5714431E-011  0.5052886E+02  0.7816164E-02  0.1300439E+00
        -11   -1    0    0    0    0  0.00000000000E+00  0.00000000000E+00  0.45593999997E+02  0.45594000000E+02  0.51100000000E-03 0. -1.
         11   -1    0    0    0    0 -0.00000000000E+00 -0.00000000000E+00 -0.45593999997E+02  0.45594000000E+02  0.51100000000E-03 0.  1.
    9900012    2    1    2    0    0  0.37650495821E+02 -0.15225484482E+02 -0.19468488120E+01  0.50528862852E+02  0.30000009126E+02 0.  0.
        -12    1    1    2    0    0 -0.37650495821E+02  0.15225484482E+02  0.19468488120E+01  0.40659137148E+02  0.00000000000E+00 0.  1.
         11    1    3    3    0    0  0.55747070076E+01 -0.12048346608E+02 -0.47249463860E+01  0.14091314091E+02  0.51100000000E-03 0.  1.
        -11    1    3    3    0    0  0.31602600008E+02  0.27035779969E+00 -0.56956241128E+00  0.31608888342E+02  0.51100000000E-03 0. -1.
         12    1    3    3    0    0  0.47318880542E+00 -0.34474956736E+01  0.33476599853E+01  0.48286604190E+01  0.00000000000E+00 0. -1.
</event>
<event>
 7    1  0.5714431E-011  0.5052884E+02  0.7816164E-02  0.1300439E+00
        -11   -1    0    0    0    0  0.00000000000E+00  0.00000000000E+00  0.45593999997E+02  0.45594000000E+02  0.51100000000E-03 0. -1.
         11   -1    0    0    0    0 -0.00000000000E+00 -0.00000000000E+00 -0.45593999997E+02  0.45594000000E+02  0.51100000000E-03 0.  1.
    9900012    2    1    2    0    0 -0.34446630810E+02  0.21210450300E+02  0.40882720066E+01  0.50528836899E+02  0.29999930237E+02 0.  0.
        -12    1    1    2    0    0  0.34446630810E+02 -0.21210450300E+02 -0.40882720066E+01  0.40659163101E+02  0.00000000000E+00 0.  1.
         11    1    3    3    0    0 -0.25940557995E+02  0.76037021857E+01 -0.70627267918E+01  0.27939415635E+02  0.51100000000E-03 0. -1.
        -11    1    3    3    0    0 -0.19101318535E+01  0.58242119407E+01  0.10756252128E+02  0.12380105352E+02  0.51100000000E-03 0.  1.
        -12    1    3    3    0    0 -0.65959409616E+01  0.77825361734E+01  0.39474667073E+00  0.10209315912E+02  0.00000000000E+00 0.  1.
</event>
<event>
 7    1  0.5714431E-011  0.5052886E+02  0.7816164E-02  0.1300439E+00
        -11   -1    0    0    0    0  0.00000000000E+00  0.00000000000E+00  0.45593999997E+02  0.45594000000E+02  0.51100000000E-03 0. -1.
         11   -1    0    0    0    0 -0.00000000000E+00 -0.00000000000E+00 -0.45593999997E+02  0.45594000000E+02  0.51100000000E-03 0.  1.
    9900012    2    1    2    0    0 -0.85861004872E+01  0.26947614039E+02 -0.29210793868E+02  0.50528862007E+02  0.30000006556E+02 0.  0.
        -12    1    1    2    0    0  0.85861004872E+01 -0.26947614039E+02  0.29210793868E+02  0.40659137993E+02  0.00000000000E+00 0.  1.
         11    1    3    3    0    0  0.69082167366E+01  0.33677816166E+01 -0.30696282045E+01  0.82757494568E+01  0.51100000000E-03 0.  1.
        -11    1    3    3    0    0 -0.13451542770E+02  0.18249894299E+02 -0.28201527151E+02  0.36184648385E+02  0.51100000000E-03 0. -1.
         12    1    3    3    0    0 -0.20427744535E+01  0.53299381233E+01  0.20603614873E+01  0.60684641652E+01  0.00000000000E+00 0. -1.
</event>
<event>
 7    1  0.5714431E-011  0.5052886E+02  0.7816164E-02  0.1300439E+00
        -11   -1    0    0    0    0  0.00000000000E+00  0.00000000000E+00  0.45593999997E+02  0.45594000000E+02  0.51100000000E-03 0. -1.
         11   -1    0    0    0    0 -0.00000000000E+00 -0.00000000000E+00 -0.45593999997E+02  0.45594000000E+02  0.51100000000E-03 0.  1.
    9900012    2    1    2    0    0  0.17573008369E+02 -0.35722932702E+02 -0.82599699179E+01  0.50528860228E+02  0.30000001148E+02 0.  0.
        -12    1    1    2    0    0 -0.17573008369E+02  0.35722932702E+02  0.82599699179E+01  0.40659139772E+02  0.00000000000E+00 0.  1.
         11    1    3    3    0    0  0.45809748423E+01 -0.41635594685E+01  0.28000921703E+01  0.67941941668E+01  0.51100000000E-03 0. -1.
        -11    1    3    3    0    0  0.54868832348E+01 -0.12436850332E+02 -0.17543175494E+02  0.22193335496E+02  0.51100000000E-03 0.  1.
        -12    1    3    3    0    0  0.75051502922E+01 -0.19122522902E+02  0.64831134053E+01  0.21541330564E+02  0.00000000000E+00 0.  1.
</event>
<event>
 7    1  0.5714431E-011  0.5052884E+02  0.7816164E-02  0.1300439E+00
        -11   -1    0    0    0    0  0.00000000000E+00  0.00000000000E+00  0.45593999997E+02  0.45594000000E+02  0.51100000000E-03 0.  1.
         11   -1    0    0    0    0 -0.00000000000E+00 -0.00000000000E+00 -0.45593999997E+02  0.45594000000E+02  0.51100000000E-03 0. -1.
    9900012    2    1    2    0    0  0.17693076441E+02 -0.88869201266E+01 -0.35512598790E+02  0.50528843884E+02  0.29999951469E+02 0.  0.
        -12    1    1    2    0    0 -0.17693076441E+02  0.88869201266E+01  0.35512598790E+02  0.40659156116E+02  0.00000000000E+00 0.  1.
         11    1    3    3    0    0  0.13837131711E+02 -0.12524366292E+02 -0.48421793238E+01  0.19281407258E+02  0.51100000000E-03 0. -1.
        -11    1    3    3    0    0  0.27695506073E+01  0.77329630129E+00 -0.16626381784E+02  0.16873202696E+02  0.51100000000E-03 0.  1.
         12    1    3    3    0    0  0.10863941226E+01  0.28641498640E+01 -0.14044037682E+02  0.14374233929E+02  0.00000000000E+00 0. -1.
</event>
<event>
 7    1  0.5714431E-011  0.5052886E+02  0.7816164E-02  0.1300439E+00
        -11   -1    0    0    0    0  0.00000000000E+00  0.00000000000E+00  0.45593999997E+02  0.45594000000E+02  0.51100000000E-03 0.  1.
         11   -1    0    0    0    0 -0.00000000000E+00 -0.00000000000E+00 -0.45593999997E+02  0.45594000000E+02  0.51100000000E-03 0. -1.
    9900012    2    1    2    0    0  0.45410401687E+01  0.42407740482E+01 -0.40181588635E+02  0.50528864796E+02  0.30000015033E+02 0.  0.
        -12    1    1    2    0    0 -0.45410401687E+01 -0.42407740482E+01  0.40181588635E+02  0.40659135204E+02  0.00000000000E+00 0.  1.
         11    1    3    3    0    0  0.13160356605E+02  0.34775071395E+01 -0.35314603101E+02  0.37847182647E+02  0.51100000000E-03 0. -1.
        -11    1    3    3    0    0 -0.84903234892E+00 -0.29706125587E+01 -0.13127247272E+01  0.33568797080E+01  0.51100000000E-03 0.  1.
         12    1    3    3    0    0 -0.77702840874E+01  0.37338794674E+01 -0.35542608072E+01  0.93248024409E+01  0.00000000000E+00 0. -1.
</event>
<event>
 7    1  0.5714431E-011  0.5052885E+02  0.7816164E-02  0.1300439E+00
        -11   -1    0    0    0    0  0.00000000000E+00  0.00000000000E+00  0.45593999997E+02  0.45594000000E+02  0.51100000000E-03 0. -1.
         11   -1    0    0    0    0 -0.00000000000E+00 -0.00000000000E+00 -0.45593999997E+02  0.45594000000E+02  0.51100000000E-03 0.  1.
    9900012    2    1    2    0    0 -0.36004704904E+02 -0.11374867896E+02 -0.15081112154E+02  0.50528851722E+02  0.29999975294E+02 0.  0.
        -12    1    1    2    0    0  0.36004704904E+02  0.11374867896E+02  0.15081112154E+02  0.40659148278E+02  0.00000000000E+00 0.  1.
         11    1    3    3    0    0 -0.18297703776E+02  0.43725894678E+01 -0.10519601368E+02  0.21554292272E+02  0.51100000000E-03 0. -1.
        -11    1    3    3    0    0  0.17404485686E+01 -0.26412348610E+01 -0.45274497693E+01  0.55229597578E+01  0.51100000000E-03 0.  1.
         12    1    3    3    0    0 -0.19447449696E+02 -0.13106222502E+02 -0.34061016994E-01  0.23451599692E+02  0.00000000000E+00 0. -1.
</event>
<event>
 7    1  0.5714431E-011  0.5052886E+02  0.7816164E-02  0.1300439E+00
        -11   -1    0    0    0    0  0.00000000000E+00  0.00000000000E+00  0.45593999997E+02  0.45594000000E+02  0.51100000000E-03 0.  1.
         11   -1    0    0    0    0 -0.00000000000E+00 -0.00000000000E+00 -0.45593999997E+02  0.45594000000E+02  0.51100000000E-03 0. -1.
    9900012    2    1    2    0    0 -0.35047947479E+02  0.20223581961E+02  0.39766396691E+01  0.50528861386E+02  0.30000004668E+02 0.  0.
        -12    1    1    2    0    0  0.35047947479E+02 -0.20223581961E+02 -0.39766396691E+01  0.40659138614E+02  0.00000000000E+00 0.  1.
         11    1    3    3    0    0 -0.31249890954E+02  0.15044970673E+02  0.11947805865E+02  0.36683196323E+02  0.51100000000E-03 0. -1.
        -11    1    3    3    0    0 -0.37960335805E+01 -0.54644347881E+00  0.23209398977E+00  0.38421789782E+01  0.51100000000E-03 0.  1.
         12    1    3    3    0    0 -0.20229441381E-02  0.57250547663E+01 -0.82032601857E+01  0.10003486085E+02  0.00000000000E+00 0. -1.
</event>
<event>
 7    1  0.5714431E-011  0.5052886E+02  0.7816164E-02  0.1300439E+00
        -11   -1    0    0    0    0  0.00000000000E+00  0.00000000000E+00  0.45593999997E+02  0.45594000000E+02  0.51100000000E-03 0.  1.
         11   -1    0    0    0    0 -0.00000000000E+00 -0.00000000000E+00 -0.45593999997E+02  0.45594000000E+02  0.51100000000E-03 0. -1.
    9900012    2    1    2    0    0  0.33528152329E+01 -0.33742034905E+02 -0.22436560352E+02  0.50528861667E+02  0.30000005524E+02 0.  0.
        -12    1    1    2    0    0 -0.33528152329E+01  0.33742034905E+02  0.22436560352E+02  0.40659138333E+02  0.00000000000E+00 0.  1.
         11    1    3    3    0    0 -0.35567464956E+01 -0.13470301571E+02 -0.17615833247E+02  0.22459230871E+02  0.51100000000E-03 0. -1.
        -11    1    3    3    0    0  0.91600687506E+01 -0.10774650501E+02  0.42276466326E+01  0.14760519952E+02  0.51100000000E-03 0.  1.
        -12    1    3    3    0    0 -0.22505070220E+01 -0.94970828326E+01 -0.90483737379E+01  0.13309110845E+02  0.00000000000E+00 0.  1.
</event>
<event>
 7    1  0.5714431E-011  0.5052886E+02  0.7816164E-02  0.1300439E+00
        -11   -1    0    0    0    0  0.00000000000E+00  0.00000000000E+00  0.45593999997E+02  0.45594000000E+02  0.51100000000E-03 0. -1.
         11   -1    0    0    0    0 -0.00000000000E+00 -0.00000000000E+00 -0.45593999997E+02  0.45594000000E+02  0.51100000000E-03 0.  1.
    9900012    2    1    2    0    0 -0.20509055429E+02  0.30391302231E+02  0.17575926042E+02  0.50528858566E+02  0.29999996097E+02 0.  0.
        -12    1    1    2    0    0  0.20509055429E+02 -0.30391302231E+02 -0.17575926042E+02  0.40659141434E+02  0.00000000000E+00 0.  1.
         11    1    3    3    0    0 -0.11506575028E+02  0.20479249176E+02  0.24315960164E+01  0.23615960178E+02  0.51100000000E-03 0. -1.
        -11    1    3    3    0    0  0.42319622558E+01 -0.68170194288E+00  0.16319072219E+00  0.42896216087E+01  0.51100000000E-03 0.  1.
        -12    1    3    3    0    0 -0.13234442657E+02  0.10593754999E+02  0.14981139303E+02  0.22623276779E+02  0.00000000000E+00 0.  1.
</event>
<event>
 7    1  0.5714431E-011  0.5052886E+02  0.7816164E-02  0.1300439E+00
        -11   -1    0    0    0    0  0.00000000000E+00  0.00000000000E+00  0.45593999997E+02  0.45594000000E+02  0.51100000000E-03 0. -1.
         11   -1    0    0    0    0 -0.00000000000E+00 -0.00000000000E+00 -0.45593999997E+02  0.45594000000E+02  0.51100000000E-03 0.  1.
    9900012    2    1    2    0    0 -0.36895389383E+02  0.15818652652E+02  0.64549320046E+01  0.50528859863E+02  0.30000000040E+02 0.  0.
        -12    1    1    2    0    0  0.36895389383E+02 -0.15818652652E+02 -0.64549320046E+01  0.40659140137E+02  0.00000000000E+00 0.  1.
         11    1    3    3    0    0 -0.31916296651E+02  0.86931851373E+01  0.15114513611E+02  0.36368530101E+02  0.51100000000E-03 0. -1.
        -11    1    3    3    0    0  0.12119801442E+01 -0.55218618990E+00 -0.84993617780E+00  0.15799358296E+01  0.51100000000E-03 0.  1.
         12    1    3    3    0    0 -0.61910728765E+01  0.76776537046E+01 -0.78096454286E+01  0.12580393932E+02  0.00000000000E+00 0. -1.
</event>
<event>
 7    1  0.5714431E-011  0.5052886E+02  0.7816164E-02  0.1300439E+00
        -11   -1    0    0    0    0  0.00000000000E+00  0.00000000000E+00  0.45593999997E+02  0.45594000000E+02  0.51100000000E-03 0.  1.
         11   -1    0    0    0    0 -0.00000000000E+00 -0.00000000000E+00 -0.45593999997E+02  0.45594000000E+02  0.51100000000E-03 0. -1.
    9900012    2    1    2    0    0  0.11897729691E+02  0.77196709990E+00 -0.38871759626E+02  0.50528860789E+02  0.30000002853E+02 0.  0.
        -12    1    1    2    0    0 -0.11897729691E+02 -0.77196709990E+00  0.38871759626E+02  0.40659139211E+02  0.00000000000E+00 0.  1.
         11    1    3    3    0    0 -0.34608095146E+01  0.38726645562E+01 -0.13015123101E+02  0.14013142505E+02  0.51100000000E-03 0.  1.
        -11    1    3    3    0    0  0.13314344238E+02 -0.64386081788E+01 -0.28278867242E+02  0.31912721140E+02  0.51100000000E-03 0. -1.
        -12    1    3    3    0    0  0.20441949677E+01  0.33379107225E+01  0.24222307177E+01  0.46029971440E+01  0.00000000000E+00 0.  1.
</event>
<event>
 7    1  0.5714431E-011  0.5052887E+02  0.7816164E-02  0.1300439E+00
        -11   -1    0    0    0    0  0.00000000000E+00  0.00000000000E+00  0.45593999997E+02  0.45594000000E+02  0.51100000000E-03 0.  1.
         11   -1    0    0    0    0 -0.00000000000E+00 -0.00000000000E+00 -0.45593999997E+02  0.45594000000E+02  0.51100000000E-03 0. -1.
    9900012    2    1    2    0    0 -0.36685133036E+02  0.89327076651E+01 -0.15085518889E+02  0.50528866558E+02  0.30000020390E+02 0.  0.
        -12    1    1    2    0    0  0.36685133036E+02 -0.89327076651E+01  0.15085518889E+02  0.40659133442E+02  0.00000000000E+00 0.  1.
         11    1    3    3    0    0 -0.22264473527E+02  0.60566588811E+01  0.60148302456E+01  0.23844665680E+02  0.51100000000E-03 0. -1.
        -11    1    3    3    0    0 -0.80557664518E+01 -0.17938418474E+01 -0.12793553870E+02  0.15224594004E+02  0.51100000000E-03 0.  1.
         12    1    3    3    0    0 -0.63648930568E+01  0.46698906314E+01 -0.83067952646E+01  0.11459606874E+02  0.00000000000E+00 0. -1.
</event>
<event>
 7    1  0.5714431E-011  0.5052886E+02  0.7816164E-02  0.1300439E+00
        -11   -1    0    0    0    0  0.00000000000E+00  0.00000000000E+00  0.45593999997E+02  0.45594000000E+02  0.51100000000E-03 0.  1.
         11   -1    0    0    0    0 -0.00000000000E+00 -0.00000000000E+00 -0.45593999997E+02  0.45594000000E+02  0.51100000000E-03 0. -1.
    9900012    2    1    2    0    0 -0.21567790669E+02  0.12540595982E+02 -0.32104980324E+02  0.50528857073E+02  0.29999991560E+02 0.  0.
        -12    1    1    2    0    0  0.21567790669E+02 -0.12540595982E+02  0.32104980324E+02  0.40659142927E+02  0.00000000000E+00 0.  1.
         11    1    3    3    0    0 -0.33789275350E+01 -0.41547660213E+01 -0.14203031605E+02  0.15179108637E+02  0.51100000000E-03 0. -1.
        -11    1    3    3    0    0 -0.10882530576E+02  0.17850860839E+02 -0.18516039199E+02  0.27927162625E+02  0.51100000000E-03 0.  1.
         12    1    3    3    0    0 -0.73063325578E+01 -0.11554988359E+01  0.61409047961E+00  0.74225858111E+01  0.00000000000E+00 0. -1.
</event>
<event>
 7    1  0.5714431E-011  0.5052886E+02  0.7816164E-02  0.1300439E+00
        -11   -1    0    0    0    0  0.00000000000E+00  0.00000000000E+00  0.45593999997E+02  0.45594000000E+02  0.51100000000E-03 0. -1.
         11   -1    0    0    0    0 -0.00000000000E+00 -0.00000000000E+00 -0.45593999997E+02  0.45594000000E+02  0.51100000000E-03 0.  1.
    9900012    2    1    2    0    0  0.50341363902E+01 -0.30138595982E+02  0.26823269356E+02  0.50528864792E+02  0.30000015022E+02 0.  0.
        -12    1    1    2    0    0 -0.50341363902E+01  0.30138595982E+02 -0.26823269356E+02  0.40659135208E+02  0.00000000000E+00 0.  1.
         11    1    3    3    0    0  0.28484447987E+01  0.15595433038E+01  0.12984082843E+01  0.34973815093E+01  0.51100000000E-03 0. -1.
        -11    1    3    3    0    0  0.50285660867E+01 -0.34620372412E+02  0.20451819215E+02  0.40523247307E+02  0.51100000000E-03 0.  1.
        -12    1    3    3    0    0 -0.28428744952E+01  0.29222331267E+01  0.50730418564E+01  0.65082359760E+01  0.00000000000E+00 0.  1.
</event>
<event>
 7    1  0.5714431E-011  0.5052872E+02  0.7816164E-02  0.1300439E+00
        -11   -1    0    0    0    0  0.00000000000E+00  0.00000000000E+00  0.45593999997E+02  0.45594000000E+02  0.51100000000E-03 0. -1.
         11   -1    0    0    0    0 -0.00000000000E+00 -0.00000000000E+00 -0.45593999997E+02  0.45594000000E+02  0.51100000000E-03 0.  1.
    9900012    2    1    2    0    0 -0.35964538017E+02  0.56187521038E+01  0.18115160899E+02  0.50528715398E+02  0.29999560920E+02 0.  0.
        -12    1    1    2    0    0  0.35964538017E+02 -0.56187521038E+01 -0.18115160899E+02  0.40659284602E+02  0.00000000000E+00 0.  1.
         11    1    3    3    0    0 -0.61678937280E+01  0.97344953008E+01  0.12124360821E+02  0.16727326068E+02  0.51100000000E-03 0. -1.
        -11    1    3    3    0    0 -0.15303565217E+02 -0.37804539311E+01 -0.39160132216E+01  0.16242724528E+02  0.51100000000E-03 0.  1.
        -12    1    3    3    0    0 -0.14493079072E+02 -0.33528926597E+00  0.99068132997E+01  0.17558664802E+02  0.00000000000E+00 0.  1.
</event>
<event>
 7    1  0.5714431E-011  0.5052887E+02  0.7816164E-02  0.1300439E+00
        -11   -1    0    0    0    0  0.00000000000E+00  0.00000000000E+00  0.45593999997E+02  0.45594000000E+02  0.51100000000E-03 0. -1.
         11   -1    0    0    0    0 -0.00000000000E+00 -0.00000000000E+00 -0.45593999997E+02  0.45594000000E+02  0.51100000000E-03 0.  1.
    9900012    2    1    2    0    0  0.20830871857E+02 -0.13853040615E+02  0.32052035718E+02  0.50528868796E+02  0.30000027193E+02 0.  0.
        -12    1    1    2    0    0 -0.20830871857E+02  0.13853040615E+02 -0.32052035718E+02  0.40659131204E+02  0.00000000000E+00 0.  1.
         11    1    3    3    0    0 -0.47152547292E+01 -0.17495264953E+01  0.13307870479E+02  0.14226520553E+02  0.51100000000E-03 0. -1.
        -11    1    3    3    0    0  0.19059969559E+02 -0.12969067803E+02  0.94040758155E+01  0.24898108391E+02  0.51100000000E-03 0.  1.
        -12    1    3    3    0    0  0.64861570270E+01  0.86555368305E+00  0.93400894237E+01  0.11404239852E+02  0.00000000000E+00 0.  1.
</event>
<event>
 7    1  0.5714431E-011  0.5052885E+02  0.7816164E-02  0.1300439E+00
        -11   -1    0    0    0    0  0.00000000000E+00  0.00000000000E+00  0.45593999997E+02  0.45594000000E+02  0.51100000000E-03 0.  1.
         11   -1    0    0    0    0 -0.00000000000E+00 -0.00000000000E+00 -0.45593999997E+02  0.45594000000E+02  0.51100000000E-03 0. -1.
    9900012    2    1    2    0    0 -0.10353143074E+02  0.38782433039E+02 -0.64731710097E+01  0.50528848179E+02  0.29999964524E+02 0.  0.
        -12    1    1    2    0    0  0.10353143074E+02 -0.38782433039E+02  0.64731710097E+01  0.40659151821E+02  0.00000000000E+00 0.  1.
         11    1    3    3    0    0 -0.74245811113E+00  0.32068965067E+02 -0.13018851105E+02  0.34618784625E+02  0.51100000000E-03 0. -1.
        -11    1    3    3    0    0 -0.62367132786E+01  0.78746957280E+01  0.21932061742E+01  0.10281905413E+02  0.51100000000E-03 0.  1.
         12    1    3    3    0    0 -0.33739716839E+01 -0.11612277565E+01  0.43524739215E+01  0.56281581413E+01  0.00000000000E+00 0. -1.
</event>
<event>
 7    1  0.5714431E-011  0.5052886E+02  0.7816164E-02  0.1300439E+00
        -11   -1    0    0    0    0  0.00000000000E+00  0.00000000000E+00  0.45593999997E+02  0.45594000000E+02  0.51100000000E-03 0. -1.
         11   -1    0    0    0    0 -0.00000000000E+00 -0.00000000000E+00 -0.45593999997E+02  0.45594000000E+02  0.51100000000E-03 0.  1.
    9900012    2    1    2    0    0  0.27873253461E+02 -0.18110778738E+02  0.23414680258E+02  0.50528858142E+02  0.29999994809E+02 0.  0.
        -12    1    1    2    0    0 -0.27873253461E+02  0.18110778738E+02 -0.23414680258E+02  0.40659141858E+02  0.00000000000E+00 0.  1.
         11    1    3    3    0    0  0.13495015144E+02 -0.15028839662E+02  0.10339018196E+02  0.22690895814E+02  0.51100000000E-03 0. -1.
        -11    1    3    3    0    0  0.15844592799E+02  0.42343055167E+01  0.11948525848E+02  0.20291568061E+02  0.51100000000E-03 0.  1.
        -12    1    3    3    0    0 -0.14663544809E+01 -0.73162445928E+01  0.11271362144E+01  0.75463942682E+01  0.00000000000E+00 0.  1.
</event>
<event>
 7    1  0.5714431E-011  0.5052885E+02  0.7816164E-02  0.1300439E+00
        -11   -1    0    0    0    0  0.00000000000E+00  0.00000000000E+00  0.45593999997E+02  0.45594000000E+02  0.51100000000E-03 0. -1.
         11   -1    0    0    0    0 -0.00000000000E+00 -0.00000000000E+00 -0.45593999997E+02  0.45594000000E+02  0.51100000000E-03 0.  1.
    9900012    2    1    2    0    0  0.29634811419E+02 -0.11564430476E+02  0.25322086558E+02  0.50528853825E+02  0.29999981685E+02 0.  0.
        -12    1    1    2    0    0 -0.29634811419E+02  0.11564430476E+02 -0.25322086558E+02  0.40659146175E+02  0.00000000000E+00 0.  1.
         11    1    3    3    0    0  0.80558787902E+01 -0.90760806097E+01  0.68992108984E+01  0.13959639451E+02  0.51100000000E-03 0. -1.
        -11    1    3    3    0    0  0.17841537139E+02  0.36581467797E+01  0.21979265027E+02  0.28544536723E+02  0.51100000000E-03 0.  1.
        -12    1    3    3    0    0  0.37373954898E+01 -0.61464966464E+01 -0.35563893670E+01  0.80246776510E+01  0.00000000000E+00 0.  1.
</event>
<event>
 7    1  0.5714431E-011  0.5052885E+02  0.7816164E-02  0.1300439E+00
        -11   -1    0    0    0    0  0.00000000000E+00  0.00000000000E+00  0.45593999997E+02  0.45594000000E+02  0.51100000000E-03 0. -1.
         11   -1    0    0    0    0 -0.00000000000E+00 -0.00000000000E+00 -0.45593999997E+02  0.45594000000E+02  0.51100000000E-03 0.  1.
    9900012    2    1    2    0    0 -0.10639758406E+02 -0.39237754914E+02 -0.60083015561E+00  0.50528845231E+02  0.29999955566E+02 0.  0.
        -12    1    1    2    0    0  0.10639758406E+02  0.39237754914E+02  0.60083015561E+00  0.40659154769E+02  0.00000000000E+00 0.  1.
         11    1    3    3    0    0 -0.12973337597E+02 -0.83615465002E+01  0.14172943203E+01  0.15499408754E+02  0.51100000000E-03 0. -1.
        -11    1    3    3    0    0  0.12668266868E+01 -0.31979152097E+02 -0.42873459842E+01  0.32290127819E+02  0.51100000000E-03 0.  1.
         12    1    3    3    0    0  0.10667525034E+01  0.11029436837E+01  0.22692215083E+01  0.27393086585E+01  0.00000000000E+00 0. -1.
</event>
<event>
 7    1  0.5714431E-011  0.5052887E+02  0.7816164E-02  0.1300439E+00
        -11   -1    0    0    0    0  0.00000000000E+00  0.00000000000E+00  0.45593999997E+02  0.45594000000E+02  0.51100000000E-03 0. -1.
         11   -1    0    0    0    0 -0.00000000000E+00 -0.00000000000E+00 -0.45593999997E+02  0.45594000000E+02  0.51100000000E-03 0.  1.
    9900012    2    1    2    0    0 -0.75717477076E+01 -0.28434007514E+02  0.28059591357E+02  0.50528870475E+02  0.30000032294E+02 0.  0.
        -12    1    1    2    0    0  0.75717477076E+01  0.28434007514E+02 -0.28059591357E+02  0.40659129525E+02  0.00000000000E+00 0.  1.
         11    1    3    3    0    0 -0.37664960539E+01 -0.21455660136E+02  0.19862789958E+02  0.29479862102E+02  0.51100000000E-03 0. -1.
        -11    1    3    3    0    0  0.53845565969E+01 -0.10146198054E+01 -0.22386546600E+01  0.59189929923E+01  0.51100000000E-03 0.  1.
         12    1    3    3    0    0 -0.91898082505E+01 -0.59637275727E+01  0.10435456059E+02  0.15130015380E+02  0.00000000000E+00 0. -1.
</event>
<event>
 7    1  0.5714431E-011  0.5052886E+02  0.7816164E-02  0.1300439E+00
        -11   -1    0    0    0    0  0.00000000000E+00  0.00000000000E+00  0.45593999997E+02  0.45594000000E+02  0.51100000000E-03 0. -1.
         11   -1    0    0    0    0 -0.00000000000E+00 -0.00000000000E+00 -0.45593999997E+02  0.45594000000E+02  0.51100000000E-03 0.  1.
    9900012    2    1    2    0    0 -0.23805647460E+02  0.32960431937E+02 -0.25839033405E+00  0.50528859699E+02  0.29999999542E+02 0.  0.
        -12    1    1    2    0    0  0.23805647460E+02 -0.32960431937E+02  0.25839033405E+00  0.40659140301E+02  0.00000000000E+00 0.  1.
         11    1    3    3    0    0 -0.10180931271E+02  0.19442989872E+02 -0.99506812617E+01  0.24097661184E+02  0.51100000000E-03 0. -1.
        -11    1    3    3    0    0 -0.74373771447E+01  0.21582744490E+00  0.90923347109E+01  0.11748689758E+02  0.51100000000E-03 0.  1.
        -12    1    3    3    0    0 -0.61873390436E+01  0.13301614620E+02  0.59995621667E+00  0.14682508757E+02  0.00000000000E+00 0.  1.
</event>
<event>
 7    1  0.5714431E-011  0.5052886E+02  0.7816164E-02  0.1300439E+00
        -11   -1    0    0    0    0  0.00000000000E+00  0.00000000000E+00  0.45593999997E+02  0.45594000000E+02  0.51100000000E-03 0. -1.
         11   -1    0    0    0    0 -0.00000000000E+00 -0.00000000000E+00 -0.45593999997E+02  0.45594000000E+02  0.51100000000E-03 0.  1.
    9900012    2    1    2    0    0 -0.16283925846E+02  0.15512247507E+02  0.33872844139E+02  0.50528860391E+02  0.30000001645E+02 0.  0.
        -12    1    1    2    0    0  0.16283925846E+02 -0.15512247507E+02 -0.33872844139E+02  0.40659139609E+02  0.00000000000E+00 0.  1.
         11    1    3    3    0    0 -0.14616351444E+02  0.68584286434E+01  0.76361395257E+01  0.17860190371E+02  0.51100000000E-03 0. -1.
        -11    1    3    3    0    0  0.43041340035E+01  0.11226498775E+02  0.21466410170E+02  0.24604199034E+02  0.51100000000E-03 0.  1.
         12    1    3    3    0    0 -0.59717084051E+01 -0.25726799111E+01  0.47702944435E+01  0.80644709856E+01  0.00000000000E+00 0. -1.
</event>
<event>
 7    1  0.5714431E-011  0.5052886E+02  0.7816164E-02  0.1300439E+00
        -11   -1    0    0    0    0  0.00000000000E+00  0.00000000000E+00  0.45593999997E+02  0.45594000000E+02  0.51100000000E-03 0.  1.
         11   -1    0    0    0    0 -0.00000000000E+00 -0.00000000000E+00 -0.45593999997E+02  0.45594000000E+02  0.51100000000E-03 0. -1.
    9900012    2    1    2    0    0  0.24958353870E+02  0.27155745248E+02  0.17111734226E+02  0.50528863560E+02  0.30000011276E+02 0.  0.
        -12    1    1    2    0    0 -0.24958353870E+02 -0.27155745248E+02 -0.17111734226E+02  0.40659136440E+02  0.00000000000E+00 0.  1.
         11    1    3    3    0    0  0.15216867984E+02  0.10662602833E+02  0.38752907072E+00  0.18584788120E+02  0.51100000000E-03 0. -1.
        -11    1    3    3    0    0 -0.31367434821E+01  0.11730983462E+01  0.10444400133E+02  0.10968172765E+02  0.51100000000E-03 0.  1.
        -12    1    3    3    0    0  0.12878229368E+02  0.15320044069E+02  0.62798050227E+01  0.20975902675E+02  0.00000000000E+00 0.  1.
</event>
<event>
 7    1  0.5714431E-011  0.5052884E+02  0.7816164E-02  0.1300439E+00
        -11   -1    0    0    0    0  0.00000000000E+00  0.00000000000E+00  0.45593999997E+02  0.45594000000E+02  0.51100000000E-03 0.  1.
         11   -1    0    0    0    0 -0.00000000000E+00 -0.00000000000E+00 -0.45593999997E+02  0.45594000000E+02  0.51100000000E-03 0. -1.
    9900012    2    1    2    0    0  0.82726361023E+01  0.32289586755E+02 -0.23283326000E+02  0.50528841247E+02  0.29999943455E+02 0.  0.
        -12    1    1    2    0    0 -0.82726361023E+01 -0.32289586755E+02  0.23283326000E+02  0.40659158753E+02  0.00000000000E+00 0.  1.
         11    1    3    3    0    0  0.61171639192E+00  0.25951736868E+02 -0.13860697982E+02  0.29427636538E+02  0.51100000000E-03 0. -1.
        -11    1    3    3    0    0  0.12275981600E+02  0.37212897946E+01 -0.38177029903E+01  0.13383668345E+02  0.51100000000E-03 0.  1.
        -12    1    3    3    0    0 -0.46150618899E+01  0.26165600918E+01 -0.56049250277E+01  0.77175363639E+01  0.00000000000E+00 0.  1.
</event>
<event>
 7    1  0.5714431E-011  0.5052886E+02  0.7816164E-02  0.1300439E+00
        -11   -1    0    0    0    0  0.00000000000E+00  0.00000000000E+00  0.45593999997E+02  0.45594000000E+02  0.51100000000E-03 0.  1.
         11   -1    0    0    0    0 -0.00000000000E+00 -0.00000000000E+00 -0.45593999997E+02  0.45594000000E+02  0.51100000000E-03 0. -1.
    9900012    2    1    2    0    0  0.55036128157E+00  0.19060896024E+02 -0.35910238487E+02  0.50528857327E+02  0.29999992330E+02 0.  0.
        -12    1    1    2    0    0 -0.55036128157E+00 -0.19060896024E+02  0.35910238487E+02  0.40659142673E+02  0.00000000000E+00 0.  1.
         11    1    3    3    0    0 -0.55524566426E+00  0.11130536328E+02 -0.35522996918E+02  0.37230101356E+02  0.51100000000E-03 0. -1.
        -11    1    3    3    0    0  0.17021908258E+01 -0.19031639374E+01  0.19029596055E+01  0.31844531872E+01  0.51100000000E-03 0.  1.
         12    1    3    3    0    0 -0.59658387998E+00  0.98335236331E+01 -0.22902011739E+01  0.10114302783E+02  0.00000000000E+00 0. -1.
</event>
<event>
 7    1  0.5714431E-011  0.5052885E+02  0.7816164E-02  0.1300439E+00
        -11   -1    0    0    0    0  0.00000000000E+00  0.00000000000E+00  0.45593999997E+02  0.45594000000E+02  0.51100000000E-03 0.  1.
         11   -1    0    0    0    0 -0.00000000000E+00 -0.00000000000E+00 -0.45593999997E+02  0.45594000000E+02  0.51100000000E-03 0. -1.
    9900012    2    1    2    0    0  0.29540954591E+02  0.19694863996E+02 -0.19814403165E+02  0.50528852952E+02  0.29999979032E+02 0.  0.
        -12    1    1    2    0    0 -0.29540954591E+02 -0.19694863996E+02  0.19814403165E+02  0.40659147048E+02  0.00000000000E+00 0.  1.
         11    1    3    3    0    0  0.10715914111E+02  0.52414668389E+01 -0.14055734203E+02  0.18435494409E+02  0.51100000000E-03 0. -1.
        -11    1    3    3    0    0  0.49908642824E+01  0.78144589120E+01  0.74126133359E+01  0.11871029067E+02  0.51100000000E-03 0.  1.
        -12    1    3    3    0    0  0.13834176197E+02  0.66389382447E+01 -0.13171282298E+02  0.20222329476E+02  0.00000000000E+00 0.  1.
</event>
<event>
 7    1  0.5714431E-011  0.5052887E+02  0.7816164E-02  0.1300439E+00
        -11   -1    0    0    0    0  0.00000000000E+00  0.00000000000E+00  0.45593999997E+02  0.45594000000E+02  0.51100000000E-03 0. -1.
         11   -1    0    0    0    0 -0.00000000000E+00 -0.00000000000E+00 -0.45593999997E+02  0.45594000000E+02  0.51100000000E-03 0.  1.
    9900012    2    1    2    0    0  0.39295248329E+02  0.39358944521E+01  0.96724996085E+01  0.50528867508E+02  0.30000023276E+02 0.  0.
        -12    1    1    2    0    0 -0.39295248329E+02 -0.39358944521E+01 -0.96724996085E+01  0.40659132492E+02  0.00000000000E+00 0.  1.
         11    1    3    3    0    0  0.23531643037E+02  0.99391814741E+01  0.41868357692E+01  0.25885423435E+02  0.51100000000E-03 0. -1.
        -11    1    3    3    0    0 -0.18602425151E+01  0.15205192607E+01 -0.28660515240E+01  0.37398840405E+01  0.51100000000E-03 0.  1.
         12    1    3    3    0    0  0.17623847807E+02 -0.75238062828E+01  0.83517153632E+01  0.20903560032E+02  0.00000000000E+00 0. -1.
</event>
<event>
 7    1  0.5714431E-011  0.5052888E+02  0.7816164E-02  0.1300439E+00
        -11   -1    0    0    0    0  0.00000000000E+00  0.00000000000E+00  0.45593999997E+02  0.45594000000E+02  0.51100000000E-03 0. -1.
         11   -1    0    0    0    0 -0.00000000000E+00 -0.00000000000E+00 -0.45593999997E+02  0.45594000000E+02  0.51100000000E-03 0.  1.
    9900012    2    1    2    0    0  0.29065349654E+01 -0.40535928781E+02  0.12468188448E+01  0.50528880176E+02  0.30000061784E+02 0.  0.
        -12    1    1    2    0    0 -0.29065349654E+01  0.40535928781E+02 -0.12468188448E+01  0.40659119824E+02  0.00000000000E+00 0.  1.
         11    1    3    3    0    0  0.58498579155E+01 -0.18007889320E+02 -0.13534038678E+01  0.18982534543E+02  0.51100000000E-03 0. -1.
        -11    1    3    3    0    0 -0.85368614334E+01 -0.19869880366E+02  0.82665696978E+01  0.23152242305E+02  0.51100000000E-03 0.  1.
        -12    1    3    3    0    0  0.55935384833E+01 -0.26581590946E+01 -0.56663469852E+01  0.83941033288E+01  0.00000000000E+00 0.  1.
</event>
<event>
 7    1  0.5714431E-011  0.5052886E+02  0.7816164E-02  0.1300439E+00
        -11   -1    0    0    0    0  0.00000000000E+00  0.00000000000E+00  0.45593999997E+02  0.45594000000E+02  0.51100000000E-03 0.  1.
         11   -1    0    0    0    0 -0.00000000000E+00 -0.00000000000E+00 -0.45593999997E+02  0.45594000000E+02  0.51100000000E-03 0. -1.
    9900012    2    1    2    0    0 -0.31089002290E+01  0.40374769234E+02 -0.36576803832E+01  0.50528857398E+02  0.29999992548E+02 0.  0.
        -12    1    1    2    0    0  0.31089002290E+01 -0.40374769234E+02  0.36576803832E+01  0.40659142602E+02  0.00000000000E+00 0.  1.
         11    1    3    3    0    0 -0.15125024896E+02  0.13621839482E+02 -0.80389655524E+00  0.20370742228E+02  0.51100000000E-03 0. -1.
        -11    1    3    3    0    0  0.48553321296E+01  0.68562477957E+01 -0.32508442867E+01  0.90083501687E+01  0.51100000000E-03 0.  1.
         12    1    3    3    0    0  0.71607925376E+01  0.19896681956E+02  0.39706045874E+00  0.21149765002E+02  0.00000000000E+00 0. -1.
</event>
<event>
 7    1  0.5714431E-011  0.5052886E+02  0.7816164E-02  0.1300439E+00
        -11   -1    0    0    0    0  0.00000000000E+00  0.00000000000E+00  0.45593999997E+02  0.45594000000E+02  0.51100000000E-03 0.  1.
         11   -1    0    0    0    0 -0.00000000000E+00 -0.00000000000E+00 -0.45593999997E+02  0.45594000000E+02  0.51100000000E-03 0. -1.
    9900012    2    1    2    0    0  0.21175481768E+02  0.33878610536E+02 -0.75501295000E+01  0.50528859141E+02  0.29999997845E+02 0.  0.
        -12    1    1    2    0    0 -0.21175481768E+02 -0.33878610536E+02  0.75501295000E+01  0.40659140859E+02  0.00000000000E+00 0.  1.
         11    1    3    3    0    0  0.76976525294E+01  0.19398342209E+02 -0.31714342455E+01  0.21109418049E+02  0.51100000000E-03 0. -1.
        -11    1    3    3    0    0  0.11004324347E+02 -0.28111125471E+01 -0.36765096784E+01  0.11937932474E+02  0.51100000000E-03 0.  1.
        -12    1    3    3    0    0  0.24735048914E+01  0.17291380874E+02 -0.70218557614E+00  0.17481508618E+02  0.00000000000E+00 0.  1.
</event>
<event>
 7    1  0.5714431E-011  0.5052886E+02  0.7816164E-02  0.1300439E+00
        -11   -1    0    0    0    0  0.00000000000E+00  0.00000000000E+00  0.45593999997E+02  0.45594000000E+02  0.51100000000E-03 0.  1.
         11   -1    0    0    0    0 -0.00000000000E+00 -0.00000000000E+00 -0.45593999997E+02  0.45594000000E+02  0.51100000000E-03 0. -1.
    9900012    2    1    2    0    0  0.28425846813E+02 -0.25913497661E+02 -0.13176783196E+02  0.50528859041E+02  0.29999997542E+02 0.  0.
        -12    1    1    2    0    0 -0.28425846813E+02  0.25913497661E+02  0.13176783196E+02  0.40659140959E+02  0.00000000000E+00 0.  1.
         11    1    3    3    0    0  0.22933156443E+02 -0.13594008436E+02  0.18228205610E+01  0.26721702881E+02  0.51100000000E-03 0. -1.
        -11    1    3    3    0    0 -0.22923510321E+01 -0.69879151393E+01 -0.17819432929E+01  0.75671099773E+01  0.51100000000E-03 0.  1.
         12    1    3    3    0    0  0.77850414024E+01 -0.53315740862E+01 -0.13217660464E+02  0.16240046183E+02  0.00000000000E+00 0. -1.
</event>
<event>
 7    1  0.5714431E-011  0.5052886E+02  0.7816164E-02  0.1300439E+00
        -11   -1    0    0    0    0  0.00000000000E+00  0.00000000000E+00  0.45593999997E+02  0.45594000000E+02  0.51100000000E-03 0. -1.
         11   -1    0    0    0    0 -0.00000000000E+00 -0.00000000000E+00 -0.45593999997E+02  0.45594000000E+02  0.51100000000E-03 0.  1.
    9900012    2    1    2    0    0 -0.27376586481E+02  0.28820686681E+02  0.85472701780E+01  0.50528864549E+02  0.30000014282E+02 0.  0.
        -12    1    1    2    0    0  0.27376586481E+02 -0.28820686681E+02 -0.85472701780E+01  0.40659135451E+02  0.00000000000E+00 0.  1.
         11    1    3    3    0    0 -0.16002515632E+02  0.29045812317E+02  0.11822786752E+02  0.35206789211E+02  0.51100000000E-03 0. -1.
        -11    1    3    3    0    0  0.28641596332E+00  0.83287259674E+00 -0.35024488838E+01  0.36114899019E+01  0.51100000000E-03 0.  1.
         12    1    3    3    0    0 -0.11660486813E+02 -0.10579982327E+01  0.22693230966E+00  0.11710585436E+02  0.00000000000E+00 0. -1.
</event>
<event>
 7    1  0.5714431E-011  0.5052886E+02  0.7816164E-02  0.1300439E+00
        -11   -1    0    0    0    0  0.00000000000E+00  0.00000000000E+00  0.45593999997E+02  0.45594000000E+02  0.51100000000E-03 0. -1.
         11   -1    0    0    0    0 -0.00000000000E+00 -0.00000000000E+00 -0.45593999997E+02  0.45594000000E+02  0.51100000000E-03 0.  1.
    9900012    2    1    2    0    0  0.35192816661E+02  0.11319309255E+02  0.16926447579E+02  0.50528859155E+02  0.29999997888E+02 0.  0.
        -12    1    1    2    0    0 -0.35192816661E+02 -0.11319309255E+02 -0.16926447579E+02  0.40659140845E+02  0.00000000000E+00 0.  1.
         11    1    3    3    0    0  0.18586390378E+02  0.28767988648E+01  0.13025247955E+02  0.22877652055E+02  0.51100000000E-03 0. -1.
        -11    1    3    3    0    0  0.16323518929E+02  0.13901918222E+02  0.10049018924E+01  0.21464632039E+02  0.51100000000E-03 0.  1.
        -12    1    3    3    0    0  0.28290735354E+00 -0.54594078313E+01  0.28962977315E+01  0.61865750613E+01  0.00000000000E+00 0.  1.
</event>
<event>
 7    1  0.5714431E-011  0.5052886E+02  0.7816164E-02  0.1300439E+00
        -11   -1    0    0    0    0  0.00000000000E+00  0.00000000000E+00  0.45593999997E+02  0.45594000000E+02  0.51100000000E-03 0.  1.
         11   -1    0    0    0    0 -0.00000000000E+00 -0.00000000000E+00 -0.45593999997E+02  0.45594000000E+02  0.51100000000E-03 0. -1.
    9900012    2    1    2    0    0  0.29195849512E+02  0.72769143207E+00 -0.28288482976E+02  0.50528862864E+02  0.30000009160E+02 0.  0.
        -12    1    1    2    0    0 -0.29195849512E+02 -0.72769143207E+00  0.28288482976E+02  0.40659137136E+02  0.00000000000E+00 0.  1.
         11    1    3    3    0    0  0.86255848589E+01  0.53386822994E+01 -0.58023980900E+01  0.11686319639E+02  0.51100000000E-03 0. -1.
        -11    1    3    3    0    0  0.26849520300E+01 -0.96002448851E+01 -0.16600998621E+02  0.19364060131E+02  0.51100000000E-03 0.  1.
        -12    1    3    3    0    0  0.17885312624E+02  0.49892540178E+01 -0.58850862651E+01  0.19478483094E+02  0.00000000000E+00 0.  1.
</event>
<event>
 7    1  0.5714431E-011  0.5052886E+02  0.7816164E-02  0.1300439E+00
        -11   -1    0    0    0    0  0.00000000000E+00  0.00000000000E+00  0.45593999997E+02  0.45594000000E+02  0.51100000000E-03 0.  1.
         11   -1    0    0    0    0 -0.00000000000E+00 -0.00000000000E+00 -0.45593999997E+02  0.45594000000E+02  0.51100000000E-03 0. -1.
    9900012    2    1    2    0    0  0.36028697865E+02  0.17236530265E+02 -0.76157929775E+01  0.50528863903E+02  0.30000012320E+02 0.  0.
        -12    1    1    2    0    0 -0.36028697865E+02 -0.17236530265E+02  0.76157929775E+01  0.40659136097E+02  0.00000000000E+00 0.  1.
         11    1    3    3    0    0  0.13027461656E+02  0.56963133195E+01  0.61063005184E+01  0.15474160685E+02  0.51100000000E-03 0. -1.
        -11    1    3    3    0    0  0.66791211809E+01  0.82417106230E+01 -0.14979265335E+02  0.18355240233E+02  0.51100000000E-03 0.  1.
        -12    1    3    3    0    0  0.16322115029E+02  0.32985063227E+01  0.12571718396E+01  0.16699462986E+02  0.00000000000E+00 0.  1.
</event>
<event>
 7    1  0.5714431E-011  0.5052879E+02  0.7816164E-02  0.1300439E+00
        -11   -1    0    0    0    0  0.00000000000E+00  0.00000000000E+00  0.45593999997E+02  0.45594000000E+02  0.51100000000E-03 0.  1.
         11   -1    0    0    0    0 -0.00000000000E+00 -0.00000000000E+00 -0.45593999997E+02  0.45594000000E+02  0.51100000000E-03 0. -1.
    9900012    2    1    2    0    0 -0.28634907727E+02 -0.22080885790E+02 -0.18591598742E+02  0.50528794380E+02  0.29999800998E+02 0.  0.
        -12    1    1    2    0    0  0.28634907727E+02  0.22080885790E+02  0.18591598742E+02  0.40659205620E+02  0.00000000000E+00 0.  1.
         11    1    3    3    0    0 -0.29118731764E+02 -0.16949580254E+02 -0.12757314331E+02  0.36026904940E+02  0.51100000000E-03 0. -1.
        -11    1    3    3    0    0  0.37308683609E+01 -0.80719554871E+01 -0.37553460908E+01  0.96528994936E+01  0.51100000000E-03 0.  1.
         12    1    3    3    0    0 -0.32470443236E+01  0.29406499501E+01 -0.20789383205E+01  0.48489899473E+01  0.00000000000E+00 0. -1.
</event>
<event>
 7    1  0.5714431E-011  0.5052887E+02  0.7816164E-02  0.1300439E+00
        -11   -1    0    0    0    0  0.00000000000E+00  0.00000000000E+00  0.45593999997E+02  0.45594000000E+02  0.51100000000E-03 0.  1.
         11   -1    0    0    0    0 -0.00000000000E+00 -0.00000000000E+00 -0.45593999997E+02  0.45594000000E+02  0.51100000000E-03 0. -1.
    9900012    2    1    2    0    0 -0.21072718325E+02  0.20016667771E+01 -0.34714537539E+02  0.50528865183E+02  0.30000016212E+02 0.  0.
        -12    1    1    2    0    0  0.21072718325E+02 -0.20016667771E+01  0.34714537539E+02  0.40659134817E+02  0.00000000000E+00 0.  1.
         11    1    3    3    0    0 -0.62741055864E+01 -0.36536973711E+01 -0.36282800296E+01  0.81165461634E+01  0.51100000000E-03 0. -1.
        -11    1    3    3    0    0 -0.10188044128E+02  0.15165848337E+02 -0.19079117739E+02  0.26416130165E+02  0.51100000000E-03 0.  1.
        -12    1    3    3    0    0 -0.46105686107E+01 -0.95104841890E+01 -0.12007139770E+02  0.15996188855E+02  0.00000000000E+00 0.  1.
</event>
<event>
 7    1  0.5714431E-011  0.5052886E+02  0.7816164E-02  0.1300439E+00
        -11   -1    0    0    0    0  0.00000000000E+00  0.00000000000E+00  0.45593999997E+02  0.45594000000E+02  0.51100000000E-03 0.  1.
         11   -1    0    0    0    0 -0.00000000000E+00 -0.00000000000E+00 -0.45593999997E+02  0.45594000000E+02  0.51100000000E-03 0. -1.
    9900012    2    1    2    0    0  0.11771888517E+02  0.83841355918E+01 -0.38003877201E+02  0.50528858701E+02  0.29999996509E+02 0.  0.
        -12    1    1    2    0    0 -0.11771888517E+02 -0.83841355918E+01  0.38003877201E+02  0.40659141299E+02  0.00000000000E+00 0.  1.
         11    1    3    3    0    0 -0.11756879581E+01 -0.33779931435E+01 -0.13328422141E+02  0.13799996988E+02  0.51100000000E-03 0. -1.
        -11    1    3    3    0    0  0.60167942473E+01  0.76408476628E+01  0.10380302063E+01  0.97806887789E+01  0.51100000000E-03 0.  1.
        -12    1    3    3    0    0  0.69307822274E+01  0.41212810725E+01 -0.25713485266E+02  0.26948172934E+02  0.00000000000E+00 0.  1.
</event>
<event>
 7    1  0.5714431E-011  0.5052885E+02  0.7816164E-02  0.1300439E+00
        -11   -1    0    0    0    0  0.00000000000E+00  0.00000000000E+00  0.45593999997E+02  0.45594000000E+02  0.51100000000E-03 0.  1.
         11   -1    0    0    0    0 -0.00000000000E+00 -0.00000000000E+00 -0.45593999997E+02  0.45594000000E+02  0.51100000000E-03 0. -1.
    9900012    2    1    2    0    0  0.18586375445E+02  0.34922509523E+02 -0.93878469067E+01  0.50528847364E+02  0.29999962046E+02 0.  0.
        -12    1    1    2    0    0 -0.18586375445E+02 -0.34922509523E+02  0.93878469067E+01  0.40659152636E+02  0.00000000000E+00 0.  1.
         11    1    3    3    0    0  0.12623800891E+02  0.18370036955E+02  0.57803857487E+01  0.23026755445E+02  0.51100000000E-03 0. -1.
        -11    1    3    3    0    0  0.17991435950E+01  0.18324124083E+02 -0.11968232002E+02  0.21960168911E+02  0.51100000000E-03 0.  1.
         12    1    3    3    0    0  0.41634309590E+01 -0.17716515149E+01 -0.32000006533E+01  0.55419230076E+01  0.00000000000E+00 0. -1.
</event>
<event>
 7    1  0.5714431E-011  0.5052890E+02  0.7816164E-02  0.1300439E+00
        -11   -1    0    0    0    0  0.00000000000E+00  0.00000000000E+00  0.45593999997E+02  0.45594000000E+02  0.51100000000E-03 0.  1.
         11   -1    0    0    0    0 -0.00000000000E+00 -0.00000000000E+00 -0.45593999997E+02  0.45594000000E+02  0.51100000000E-03 0. -1.
    9900012    2    1    2    0    0 -0.30269417493E+02 -0.10576618080E+02 -0.25001202525E+02  0.50528897538E+02  0.30000114555E+02 0.  0.
        -12    1    1    2    0    0  0.30269417493E+02  0.10576618080E+02  0.25001202525E+02  0.40659102462E+02  0.00000000000E+00 0.  1.
         11    1    3    3    0    0 -0.53613597628E+01 -0.56231771570E+01 -0.19777879435E+01  0.80172280282E+01  0.51100000000E-03 0. -1.
        -11    1    3    3    0    0 -0.25234964462E+02  0.50442749477E+01 -0.16515779887E+02  0.30578082456E+02  0.51100000000E-03 0.  1.
        -12    1    3    3    0    0  0.32690673212E+00 -0.99977158707E+01 -0.65076346949E+01  0.11933587054E+02  0.00000000000E+00 0.  1.
</event>
<event>
 7    1  0.5714431E-011  0.5052886E+02  0.7816164E-02  0.1300439E+00
        -11   -1    0    0    0    0  0.00000000000E+00  0.00000000000E+00  0.45593999997E+02  0.45594000000E+02  0.51100000000E-03 0. -1.
         11   -1    0    0    0    0 -0.00000000000E+00 -0.00000000000E+00 -0.45593999997E+02  0.45594000000E+02  0.51100000000E-03 0.  1.
    9900012    2    1    2    0    0  0.23212053548E+01  0.39357501140E+01  0.40401582517E+02  0.50528855972E+02  0.29999988212E+02 0.  0.
        -12    1    1    2    0    0 -0.23212053548E+01 -0.39357501140E+01 -0.40401582517E+02  0.40659144028E+02  0.00000000000E+00 0.  1.
         11    1    3    3    0    0  0.52818066403E+00  0.38425000004E+01  0.98877835034E+01  0.10621301424E+02  0.51100000000E-03 0. -1.
        -11    1    3    3    0    0 -0.53374648664E+01 -0.11131639551E+02  0.13154077537E+02  0.18039725231E+02  0.51100000000E-03 0.  1.
        -12    1    3    3    0    0  0.71304895571E+01  0.11224889665E+02  0.17359721476E+02  0.21867829317E+02  0.00000000000E+00 0.  1.
</event>
<event>
 7    1  0.5714431E-011  0.5052886E+02  0.7816164E-02  0.1300439E+00
        -11   -1    0    0    0    0  0.00000000000E+00  0.00000000000E+00  0.45593999997E+02  0.45594000000E+02  0.51100000000E-03 0.  1.
         11   -1    0    0    0    0 -0.00000000000E+00 -0.00000000000E+00 -0.45593999997E+02  0.45594000000E+02  0.51100000000E-03 0. -1.
    9900012    2    1    2    0    0 -0.10169027807E+02 -0.13163507363E+02 -0.37100925285E+02  0.50528859457E+02  0.29999998807E+02 0.  0.
        -12    1    1    2    0    0  0.10169027807E+02  0.13163507363E+02  0.37100925285E+02  0.40659140543E+02  0.00000000000E+00 0.  1.
         11    1    3    3    0    0  0.93879478299E+01 -0.41858207999E+01 -0.95556015116E+01  0.14034392781E+02  0.51100000000E-03 0.  1.
        -11    1    3    3    0    0 -0.14845834674E+02 -0.11313690028E+02 -0.22026544976E+02  0.28871561667E+02  0.51100000000E-03 0. -1.
         12    1    3    3    0    0 -0.47111409628E+01  0.23360034658E+01 -0.55187787974E+01  0.76229050091E+01  0.00000000000E+00 0. -1.
</event>
<event>
 7    1  0.5714431E-011  0.5052886E+02  0.7816164E-02  0.1300439E+00
        -11   -1    0    0    0    0  0.00000000000E+00  0.00000000000E+00  0.45593999997E+02  0.45594000000E+02  0.51100000000E-03 0. -1.
         11   -1    0    0    0    0 -0.00000000000E+00 -0.00000000000E+00 -0.45593999997E+02  0.45594000000E+02  0.51100000000E-03 0.  1.
    9900012    2    1    2    0    0  0.30760495086E+02  0.19343528008E+02  0.18242414271E+02  0.50528858197E+02  0.29999994975E+02 0.  0.
        -12    1    1    2    0    0 -0.30760495086E+02 -0.19343528008E+02 -0.18242414271E+02  0.40659141803E+02  0.00000000000E+00 0.  1.
         11    1    3    3    0    0  0.18764320498E+02  0.14089600085E+02  0.15917413487E+02  0.28354551781E+02  0.51100000000E-03 0. -1.
        -11    1    3    3    0    0  0.16387053669E+01 -0.95660784601E+00 -0.67859687615E+01  0.70462632752E+01  0.51100000000E-03 0.  1.
        -12    1    3    3    0    0  0.10357469222E+02  0.62105357687E+01  0.91109695454E+01  0.15128043141E+02  0.00000000000E+00 0.  1.
</event>
<event>
 7    1  0.5714431E-011  0.5052886E+02  0.7816164E-02  0.1300439E+00
        -11   -1    0    0    0    0  0.00000000000E+00  0.00000000000E+00  0.45593999997E+02  0.45594000000E+02  0.51100000000E-03 0.  1.
         11   -1    0    0    0    0 -0.00000000000E+00 -0.00000000000E+00 -0.45593999997E+02  0.45594000000E+02  0.51100000000E-03 0. -1.
    9900012    2    1    2    0    0 -0.14934773069E+02 -0.37245292459E+02 -0.65503110192E+01  0.50528857960E+02  0.29999994256E+02 0.  0.
        -12    1    1    2    0    0  0.14934773069E+02  0.37245292459E+02  0.65503110192E+01  0.40659142040E+02  0.00000000000E+00 0.  1.
         11    1    3    3    0    0 -0.99593936133E+01 -0.17258572328E+02 -0.87000868892E+01  0.21742570043E+02  0.51100000000E-03 0. -1.
        -11    1    3    3    0    0  0.39912610835E+01 -0.10637921765E+02  0.86623948168E+01  0.14287499037E+02  0.51100000000E-03 0.  1.
        -12    1    3    3    0    0 -0.89666405392E+01 -0.93487983660E+01 -0.65126189468E+01  0.14498788880E+02  0.00000000000E+00 0.  1.
</event>
<event>
 7    1  0.5714431E-011  0.5052886E+02  0.7816164E-02  0.1300439E+00
        -11   -1    0    0    0    0  0.00000000000E+00  0.00000000000E+00  0.45593999997E+02  0.45594000000E+02  0.51100000000E-03 0.  1.
         11   -1    0    0    0    0 -0.00000000000E+00 -0.00000000000E+00 -0.45593999997E+02  0.45594000000E+02  0.51100000000E-03 0. -1.
    9900012    2    1    2    0    0 -0.13726534836E+02  0.16483793892E+02 -0.34540302198E+02  0.50528859630E+02  0.29999999331E+02 0.  0.
        -12    1    1    2    0    0  0.13726534836E+02 -0.16483793892E+02  0.34540302198E+02  0.40659140370E+02  0.00000000000E+00 0.  1.
         11    1    3    3    0    0 -0.18508764088E+02  0.12535699890E+02 -0.18401286471E+02  0.28953850588E+02  0.51100000000E-03 0. -1.
        -11    1    3    3    0    0  0.78402599216E+01  0.13048767028E+01 -0.42402724097E+01  0.90084565391E+01  0.51100000000E-03 0.  1.
        -12    1    3    3    0    0 -0.30580306692E+01  0.26432172996E+01 -0.11898743318E+02  0.12566552503E+02  0.00000000000E+00 0.  1.
</event>
<event>
 7    1  0.5714431E-011  0.5052887E+02  0.7816164E-02  0.1300439E+00
        -11   -1    0    0    0    0  0.00000000000E+00  0.00000000000E+00  0.45593999997E+02  0.45594000000E+02  0.51100000000E-03 0. -1.
         11   -1    0    0    0    0 -0.00000000000E+00 -0.00000000000E+00 -0.45593999997E+02  0.45594000000E+02  0.51100000000E-03 0.  1.
    9900012    2    1    2    0    0  0.35803062229E+02  0.99838360897E+01  0.16481154212E+02  0.50528871970E+02  0.30000036839E+02 0.  0.
        -12    1    1    2    0    0 -0.35803062229E+02 -0.99838360897E+01 -0.16481154212E+02  0.40659128030E+02  0.00000000000E+00 0.  1.
         11    1    3    3    0    0 -0.33055790221E+00  0.26628972797E+01 -0.41475322056E+01  0.49398698471E+01  0.51100000000E-03 0.  1.
        -11    1    3    3    0    0  0.33043073885E+02  0.22933808868E+01  0.21690539366E+02  0.39592724406E+02  0.51100000000E-03 0. -1.
         12    1    3    3    0    0  0.30905462456E+01  0.50275579232E+01 -0.10618529481E+01  0.59962777163E+01  0.00000000000E+00 0. -1.
</event>
<event>
 7    1  0.5714431E-011  0.5052884E+02  0.7816164E-02  0.1300439E+00
        -11   -1    0    0    0    0  0.00000000000E+00  0.00000000000E+00  0.45593999997E+02  0.45594000000E+02  0.51100000000E-03 0.  1.
         11   -1    0    0    0    0 -0.00000000000E+00 -0.00000000000E+00 -0.45593999997E+02  0.45594000000E+02  0.51100000000E-03 0. -1.
    9900012    2    1    2    0    0  0.34277304411E+02 -0.63762362240E+01 -0.20918356437E+02  0.50528835939E+02  0.29999927321E+02 0.  0.
        -12    1    1    2    0    0 -0.34277304411E+02  0.63762362240E+01  0.20918356437E+02  0.40659164061E+02  0.00000000000E+00 0.  1.
         11    1    3    3    0    0  0.21687016762E+02 -0.13062046029E+02 -0.21251621975E+02  0.33054124997E+02  0.51100000000E-03 0. -1.
        -11    1    3    3    0    0  0.25405769357E+01  0.69658651799E+01 -0.24305918772E-01  0.74147420663E+01  0.51100000000E-03 0.  1.
         12    1    3    3    0    0  0.10049710713E+02 -0.28005537532E+00  0.35757145703E+00  0.10059968876E+02  0.00000000000E+00 0. -1.
</event>
<event>
 7    1  0.5714431E-011  0.5052887E+02  0.7816164E-02  0.1300439E+00
        -11   -1    0    0    0    0  0.00000000000E+00  0.00000000000E+00  0.45593999997E+02  0.45594000000E+02  0.51100000000E-03 0.  1.
         11   -1    0    0    0    0 -0.00000000000E+00 -0.00000000000E+00 -0.45593999997E+02  0.45594000000E+02  0.51100000000E-03 0. -1.
    9900012    2    1    2    0    0 -0.37516497696E+02  0.10399741203E+02 -0.11726997327E+02  0.50528872085E+02  0.30000037190E+02 0.  0.
        -12    1    1    2    0    0  0.37516497696E+02 -0.10399741203E+02  0.11726997327E+02  0.40659127915E+02  0.00000000000E+00 0.  1.
         11    1    3    3    0    0 -0.33356751072E+02  0.69274441872E+00 -0.58916406648E+01  0.33880144139E+02  0.51100000000E-03 0. -1.
        -11    1    3    3    0    0 -0.15564702364E+01  0.24365582017E+01 -0.81004203064E+01  0.86009432546E+01  0.51100000000E-03 0.  1.
         12    1    3    3    0    0 -0.26032763885E+01  0.72704385822E+01  0.22650636447E+01  0.80477846918E+01  0.00000000000E+00 0. -1.
</event>
<event>
 7    1  0.5714431E-011  0.5052887E+02  0.7816164E-02  0.1300439E+00
        -11   -1    0    0    0    0  0.00000000000E+00  0.00000000000E+00  0.45593999997E+02  0.45594000000E+02  0.51100000000E-03 0.  1.
         11   -1    0    0    0    0 -0.00000000000E+00 -0.00000000000E+00 -0.45593999997E+02  0.45594000000E+02  0.51100000000E-03 0. -1.
    9900012    2    1    2    0    0 -0.34850414200E+02  0.20398548299E+02 -0.47447895691E+01  0.50528866086E+02  0.30000018955E+02 0.  0.
        -12    1    1    2    0    0  0.34850414200E+02 -0.20398548299E+02  0.47447895691E+01  0.40659133914E+02  0.00000000000E+00 0.  1.
         11    1    3    3    0    0  0.17677579376E+01  0.56020841059E+00 -0.76796845742E+01  0.79004023322E+01  0.51100000000E-03 0. -1.
        -11    1    3    3    0    0 -0.10677843464E+02  0.61943642211E+01  0.48341694989E+01  0.13257287964E+02  0.51100000000E-03 0.  1.
         12    1    3    3    0    0 -0.25940328673E+02  0.13643975667E+02 -0.18992744938E+01  0.29371175790E+02  0.00000000000E+00 0. -1.
</event>
<event>
 7    1  0.5714431E-011  0.5052884E+02  0.7816164E-02  0.1300439E+00
        -11   -1    0    0    0    0  0.00000000000E+00  0.00000000000E+00  0.45593999997E+02  0.45594000000E+02  0.51100000000E-03 0.  1.
         11   -1    0    0    0    0 -0.00000000000E+00 -0.00000000000E+00 -0.45593999997E+02  0.45594000000E+02  0.51100000000E-03 0. -1.
    9900012    2    1    2    0    0 -0.32127471620E+02 -0.24697888227E+02  0.33176485052E+01  0.50528844731E+02  0.29999954044E+02 0.  0.
        -12    1    1    2    0    0  0.32127471620E+02  0.24697888227E+02 -0.33176485052E+01  0.40659155269E+02  0.00000000000E+00 0.  1.
         11    1    3    3    0    0 -0.16554879477E+01 -0.76745729254E+00 -0.39795313298E+01  0.43779334059E+01  0.51100000000E-03 0. -1.
        -11    1    3    3    0    0 -0.11184536603E+02 -0.14762722671E+02  0.14597519309E+02  0.23582184164E+02  0.51100000000E-03 0.  1.
        -12    1    3    3    0    0 -0.19287447070E+02 -0.91677082631E+01 -0.73003394737E+01  0.22568727162E+02  0.00000000000E+00 0.  1.
</event>
<event>
 7    1  0.5714431E-011  0.5052883E+02  0.7816164E-02  0.1300439E+00
        -11   -1    0    0    0    0  0.00000000000E+00  0.00000000000E+00  0.45593999997E+02  0.45594000000E+02  0.51100000000E-03 0.  1.
         11   -1    0    0    0    0 -0.00000000000E+00 -0.00000000000E+00 -0.45593999997E+02  0.45594000000E+02  0.51100000000E-03 0. -1.
    9900012    2    1    2    0    0  0.36674887033E+02 -0.13752485604E+02 -0.10908233908E+02  0.50528834169E+02  0.29999921939E+02 0.  0.
        -12    1    1    2    0    0 -0.36674887033E+02  0.13752485604E+02  0.10908233908E+02  0.40659165831E+02  0.00000000000E+00 0.  1.
         11    1    3    3    0    0 -0.17658564767E+01  0.28494269048E+01 -0.44269145274E+01  0.55529321332E+01  0.51100000000E-03 0. -1.
        -11    1    3    3    0    0  0.21427248302E+02 -0.15265268792E+02 -0.88256174774E+01  0.27749719372E+02  0.51100000000E-03 0.  1.
        -12    1    3    3    0    0  0.17013495207E+02 -0.13366437163E+01  0.23442980972E+01  0.17226182664E+02  0.00000000000E+00 0.  1.
</event>
<event>
 7    1  0.5714431E-011  0.5052886E+02  0.7816164E-02  0.1300439E+00
        -11   -1    0    0    0    0  0.00000000000E+00  0.00000000000E+00  0.45593999997E+02  0.45594000000E+02  0.51100000000E-03 0.  1.
         11   -1    0    0    0    0 -0.00000000000E+00 -0.00000000000E+00 -0.45593999997E+02  0.45594000000E+02  0.51100000000E-03 0. -1.
    9900012    2    1    2    0    0  0.15657246379E+02 -0.29445531128E+02 -0.23258910614E+02  0.50528860922E+02  0.30000003259E+02 0.  0.
        -12    1    1    2    0    0 -0.15657246379E+02  0.29445531128E+02  0.23258910614E+02  0.40659139078E+02  0.00000000000E+00 0.  1.
         11    1    3    3    0    0  0.46010898713E+00 -0.78312065514E+01 -0.17920009324E+02  0.19561856526E+02  0.51100000000E-03 0. -1.
        -11    1    3    3    0    0  0.15168858337E+02 -0.23359684092E+02 -0.68225852722E+01  0.28676066226E+02  0.51100000000E-03 0.  1.
         12    1    3    3    0    0  0.28279055047E-01  0.17453595151E+01  0.14836839820E+01  0.22909381703E+01  0.00000000000E+00 0. -1.
</event>
<event>
 7    1  0.5714431E-011  0.5052885E+02  0.7816164E-02  0.1300439E+00
        -11   -1    0    0    0    0  0.00000000000E+00  0.00000000000E+00  0.45593999997E+02  0.45594000000E+02  0.51100000000E-03 0. -1.
         11   -1    0    0    0    0 -0.00000000000E+00 -0.00000000000E+00 -0.45593999997E+02  0.45594000000E+02  0.51100000000E-03 0.  1.
    9900012    2    1    2    0    0 -0.35711115943E+02  0.16773658054E+02 -0.98248377437E+01  0.50528845519E+02  0.29999956441E+02 0.  0.
        -12    1    1    2    0    0  0.35711115943E+02 -0.16773658054E+02  0.98248377437E+01  0.40659154481E+02  0.00000000000E+00 0.  1.
         11    1    3    3    0    0 -0.36827631295E+02  0.13811923614E+02 -0.74226258164E+01  0.40026729007E+02  0.51100000000E-03 0. -1.
        -11    1    3    3    0    0  0.41220854358E+01  0.12958018199E+01 -0.46875003621E+01  0.63752137691E+01  0.51100000000E-03 0.  1.
        -12    1    3    3    0    0 -0.30055700837E+01  0.16659326203E+01  0.22852884348E+01  0.41269027434E+01  0.00000000000E+00 0.  1.
</event>
<event>
 7    1  0.5714431E-011  0.5052885E+02  0.7816164E-02  0.1300439E+00
        -11   -1    0    0    0    0  0.00000000000E+00  0.00000000000E+00  0.45593999997E+02  0.45594000000E+02  0.51100000000E-03 0.  1.
         11   -1    0    0    0    0 -0.00000000000E+00 -0.00000000000E+00 -0.45593999997E+02  0.45594000000E+02  0.51100000000E-03 0. -1.
    9900012    2    1    2    0    0  0.24570370203E+02 -0.24012828931E+02 -0.21745047046E+02  0.50528854458E+02  0.29999983612E+02 0.  0.
        -12    1    1    2    0    0 -0.24570370203E+02  0.24012828931E+02  0.21745047046E+02  0.40659145542E+02  0.00000000000E+00 0.  1.
         11    1    3    3    0    0  0.25260485290E+02 -0.21272371735E+02 -0.19103352577E+02  0.38151592316E+02  0.51100000000E-03 0. -1.
        -11    1    3    3    0    0 -0.50653206249E+01  0.20178120863E+01 -0.22591533838E+01  0.59019329818E+01  0.51100000000E-03 0.  1.
        -12    1    3    3    0    0  0.43752055375E+01 -0.47582692817E+01 -0.38254108525E+00  0.64753291603E+01  0.00000000000E+00 0.  1.
</event>
<event>
 7    1  0.5714431E-011  0.5052889E+02  0.7816164E-02  0.1300439E+00
        -11   -1    0    0    0    0  0.00000000000E+00  0.00000000000E+00  0.45593999997E+02  0.45594000000E+02  0.51100000000E-03 0.  1.
         11   -1    0    0    0    0 -0.00000000000E+00 -0.00000000000E+00 -0.45593999997E+02  0.45594000000E+02  0.51100000000E-03 0. -1.
    9900012    2    1    2    0    0 -0.25901391604E+01  0.22081142983E+02 -0.34042296254E+02  0.50528885025E+02  0.30000076520E+02 0.  0.
        -12    1    1    2    0    0  0.25901391604E+01 -0.22081142983E+02  0.34042296254E+02  0.40659114975E+02  0.00000000000E+00 0.  1.
         11    1    3    3    0    0 -0.11859349295E+02  0.33726748248E+01 -0.11317020122E+02  0.16736010453E+02  0.51100000000E-03 0. -1.
        -11    1    3    3    0    0  0.85343218710E+01  0.80194104533E+01 -0.19243912846E+02  0.22527178601E+02  0.51100000000E-03 0.  1.
        -12    1    3    3    0    0  0.73488826318E+00  0.10689057705E+02 -0.34813632860E+01  0.11265695971E+02  0.00000000000E+00 0.  1.
</event>
<event>
 7    1  0.5714431E-011  0.5052885E+02  0.7816164E-02  0.1300439E+00
        -11   -1    0    0    0    0  0.00000000000E+00  0.00000000000E+00  0.45593999997E+02  0.45594000000E+02  0.51100000000E-03 0.  1.
         11   -1    0    0    0    0 -0.00000000000E+00 -0.00000000000E+00 -0.45593999997E+02  0.45594000000E+02  0.51100000000E-03 0. -1.
    9900012    2    1    2    0    0  0.36204238786E+02 -0.59985495053E+00 -0.18494864710E+02  0.50528846631E+02  0.29999959820E+02 0.  0.
        -12    1    1    2    0    0 -0.36204238786E+02  0.59985495053E+00  0.18494864710E+02  0.40659153369E+02  0.00000000000E+00 0.  1.
         11    1    3    3    0    0  0.64446738603E+01  0.68250745607E+00 -0.10622384800E+02  0.12443259086E+02  0.51100000000E-03 0. -1.
        -11    1    3    3    0    0  0.25514575213E+02 -0.67344498962E+00  0.36572461583E+01  0.25784152617E+02  0.51100000000E-03 0.  1.
        -12    1    3    3    0    0  0.42449897131E+01 -0.60891741698E+00 -0.11529726068E+02  0.12301434928E+02  0.00000000000E+00 0.  1.
</event>
<event>
 7    1  0.5714431E-011  0.5052886E+02  0.7816164E-02  0.1300439E+00
        -11   -1    0    0    0    0  0.00000000000E+00  0.00000000000E+00  0.45593999997E+02  0.45594000000E+02  0.51100000000E-03 0. -1.
         11   -1    0    0    0    0 -0.00000000000E+00 -0.00000000000E+00 -0.45593999997E+02  0.45594000000E+02  0.51100000000E-03 0.  1.
    9900012    2    1    2    0    0  0.84225087288E+01 -0.29528968680E+02  0.26650833516E+02  0.50528861154E+02  0.30000003964E+02 0.  0.
        -12    1    1    2    0    0 -0.84225087288E+01  0.29528968680E+02 -0.26650833516E+02  0.40659138846E+02  0.00000000000E+00 0.  1.
         11    1    3    3    0    0  0.46303291300E+01 -0.25051920572E+02  0.26993762000E+02  0.37117406420E+02  0.51100000000E-03 0. -1.
        -11    1    3    3    0    0  0.39731489052E+01 -0.44855386164E+00 -0.55407481544E+01  0.68327888275E+01  0.51100000000E-03 0.  1.
        -12    1    3    3    0    0 -0.18096930637E+00 -0.40284942470E+01  0.51978196705E+01  0.65786659070E+01  0.00000000000E+00 0.  1.
</event>
<event>
 7    1  0.6182346E-011  0.5052886E+02  0.7816164E-02  0.1300439E+00
        -11   -1    0    0    0    0  0.00000000000E+00  0.00000000000E+00  0.45593999997E+02  0.45594000000E+02  0.51100000000E-03 0.  1.
         11   -1    0    0    0    0 -0.00000000000E+00 -0.00000000000E+00 -0.45593999997E+02  0.45594000000E+02  0.51100000000E-03 0. -1.
    9900012    2    1    2    0    0 -0.33266352367E+02 -0.21337863303E+02  0.95504621210E+01  0.50528856663E+02  0.29999990313E+02 0.  0.
        -12    1    1    2    0    0  0.33266352367E+02  0.21337863303E+02 -0.95504621210E+01  0.40659143337E+02  0.00000000000E+00 0.  1.
         11    1    3    3    0    0 -0.17215663979E+02  0.28028561933E+01  0.68507489233E+01  0.18739473049E+02  0.51100000000E-03 0. -1.
        -11    1    3    3    0    0  0.84533038142E+00 -0.44250919920E+01 -0.27230892948E+01  0.52641464797E+01  0.51100000000E-03 0.  1.
         12    1    3    3    0    0 -0.16896018769E+02 -0.19715627505E+02  0.54228024924E+01  0.26525237134E+02  0.00000000000E+00 0. -1.
</event>
<event>
 7    1  0.5714431E-011  0.5052886E+02  0.7816164E-02  0.1300439E+00
        -11   -1    0    0    0    0  0.00000000000E+00  0.00000000000E+00  0.45593999997E+02  0.45594000000E+02  0.51100000000E-03 0.  1.
         11   -1    0    0    0    0 -0.00000000000E+00 -0.00000000000E+00 -0.45593999997E+02  0.45594000000E+02  0.51100000000E-03 0. -1.
    9900012    2    1    2    0    0  0.30250518397E+02  0.21707377235E+02 -0.16335901786E+02  0.50528858631E+02  0.29999996295E+02 0.  0.
        -12    1    1    2    0    0 -0.30250518397E+02 -0.21707377235E+02  0.16335901786E+02  0.40659141369E+02  0.00000000000E+00 0.  1.
         11    1    3    3    0    0  0.15217364563E+02 -0.24642392355E+01 -0.53382122850E-01  0.15415690357E+02  0.51100000000E-03 0. -1.
        -11    1    3    3    0    0  0.17755465932E+01  0.41804860933E+01 -0.89388026407E+01  0.10026525948E+02  0.51100000000E-03 0.  1.
         12    1    3    3    0    0  0.13257607240E+02  0.19991130377E+02 -0.73437170227E+01  0.25086642326E+02  0.00000000000E+00 0. -1.
</event>
<event>
 7    1  0.5714431E-011  0.5052890E+02  0.7816164E-02  0.1300439E+00
        -11   -1    0    0    0    0  0.00000000000E+00  0.00000000000E+00  0.45593999997E+02  0.45594000000E+02  0.51100000000E-03 0. -1.
         11   -1    0    0    0    0 -0.00000000000E+00 -0.00000000000E+00 -0.45593999997E+02  0.45594000000E+02  0.51100000000E-03 0.  1.
    9900012    2    1    2    0    0  0.36260607556E+02  0.14038632325E+02  0.11884766460E+02  0.50528898538E+02  0.30000117596E+02 0.  0.
        -12    1    1    2    0    0 -0.36260607556E+02 -0.14038632325E+02 -0.11884766460E+02  0.40659101462E+02  0.00000000000E+00 0.  1.
         11    1    3    3    0    0  0.27988104727E+02  0.12647461940E+02  0.15158808702E+02  0.34250281477E+02  0.51100000000E-03 0. -1.
        -11    1    3    3    0    0  0.90294457101E+01  0.26639860247E+01 -0.73489389486E+01  0.11942973470E+02  0.51100000000E-03 0.  1.
         12    1    3    3    0    0 -0.75694288097E+00 -0.12728156393E+01  0.40748967071E+01  0.43356435912E+01  0.00000000000E+00 0. -1.
</event>
<event>
 7    1  0.5714431E-011  0.5052887E+02  0.7816164E-02  0.1300439E+00
        -11   -1    0    0    0    0  0.00000000000E+00  0.00000000000E+00  0.45593999997E+02  0.45594000000E+02  0.51100000000E-03 0.  1.
         11   -1    0    0    0    0 -0.00000000000E+00 -0.00000000000E+00 -0.45593999997E+02  0.45594000000E+02  0.51100000000E-03 0. -1.
    9900012    2    1    2    0    0 -0.33275076964E+02 -0.15002739148E+02 -0.17912347378E+02  0.50528866740E+02  0.30000020942E+02 0.  0.
        -12    1    1    2    0    0  0.33275076964E+02  0.15002739148E+02  0.17912347378E+02  0.40659133260E+02  0.00000000000E+00 0.  1.
         11    1    3    3    0    0 -0.18019112116E+02 -0.21923490316E+02 -0.13319165626E+02  0.31348492824E+02  0.51100000000E-03 0. -1.
        -11    1    3    3    0    0 -0.15641067151E+02  0.56672635789E+01 -0.55715319080E+01  0.17544310364E+02  0.51100000000E-03 0.  1.
        -12    1    3    3    0    0  0.38510230349E+00  0.12534875889E+01  0.97835015535E+00  0.16360635520E+01  0.00000000000E+00 0.  1.
</event>
<event>
 7    1  0.5714431E-011  0.5052886E+02  0.7816164E-02  0.1300439E+00
        -11   -1    0    0    0    0  0.00000000000E+00  0.00000000000E+00  0.45593999997E+02  0.45594000000E+02  0.51100000000E-03 0. -1.
         11   -1    0    0    0    0 -0.00000000000E+00 -0.00000000000E+00 -0.45593999997E+02  0.45594000000E+02  0.51100000000E-03 0.  1.
    9900012    2    1    2    0    0  0.37014080407E+01  0.30194256033E+01  0.40377573685E+02  0.50528858234E+02  0.29999995088E+02 0.  0.
        -12    1    1    2    0    0 -0.37014080407E+01 -0.30194256033E+01 -0.40377573685E+02  0.40659141766E+02  0.00000000000E+00 0.  1.
         11    1    3    3    0    0  0.72093468877E+01  0.13111111123E+01  0.43933280841E+02  0.44540171313E+02  0.51100000000E-03 0. -1.
        -11    1    3    3    0    0 -0.26745506747E+01  0.24320366146E+01 -0.21668727524E+01  0.42146602701E+01  0.51100000000E-03 0.  1.
         12    1    3    3    0    0 -0.83338817229E+00 -0.72372212357E+00 -0.13888344033E+01  0.17740266507E+01  0.00000000000E+00 0. -1.
</event>
<event>
 7    1  0.5714431E-011  0.5052886E+02  0.7816164E-02  0.1300439E+00
        -11   -1    0    0    0    0  0.00000000000E+00  0.00000000000E+00  0.45593999997E+02  0.45594000000E+02  0.51100000000E-03 0.  1.
         11   -1    0    0    0    0 -0.00000000000E+00 -0.00000000000E+00 -0.45593999997E+02  0.45594000000E+02  0.51100000000E-03 0. -1.
    9900012    2    1    2    0    0 -0.39311738040E+02  0.10092676048E+02  0.24270776802E+01  0.50528861253E+02  0.30000004266E+02 0.  0.
        -12    1    1    2    0    0  0.39311738040E+02 -0.10092676048E+02 -0.24270776802E+01  0.40659138747E+02  0.00000000000E+00 0.  1.
         11    1    3    3    0    0 -0.41608539456E+02  0.78030168155E+01  0.15601793518E+01  0.42362622522E+02  0.51100000000E-03 0. -1.
        -11    1    3    3    0    0  0.26880158316E+01 -0.20663629826E+01 -0.80379103989E+00  0.34844462090E+01  0.51100000000E-03 0.  1.
         12    1    3    3    0    0 -0.39121441583E+00  0.43560222150E+01  0.16706893683E+01  0.46817925224E+01  0.00000000000E+00 0. -1.
</event>
<event>
 7    1  0.5714431E-011  0.5052886E+02  0.7816164E-02  0.1300439E+00
        -11   -1    0    0    0    0  0.00000000000E+00  0.00000000000E+00  0.45593999997E+02  0.45594000000E+02  0.51100000000E-03 0.  1.
         11   -1    0    0    0    0 -0.00000000000E+00 -0.00000000000E+00 -0.45593999997E+02  0.45594000000E+02  0.51100000000E-03 0. -1.
    9900012    2    1    2    0    0  0.10650071072E+01 -0.40475064484E+02 -0.37148863693E+01  0.50528862456E+02  0.30000007921E+02 0.  0.
        -12    1    1    2    0    0 -0.10650071072E+01  0.40475064484E+02  0.37148863693E+01  0.40659137544E+02  0.00000000000E+00 0.  1.
         11    1    3    3    0    0 -0.11511847002E+01 -0.33989170063E+02  0.27186716091E+01  0.34117152334E+02  0.51100000000E-03 0. -1.
        -11    1    3    3    0    0  0.57154512113E+01 -0.74980398684E+00  0.15575538073E+01  0.59711441694E+01  0.51100000000E-03 0.  1.
         12    1    3    3    0    0 -0.34992594039E+01 -0.57360904341E+01 -0.79911117858E+01  0.10440565953E+02  0.00000000000E+00 0. -1.
</event>
<event>
 7    1  0.5714431E-011  0.5052886E+02  0.7816164E-02  0.1300439E+00
        -11   -1    0    0    0    0  0.00000000000E+00  0.00000000000E+00  0.45593999997E+02  0.45594000000E+02  0.51100000000E-03 0.  1.
         11   -1    0    0    0    0 -0.00000000000E+00 -0.00000000000E+00 -0.45593999997E+02  0.45594000000E+02  0.51100000000E-03 0. -1.
    9900012    2    1    2    0    0 -0.40650801597E+02 -0.52673055777E+00  0.63277903175E+00  0.50528861730E+02  0.30000005714E+02 0.  0.
        -12    1    1    2    0    0  0.40650801597E+02  0.52673055777E+00 -0.63277903175E+00  0.40659138270E+02  0.00000000000E+00 0.  1.
         11    1    3    3    0    0 -0.20415393381E+02 -0.49267701686E+01  0.32294206384E+01  0.21248306029E+02  0.51100000000E-03 0. -1.
        -11    1    3    3    0    0 -0.10344223825E+02  0.59984793277E+01 -0.10966613428E+02  0.16225021760E+02  0.51100000000E-03 0.  1.
        -12    1    3    3    0    0 -0.98911843914E+01 -0.15984397169E+01  0.83699718210E+01  0.13055533941E+02  0.00000000000E+00 0.  1.
</event>
<event>
 7    1  0.5714431E-011  0.5052886E+02  0.7816164E-02  0.1300439E+00
        -11   -1    0    0    0    0  0.00000000000E+00  0.00000000000E+00  0.45593999997E+02  0.45594000000E+02  0.51100000000E-03 0. -1.
         11   -1    0    0    0    0 -0.00000000000E+00 -0.00000000000E+00 -0.45593999997E+02  0.45594000000E+02  0.51100000000E-03 0.  1.
    9900012    2    1    2    0    0  0.63100373284E+01 -0.25866377186E+02  0.30729135067E+02  0.50528858570E+02  0.29999996110E+02 0.  0.
        -12    1    1    2    0    0 -0.63100373284E+01  0.25866377186E+02 -0.30729135067E+02  0.40659141430E+02  0.00000000000E+00 0.  1.
         11    1    3    3    0    0 -0.11062636594E+02 -0.47166818592E+01  0.54013036231E+01  0.13183440266E+02  0.51100000000E-03 0.  1.
        -11    1    3    3    0    0  0.15459606351E+02 -0.17950760446E+02  0.22430122090E+02  0.32624218096E+02  0.51100000000E-03 0. -1.
        -12    1    3    3    0    0  0.19130675707E+01 -0.31989348812E+01  0.28977093539E+01  0.47212002080E+01  0.00000000000E+00 0.  1.
</event>
<event>
 7    1  0.5714431E-011  0.5052886E+02  0.7816164E-02  0.1300439E+00
        -11   -1    0    0    0    0  0.00000000000E+00  0.00000000000E+00  0.45593999997E+02  0.45594000000E+02  0.51100000000E-03 0. -1.
         11   -1    0    0    0    0 -0.00000000000E+00 -0.00000000000E+00 -0.45593999997E+02  0.45594000000E+02  0.51100000000E-03 0.  1.
    9900012    2    1    2    0    0  0.15411429448E+02  0.13187595936E+01  0.37602055977E+02  0.50528857139E+02  0.29999991758E+02 0.  0.
        -12    1    1    2    0    0 -0.15411429448E+02 -0.13187595936E+01 -0.37602055977E+02  0.40659142861E+02  0.00000000000E+00 0.  1.
         11    1    3    3    0    0  0.94112342298E-01 -0.96287160373E+00  0.33217062060E+02  0.33231147904E+02  0.51100000000E-03 0. -1.
        -11    1    3    3    0    0  0.42217717623E+01 -0.21328535261E+01  0.58383621101E+00  0.47658457758E+01  0.51100000000E-03 0.  1.
         12    1    3    3    0    0  0.11095545344E+02  0.44144847234E+01  0.38011577067E+01  0.12531863459E+02  0.00000000000E+00 0. -1.
</event>
<event>
 7    1  0.5714431E-011  0.5052885E+02  0.7816164E-02  0.1300439E+00
        -11   -1    0    0    0    0  0.00000000000E+00  0.00000000000E+00  0.45593999997E+02  0.45594000000E+02  0.51100000000E-03 0. -1.
         11   -1    0    0    0    0 -0.00000000000E+00 -0.00000000000E+00 -0.45593999997E+02  0.45594000000E+02  0.51100000000E-03 0.  1.
    9900012    2    1    2    0    0 -0.47216337819E+01  0.25694941359E+02  0.31155136704E+02  0.50528851213E+02  0.29999973747E+02 0.  0.
        -12    1    1    2    0    0  0.47216337819E+01 -0.25694941359E+02 -0.31155136704E+02  0.40659148787E+02  0.00000000000E+00 0.  1.
         11    1    3    3    0    0  0.27265747840E+01  0.12934482824E+02  0.25100666650E+02  0.28368618622E+02  0.51100000000E-03 0. -1.
        -11    1    3    3    0    0 -0.10576615686E+02  0.11084271533E+02  0.20963022825E+00  0.15322200230E+02  0.51100000000E-03 0.  1.
        -12    1    3    3    0    0  0.31284071204E+01  0.16761870020E+01  0.58448398262E+01  0.68380323611E+01  0.00000000000E+00 0.  1.
</event>
<event>
 7    1  0.5714431E-011  0.5052885E+02  0.7816164E-02  0.1300439E+00
        -11   -1    0    0    0    0  0.00000000000E+00  0.00000000000E+00  0.45593999997E+02  0.45594000000E+02  0.51100000000E-03 0. -1.
         11   -1    0    0    0    0 -0.00000000000E+00 -0.00000000000E+00 -0.45593999997E+02  0.45594000000E+02  0.51100000000E-03 0.  1.
    9900012    2    1    2    0    0  0.27186580063E+02  0.29502065623E+02 -0.66094408508E+01  0.50528847034E+02  0.29999961044E+02 0.  0.
        -12    1    1    2    0    0 -0.27186580063E+02 -0.29502065623E+02  0.66094408508E+01  0.40659152966E+02  0.00000000000E+00 0.  1.
         11    1    3    3    0    0  0.67125476987E+01  0.73907170165E+01 -0.36218250099E+01  0.10620669060E+02  0.51100000000E-03 0. -1.
        -11    1    3    3    0    0  0.98373859481E+01  0.21412576183E+02  0.77226099158E+01  0.24797404809E+02  0.51100000000E-03 0.  1.
        -12    1    3    3    0    0  0.10636646416E+02  0.69877242387E+00 -0.10710225757E+02  0.15110773165E+02  0.00000000000E+00 0.  1.
</event>
<event>
 7    1  0.5714431E-011  0.5052887E+02  0.7816164E-02  0.1300439E+00
        -11   -1    0    0    0    0  0.00000000000E+00  0.00000000000E+00  0.45593999997E+02  0.45594000000E+02  0.51100000000E-03 0.  1.
         11   -1    0    0    0    0 -0.00000000000E+00 -0.00000000000E+00 -0.45593999997E+02  0.45594000000E+02  0.51100000000E-03 0. -1.
    9900012    2    1    2    0    0 -0.25639594445E+02  0.20326773893E+02 -0.24137079143E+02  0.50528866589E+02  0.30000020483E+02 0.  0.
        -12    1    1    2    0    0  0.25639594445E+02 -0.20326773893E+02  0.24137079143E+02  0.40659133411E+02  0.00000000000E+00 0.  1.
         11    1    3    3    0    0 -0.53640313577E+01  0.21231959284E+01 -0.19333004536E+02  0.20175377518E+02  0.51100000000E-03 0. -1.
        -11    1    3    3    0    0 -0.11911000607E+02  0.15949176802E+02  0.99137563261E+00  0.19930654832E+02  0.51100000000E-03 0.  1.
         12    1    3    3    0    0 -0.83645624798E+01  0.22544011629E+01 -0.57954502399E+01  0.10422834239E+02  0.00000000000E+00 0. -1.
</event>
<event>
 7    1  0.5714431E-011  0.5052884E+02  0.7816164E-02  0.1300439E+00
        -11   -1    0    0    0    0  0.00000000000E+00  0.00000000000E+00  0.45593999997E+02  0.45594000000E+02  0.51100000000E-03 0.  1.
         11   -1    0    0    0    0 -0.00000000000E+00 -0.00000000000E+00 -0.45593999997E+02  0.45594000000E+02  0.51100000000E-03 0. -1.
    9900012    2    1    2    0    0 -0.25479266175E+02 -0.42928924377E+01 -0.31393399739E+02  0.50528837717E+02  0.29999932726E+02 0.  0.
        -12    1    1    2    0    0  0.25479266175E+02  0.42928924377E+01  0.31393399739E+02  0.40659162283E+02  0.00000000000E+00 0.  1.
         11    1    3    3    0    0  0.25713734679E+01 -0.55477915005E+01 -0.13198996443E+02  0.14546596145E+02  0.51100000000E-03 0. -1.
        -11    1    3    3    0    0 -0.21003499794E+02 -0.49243283226E+01 -0.11349971166E+02  0.24376584231E+02  0.51100000000E-03 0.  1.
        -12    1    3    3    0    0 -0.70471398491E+01  0.61792273855E+01 -0.68444321305E+01  0.11605657341E+02  0.00000000000E+00 0.  1.
</event>
<event>
 7    1  0.5714431E-011  0.5052886E+02  0.7816164E-02  0.1300439E+00
        -11   -1    0    0    0    0  0.00000000000E+00  0.00000000000E+00  0.45593999997E+02  0.45594000000E+02  0.51100000000E-03 0.  1.
         11   -1    0    0    0    0 -0.00000000000E+00 -0.00000000000E+00 -0.45593999997E+02  0.45594000000E+02  0.51100000000E-03 0. -1.
    9900012    2    1    2    0    0 -0.30566331151E+02  0.19613482875E+02 -0.18280480051E+02  0.50528864970E+02  0.30000015561E+02 0.  0.
        -12    1    1    2    0    0  0.30566331151E+02 -0.19613482875E+02  0.18280480051E+02  0.40659135030E+02  0.00000000000E+00 0.  1.
         11    1    3    3    0    0 -0.22828322485E+02  0.67614975742E+01 -0.17409391208E+02  0.29494695445E+02  0.51100000000E-03 0. -1.
        -11    1    3    3    0    0  0.39625891769E+01  0.48923460415E+01 -0.25316588863E+01  0.67857541771E+01  0.51100000000E-03 0.  1.
        -12    1    3    3    0    0 -0.11700597843E+02  0.79596392596E+01  0.16605700437E+01  0.14248415347E+02  0.00000000000E+00 0.  1.
</event>
<event>
 7    1  0.5714431E-011  0.5052886E+02  0.7816164E-02  0.1300439E+00
        -11   -1    0    0    0    0  0.00000000000E+00  0.00000000000E+00  0.45593999997E+02  0.45594000000E+02  0.51100000000E-03 0.  1.
         11   -1    0    0    0    0 -0.00000000000E+00 -0.00000000000E+00 -0.45593999997E+02  0.45594000000E+02  0.51100000000E-03 0. -1.
    9900012    2    1    2    0    0  0.31101702129E+02 -0.18684614764E+02 -0.18350337599E+02  0.50528860878E+02  0.30000003125E+02 0.  0.
        -12    1    1    2    0    0 -0.31101702129E+02  0.18684614764E+02  0.18350337599E+02  0.40659139122E+02  0.00000000000E+00 0.  1.
         11    1    3    3    0    0  0.50717513813E+01 -0.39247611780E+01 -0.80665427342E+01  0.10305121267E+02  0.51100000000E-03 0. -1.
        -11    1    3    3    0    0  0.25063776736E+01  0.17431682855E+00  0.69983178986E+01  0.74356418062E+01  0.51100000000E-03 0.  1.
         12    1    3    3    0    0  0.23523573074E+02 -0.14934170414E+02 -0.17282112763E+02  0.32788097805E+02  0.00000000000E+00 0. -1.
</event>
<event>
 7    1  0.5714431E-011  0.5052886E+02  0.7816164E-02  0.1300439E+00
        -11   -1    0    0    0    0  0.00000000000E+00  0.00000000000E+00  0.45593999997E+02  0.45594000000E+02  0.51100000000E-03 0.  1.
         11   -1    0    0    0    0 -0.00000000000E+00 -0.00000000000E+00 -0.45593999997E+02  0.45594000000E+02  0.51100000000E-03 0. -1.
    9900012    2    1    2    0    0 -0.31010861023E+02  0.29775649788E+01 -0.26127125292E+02  0.50528855018E+02  0.29999985314E+02 0.  0.
        -12    1    1    2    0    0  0.31010861023E+02 -0.29775649788E+01  0.26127125292E+02  0.40659144982E+02  0.00000000000E+00 0.  1.
         11    1    3    3    0    0  0.18101621568E+01 -0.25349660095E+01 -0.67499066571E+01  0.74339747003E+01  0.51100000000E-03 0. -1.
        -11    1    3    3    0    0 -0.31722339703E+02  0.40848663462E+01 -0.22764519037E+02  0.39258327735E+02  0.51100000000E-03 0.  1.
        -12    1    3    3    0    0 -0.10986834769E+01  0.14276646420E+01  0.33873004016E+01  0.38365525832E+01  0.00000000000E+00 0.  1.
</event>
<event>
 7    1  0.5714431E-011  0.5052886E+02  0.7816164E-02  0.1300439E+00
        -11   -1    0    0    0    0  0.00000000000E+00  0.00000000000E+00  0.45593999997E+02  0.45594000000E+02  0.51100000000E-03 0.  1.
         11   -1    0    0    0    0 -0.00000000000E+00 -0.00000000000E+00 -0.45593999997E+02  0.45594000000E+02  0.51100000000E-03 0. -1.
    9900012    2    1    2    0    0 -0.71445558837E+01  0.39740157700E+02 -0.47792232502E+01  0.50528858498E+02  0.29999995890E+02 0.  0.
        -12    1    1    2    0    0  0.71445558837E+01 -0.39740157700E+02  0.47792232502E+01  0.40659141502E+02  0.00000000000E+00 0.  1.
         11    1    3    3    0    0 -0.11301902988E+02  0.27426672624E+02 -0.13424607045E+02  0.32560335639E+02  0.51100000000E-03 0. -1.
        -11    1    3    3    0    0  0.65875185024E+01  0.63469012955E+01  0.63230577373E+01  0.11120234507E+02  0.51100000000E-03 0.  1.
         12    1    3    3    0    0 -0.24301713977E+01  0.59665837811E+01  0.23223260571E+01  0.68482883521E+01  0.00000000000E+00 0. -1.
</event>
<event>
 7    1  0.5714431E-011  0.5052885E+02  0.7816164E-02  0.1300439E+00
        -11   -1    0    0    0    0  0.00000000000E+00  0.00000000000E+00  0.45593999997E+02  0.45594000000E+02  0.51100000000E-03 0. -1.
         11   -1    0    0    0    0 -0.00000000000E+00 -0.00000000000E+00 -0.45593999997E+02  0.45594000000E+02  0.51100000000E-03 0.  1.
    9900012    2    1    2    0    0  0.26237235551E+02  0.29175543323E+02  0.10656528073E+02  0.50528850377E+02  0.29999971205E+02 0.  0.
        -12    1    1    2    0    0 -0.26237235551E+02 -0.29175543323E+02 -0.10656528073E+02  0.40659149623E+02  0.00000000000E+00 0.  1.
         11    1    3    3    0    0  0.17082593382E+01 -0.95361249156E+00  0.89136679342E+01  0.91258425942E+01  0.51100000000E-03 0.  1.
        -11    1    3    3    0    0  0.54767343829E+01  0.10124472206E+02 -0.56250266139E+01  0.12811732186E+02  0.51100000000E-03 0. -1.
         12    1    3    3    0    0  0.19052241830E+02  0.20004683609E+02  0.73678867522E+01  0.28591275596E+02  0.00000000000E+00 0. -1.
</event>
<event>
 7    1  0.5714431E-011  0.5052886E+02  0.7816164E-02  0.1300439E+00
        -11   -1    0    0    0    0  0.00000000000E+00  0.00000000000E+00  0.45593999997E+02  0.45594000000E+02  0.51100000000E-03 0.  1.
         11   -1    0    0    0    0 -0.00000000000E+00 -0.00000000000E+00 -0.45593999997E+02  0.45594000000E+02  0.51100000000E-03 0. -1.
    9900012    2    1    2    0    0 -0.28492442775E+02 -0.21765790127E+02  0.19172821005E+02  0.50528856128E+02  0.29999988686E+02 0.  0.
        -12    1    1    2    0    0  0.28492442775E+02  0.21765790127E+02 -0.19172821005E+02  0.40659143872E+02  0.00000000000E+00 0.  1.
         11    1    3    3    0    0 -0.15924010976E+01 -0.18721256736E+02  0.86642033309E+01  0.20690326596E+02  0.51100000000E-03 0.  1.
        -11    1    3    3    0    0 -0.17663276223E+02 -0.44428791399E+01  0.46020083347E+01  0.18785871897E+02  0.51100000000E-03 0. -1.
        -12    1    3    3    0    0 -0.92367654544E+01  0.13983457489E+01  0.59066093397E+01  0.11052657634E+02  0.00000000000E+00 0.  1.
</event>
<event>
 7    1  0.5714431E-011  0.5052887E+02  0.7816164E-02  0.1300439E+00
        -11   -1    0    0    0    0  0.00000000000E+00  0.00000000000E+00  0.45593999997E+02  0.45594000000E+02  0.51100000000E-03 0. -1.
         11   -1    0    0    0    0 -0.00000000000E+00 -0.00000000000E+00 -0.45593999997E+02  0.45594000000E+02  0.51100000000E-03 0.  1.
    9900012    2    1    2    0    0  0.21325683618E+02  0.16812726013E+02  0.30260745507E+02  0.50528865031E+02  0.30000015749E+02 0.  0.
        -12    1    1    2    0    0 -0.21325683618E+02 -0.16812726013E+02 -0.30260745507E+02  0.40659134969E+02  0.00000000000E+00 0.  1.
         11    1    3    3    0    0 -0.33509510925E+01  0.12199102379E+02  0.28555335559E+01  0.12969234527E+02  0.51100000000E-03 0. -1.
        -11    1    3    3    0    0  0.21845748089E+02  0.47934939485E+01  0.21573273352E+02  0.31074433497E+02  0.51100000000E-03 0.  1.
        -12    1    3    3    0    0  0.28308866213E+01 -0.17987031445E+00  0.58319385999E+01  0.64851970075E+01  0.00000000000E+00 0.  1.
</event>
<event>
 7    1  0.5714431E-011  0.5052891E+02  0.7816164E-02  0.1300439E+00
        -11   -1    0    0    0    0  0.00000000000E+00  0.00000000000E+00  0.45593999997E+02  0.45594000000E+02  0.51100000000E-03 0.  1.
         11   -1    0    0    0    0 -0.00000000000E+00 -0.00000000000E+00 -0.45593999997E+02  0.45594000000E+02  0.51100000000E-03 0. -1.
    9900012    2    1    2    0    0  0.23857477920E+02  0.19858067119E+02 -0.26260987486E+02  0.50528910658E+02  0.30000154436E+02 0.  0.
        -12    1    1    2    0    0 -0.23857477920E+02 -0.19858067119E+02  0.26260987486E+02  0.40659089342E+02  0.00000000000E+00 0.  1.
         11    1    3    3    0    0  0.58308156720E+01  0.96681119828E+01 -0.12125495016E+02  0.16567994156E+02  0.51100000000E-03 0. -1.
        -11    1    3    3    0    0  0.52603190340E+00 -0.18184181765E+01  0.50234590465E+01  0.53682860655E+01  0.51100000000E-03 0.  1.
        -12    1    3    3    0    0  0.17500630345E+02  0.12008373312E+02 -0.19158951516E+02  0.28592630437E+02  0.00000000000E+00 0.  1.
</event>
<event>
 7    1  0.5714431E-011  0.5052885E+02  0.7816164E-02  0.1300439E+00
        -11   -1    0    0    0    0  0.00000000000E+00  0.00000000000E+00  0.45593999997E+02  0.45594000000E+02  0.51100000000E-03 0.  1.
         11   -1    0    0    0    0 -0.00000000000E+00 -0.00000000000E+00 -0.45593999997E+02  0.45594000000E+02  0.51100000000E-03 0. -1.
    9900012    2    1    2    0    0  0.38341017094E+02 -0.21653990625E+01  0.13358278280E+02  0.50528854122E+02  0.29999982589E+02 0.  0.
        -12    1    1    2    0    0 -0.38341017094E+02  0.21653990625E+01 -0.13358278280E+02  0.40659145878E+02  0.00000000000E+00 0.  1.
         11    1    3    3    0    0  0.94573914805E+01  0.79813235033E+01 -0.45946933255E+01  0.13200567620E+02  0.51100000000E-03 0. -1.
        -11    1    3    3    0    0  0.27973088372E+02 -0.11890922244E+02  0.18063089451E+02  0.35357642818E+02  0.51100000000E-03 0.  1.
        -12    1    3    3    0    0  0.91053724162E+00  0.17441996786E+01 -0.11011784516E+00  0.19706436834E+01  0.00000000000E+00 0.  1.
</event>
<event>
 7    1  0.5714431E-011  0.5052886E+02  0.7816164E-02  0.1300439E+00
        -11   -1    0    0    0    0  0.00000000000E+00  0.00000000000E+00  0.45593999997E+02  0.45594000000E+02  0.51100000000E-03 0. -1.
         11   -1    0    0    0    0 -0.00000000000E+00 -0.00000000000E+00 -0.45593999997E+02  0.45594000000E+02  0.51100000000E-03 0.  1.
    9900012    2    1    2    0    0 -0.40526662115E+02  0.39063872136E+00  0.32562019604E+01  0.50528858445E+02  0.29999995728E+02 0.  0.
        -12    1    1    2    0    0  0.40526662115E+02 -0.39063872136E+00 -0.32562019604E+01  0.40659141555E+02  0.00000000000E+00 0.  1.
         11    1    3    3    0    0 -0.19624019676E+02 -0.73173987599E+01  0.68046496650E+01  0.22021574199E+02  0.51100000000E-03 0.  1.
        -11    1    3    3    0    0 -0.14056253399E+02  0.71747404135E+01 -0.10325449453E+02  0.18859217012E+02  0.51100000000E-03 0. -1.
        -12    1    3    3    0    0 -0.68463890400E+01  0.53329706773E+00  0.67770017489E+01  0.96480672341E+01  0.00000000000E+00 0.  1.
</event>
<event>
 7    1  0.5714431E-011  0.5052886E+02  0.7816164E-02  0.1300439E+00
        -11   -1    0    0    0    0  0.00000000000E+00  0.00000000000E+00  0.45593999997E+02  0.45594000000E+02  0.51100000000E-03 0. -1.
         11   -1    0    0    0    0 -0.00000000000E+00 -0.00000000000E+00 -0.45593999997E+02  0.45594000000E+02  0.51100000000E-03 0.  1.
    9900012    2    1    2    0    0  0.88301117205E+01  0.13808422943E+02  0.37209172195E+02  0.50528856962E+02  0.29999991221E+02 0.  0.
        -12    1    1    2    0    0 -0.88301117205E+01 -0.13808422943E+02 -0.37209172195E+02  0.40659143038E+02  0.00000000000E+00 0.  1.
         11    1    3    3    0    0  0.14048932021E+02  0.39735086320E+01  0.28666917611E+02  0.32170692056E+02  0.51100000000E-03 0. -1.
        -11    1    3    3    0    0 -0.18256921561E+01  0.11495357550E+02  0.36931851853E+01  0.12211306815E+02  0.51100000000E-03 0.  1.
        -12    1    3    3    0    0 -0.33931281444E+01 -0.16604432390E+01  0.48490693981E+01  0.61468580903E+01  0.00000000000E+00 0.  1.
</event>
<event>
 7    1  0.5714431E-011  0.5052886E+02  0.7816164E-02  0.1300439E+00
        -11   -1    0    0    0    0  0.00000000000E+00  0.00000000000E+00  0.45593999997E+02  0.45594000000E+02  0.51100000000E-03 0.  1.
         11   -1    0    0    0    0 -0.00000000000E+00 -0.00000000000E+00 -0.45593999997E+02  0.45594000000E+02  0.51100000000E-03 0. -1.
    9900012    2    1    2    0    0 -0.27690908710E+02  0.12693439712E+02 -0.26930572458E+02  0.50528861177E+02  0.30000004034E+02 0.  0.
        -12    1    1    2    0    0  0.27690908710E+02 -0.12693439712E+02  0.26930572458E+02  0.40659138823E+02  0.00000000000E+00 0.  1.
         11    1    3    3    0    0 -0.17484859228E+02 -0.39010754256E+01 -0.23405617057E+02  0.29474762116E+02  0.51100000000E-03 0. -1.
        -11    1    3    3    0    0 -0.47146578147E+01  0.29448162934E+01  0.10275869628E+01  0.56529529043E+01  0.51100000000E-03 0.  1.
         12    1    3    3    0    0 -0.54913916668E+01  0.13649698844E+02 -0.45525423642E+01  0.15401146157E+02  0.00000000000E+00 0. -1.
</event>
<event>
 7    1  0.5714431E-011  0.5052886E+02  0.7816164E-02  0.1300439E+00
        -11   -1    0    0    0    0  0.00000000000E+00  0.00000000000E+00  0.45593999997E+02  0.45594000000E+02  0.51100000000E-03 0.  1.
         11   -1    0    0    0    0 -0.00000000000E+00 -0.00000000000E+00 -0.45593999997E+02  0.45594000000E+02  0.51100000000E-03 0. -1.
    9900012    2    1    2    0    0  0.34279753832E+02  0.13865400619E+01 -0.21820678400E+02  0.50528855617E+02  0.29999987132E+02 0.  0.
        -12    1    1    2    0    0 -0.34279753832E+02 -0.13865400619E+01  0.21820678400E+02  0.40659144383E+02  0.00000000000E+00 0.  1.
         11    1    3    3    0    0  0.18408399603E+02 -0.22980502828E+01 -0.26322041845E+02  0.32202485901E+02  0.51100000000E-03 0. -1.
        -11    1    3    3    0    0  0.83573783763E+01  0.54303969227E+01  0.34182810960E+01  0.10536585309E+02  0.51100000000E-03 0.  1.
        -12    1    3    3    0    0  0.75139758526E+01 -0.17458065780E+01  0.10830823488E+01  0.77897844062E+01  0.00000000000E+00 0.  1.
</event>
<event>
 7    1  0.5714431E-011  0.5052886E+02  0.7816164E-02  0.1300439E+00
        -11   -1    0    0    0    0  0.00000000000E+00  0.00000000000E+00  0.45593999997E+02  0.45594000000E+02  0.51100000000E-03 0.  1.
         11   -1    0    0    0    0 -0.00000000000E+00 -0.00000000000E+00 -0.45593999997E+02  0.45594000000E+02  0.51100000000E-03 0. -1.
    9900012    2    1    2    0    0  0.14260855108E+02  0.10315568955E+02 -0.36652187036E+02  0.50528858767E+02  0.29999996708E+02 0.  0.
        -12    1    1    2    0    0 -0.14260855108E+02 -0.10315568955E+02  0.36652187036E+02  0.40659141233E+02  0.00000000000E+00 0.  1.
         11    1    3    3    0    0  0.20131083447E+02  0.10509008367E+02 -0.15010284897E+02  0.27221470029E+02  0.51100000000E-03 0. -1.
        -11    1    3    3    0    0 -0.30885014315E+01  0.18576426920E+01 -0.17707451987E+02  0.18070515587E+02  0.51100000000E-03 0.  1.
         12    1    3    3    0    0 -0.27817269073E+01 -0.20510821047E+01 -0.39344501526E+01  0.52368731501E+01  0.00000000000E+00 0. -1.
</event>
<event>
 7    1  0.5714431E-011  0.5052886E+02  0.7816164E-02  0.1300439E+00
        -11   -1    0    0    0    0  0.00000000000E+00  0.00000000000E+00  0.45593999997E+02  0.45594000000E+02  0.51100000000E-03 0.  1.
         11   -1    0    0    0    0 -0.00000000000E+00 -0.00000000000E+00 -0.45593999997E+02  0.45594000000E+02  0.51100000000E-03 0. -1.
    9900012    2    1    2    0    0 -0.35221602835E+02  0.61973639281E+01 -0.19344182407E+02  0.50528855654E+02  0.29999987247E+02 0.  0.
        -12    1    1    2    0    0  0.35221602835E+02 -0.61973639281E+01  0.19344182407E+02  0.40659144346E+02  0.00000000000E+00 0.  1.
         11    1    3    3    0    0 -0.86876962492E+01  0.13982861619E+02 -0.89646732578E+01  0.18744648624E+02  0.51100000000E-03 0. -1.
        -11    1    3    3    0    0 -0.91484553790E+01 -0.75663784145E+01 -0.71882661609E+00  0.11893739113E+02  0.51100000000E-03 0.  1.
         12    1    3    3    0    0 -0.17385451207E+02 -0.21911927633E+00 -0.96606825335E+01  0.19890467916E+02  0.00000000000E+00 0. -1.
</event>
<event>
 7    1  0.5714431E-011  0.5052886E+02  0.7816164E-02  0.1300439E+00
        -11   -1    0    0    0    0  0.00000000000E+00  0.00000000000E+00  0.45593999997E+02  0.45594000000E+02  0.51100000000E-03 0.  1.
         11   -1    0    0    0    0 -0.00000000000E+00 -0.00000000000E+00 -0.45593999997E+02  0.45594000000E+02  0.51100000000E-03 0. -1.
    9900012    2    1    2    0    0  0.21661086989E+02 -0.35835944246E+01 -0.34221642541E+02  0.50528860108E+02  0.30000000784E+02 0.  0.
        -12    1    1    2    0    0 -0.21661086989E+02  0.35835944246E+01  0.34221642541E+02  0.40659139892E+02  0.00000000000E+00 0.  1.
         11    1    3    3    0    0  0.22876525925E+02  0.72775497087E+01 -0.22806575211E+02  0.33112505814E+02  0.51100000000E-03 0. -1.
        -11    1    3    3    0    0 -0.34685697834E+01 -0.54374881608E+01 -0.89855744311E+01  0.11060642023E+02  0.51100000000E-03 0.  1.
         12    1    3    3    0    0  0.22531308475E+01 -0.54236559725E+01 -0.24294928987E+01  0.63557122707E+01  0.00000000000E+00 0. -1.
</event>
<event>
 7    1  0.5714431E-011  0.5052886E+02  0.7816164E-02  0.1300439E+00
        -11   -1    0    0    0    0  0.00000000000E+00  0.00000000000E+00  0.45593999997E+02  0.45594000000E+02  0.51100000000E-03 0.  1.
         11   -1    0    0    0    0 -0.00000000000E+00 -0.00000000000E+00 -0.45593999997E+02  0.45594000000E+02  0.51100000000E-03 0. -1.
    9900012    2    1    2    0    0 -0.80624803542E+01  0.35966345128E+02 -0.17163461372E+02  0.50528856163E+02  0.29999988792E+02 0.  0.
        -12    1    1    2    0    0  0.80624803542E+01 -0.35966345128E+02  0.17163461372E+02  0.40659143837E+02  0.00000000000E+00 0.  1.
         11    1    3    3    0    0 -0.11948650854E+02  0.20473477613E+02  0.16143396788E+01  0.23760042838E+02  0.51100000000E-03 0. -1.
        -11    1    3    3    0    0  0.15795896744E+01  0.15489546157E+02 -0.18865270953E+02  0.24460572194E+02  0.51100000000E-03 0.  1.
        -12    1    3    3    0    0  0.23065808249E+01  0.33213578140E-02  0.87469901363E-01  0.23082411305E+01  0.00000000000E+00 0.  1.
</event>
<event>
 7    1  0.5714431E-011  0.5052886E+02  0.7816164E-02  0.1300439E+00
        -11   -1    0    0    0    0  0.00000000000E+00  0.00000000000E+00  0.45593999997E+02  0.45594000000E+02  0.51100000000E-03 0.  1.
         11   -1    0    0    0    0 -0.00000000000E+00 -0.00000000000E+00 -0.45593999997E+02  0.45594000000E+02  0.51100000000E-03 0. -1.
    9900012    2    1    2    0    0 -0.84360277023E+01 -0.38145914635E+02  0.11264464675E+02  0.50528861653E+02  0.30000005479E+02 0.  0.
        -12    1    1    2    0    0  0.84360277023E+01  0.38145914635E+02 -0.11264464675E+02  0.40659138347E+02  0.00000000000E+00 0.  1.
         11    1    3    3    0    0 -0.35430647583E+01 -0.98763668272E+00  0.12487022045E+02  0.13017467262E+02  0.51100000000E-03 0.  1.
        -11    1    3    3    0    0 -0.42100418126E+01 -0.32902549622E+02 -0.79855044924E+00  0.33180414506E+02  0.51100000000E-03 0. -1.
        -12    1    3    3    0    0 -0.68292113135E+00 -0.42557283306E+01 -0.42400692095E+00  0.43309798850E+01  0.00000000000E+00 0.  1.
</event>
<event>
 7    1  0.5714431E-011  0.5052888E+02  0.7816164E-02  0.1300439E+00
        -11   -1    0    0    0    0  0.00000000000E+00  0.00000000000E+00  0.45593999997E+02  0.45594000000E+02  0.51100000000E-03 0. -1.
         11   -1    0    0    0    0 -0.00000000000E+00 -0.00000000000E+00 -0.45593999997E+02  0.45594000000E+02  0.51100000000E-03 0.  1.
    9900012    2    1    2    0    0  0.34628961722E+02 -0.11223389572E+02  0.18111714221E+02  0.50528884719E+02  0.30000075592E+02 0.  0.
        -12    1    1    2    0    0 -0.34628961722E+02  0.11223389572E+02 -0.18111714221E+02  0.40659115281E+02  0.00000000000E+00 0.  1.
         11    1    3    3    0    0  0.34599501046E+02 -0.96509876397E+01  0.16275346201E+02  0.39435440016E+02  0.51100000000E-03 0. -1.
        -11    1    3    3    0    0 -0.59336778073E+00 -0.37834086334E+01  0.55402888433E+01  0.67350625044E+01  0.51100000000E-03 0.  1.
         12    1    3    3    0    0  0.62282845669E+00  0.22110067016E+01 -0.37039208232E+01  0.43583821982E+01  0.00000000000E+00 0. -1.
</event>
<event>
 7    1  0.5714431E-011  0.5052886E+02  0.7816164E-02  0.1300439E+00
        -11   -1    0    0    0    0  0.00000000000E+00  0.00000000000E+00  0.45593999997E+02  0.45594000000E+02  0.51100000000E-03 0. -1.
         11   -1    0    0    0    0 -0.00000000000E+00 -0.00000000000E+00 -0.45593999997E+02  0.45594000000E+02  0.51100000000E-03 0.  1.
    9900012    2    1    2    0    0 -0.23432677021E+02  0.28284657820E+02  0.17437125791E+02  0.50528861098E+02  0.30000003794E+02 0.  0.
        -12    1    1    2    0    0  0.23432677021E+02 -0.28284657820E+02 -0.17437125791E+02  0.40659138902E+02  0.00000000000E+00 0.  1.
         11    1    3    3    0    0  0.22775901893E+01  0.49223927830E+01  0.12302890411E+02  0.13445388820E+02  0.51100000000E-03 0. -1.
        -11    1    3    3    0    0 -0.69557832278E+01  0.63811995665E+01 -0.39077309697E+01  0.10216309990E+02  0.51100000000E-03 0.  1.
         12    1    3    3    0    0 -0.18754483982E+02  0.16981065471E+02  0.90419663498E+01  0.26867162288E+02  0.00000000000E+00 0. -1.
</event>
<event>
 7    1  0.5714431E-011  0.5052887E+02  0.7816164E-02  0.1300439E+00
        -11   -1    0    0    0    0  0.00000000000E+00  0.00000000000E+00  0.45593999997E+02  0.45594000000E+02  0.51100000000E-03 0. -1.
         11   -1    0    0    0    0 -0.00000000000E+00 -0.00000000000E+00 -0.45593999997E+02  0.45594000000E+02  0.51100000000E-03 0.  1.
    9900012    2    1    2    0    0 -0.22742609944E+02 -0.22245434403E+02 -0.25319546934E+02  0.50528866760E+02  0.30000021005E+02 0.  0.
        -12    1    1    2    0    0  0.22742609944E+02  0.22245434403E+02  0.25319546934E+02  0.40659133240E+02  0.00000000000E+00 0.  1.
         11    1    3    3    0    0 -0.29508046368E+01 -0.19349461838E+02 -0.14404047448E+02  0.24301965035E+02  0.51100000000E-03 0. -1.
        -11    1    3    3    0    0 -0.17424150208E+02  0.47834336794E+00 -0.12867767513E+02  0.21665854792E+02  0.51100000000E-03 0.  1.
        -12    1    3    3    0    0 -0.23676550997E+01 -0.33743159331E+01  0.19522680260E+01  0.45610469338E+01  0.00000000000E+00 0.  1.
</event>
<event>
 7    1  0.5714431E-011  0.5052883E+02  0.7816164E-02  0.1300439E+00
        -11   -1    0    0    0    0  0.00000000000E+00  0.00000000000E+00  0.45593999997E+02  0.45594000000E+02  0.51100000000E-03 0.  1.
         11   -1    0    0    0    0 -0.00000000000E+00 -0.00000000000E+00 -0.45593999997E+02  0.45594000000E+02  0.51100000000E-03 0. -1.
    9900012    2    1    2    0    0 -0.50650720422E+01 -0.39607510320E+02 -0.76653696487E+01  0.50528834731E+02  0.29999923648E+02 0.  0.
        -12    1    1    2    0    0  0.50650720422E+01  0.39607510320E+02  0.76653696487E+01  0.40659165269E+02  0.00000000000E+00 0.  1.
         11    1    3    3    0    0  0.31306177012E+01 -0.13768800758E+02  0.31477836719E+01  0.14466830469E+02  0.51100000000E-03 0. -1.
        -11    1    3    3    0    0  0.10735518538E+01 -0.21892823039E+02 -0.13361442393E+02  0.25670534807E+02  0.51100000000E-03 0.  1.
        -12    1    3    3    0    0 -0.92692415972E+01 -0.39458865228E+01  0.25482890728E+01  0.10391469455E+02  0.00000000000E+00 0.  1.
</event>
<event>
 7    1  0.5714431E-011  0.5052889E+02  0.7816164E-02  0.1300439E+00
        -11   -1    0    0    0    0  0.00000000000E+00  0.00000000000E+00  0.45593999997E+02  0.45594000000E+02  0.51100000000E-03 0.  1.
         11   -1    0    0    0    0 -0.00000000000E+00 -0.00000000000E+00 -0.45593999997E+02  0.45594000000E+02  0.51100000000E-03 0. -1.
    9900012    2    1    2    0    0 -0.11109810547E+02  0.38756185616E+02 -0.52624863542E+01  0.50528885689E+02  0.30000078540E+02 0.  0.
        -12    1    1    2    0    0  0.11109810547E+02 -0.38756185616E+02  0.52624863542E+01  0.40659114311E+02  0.00000000000E+00 0.  1.
         11    1    3    3    0    0  0.30378879844E+00  0.17119557703E+02  0.12354257077E+01  0.17166764998E+02  0.51100000000E-03 0. -1.
        -11    1    3    3    0    0 -0.89000321674E+01  0.21023148872E+02 -0.13065107876E+02  0.26303619621E+02  0.51100000000E-03 0.  1.
        -12    1    3    3    0    0 -0.25135671779E+01  0.61347904178E+00  0.65671958143E+01  0.70585010700E+01  0.00000000000E+00 0.  1.
</event>
<event>
 7    1  0.5714431E-011  0.5052884E+02  0.7816164E-02  0.1300439E+00
        -11   -1    0    0    0    0  0.00000000000E+00  0.00000000000E+00  0.45593999997E+02  0.45594000000E+02  0.51100000000E-03 0.  1.
         11   -1    0    0    0    0 -0.00000000000E+00 -0.00000000000E+00 -0.45593999997E+02  0.45594000000E+02  0.51100000000E-03 0. -1.
    9900012    2    1    2    0    0 -0.35407320521E+02  0.14880444630E+02 -0.13343974085E+02  0.50528835925E+02  0.29999927279E+02 0.  0.
        -12    1    1    2    0    0  0.35407320521E+02 -0.14880444630E+02  0.13343974085E+02  0.40659164075E+02  0.00000000000E+00 0.  1.
         11    1    3    3    0    0 -0.17920342364E+02  0.18887555493E+02 -0.38775909123E+01  0.26323262232E+02  0.51100000000E-03 0. -1.
        -11    1    3    3    0    0 -0.11705481155E+02 -0.67362029275E+01 -0.92566523622E+00  0.13537044557E+02  0.51100000000E-03 0.  1.
        -12    1    3    3    0    0 -0.57814970026E+01  0.27290920636E+01 -0.85407179362E+01  0.10668529137E+02  0.00000000000E+00 0.  1.
</event>
<event>
 7    1  0.5714431E-011  0.5052886E+02  0.7816164E-02  0.1300439E+00
        -11   -1    0    0    0    0  0.00000000000E+00  0.00000000000E+00  0.45593999997E+02  0.45594000000E+02  0.51100000000E-03 0.  1.
         11   -1    0    0    0    0 -0.00000000000E+00 -0.00000000000E+00 -0.45593999997E+02  0.45594000000E+02  0.51100000000E-03 0. -1.
    9900012    2    1    2    0    0 -0.33338519019E+02  0.11403525705E+02 -0.20289605173E+02  0.50528864163E+02  0.30000013111E+02 0.  0.
        -12    1    1    2    0    0  0.33338519019E+02 -0.11403525705E+02  0.20289605173E+02  0.40659135837E+02  0.00000000000E+00 0.  1.
         11    1    3    3    0    0 -0.35545814789E+02  0.34221733187E+01 -0.21570610963E+02  0.41719389699E+02  0.51100000000E-03 0. -1.
        -11    1    3    3    0    0  0.23485650713E+00  0.55550019957E+01  0.11631275659E+01  0.56803231199E+01  0.51100000000E-03 0.  1.
         12    1    3    3    0    0  0.19724392628E+01  0.24263503905E+01  0.11787822409E+00  0.31291513448E+01  0.00000000000E+00 0. -1.
</event>
<event>
 7    1  0.5714431E-011  0.5052888E+02  0.7816164E-02  0.1300439E+00
        -11   -1    0    0    0    0  0.00000000000E+00  0.00000000000E+00  0.45593999997E+02  0.45594000000E+02  0.51100000000E-03 0. -1.
         11   -1    0    0    0    0 -0.00000000000E+00 -0.00000000000E+00 -0.45593999997E+02  0.45594000000E+02  0.51100000000E-03 0.  1.
    9900012    2    1    2    0    0  0.39125587723E+01 -0.16893487123E+02  0.36775894361E+02  0.50528875202E+02  0.30000046664E+02 0.  0.
        -12    1    1    2    0    0 -0.39125587723E+01  0.16893487123E+02 -0.36775894361E+02  0.40659124798E+02  0.00000000000E+00 0.  1.
         11    1    3    3    0    0  0.65914112397E+01  0.23011191643E+01  0.22541104127E+02  0.23597525868E+02  0.51100000000E-03 0. -1.
        -11    1    3    3    0    0  0.60541970865E+00 -0.14038958305E+02  0.15247548971E+02  0.20735154525E+02  0.51100000000E-03 0.  1.
         12    1    3    3    0    0 -0.32842721760E+01 -0.51556479826E+01 -0.10127587379E+01  0.61961948087E+01  0.00000000000E+00 0. -1.
</event>
<event>
 7    1  0.5714431E-011  0.5052886E+02  0.7816164E-02  0.1300439E+00
        -11   -1    0    0    0    0  0.00000000000E+00  0.00000000000E+00  0.45593999997E+02  0.45594000000E+02  0.51100000000E-03 0.  1.
         11   -1    0    0    0    0 -0.00000000000E+00 -0.00000000000E+00 -0.45593999997E+02  0.45594000000E+02  0.51100000000E-03 0. -1.
    9900012    2    1    2    0    0 -0.25714270778E+02  0.29107497741E+02  0.12028934511E+02  0.50528863119E+02  0.30000009938E+02 0.  0.
        -12    1    1    2    0    0  0.25714270778E+02 -0.29107497741E+02 -0.12028934511E+02  0.40659136881E+02  0.00000000000E+00 0.  1.
         11    1    3    3    0    0 -0.15537798095E+02  0.33023362852E+02  0.60525321176E+01  0.36994578102E+02  0.51100000000E-03 0. -1.
        -11    1    3    3    0    0 -0.40396592091E+01 -0.26658117708E+01  0.53898778836E+01  0.72440446427E+01  0.51100000000E-03 0.  1.
         12    1    3    3    0    0 -0.61368134741E+01 -0.12500533396E+01  0.58652450948E+00  0.62902403744E+01  0.00000000000E+00 0. -1.
</event>
<event>
 7    1  0.5714431E-011  0.5052887E+02  0.7816164E-02  0.1300439E+00
        -11   -1    0    0    0    0  0.00000000000E+00  0.00000000000E+00  0.45593999997E+02  0.45594000000E+02  0.51100000000E-03 0.  1.
         11   -1    0    0    0    0 -0.00000000000E+00 -0.00000000000E+00 -0.45593999997E+02  0.45594000000E+02  0.51100000000E-03 0. -1.
    9900012    2    1    2    0    0 -0.23616559953E+02  0.32645722947E+02 -0.54479353268E+01  0.50528866585E+02  0.30000020472E+02 0.  0.
        -12    1    1    2    0    0  0.23616559953E+02 -0.32645722947E+02  0.54479353268E+01  0.40659133415E+02  0.00000000000E+00 0.  1.
         11    1    3    3    0    0 -0.66223526607E+01  0.19819242890E+02 -0.83474075832E+01  0.22501936742E+02  0.51100000000E-03 0. -1.
        -11    1    3    3    0    0 -0.18791917069E+01  0.28318056750E+01  0.84232848344E+01  0.90830728564E+01  0.51100000000E-03 0.  1.
         12    1    3    3    0    0 -0.15115015586E+02  0.99946743811E+01 -0.55238125780E+01  0.18943856987E+02  0.00000000000E+00 0. -1.
</event>
<event>
 7    1  0.5714431E-011  0.5052887E+02  0.7816164E-02  0.1300439E+00
        -11   -1    0    0    0    0  0.00000000000E+00  0.00000000000E+00  0.45593999997E+02  0.45594000000E+02  0.51100000000E-03 0. -1.
         11   -1    0    0    0    0 -0.00000000000E+00 -0.00000000000E+00 -0.45593999997E+02  0.45594000000E+02  0.51100000000E-03 0.  1.
    9900012    2    1    2    0    0 -0.78047460057E+00 -0.22773675219E+02  0.33673657219E+02  0.50528872930E+02  0.30000039757E+02 0.  0.
        -12    1    1    2    0    0  0.78047460057E+00  0.22773675219E+02 -0.33673657219E+02  0.40659127070E+02  0.00000000000E+00 0.  1.
         11    1    3    3    0    0  0.16258496428E+01 -0.81000425890E+01  0.29808396967E+01  0.87829085480E+01  0.51100000000E-03 0. -1.
        -11    1    3    3    0    0 -0.12418866776E+01  0.38465862452E+01  0.19842098915E+02  0.20249627105E+02  0.51100000000E-03 0.  1.
        -12    1    3    3    0    0 -0.11644375657E+01 -0.18520218875E+02  0.10850718608E+02  0.21496337277E+02  0.00000000000E+00 0.  1.
</event>
<event>
 7    1  0.5714431E-011  0.5052887E+02  0.7816164E-02  0.1300439E+00
        -11   -1    0    0    0    0  0.00000000000E+00  0.00000000000E+00  0.45593999997E+02  0.45594000000E+02  0.51100000000E-03 0. -1.
         11   -1    0    0    0    0 -0.00000000000E+00 -0.00000000000E+00 -0.45593999997E+02  0.45594000000E+02  0.51100000000E-03 0.  1.
    9900012    2    1    2    0    0 -0.67609987022E+01 -0.39578267530E+02  0.64042834263E+01  0.50528865598E+02  0.30000017472E+02 0.  0.
        -12    1    1    2    0    0  0.67609987022E+01  0.39578267530E+02 -0.64042834263E+01  0.40659134402E+02  0.00000000000E+00 0.  1.
         11    1    3    3    0    0  0.78235536587E+01 -0.12248798949E+02  0.43167762723E+01  0.15161649818E+02  0.51100000000E-03 0. -1.
        -11    1    3    3    0    0 -0.13496964289E+02 -0.17398767843E+02  0.83797707113E+01  0.23560681758E+02  0.51100000000E-03 0.  1.
        -12    1    3    3    0    0 -0.10875880721E+01 -0.99307007375E+01 -0.62922635572E+01  0.11806534023E+02  0.00000000000E+00 0.  1.
</event>
<event>
 7    1  0.5714431E-011  0.5052884E+02  0.7816164E-02  0.1300439E+00
        -11   -1    0    0    0    0  0.00000000000E+00  0.00000000000E+00  0.45593999997E+02  0.45594000000E+02  0.51100000000E-03 0. -1.
         11   -1    0    0    0    0 -0.00000000000E+00 -0.00000000000E+00 -0.45593999997E+02  0.45594000000E+02  0.51100000000E-03 0.  1.
    9900012    2    1    2    0    0 -0.25658204967E+02  0.12707559800E+02  0.28867658442E+02  0.50528840366E+02  0.29999940776E+02 0.  0.
        -12    1    1    2    0    0  0.25658204967E+02 -0.12707559800E+02 -0.28867658442E+02  0.40659159634E+02  0.00000000000E+00 0.  1.
         11    1    3    3    0    0 -0.12193343140E+02 -0.70158497214E+00  0.29052829407E+02  0.31515658572E+02  0.51100000000E-03 0. -1.
        -11    1    3    3    0    0 -0.39112783838E+01  0.41477480902E+01 -0.26380632107E+00  0.57071452454E+01  0.51100000000E-03 0.  1.
         12    1    3    3    0    0 -0.95535834439E+01  0.92613966819E+01  0.78635355971E-01  0.13306036549E+02  0.00000000000E+00 0. -1.
</event>
<event>
 7    1  0.5714431E-011  0.5052887E+02  0.7816164E-02  0.1300439E+00
        -11   -1    0    0    0    0  0.00000000000E+00  0.00000000000E+00  0.45593999997E+02  0.45594000000E+02  0.51100000000E-03 0.  1.
         11   -1    0    0    0    0 -0.00000000000E+00 -0.00000000000E+00 -0.45593999997E+02  0.45594000000E+02  0.51100000000E-03 0. -1.
    9900012    2    1    2    0    0 -0.21215609298E+02 -0.15219366522E+00 -0.34684861180E+02  0.50528870203E+02  0.30000031468E+02 0.  0.
        -12    1    1    2    0    0  0.21215609298E+02  0.15219366522E+00  0.34684861180E+02  0.40659129797E+02  0.00000000000E+00 0.  1.
         11    1    3    3    0    0  0.58978946912E+00  0.74186248303E+00 -0.18369128707E+02  0.18393561408E+02  0.51100000000E-03 0. -1.
        -11    1    3    3    0    0 -0.13446914512E+02  0.70047649596E+00  0.29884991703E+00  0.13468462746E+02  0.51100000000E-03 0.  1.
        -12    1    3    3    0    0 -0.83584842551E+01 -0.15945326442E+01 -0.16614582390E+02  0.18666846048E+02  0.00000000000E+00 0.  1.
</event>
<event>
 7    1  0.5714431E-011  0.5052885E+02  0.7816164E-02  0.1300439E+00
        -11   -1    0    0    0    0  0.00000000000E+00  0.00000000000E+00  0.45593999997E+02  0.45594000000E+02  0.51100000000E-03 0.  1.
         11   -1    0    0    0    0 -0.00000000000E+00 -0.00000000000E+00 -0.45593999997E+02  0.45594000000E+02  0.51100000000E-03 0. -1.
    9900012    2    1    2    0    0  0.52002345256E+01  0.24590438565E+02 -0.31959881631E+02  0.50528854144E+02  0.29999982655E+02 0.  0.
        -12    1    1    2    0    0 -0.52002345256E+01 -0.24590438565E+02  0.31959881631E+02  0.40659145856E+02  0.00000000000E+00 0.  1.
         11    1    3    3    0    0 -0.56470772040E+00  0.18987113609E+02 -0.12128913915E+02  0.22537522735E+02  0.51100000000E-03 0. -1.
        -11    1    3    3    0    0  0.78926788272E+01  0.66825213286E+01 -0.22285636369E+02  0.24568273423E+02  0.51100000000E-03 0.  1.
        -12    1    3    3    0    0 -0.21277365812E+01 -0.10791963727E+01  0.24546686538E+01  0.34230579851E+01  0.00000000000E+00 0.  1.
</event>
<event>
 7    1  0.5714431E-011  0.5052885E+02  0.7816164E-02  0.1300439E+00
        -11   -1    0    0    0    0  0.00000000000E+00  0.00000000000E+00  0.45593999997E+02  0.45594000000E+02  0.51100000000E-03 0. -1.
         11   -1    0    0    0    0 -0.00000000000E+00 -0.00000000000E+00 -0.45593999997E+02  0.45594000000E+02  0.51100000000E-03 0.  1.
    9900012    2    1    2    0    0  0.30590226817E+02  0.10215330659E+02  0.24759877166E+02  0.50528850052E+02  0.29999970219E+02 0.  0.
        -12    1    1    2    0    0 -0.30590226817E+02 -0.10215330659E+02 -0.24759877166E+02  0.40659149948E+02  0.00000000000E+00 0.  1.
         11    1    3    3    0    0  0.15054406538E+02  0.18070590027E+02  0.18138432517E+02  0.29701584378E+02  0.51100000000E-03 0. -1.
        -11    1    3    3    0    0  0.35611228809E+01 -0.68256671891E+01  0.31381409363E+01  0.83137992246E+01  0.51100000000E-03 0.  1.
         12    1    3    3    0    0  0.11974697398E+02 -0.10295921789E+01  0.34833037124E+01  0.12513466450E+02  0.00000000000E+00 0. -1.
</event>
<event>
 7    1  0.5714431E-011  0.5052885E+02  0.7816164E-02  0.1300439E+00
        -11   -1    0    0    0    0  0.00000000000E+00  0.00000000000E+00  0.45593999997E+02  0.45594000000E+02  0.51100000000E-03 0. -1.
         11   -1    0    0    0    0 -0.00000000000E+00 -0.00000000000E+00 -0.45593999997E+02  0.45594000000E+02  0.51100000000E-03 0.  1.
    9900012    2    1    2    0    0  0.36811306162E+02 -0.14789144791E+02 -0.89092779740E+01  0.50528852210E+02  0.29999976778E+02 0.  0.
        -12    1    1    2    0    0 -0.36811306162E+02  0.14789144791E+02  0.89092779740E+01  0.40659147790E+02  0.00000000000E+00 0.  1.
         11    1    3    3    0    0  0.32062813140E+02 -0.19020490657E+02 -0.10193143837E+02  0.38648457056E+02  0.51100000000E-03 0. -1.
        -11    1    3    3    0    0 -0.22660809944E+01  0.30525987462E+01  0.26542676000E+01  0.46366603210E+01  0.51100000000E-03 0.  1.
         12    1    3    3    0    0  0.70145740166E+01  0.11787471202E+01 -0.13704017368E+01  0.72437348328E+01  0.00000000000E+00 0. -1.
</event>
<event>
 7    1  0.5714431E-011  0.5052886E+02  0.7816164E-02  0.1300439E+00
        -11   -1    0    0    0    0  0.00000000000E+00  0.00000000000E+00  0.45593999997E+02  0.45594000000E+02  0.51100000000E-03 0. -1.
         11   -1    0    0    0    0 -0.00000000000E+00 -0.00000000000E+00 -0.45593999997E+02  0.45594000000E+02  0.51100000000E-03 0.  1.
    9900012    2    1    2    0    0  0.23168792263E+02  0.53387369111E+01  0.32982888922E+02  0.50528855784E+02  0.29999987642E+02 0.  0.
        -12    1    1    2    0    0 -0.23168792263E+02 -0.53387369111E+01 -0.32982888922E+02  0.40659144216E+02  0.00000000000E+00 0.  1.
         11    1    3    3    0    0  0.14750891954E+02  0.12417800168E+02  0.24210619783E+02  0.30950681495E+02  0.51100000000E-03 0. -1.
        -11    1    3    3    0    0  0.63998267794E+01 -0.11201437991E+02  0.61443063195E+01  0.14289244076E+02  0.51100000000E-03 0.  1.
        -12    1    3    3    0    0  0.20180735300E+01  0.41223747338E+01  0.26279628186E+01  0.52889302127E+01  0.00000000000E+00 0.  1.
</event>
<event>
 7    1  0.5714431E-011  0.5052886E+02  0.7816164E-02  0.1300439E+00
        -11   -1    0    0    0    0  0.00000000000E+00  0.00000000000E+00  0.45593999997E+02  0.45594000000E+02  0.51100000000E-03 0. -1.
         11   -1    0    0    0    0 -0.00000000000E+00 -0.00000000000E+00 -0.45593999997E+02  0.45594000000E+02  0.51100000000E-03 0.  1.
    9900012    2    1    2    0    0  0.57875251926E+01  0.34050310225E+02  0.21453351500E+02  0.50528863698E+02  0.30000011696E+02 0.  0.
        -12    1    1    2    0    0 -0.57875251926E+01 -0.34050310225E+02 -0.21453351500E+02  0.40659136302E+02  0.00000000000E+00 0.  1.
         11    1    3    3    0    0  0.46022486117E+01 -0.24430735107E+01  0.76778455657E+01  0.92789338426E+01  0.51100000000E-03 0. -1.
        -11    1    3    3    0    0 -0.48199329647E+01  0.59967114181E+01  0.39705447736E+01  0.86578015498E+01  0.51100000000E-03 0.  1.
         12    1    3    3    0    0  0.60052095456E+01  0.30496672317E+02  0.98049611603E+01  0.32592128305E+02  0.00000000000E+00 0. -1.
</event>
<event>
 7    1  0.5714431E-011  0.5052886E+02  0.7816164E-02  0.1300439E+00
        -11   -1    0    0    0    0  0.00000000000E+00  0.00000000000E+00  0.45593999997E+02  0.45594000000E+02  0.51100000000E-03 0.  1.
         11   -1    0    0    0    0 -0.00000000000E+00 -0.00000000000E+00 -0.45593999997E+02  0.45594000000E+02  0.51100000000E-03 0. -1.
    9900012    2    1    2    0    0  0.38539814171E+02  0.99562700366E+01 -0.82897994363E+01  0.50528863708E+02  0.30000011726E+02 0.  0.
        -12    1    1    2    0    0 -0.38539814171E+02 -0.99562700366E+01  0.82897994363E+01  0.40659136292E+02  0.00000000000E+00 0.  1.
         11    1    3    3    0    0  0.14487013126E+02 -0.54899944811E+01 -0.40011990374E+01  0.16000724444E+02  0.51100000000E-03 0. -1.
        -11    1    3    3    0    0  0.14454133868E+02  0.91912737063E+01  0.69444758926E+01  0.18483161091E+02  0.51100000000E-03 0.  1.
        -12    1    3    3    0    0  0.95986671761E+01  0.62549908114E+01 -0.11233076291E+02  0.16044978173E+02  0.00000000000E+00 0.  1.
</event>
<event>
 7    1  0.5714431E-011  0.5052886E+02  0.7816164E-02  0.1300439E+00
        -11   -1    0    0    0    0  0.00000000000E+00  0.00000000000E+00  0.45593999997E+02  0.45594000000E+02  0.51100000000E-03 0. -1.
         11   -1    0    0    0    0 -0.00000000000E+00 -0.00000000000E+00 -0.45593999997E+02  0.45594000000E+02  0.51100000000E-03 0.  1.
    9900012    2    1    2    0    0 -0.14718938084E+01 -0.83187427580E+01  0.39771817017E+02  0.50528863496E+02  0.30000011082E+02 0.  0.
        -12    1    1    2    0    0  0.14718938084E+01  0.83187427580E+01 -0.39771817017E+02  0.40659136504E+02  0.00000000000E+00 0.  1.
         11    1    3    3    0    0  0.47251217670E+01 -0.33765308084E+01  0.40033134221E+02  0.40452188715E+02  0.51100000000E-03 0. -1.
        -11    1    3    3    0    0 -0.57299204925E+01 -0.52824518730E+01  0.17470963455E+01  0.79867786086E+01  0.51100000000E-03 0.  1.
         12    1    3    3    0    0 -0.46709508293E+00  0.34023992344E+00 -0.20084135501E+01  0.20898961721E+01  0.00000000000E+00 0. -1.
</event>
<event>
 7    1  0.5714431E-011  0.5052886E+02  0.7816164E-02  0.1300439E+00
        -11   -1    0    0    0    0  0.00000000000E+00  0.00000000000E+00  0.45593999997E+02  0.45594000000E+02  0.51100000000E-03 0.  1.
         11   -1    0    0    0    0 -0.00000000000E+00 -0.00000000000E+00 -0.45593999997E+02  0.45594000000E+02  0.51100000000E-03 0. -1.
    9900012    2    1    2    0    0  0.18617080909E+02  0.31102117053E+02 -0.18418161828E+02  0.50528855003E+02  0.29999985267E+02 0.  0.
        -12    1    1    2    0    0 -0.18617080909E+02 -0.31102117053E+02  0.18418161828E+02  0.40659144997E+02  0.00000000000E+00 0.  1.
         11    1    3    3    0    0 -0.33180642321E+00  0.46484265679E+01 -0.59704599599E+01  0.75739261584E+01  0.51100000000E-03 0. -1.
        -11    1    3    3    0    0  0.23737233991E+02  0.13797989045E+02 -0.67547903716E+01  0.28274864676E+02  0.51100000000E-03 0.  1.
        -12    1    3    3    0    0 -0.47883466589E+01  0.12655701440E+02 -0.56929114964E+01  0.14680064168E+02  0.00000000000E+00 0.  1.
</event>
<event>
 7    1  0.5714431E-011  0.5052886E+02  0.7816164E-02  0.1300439E+00
        -11   -1    0    0    0    0  0.00000000000E+00  0.00000000000E+00  0.45593999997E+02  0.45594000000E+02  0.51100000000E-03 0. -1.
         11   -1    0    0    0    0 -0.00000000000E+00 -0.00000000000E+00 -0.45593999997E+02  0.45594000000E+02  0.51100000000E-03 0.  1.
    9900012    2    1    2    0    0  0.31628320307E+01  0.31749438047E+02  0.25201896581E+02  0.50528856944E+02  0.29999991167E+02 0.  0.
        -12    1    1    2    0    0 -0.31628320307E+01 -0.31749438047E+02 -0.25201896581E+02  0.40659143056E+02  0.00000000000E+00 0.  1.
         11    1    3    3    0    0  0.79837312459E+01  0.11045541707E+02  0.32634315017E+01  0.14014062282E+02  0.51100000000E-03 0. -1.
        -11    1    3    3    0    0 -0.11911184034E+02  0.71979138193E+01  0.11116867634E+02  0.17812103039E+02  0.51100000000E-03 0.  1.
        -12    1    3    3    0    0  0.70902848187E+01  0.13505982520E+02  0.10821597446E+02  0.18702691623E+02  0.00000000000E+00 0.  1.
</event>
<event>
 7    1  0.5714431E-011  0.5052886E+02  0.7816164E-02  0.1300439E+00
        -11   -1    0    0    0    0  0.00000000000E+00  0.00000000000E+00  0.45593999997E+02  0.45594000000E+02  0.51100000000E-03 0.  1.
         11   -1    0    0    0    0 -0.00000000000E+00 -0.00000000000E+00 -0.45593999997E+02  0.45594000000E+02  0.51100000000E-03 0. -1.
    9900012    2    1    2    0    0  0.25211947467E+02  0.12185822581E+01 -0.31875351804E+02  0.50528864613E+02  0.30000014477E+02 0.  0.
        -12    1    1    2    0    0 -0.25211947467E+02 -0.12185822581E+01  0.31875351804E+02  0.40659135387E+02  0.00000000000E+00 0.  1.
         11    1    3    3    0    0  0.13558762102E+02 -0.11797157631E+02 -0.72884851815E+01  0.19394199505E+02  0.51100000000E-03 0. -1.
        -11    1    3    3    0    0  0.24796091915E+01  0.52504835015E+01 -0.32726447492E+01  0.66653013929E+01  0.51100000000E-03 0.  1.
         12    1    3    3    0    0  0.91735761736E+01  0.77652563877E+01 -0.21314221873E+02  0.24469363715E+02  0.00000000000E+00 0. -1.
</event>
<event>
 7    1  0.5714431E-011  0.5052886E+02  0.7816164E-02  0.1300439E+00
        -11   -1    0    0    0    0  0.00000000000E+00  0.00000000000E+00  0.45593999997E+02  0.45594000000E+02  0.51100000000E-03 0.  1.
         11   -1    0    0    0    0 -0.00000000000E+00 -0.00000000000E+00 -0.45593999997E+02  0.45594000000E+02  0.51100000000E-03 0. -1.
    9900012    2    1    2    0    0  0.49289488701E+01 -0.14458460996E+02 -0.37680548879E+02  0.50528863325E+02  0.30000010563E+02 0.  0.
        -12    1    1    2    0    0 -0.49289488701E+01  0.14458460996E+02  0.37680548879E+02  0.40659136675E+02  0.00000000000E+00 0.  1.
         11    1    3    3    0    0  0.12434751350E+02 -0.21093771017E+01 -0.25058930391E+02  0.28053921393E+02  0.51100000000E-03 0. -1.
        -11    1    3    3    0    0 -0.21634355854E+01 -0.12538014377E+02 -0.63047796064E+01  0.14199736061E+02  0.51100000000E-03 0.  1.
        -12    1    3    3    0    0 -0.53423668948E+01  0.18893048229E+00 -0.63168388813E+01  0.82752058716E+01  0.00000000000E+00 0.  1.
</event>
<event>
 7    1  0.5774130E-011  0.5052885E+02  0.7816164E-02  0.1300439E+00
        -11   -1    0    0    0    0  0.00000000000E+00  0.00000000000E+00  0.45593999997E+02  0.45594000000E+02  0.51100000000E-03 0.  1.
         11   -1    0    0    0    0 -0.00000000000E+00 -0.00000000000E+00 -0.45593999997E+02  0.45594000000E+02  0.51100000000E-03 0. -1.
    9900012    2    1    2    0    0  0.24300703368E+02  0.32116247934E+02  0.55847071207E+01  0.50528849502E+02  0.29999968547E+02 0.  0.
        -12    1    1    2    0    0 -0.24300703368E+02 -0.32116247934E+02 -0.55847071207E+01  0.40659150498E+02  0.00000000000E+00 0.  1.
         11    1    3    3    0    0  0.18541736031E+02  0.29874550058E+02  0.20419030214E+01  0.35220080699E+02  0.51100000000E-03 0. -1.
        -11    1    3    3    0    0 -0.42829305575E+01  0.21512211054E+01  0.17812719884E+01  0.51131376436E+01  0.51100000000E-03 0.  1.
         12    1    3    3    0    0  0.10041897895E+02  0.90476770675E-01  0.17615321109E+01  0.10195631160E+02  0.00000000000E+00 0. -1.
</event>
<event>
 7    1  0.5714431E-011  0.5052885E+02  0.7816164E-02  0.1300439E+00
        -11   -1    0    0    0    0  0.00000000000E+00  0.00000000000E+00  0.45593999997E+02  0.45594000000E+02  0.51100000000E-03 0.  1.
         11   -1    0    0    0    0 -0.00000000000E+00 -0.00000000000E+00 -0.45593999997E+02  0.45594000000E+02  0.51100000000E-03 0. -1.
    9900012    2    1    2    0    0 -0.24641357268E+02  0.18865191507E+02 -0.26269262298E+02  0.50528854900E+02  0.29999984954E+02 0.  0.
        -12    1    1    2    0    0  0.24641357268E+02 -0.18865191507E+02  0.26269262298E+02  0.40659145100E+02  0.00000000000E+00 0.  1.
         11    1    3    3    0    0 -0.20424767308E+02  0.81333300331E+01 -0.19647099254E+02  0.29484414296E+02  0.51100000000E-03 0. -1.
        -11    1    3    3    0    0  0.10621866793E+01  0.24376156360E+01  0.50961178554E+01  0.57480977713E+01  0.51100000000E-03 0.  1.
        -12    1    3    3    0    0 -0.52787766391E+01  0.82942458376E+01 -0.11718280899E+02  0.15296342833E+02  0.00000000000E+00 0.  1.
</event>
<event>
 7    1  0.5714431E-011  0.5052886E+02  0.7816164E-02  0.1300439E+00
        -11   -1    0    0    0    0  0.00000000000E+00  0.00000000000E+00  0.45593999997E+02  0.45594000000E+02  0.51100000000E-03 0.  1.
         11   -1    0    0    0    0 -0.00000000000E+00 -0.00000000000E+00 -0.45593999997E+02  0.45594000000E+02  0.51100000000E-03 0. -1.
    9900012    2    1    2    0    0 -0.38323758037E+02  0.90090151346E+01 -0.10163319890E+02  0.50528857670E+02  0.29999993374E+02 0.  0.
        -12    1    1    2    0    0  0.38323758037E+02 -0.90090151346E+01  0.10163319890E+02  0.40659142330E+02  0.00000000000E+00 0.  1.
         11    1    3    3    0    0 -0.11996743293E+02  0.95945622203E+01 -0.12029069161E+02  0.19510919481E+02  0.51100000000E-03 0. -1.
        -11    1    3    3    0    0 -0.24484645618E+02  0.29148733958E+01  0.59151489076E+01  0.25357116256E+02  0.51100000000E-03 0.  1.
        -12    1    3    3    0    0 -0.18423691256E+01 -0.35004204815E+01 -0.40493996365E+01  0.56608219331E+01  0.00000000000E+00 0.  1.
</event>
<event>
 7    1  0.5714431E-011  0.5052886E+02  0.7816164E-02  0.1300439E+00
        -11   -1    0    0    0    0  0.00000000000E+00  0.00000000000E+00  0.45593999997E+02  0.45594000000E+02  0.51100000000E-03 0.  1.
         11   -1    0    0    0    0 -0.00000000000E+00 -0.00000000000E+00 -0.45593999997E+02  0.45594000000E+02  0.51100000000E-03 0. -1.
    9900012    2    1    2    0    0  0.13230219387E+02 -0.25433606312E+02 -0.28831557770E+02  0.50528858857E+02  0.29999996981E+02 0.  0.
        -12    1    1    2    0    0 -0.13230219387E+02  0.25433606312E+02  0.28831557770E+02  0.40659141143E+02  0.00000000000E+00 0.  1.
         11    1    3    3    0    0  0.15673803182E+02 -0.67895715568E+01 -0.23588899011E+02  0.29123917060E+02  0.51100000000E-03 0. -1.
        -11    1    3    3    0    0 -0.36888104644E+01 -0.63216326276E+01  0.12436495526E+01  0.74240841988E+01  0.51100000000E-03 0.  1.
         12    1    3    3    0    0  0.12452266692E+01 -0.12322402128E+02 -0.64863083120E+01  0.13980857598E+02  0.00000000000E+00 0. -1.
</event>
<event>
 7    1  0.5714431E-011  0.5052886E+02  0.7816164E-02  0.1300439E+00
        -11   -1    0    0    0    0  0.00000000000E+00  0.00000000000E+00  0.45593999997E+02  0.45594000000E+02  0.51100000000E-03 0.  1.
         11   -1    0    0    0    0 -0.00000000000E+00 -0.00000000000E+00 -0.45593999997E+02  0.45594000000E+02  0.51100000000E-03 0. -1.
    9900012    2    1    2    0    0  0.29912775626E+02  0.23507600966E+02  0.14345186481E+02  0.50528858051E+02  0.29999994531E+02 0.  0.
        -12    1    1    2    0    0 -0.29912775626E+02 -0.23507600966E+02 -0.14345186481E+02  0.40659141949E+02  0.00000000000E+00 0.  1.
         11    1    3    3    0    0  0.25138366772E+02  0.20036661318E+02  0.15340910167E+02  0.35619500358E+02  0.51100000000E-03 0. -1.
        -11    1    3    3    0    0  0.43762048561E+01 -0.19404534268E+01  0.49319940152E+01  0.68732156718E+01  0.51100000000E-03 0.  1.
         12    1    3    3    0    0  0.39820399786E+00  0.54113930748E+01 -0.59277177009E+01  0.80361420206E+01  0.00000000000E+00 0. -1.
</event>
<event>
 7    1  0.5714431E-011  0.5052886E+02  0.7816164E-02  0.1300439E+00
        -11   -1    0    0    0    0  0.00000000000E+00  0.00000000000E+00  0.45593999997E+02  0.45594000000E+02  0.51100000000E-03 0. -1.
         11   -1    0    0    0    0 -0.00000000000E+00 -0.00000000000E+00 -0.45593999997E+02  0.45594000000E+02  0.51100000000E-03 0.  1.
    9900012    2    1    2    0    0  0.38150307044E+01 -0.33135495080E+02 -0.23251888286E+02  0.50528858317E+02  0.29999995341E+02 0.  0.
        -12    1    1    2    0    0 -0.38150307044E+01  0.33135495080E+02  0.23251888286E+02  0.40659141683E+02  0.00000000000E+00 0.  1.
         11    1    3    3    0    0  0.10905061654E+02 -0.29532731515E+02 -0.89936001633E+01  0.32741219351E+02  0.51100000000E-03 0. -1.
        -11    1    3    3    0    0 -0.36644211311E+01  0.67711349428E+00 -0.17218878051E+01  0.41050411429E+01  0.51100000000E-03 0.  1.
         12    1    3    3    0    0 -0.34256098189E+01 -0.42798770597E+01 -0.12536400318E+02  0.13682597824E+02  0.00000000000E+00 0. -1.
</event>
<event>
 7    1  0.5714431E-011  0.5052886E+02  0.7816164E-02  0.1300439E+00
        -11   -1    0    0    0    0  0.00000000000E+00  0.00000000000E+00  0.45593999997E+02  0.45594000000E+02  0.51100000000E-03 0. -1.
         11   -1    0    0    0    0 -0.00000000000E+00 -0.00000000000E+00 -0.45593999997E+02  0.45594000000E+02  0.51100000000E-03 0.  1.
    9900012    2    1    2    0    0  0.20187940576E+02 -0.29489464959E+02  0.19390314518E+02  0.50528858526E+02  0.29999995977E+02 0.  0.
        -12    1    1    2    0    0 -0.20187940576E+02  0.29489464959E+02 -0.19390314518E+02  0.40659141474E+02  0.00000000000E+00 0.  1.
         11    1    3    3    0    0  0.15253321934E+02 -0.28161711149E+02  0.20806168064E+02  0.38192177662E+02  0.51100000000E-03 0. -1.
        -11    1    3    3    0    0 -0.28146980904E+01  0.15394488244E+01  0.15432474770E+01  0.35600619460E+01  0.51100000000E-03 0.  1.
         12    1    3    3    0    0  0.77493167325E+01 -0.28672026348E+01 -0.29591010229E+01  0.87766189181E+01  0.00000000000E+00 0. -1.
</event>
<event>
 7    1  0.5714431E-011  0.5052887E+02  0.7816164E-02  0.1300439E+00
        -11   -1    0    0    0    0  0.00000000000E+00  0.00000000000E+00  0.45593999997E+02  0.45594000000E+02  0.51100000000E-03 0.  1.
         11   -1    0    0    0    0 -0.00000000000E+00 -0.00000000000E+00 -0.45593999997E+02  0.45594000000E+02  0.51100000000E-03 0. -1.
    9900012    2    1    2    0    0  0.63095288479E+01 -0.39626621553E+02 -0.65639468075E+01  0.50528872025E+02  0.30000037007E+02 0.  0.
        -12    1    1    2    0    0 -0.63095288479E+01  0.39626621553E+02  0.65639468075E+01  0.40659127975E+02  0.00000000000E+00 0.  1.
         11    1    3    3    0    0  0.67248350995E+00 -0.94778544376E+01 -0.82099427081E+01  0.12557273523E+02  0.51100000000E-03 0. -1.
        -11    1    3    3    0    0  0.90375745859E+00 -0.28633311884E+02  0.81516472384E+01  0.29784772618E+02  0.51100000000E-03 0.  1.
        -12    1    3    3    0    0  0.47332878794E+01 -0.15154552319E+01 -0.65056513378E+01  0.81868258830E+01  0.00000000000E+00 0.  1.
</event>
<event>
 7    1  0.5714431E-011  0.5052886E+02  0.7816164E-02  0.1300439E+00
        -11   -1    0    0    0    0  0.00000000000E+00  0.00000000000E+00  0.45593999997E+02  0.45594000000E+02  0.51100000000E-03 0.  1.
         11   -1    0    0    0    0 -0.00000000000E+00 -0.00000000000E+00 -0.45593999997E+02  0.45594000000E+02  0.51100000000E-03 0. -1.
    9900012    2    1    2    0    0  0.22136468159E+01  0.94170178860E+01 -0.39491587477E+02  0.50528856631E+02  0.29999990215E+02 0.  0.
        -12    1    1    2    0    0 -0.22136468159E+01 -0.94170178860E+01  0.39491587477E+02  0.40659143369E+02  0.00000000000E+00 0.  1.
         11    1    3    3    0    0 -0.41608084726E+01  0.15455063194E+02 -0.17598410726E+02  0.23788134980E+02  0.51100000000E-03 0. -1.
        -11    1    3    3    0    0 -0.72803111618E+00 -0.57743906789E+01 -0.17362670064E+02  0.18312179800E+02  0.51100000000E-03 0.  1.
        -12    1    3    3    0    0  0.71024864046E+01 -0.26365462909E+00 -0.45305066863E+01  0.84285418505E+01  0.00000000000E+00 0.  1.
</event>
<event>
 7    1  0.5714431E-011  0.5052885E+02  0.7816164E-02  0.1300439E+00
        -11   -1    0    0    0    0  0.00000000000E+00  0.00000000000E+00  0.45593999997E+02  0.45594000000E+02  0.51100000000E-03 0. -1.
         11   -1    0    0    0    0 -0.00000000000E+00 -0.00000000000E+00 -0.45593999997E+02  0.45594000000E+02  0.51100000000E-03 0.  1.
    9900012    2    1    2    0    0 -0.28532062862E+02 -0.89051580662E+01  0.27564210346E+02  0.50528854124E+02  0.29999982596E+02 0.  0.
        -12    1    1    2    0    0  0.28532062862E+02  0.89051580662E+01 -0.27564210346E+02  0.40659145876E+02  0.00000000000E+00 0.  1.
         11    1    3    3    0    0  0.25356787756E+01  0.47385901833E+01  0.65332358880E+01  0.84597325731E+01  0.51100000000E-03 0.  1.
        -11    1    3    3    0    0 -0.21286043777E+02 -0.49273242319E+01  0.71682939489E+01  0.22994752057E+02  0.51100000000E-03 0. -1.
         12    1    3    3    0    0 -0.97816978603E+01 -0.87164240175E+01  0.13862680509E+02  0.19074369494E+02  0.00000000000E+00 0. -1.
</event>
<event>
 7    1  0.5714431E-011  0.5052886E+02  0.7816164E-02  0.1300439E+00
        -11   -1    0    0    0    0  0.00000000000E+00  0.00000000000E+00  0.45593999997E+02  0.45594000000E+02  0.51100000000E-03 0.  1.
         11   -1    0    0    0    0 -0.00000000000E+00 -0.00000000000E+00 -0.45593999997E+02  0.45594000000E+02  0.51100000000E-03 0. -1.
    9900012    2    1    2    0    0 -0.32023878985E+02  0.87446708577E+01 -0.23476959501E+02  0.50528859317E+02  0.29999998380E+02 0.  0.
        -12    1    1    2    0    0  0.32023878985E+02 -0.87446708577E+01  0.23476959501E+02  0.40659140683E+02  0.00000000000E+00 0.  1.
         11    1    3    3    0    0 -0.93761640315E+01  0.66611364030E+01 -0.10855536143E+02  0.15815367695E+02  0.51100000000E-03 0. -1.
        -11    1    3    3    0    0 -0.20427338235E+02 -0.79027739457E+01 -0.67554599510E+01  0.22920868719E+02  0.51100000000E-03 0.  1.
        -12    1    3    3    0    0 -0.22203767185E+01  0.99863084004E+01 -0.58659634071E+01  0.11792622903E+02  0.00000000000E+00 0.  1.
</event>
<event>
 7    1  0.6253439E-011  0.5052886E+02  0.7816164E-02  0.1300439E+00
        -11   -1    0    0    0    0  0.00000000000E+00  0.00000000000E+00  0.45593999997E+02  0.45594000000E+02  0.51100000000E-03 0. -1.
         11   -1    0    0    0    0 -0.00000000000E+00 -0.00000000000E+00 -0.45593999997E+02  0.45594000000E+02  0.51100000000E-03 0.  1.
    9900012    2    1    2    0    0 -0.13000328564E+02 -0.19891934801E+02  0.32991934979E+02  0.50528863431E+02  0.30000010884E+02 0.  0.
        -12    1    1    2    0    0  0.13000328564E+02  0.19891934801E+02 -0.32991934979E+02  0.40659136569E+02  0.00000000000E+00 0.  1.
         11    1    3    3    0    0  0.62925905399E+01 -0.10743225775E+02  0.42092179577E+01  0.13142720868E+02  0.51100000000E-03 0. -1.
        -11    1    3    3    0    0 -0.46920852802E+01 -0.28368203935E-01  0.11524518988E+01  0.48316265038E+01  0.51100000000E-03 0.  1.
         12    1    3    3    0    0 -0.14600833824E+02 -0.91203408229E+01  0.27630265122E+02  0.32554516059E+02  0.00000000000E+00 0. -1.
</event>
<event>
 7    1  0.5714431E-011  0.5052885E+02  0.7816164E-02  0.1300439E+00
        -11   -1    0    0    0    0  0.00000000000E+00  0.00000000000E+00  0.45593999997E+02  0.45594000000E+02  0.51100000000E-03 0.  1.
         11   -1    0    0    0    0 -0.00000000000E+00 -0.00000000000E+00 -0.45593999997E+02  0.45594000000E+02  0.51100000000E-03 0. -1.
    9900012    2    1    2    0    0  0.27038801982E+02 -0.22249184975E+02  0.20665024866E+02  0.50528852230E+02  0.29999976837E+02 0.  0.
        -12    1    1    2    0    0 -0.27038801982E+02  0.22249184975E+02 -0.20665024866E+02  0.40659147770E+02  0.00000000000E+00 0.  1.
         11    1    3    3    0    0  0.33491031287E+01 -0.24048139991E+01  0.63956041970E+00  0.41723686233E+01  0.51100000000E-03 0. -1.
        -11    1    3    3    0    0  0.20408278257E+02  0.12605770789E+01  0.95541266204E+01  0.22569187219E+02  0.51100000000E-03 0.  1.
        -12    1    3    3    0    0  0.32814205963E+01 -0.21104948055E+02  0.10471337826E+02  0.23787296387E+02  0.00000000000E+00 0.  1.
</event>
<event>
 7    1  0.5714431E-011  0.5052886E+02  0.7816164E-02  0.1300439E+00
        -11   -1    0    0    0    0  0.00000000000E+00  0.00000000000E+00  0.45593999997E+02  0.45594000000E+02  0.51100000000E-03 0.  1.
         11   -1    0    0    0    0 -0.00000000000E+00 -0.00000000000E+00 -0.45593999997E+02  0.45594000000E+02  0.51100000000E-03 0. -1.
    9900012    2    1    2    0    0  0.76715455367E+01  0.36627411120E+02  0.15897989374E+02  0.50528856841E+02  0.29999990854E+02 0.  0.
        -12    1    1    2    0    0 -0.76715455367E+01 -0.36627411120E+02 -0.15897989374E+02  0.40659143159E+02  0.00000000000E+00 0.  1.
         11    1    3    3    0    0  0.10571784459E+01  0.26567166559E+02  0.34985512106E+01  0.26817379179E+02  0.51100000000E-03 0. -1.
        -11    1    3    3    0    0  0.10678831617E+02  0.11495217194E+02  0.11065134384E+02  0.19199340151E+02  0.51100000000E-03 0.  1.
         12    1    3    3    0    0 -0.40644645260E+01 -0.14349726321E+01  0.13343037788E+01  0.45121375104E+01  0.00000000000E+00 0. -1.
</event>
<event>
 7    1  0.5714431E-011  0.5052886E+02  0.7816164E-02  0.1300439E+00
        -11   -1    0    0    0    0  0.00000000000E+00  0.00000000000E+00  0.45593999997E+02  0.45594000000E+02  0.51100000000E-03 0.  1.
         11   -1    0    0    0    0 -0.00000000000E+00 -0.00000000000E+00 -0.45593999997E+02  0.45594000000E+02  0.51100000000E-03 0. -1.
    9900012    2    1    2    0    0  0.46598978216E+01 -0.36357892732E+01 -0.40227254946E+02  0.50528860168E+02  0.30000000968E+02 0.  0.
        -12    1    1    2    0    0 -0.46598978216E+01  0.36357892732E+01  0.40227254946E+02  0.40659139832E+02  0.00000000000E+00 0.  1.
         11    1    3    3    0    0  0.10893457094E+02 -0.54110310493E+01 -0.11116621470E+02  0.16478044109E+02  0.51100000000E-03 0. -1.
        -11    1    3    3    0    0 -0.10599525619E+02 -0.15703971069E+01 -0.12048443952E+02  0.16123929184E+02  0.51100000000E-03 0.  1.
         12    1    3    3    0    0  0.43659663466E+01  0.33456388830E+01 -0.17062189524E+02  0.17926886875E+02  0.00000000000E+00 0. -1.
</event>
<event>
 7    1  0.5714431E-011  0.5052887E+02  0.7816164E-02  0.1300439E+00
        -11   -1    0    0    0    0  0.00000000000E+00  0.00000000000E+00  0.45593999997E+02  0.45594000000E+02  0.51100000000E-03 0. -1.
         11   -1    0    0    0    0 -0.00000000000E+00 -0.00000000000E+00 -0.45593999997E+02  0.45594000000E+02  0.51100000000E-03 0.  1.
    9900012    2    1    2    0    0  0.71027145184E+01  0.37139762326E+02  0.14945049193E+02  0.50528868251E+02  0.30000025536E+02 0.  0.
        -12    1    1    2    0    0 -0.71027145184E+01 -0.37139762326E+02 -0.14945049193E+02  0.40659131749E+02  0.00000000000E+00 0.  1.
         11    1    3    3    0    0 -0.51115403524E+01  0.95835379041E+01  0.34129587416E+00  0.10866854497E+02  0.51100000000E-03 0. -1.
        -11    1    3    3    0    0  0.91914522292E+00  0.17100560724E+01  0.11065486073E+02  0.11234504974E+02  0.51100000000E-03 0.  1.
        -12    1    3    3    0    0  0.11295109648E+02  0.25846168350E+02  0.35382672465E+01  0.28427508780E+02  0.00000000000E+00 0.  1.
</event>
<event>
 7    1  0.5714431E-011  0.5052885E+02  0.7816164E-02  0.1300439E+00
        -11   -1    0    0    0    0  0.00000000000E+00  0.00000000000E+00  0.45593999997E+02  0.45594000000E+02  0.51100000000E-03 0. -1.
         11   -1    0    0    0    0 -0.00000000000E+00 -0.00000000000E+00 -0.45593999997E+02  0.45594000000E+02  0.51100000000E-03 0.  1.
    9900012    2    1    2    0    0  0.34775697186E+02  0.16291314280E+02  0.13357027450E+02  0.50528853206E+02  0.29999979806E+02 0.  0.
        -12    1    1    2    0    0 -0.34775697186E+02 -0.16291314280E+02 -0.13357027450E+02  0.40659146794E+02  0.00000000000E+00 0.  1.
         11    1    3    3    0    0  0.26255136474E+02  0.14546219791E+02  0.35240445320E+01  0.30221574936E+02  0.51100000000E-03 0. -1.
        -11    1    3    3    0    0  0.46786489037E+01 -0.23804145121E+01  0.12873202358E+02  0.13902354766E+02  0.51100000000E-03 0.  1.
        -12    1    3    3    0    0  0.38419118075E+01  0.41255090006E+01 -0.30402194405E+01  0.64049235044E+01  0.00000000000E+00 0.  1.
</event>
<event>
 7    1  0.5714431E-011  0.5052886E+02  0.7816164E-02  0.1300439E+00
        -11   -1    0    0    0    0  0.00000000000E+00  0.00000000000E+00  0.45593999997E+02  0.45594000000E+02  0.51100000000E-03 0.  1.
         11   -1    0    0    0    0 -0.00000000000E+00 -0.00000000000E+00 -0.45593999997E+02  0.45594000000E+02  0.51100000000E-03 0. -1.
    9900012    2    1    2    0    0  0.37997155743E+02  0.12015705106E+02  0.80625304382E+01  0.50528863133E+02  0.30000009978E+02 0.  0.
        -12    1    1    2    0    0 -0.37997155743E+02 -0.12015705106E+02 -0.80625304382E+01  0.40659136867E+02  0.00000000000E+00 0.  1.
         11    1    3    3    0    0  0.37035173028E+02  0.13620833398E+02  0.17360436171E+01  0.39498670754E+02  0.51100000000E-03 0. -1.
        -11    1    3    3    0    0 -0.66997724939E+00 -0.39805990851E+01 -0.45387711807E-01  0.40368426891E+01  0.51100000000E-03 0.  1.
        -12    1    3    3    0    0  0.16319599644E+01  0.23754707932E+01  0.63718745329E+01  0.69933496893E+01  0.00000000000E+00 0.  1.
</event>
<event>
 7    1  0.5714431E-011  0.5052886E+02  0.7816164E-02  0.1300439E+00
        -11   -1    0    0    0    0  0.00000000000E+00  0.00000000000E+00  0.45593999997E+02  0.45594000000E+02  0.51100000000E-03 0.  1.
         11   -1    0    0    0    0 -0.00000000000E+00 -0.00000000000E+00 -0.45593999997E+02  0.45594000000E+02  0.51100000000E-03 0. -1.
    9900012    2    1    2    0    0  0.54221592359E+01  0.17160601053E+02 -0.36459286142E+02  0.50528860987E+02  0.30000003457E+02 0.  0.
        -12    1    1    2    0    0 -0.54221592359E+01 -0.17160601053E+02  0.36459286142E+02  0.40659139013E+02  0.00000000000E+00 0.  1.
         11    1    3    3    0    0  0.44135234249E+01 -0.48718093882E+01 -0.20191648566E+02  0.21234791918E+02  0.51100000000E-03 0. -1.
        -11    1    3    3    0    0  0.22219005254E+01  0.11181342745E+02 -0.24103218364E+01  0.11651992067E+02  0.51100000000E-03 0.  1.
         12    1    3    3    0    0 -0.12132647143E+01  0.10851067697E+02 -0.13857315740E+02  0.17642077002E+02  0.00000000000E+00 0. -1.
</event>
<event>
 7    1  0.5714431E-011  0.5052886E+02  0.7816164E-02  0.1300439E+00
        -11   -1    0    0    0    0  0.00000000000E+00  0.00000000000E+00  0.45593999997E+02  0.45594000000E+02  0.51100000000E-03 0.  1.
         11   -1    0    0    0    0 -0.00000000000E+00 -0.00000000000E+00 -0.45593999997E+02  0.45594000000E+02  0.51100000000E-03 0. -1.
    9900012    2    1    2    0    0  0.36667251653E+01  0.27268205649E+02 -0.29936028890E+02  0.50528859104E+02  0.29999997731E+02 0.  0.
        -12    1    1    2    0    0 -0.36667251653E+01 -0.27268205649E+02  0.29936028890E+02  0.40659140896E+02  0.00000000000E+00 0.  1.
         11    1    3    3    0    0  0.11629662561E+02  0.10199878420E+02 -0.15073372799E+02  0.21598452233E+02  0.51100000000E-03 0. -1.
        -11    1    3    3    0    0 -0.41181766532E+01 -0.72655557191E+00  0.15095912025E+01  0.44459113583E+01  0.51100000000E-03 0.  1.
        -12    1    3    3    0    0 -0.38447607424E+01  0.17794882801E+02 -0.16372247293E+02  0.24484495512E+02  0.00000000000E+00 0.  1.
</event>
<event>
 7    1  0.5714431E-011  0.5052887E+02  0.7816164E-02  0.1300439E+00
        -11   -1    0    0    0    0  0.00000000000E+00  0.00000000000E+00  0.45593999997E+02  0.45594000000E+02  0.51100000000E-03 0. -1.
         11   -1    0    0    0    0 -0.00000000000E+00 -0.00000000000E+00 -0.45593999997E+02  0.45594000000E+02  0.51100000000E-03 0.  1.
    9900012    2    1    2    0    0 -0.26350091337E+01 -0.24283094165E+02  0.32504664404E+02  0.50528866421E+02  0.30000019974E+02 0.  0.
        -12    1    1    2    0    0  0.26350091337E+01  0.24283094165E+02 -0.32504664404E+02  0.40659133579E+02  0.00000000000E+00 0.  1.
         11    1    3    3    0    0  0.16760110681E+01 -0.35234578040E+00  0.99993975607E+01  0.10145004312E+02  0.51100000000E-03 0. -1.
        -11    1    3    3    0    0 -0.80359995536E+01 -0.87893190746E+01 -0.12431305986E+01  0.11973921353E+02  0.51100000000E-03 0.  1.
        -12    1    3    3    0    0  0.37249793518E+01 -0.15141429310E+02  0.23748397442E+02  0.28409940756E+02  0.00000000000E+00 0.  1.
</event>
<event>
 7    1  0.5714431E-011  0.5052889E+02  0.7816164E-02  0.1300439E+00
        -11   -1    0    0    0    0  0.00000000000E+00  0.00000000000E+00  0.45593999997E+02  0.45594000000E+02  0.51100000000E-03 0. -1.
         11   -1    0    0    0    0 -0.00000000000E+00 -0.00000000000E+00 -0.45593999997E+02  0.45594000000E+02  0.51100000000E-03 0.  1.
    9900012    2    1    2    0    0  0.11786237747E+02 -0.37247803973E+02 -0.11262716299E+02  0.50528891802E+02  0.30000097120E+02 0.  0.
        -12    1    1    2    0    0 -0.11786237747E+02  0.37247803973E+02  0.11262716299E+02  0.40659108198E+02  0.00000000000E+00 0.  1.
         11    1    3    3    0    0  0.88774216081E+01 -0.32271287437E+02 -0.50543240305E+01  0.33849531739E+02  0.51100000000E-03 0. -1.
        -11    1    3    3    0    0  0.24132398478E+01 -0.19731490513E+01 -0.10760698978E+02  0.11203110572E+02  0.51100000000E-03 0.  1.
         12    1    3    3    0    0  0.49557629065E+00 -0.30033674845E+01  0.45523067095E+01  0.54762494906E+01  0.00000000000E+00 0. -1.
</event>
<event>
 7    1  0.5714431E-011  0.5052886E+02  0.7816164E-02  0.1300439E+00
        -11   -1    0    0    0    0  0.00000000000E+00  0.00000000000E+00  0.45593999997E+02  0.45594000000E+02  0.51100000000E-03 0.  1.
         11   -1    0    0    0    0 -0.00000000000E+00 -0.00000000000E+00 -0.45593999997E+02  0.45594000000E+02  0.51100000000E-03 0. -1.
    9900012    2    1    2    0    0 -0.17560344303E+02  0.16038187929E+02 -0.32978430727E+02  0.50528855183E+02  0.29999985813E+02 0.  0.
        -12    1    1    2    0    0  0.17560344303E+02 -0.16038187929E+02  0.32978430727E+02  0.40659144817E+02  0.00000000000E+00 0.  1.
         11    1    3    3    0    0 -0.52011526564E+01  0.11594817321E+02 -0.13582514911E+02  0.18600443253E+02  0.51100000000E-03 0. -1.
        -11    1    3    3    0    0 -0.12062830536E+02 -0.48745916354E+01 -0.34548324090E+01  0.13461403767E+02  0.51100000000E-03 0.  1.
        -12    1    3    3    0    0 -0.29636111140E+00  0.93179622435E+01 -0.15941083407E+02  0.18467008162E+02  0.00000000000E+00 0.  1.
</event>
<event>
 7    1  0.5714431E-011  0.5052886E+02  0.7816164E-02  0.1300439E+00
        -11   -1    0    0    0    0  0.00000000000E+00  0.00000000000E+00  0.45593999997E+02  0.45594000000E+02  0.51100000000E-03 0. -1.
         11   -1    0    0    0    0 -0.00000000000E+00 -0.00000000000E+00 -0.45593999997E+02  0.45594000000E+02  0.51100000000E-03 0.  1.
    9900012    2    1    2    0    0  0.98742882397E+00  0.40586665496E+02 -0.22166258335E+01  0.50528857586E+02  0.29999993119E+02 0.  0.
        -12    1    1    2    0    0 -0.98742882397E+00 -0.40586665496E+02  0.22166258335E+01  0.40659142414E+02  0.00000000000E+00 0.  1.
         11    1    3    3    0    0 -0.81241694032E+01  0.10086440724E+02  0.30052012029E+01  0.13295474775E+02  0.51100000000E-03 0. -1.
        -11    1    3    3    0    0  0.13905358730E+02  0.27057658443E+02 -0.19470090606E+01  0.30483876499E+02  0.51100000000E-03 0.  1.
        -12    1    3    3    0    0 -0.47937605031E+01  0.34425663289E+01 -0.32748179757E+01  0.67495063126E+01  0.00000000000E+00 0.  1.
</event>
<event>
 7    1  0.5714431E-011  0.5052886E+02  0.7816164E-02  0.1300439E+00
        -11   -1    0    0    0    0  0.00000000000E+00  0.00000000000E+00  0.45593999997E+02  0.45594000000E+02  0.51100000000E-03 0. -1.
         11   -1    0    0    0    0 -0.00000000000E+00 -0.00000000000E+00 -0.45593999997E+02  0.45594000000E+02  0.51100000000E-03 0.  1.
    9900012    2    1    2    0    0  0.28267996966E+02 -0.25890687542E+02  0.13555749221E+02  0.50528859689E+02  0.29999999510E+02 0.  0.
        -12    1    1    2    0    0 -0.28267996966E+02  0.25890687542E+02 -0.13555749221E+02  0.40659140311E+02  0.00000000000E+00 0.  1.
         11    1    3    3    0    0  0.74470954095E+01  0.47779151363E+01  0.44930968162E+01  0.99234884163E+01  0.51100000000E-03 0. -1.
        -11    1    3    3    0    0  0.16931642434E+02 -0.31338728931E+02  0.78279504322E+01  0.36470169382E+02  0.51100000000E-03 0.  1.
         12    1    3    3    0    0  0.38892591223E+01  0.67012625215E+00  0.12347019728E+01  0.41352018905E+01  0.00000000000E+00 0. -1.
</event>
<event>
 7    1  0.5714431E-011  0.5052886E+02  0.7816164E-02  0.1300439E+00
        -11   -1    0    0    0    0  0.00000000000E+00  0.00000000000E+00  0.45593999997E+02  0.45594000000E+02  0.51100000000E-03 0.  1.
         11   -1    0    0    0    0 -0.00000000000E+00 -0.00000000000E+00 -0.45593999997E+02  0.45594000000E+02  0.51100000000E-03 0. -1.
    9900012    2    1    2    0    0 -0.84674632589E+01 -0.24555596392E+02 -0.31280828571E+02  0.50528862229E+02  0.30000007230E+02 0.  0.
        -12    1    1    2    0    0  0.84674632589E+01  0.24555596392E+02  0.31280828571E+02  0.40659137771E+02  0.00000000000E+00 0.  1.
         11    1    3    3    0    0 -0.10113895869E+02 -0.21499801446E+02 -0.18711008008E+02  0.30242919383E+02  0.51100000000E-03 0. -1.
        -11    1    3    3    0    0  0.40877004576E+01 -0.39572828557E+01  0.15752619803E+01  0.59034594264E+01  0.51100000000E-03 0.  1.
         12    1    3    3    0    0 -0.24412678476E+01  0.90148790955E+00 -0.14145082543E+02  0.14382483419E+02  0.00000000000E+00 0. -1.
</event>
<event>
 7    1  0.5714431E-011  0.5052886E+02  0.7816164E-02  0.1300439E+00
        -11   -1    0    0    0    0  0.00000000000E+00  0.00000000000E+00  0.45593999997E+02  0.45594000000E+02  0.51100000000E-03 0. -1.
         11   -1    0    0    0    0 -0.00000000000E+00 -0.00000000000E+00 -0.45593999997E+02  0.45594000000E+02  0.51100000000E-03 0.  1.
    9900012    2    1    2    0    0  0.37688691763E+02 -0.96462994603E+01 -0.11818520364E+02  0.50528855842E+02  0.29999987817E+02 0.  0.
        -12    1    1    2    0    0 -0.37688691763E+02  0.96462994603E+01  0.11818520364E+02  0.40659144158E+02  0.00000000000E+00 0.  1.
         11    1    3    3    0    0  0.16758923953E+02 -0.60394870389E-01  0.18200290536E+00  0.16760021030E+02  0.51100000000E-03 0. -1.
        -11    1    3    3    0    0 -0.20809241499E+01  0.28420466505E+01 -0.59676298293E+01  0.69296522656E+01  0.51100000000E-03 0.  1.
        -12    1    3    3    0    0  0.23010691960E+02 -0.12427951240E+02 -0.60328934400E+01  0.26839182547E+02  0.00000000000E+00 0.  1.
</event>
<event>
 7    1  0.5714431E-011  0.5052886E+02  0.7816164E-02  0.1300439E+00
        -11   -1    0    0    0    0  0.00000000000E+00  0.00000000000E+00  0.45593999997E+02  0.45594000000E+02  0.51100000000E-03 0.  1.
         11   -1    0    0    0    0 -0.00000000000E+00 -0.00000000000E+00 -0.45593999997E+02  0.45594000000E+02  0.51100000000E-03 0. -1.
    9900012    2    1    2    0    0  0.17310419704E+02  0.66036674762E+01 -0.36192630889E+02  0.50528860989E+02  0.30000003463E+02 0.  0.
        -12    1    1    2    0    0 -0.17310419704E+02 -0.66036674762E+01  0.36192630889E+02  0.40659139011E+02  0.00000000000E+00 0.  1.
         11    1    3    3    0    0  0.11132829343E+02  0.66615200716E+01 -0.37174609200E+00  0.12978980479E+02  0.51100000000E-03 0. -1.
        -11    1    3    3    0    0 -0.90652136623E+00  0.23873390334E+01 -0.18524969144E+02  0.18700151088E+02  0.51100000000E-03 0.  1.
         12    1    3    3    0    0  0.70841117269E+01 -0.24451916289E+01 -0.17295915652E+02  0.18849729423E+02  0.00000000000E+00 0. -1.
</event>
<event>
 7    1  0.5714431E-011  0.5052886E+02  0.7816164E-02  0.1300439E+00
        -11   -1    0    0    0    0  0.00000000000E+00  0.00000000000E+00  0.45593999997E+02  0.45594000000E+02  0.51100000000E-03 0.  1.
         11   -1    0    0    0    0 -0.00000000000E+00 -0.00000000000E+00 -0.45593999997E+02  0.45594000000E+02  0.51100000000E-03 0. -1.
    9900012    2    1    2    0    0 -0.14018803664E+01 -0.31632230896E+02 -0.25506914707E+02  0.50528855913E+02  0.29999988033E+02 0.  0.
        -12    1    1    2    0    0  0.14018803664E+01  0.31632230896E+02  0.25506914707E+02  0.40659144087E+02  0.00000000000E+00 0.  1.
         11    1    3    3    0    0 -0.68872157964E+01 -0.17230503415E+02  0.17874400166E+01  0.18641859656E+02  0.51100000000E-03 0. -1.
        -11    1    3    3    0    0  0.14356266364E+01 -0.10762550484E+02 -0.20320910932E+02  0.23039812024E+02  0.51100000000E-03 0.  1.
         12    1    3    3    0    0  0.40497087935E+01 -0.36391769972E+01 -0.69734437915E+01  0.88471842324E+01  0.00000000000E+00 0. -1.
</event>
<event>
 7    1  0.5714431E-011  0.5052885E+02  0.7816164E-02  0.1300439E+00
        -11   -1    0    0    0    0  0.00000000000E+00  0.00000000000E+00  0.45593999997E+02  0.45594000000E+02  0.51100000000E-03 0.  1.
         11   -1    0    0    0    0 -0.00000000000E+00 -0.00000000000E+00 -0.45593999997E+02  0.45594000000E+02  0.51100000000E-03 0. -1.
    9900012    2    1    2    0    0  0.35639771035E+02 -0.14089626836E+02  0.13581429793E+02  0.50528854669E+02  0.29999984251E+02 0.  0.
        -12    1    1    2    0    0 -0.35639771035E+02  0.14089626836E+02 -0.13581429793E+02  0.40659145331E+02  0.00000000000E+00 0.  1.
         11    1    3    3    0    0  0.11638842264E+02 -0.89737088847E+01  0.14235627390E+01  0.14765386264E+02  0.51100000000E-03 0. -1.
        -11    1    3    3    0    0  0.22577150643E+01  0.33252274895E+01 -0.52840139898E+01  0.66389170257E+01  0.51100000000E-03 0.  1.
        -12    1    3    3    0    0  0.21743213707E+02 -0.84411454411E+01  0.17441881044E+02  0.29124551379E+02  0.00000000000E+00 0.  1.
</event>
<event>
 7    1  0.5714431E-011  0.5052886E+02  0.7816164E-02  0.1300439E+00
        -11   -1    0    0    0    0  0.00000000000E+00  0.00000000000E+00  0.45593999997E+02  0.45594000000E+02  0.51100000000E-03 0. -1.
         11   -1    0    0    0    0 -0.00000000000E+00 -0.00000000000E+00 -0.45593999997E+02  0.45594000000E+02  0.51100000000E-03 0.  1.
    9900012    2    1    2    0    0 -0.41593603134E+01  0.30395450134E+02  0.26682992462E+02  0.50528858914E+02  0.29999997157E+02 0.  0.
        -12    1    1    2    0    0  0.41593603134E+01 -0.30395450134E+02 -0.26682992462E+02  0.40659141086E+02  0.00000000000E+00 0.  1.
         11    1    3    3    0    0  0.11059878045E+02  0.17598144440E+02  0.21460325127E+02  0.29875761830E+02  0.51100000000E-03 0. -1.
        -11    1    3    3    0    0 -0.71519773091E+01  0.55309828382E+01  0.14362478114E+01  0.91545266739E+01  0.51100000000E-03 0.  1.
         12    1    3    3    0    0 -0.80672610489E+01  0.72663228563E+01  0.37864195233E+01  0.11498570411E+02  0.00000000000E+00 0. -1.
</event>
<event>
 7    1  0.5714431E-011  0.5052886E+02  0.7816164E-02  0.1300439E+00
        -11   -1    0    0    0    0  0.00000000000E+00  0.00000000000E+00  0.45593999997E+02  0.45594000000E+02  0.51100000000E-03 0.  1.
         11   -1    0    0    0    0 -0.00000000000E+00 -0.00000000000E+00 -0.45593999997E+02  0.45594000000E+02  0.51100000000E-03 0. -1.
    9900012    2    1    2    0    0  0.32294446125E+01  0.38323001234E+02 -0.13194095370E+02  0.50528857256E+02  0.29999992115E+02 0.  0.
        -12    1    1    2    0    0 -0.32294446125E+01 -0.38323001234E+02  0.13194095370E+02  0.40659142744E+02  0.00000000000E+00 0.  1.
         11    1    3    3    0    0  0.36926768607E+01  0.38229526904E+01 -0.29125547126E+01  0.60608419288E+01  0.51100000000E-03 0. -1.
        -11    1    3    3    0    0 -0.95520343315E+01  0.95214343257E+01  0.42929863714E+01  0.14153755817E+02  0.51100000000E-03 0.  1.
        -12    1    3    3    0    0  0.90888020833E+01  0.24978614217E+02 -0.14574527028E+02  0.30314259510E+02  0.00000000000E+00 0.  1.
</event>
<event>
 7    1  0.5714431E-011  0.5052886E+02  0.7816164E-02  0.1300439E+00
        -11   -1    0    0    0    0  0.00000000000E+00  0.00000000000E+00  0.45593999997E+02  0.45594000000E+02  0.51100000000E-03 0. -1.
         11   -1    0    0    0    0 -0.00000000000E+00 -0.00000000000E+00 -0.45593999997E+02  0.45594000000E+02  0.51100000000E-03 0.  1.
    9900012    2    1    2    0    0  0.25168496998E+01 -0.22984574834E+01  0.40516023187E+02  0.50528861124E+02  0.30000003874E+02 0.  0.
        -12    1    1    2    0    0 -0.25168496998E+01  0.22984574834E+01 -0.40516023187E+02  0.40659138876E+02  0.00000000000E+00 0.  1.
         11    1    3    3    0    0  0.18302653556E+01  0.16750935192E+01  0.30130819315E+02  0.30232798125E+02  0.51100000000E-03 0. -1.
        -11    1    3    3    0    0  0.59835996470E+00 -0.57985266578E+01 -0.31582680303E+01  0.66299022060E+01  0.51100000000E-03 0.  1.
        -12    1    3    3    0    0  0.88224379540E-01  0.18249756552E+01  0.13543471902E+02  0.13666160794E+02  0.00000000000E+00 0.  1.
</event>
<event>
 7    1  0.5714431E-011  0.5052886E+02  0.7816164E-02  0.1300439E+00
        -11   -1    0    0    0    0  0.00000000000E+00  0.00000000000E+00  0.45593999997E+02  0.45594000000E+02  0.51100000000E-03 0. -1.
         11   -1    0    0    0    0 -0.00000000000E+00 -0.00000000000E+00 -0.45593999997E+02  0.45594000000E+02  0.51100000000E-03 0.  1.
    9900012    2    1    2    0    0  0.55888119373E+00  0.29374585800E+02  0.28106710638E+02  0.50528858076E+02  0.29999994607E+02 0.  0.
        -12    1    1    2    0    0 -0.55888119373E+00 -0.29374585800E+02 -0.28106710638E+02  0.40659141924E+02  0.00000000000E+00 0.  1.
         11    1    3    3    0    0  0.83372102116E+01  0.54474119626E+01  0.16005444877E+02  0.18850931998E+02  0.51100000000E-03 0. -1.
        -11    1    3    3    0    0 -0.25050969134E+01  0.22491058257E+02  0.58491844348E+01  0.23373835177E+02  0.51100000000E-03 0.  1.
         12    1    3    3    0    0 -0.52732321045E+01  0.14361155806E+01  0.62520813263E+01  0.83040909014E+01  0.00000000000E+00 0. -1.
</event>
<event>
 7    1  0.5714431E-011  0.5052885E+02  0.7816164E-02  0.1300439E+00
        -11   -1    0    0    0    0  0.00000000000E+00  0.00000000000E+00  0.45593999997E+02  0.45594000000E+02  0.51100000000E-03 0.  1.
         11   -1    0    0    0    0 -0.00000000000E+00 -0.00000000000E+00 -0.45593999997E+02  0.45594000000E+02  0.51100000000E-03 0. -1.
    9900012    2    1    2    0    0 -0.20028416468E+02 -0.28899632307E+02 -0.20416656452E+02  0.50528854972E+02  0.29999985174E+02 0.  0.
        -12    1    1    2    0    0  0.20028416468E+02  0.28899632307E+02  0.20416656452E+02  0.40659145028E+02  0.00000000000E+00 0.  1.
         11    1    3    3    0    0 -0.11213388616E+02 -0.21387277806E+02 -0.12988081309E+02  0.27419810221E+02  0.51100000000E-03 0. -1.
        -11    1    3    3    0    0  0.33544949170E+01  0.65385838967E+00  0.34508107791E+01  0.48567748801E+01  0.51100000000E-03 0.  1.
         12    1    3    3    0    0 -0.12169522769E+02 -0.81662128900E+01 -0.10879385922E+02  0.18252269871E+02  0.00000000000E+00 0. -1.
</event>
<event>
 7    1  0.5714431E-011  0.5052885E+02  0.7816164E-02  0.1300439E+00
        -11   -1    0    0    0    0  0.00000000000E+00  0.00000000000E+00  0.45593999997E+02  0.45594000000E+02  0.51100000000E-03 0.  1.
         11   -1    0    0    0    0 -0.00000000000E+00 -0.00000000000E+00 -0.45593999997E+02  0.45594000000E+02  0.51100000000E-03 0. -1.
    9900012    2    1    2    0    0  0.26316402431E+02  0.30394164935E+02 -0.60669475740E+01  0.50528854020E+02  0.29999982279E+02 0.  0.
        -12    1    1    2    0    0 -0.26316402431E+02 -0.30394164935E+02  0.60669475740E+01  0.40659145980E+02  0.00000000000E+00 0.  1.
         11    1    3    3    0    0 -0.30056129220E+01 -0.25286898905E+01 -0.17187204174E+01  0.42874213384E+01  0.51100000000E-03 0. -1.
        -11    1    3    3    0    0  0.20285470814E+02  0.22350290996E+02  0.33097879506E+01  0.30364296967E+02  0.51100000000E-03 0.  1.
         12    1    3    3    0    0  0.90365445385E+01  0.10572563829E+02 -0.76580151072E+01  0.15877135715E+02  0.00000000000E+00 0. -1.
</event>
<event>
 7    1  0.5714431E-011  0.5052887E+02  0.7816164E-02  0.1300439E+00
        -11   -1    0    0    0    0  0.00000000000E+00  0.00000000000E+00  0.45593999997E+02  0.45594000000E+02  0.51100000000E-03 0. -1.
         11   -1    0    0    0    0 -0.00000000000E+00 -0.00000000000E+00 -0.45593999997E+02  0.45594000000E+02  0.51100000000E-03 0.  1.
    9900012    2    1    2    0    0  0.16686545568E+02 -0.34687655305E+02  0.13095450883E+02  0.50528867356E+02  0.30000022815E+02 0.  0.
        -12    1    1    2    0    0 -0.16686545568E+02  0.34687655305E+02 -0.13095450883E+02  0.40659132644E+02  0.00000000000E+00 0.  1.
         11    1    3    3    0    0  0.17026104160E+02 -0.32550452084E+02  0.20227473451E+02  0.41935317290E+02  0.51100000000E-03 0. -1.
        -11    1    3    3    0    0 -0.11494793276E+01 -0.20808659005E+01 -0.73729149956E+01  0.77466884159E+01  0.51100000000E-03 0.  1.
         12    1    3    3    0    0  0.80992073603E+00 -0.56337320219E-01  0.24089242702E+00  0.84686164968E+00  0.00000000000E+00 0. -1.
</event>
<event>
 7    1  0.5714431E-011  0.5052886E+02  0.7816164E-02  0.1300439E+00
        -11   -1    0    0    0    0  0.00000000000E+00  0.00000000000E+00  0.45593999997E+02  0.45594000000E+02  0.51100000000E-03 0. -1.
         11   -1    0    0    0    0 -0.00000000000E+00 -0.00000000000E+00 -0.45593999997E+02  0.45594000000E+02  0.51100000000E-03 0.  1.
    9900012    2    1    2    0    0  0.97010576791E+01 -0.39459562009E+02 -0.14136173832E+01  0.50528857509E+02  0.29999992884E+02 0.  0.
        -12    1    1    2    0    0 -0.97010576791E+01  0.39459562009E+02  0.14136173832E+01  0.40659142491E+02  0.00000000000E+00 0.  1.
         11    1    3    3    0    0 -0.24944016478E+01 -0.20273145564E+02  0.70940914891E+00  0.20438339762E+02  0.51100000000E-03 0. -1.
        -11    1    3    3    0    0  0.62678070218E+01  0.13861880682E+01 -0.54540318846E+01  0.84233833038E+01  0.51100000000E-03 0.  1.
         12    1    3    3    0    0  0.59276523051E+01 -0.20572604513E+02  0.33310053525E+01  0.21667134443E+02  0.00000000000E+00 0. -1.
</event>
<event>
 7    1  0.5714431E-011  0.5052885E+02  0.7816164E-02  0.1300439E+00
        -11   -1    0    0    0    0  0.00000000000E+00  0.00000000000E+00  0.45593999997E+02  0.45594000000E+02  0.51100000000E-03 0.  1.
         11   -1    0    0    0    0 -0.00000000000E+00 -0.00000000000E+00 -0.45593999997E+02  0.45594000000E+02  0.51100000000E-03 0. -1.
    9900012    2    1    2    0    0  0.17561244669E+02 -0.63069717982E+01 -0.36124663794E+02  0.50528849224E+02  0.29999967702E+02 0.  0.
        -12    1    1    2    0    0 -0.17561244669E+02  0.63069717982E+01  0.36124663794E+02  0.40659150776E+02  0.00000000000E+00 0.  1.
         11    1    3    3    0    0  0.11730441905E+02 -0.77770417512E+01 -0.11370280128E+02  0.18093338999E+02  0.51100000000E-03 0. -1.
        -11    1    3    3    0    0  0.10153143830E+02  0.79974577228E+01 -0.17555545133E+02  0.21800064789E+02  0.51100000000E-03 0.  1.
        -12    1    3    3    0    0 -0.43223410658E+01 -0.65273877698E+01 -0.71988385335E+01  0.10635445436E+02  0.00000000000E+00 0.  1.
</event>
<event>
 7    1  0.5714431E-011  0.5052886E+02  0.7816164E-02  0.1300439E+00
        -11   -1    0    0    0    0  0.00000000000E+00  0.00000000000E+00  0.45593999997E+02  0.45594000000E+02  0.51100000000E-03 0.  1.
         11   -1    0    0    0    0 -0.00000000000E+00 -0.00000000000E+00 -0.45593999997E+02  0.45594000000E+02  0.51100000000E-03 0. -1.
    9900012    2    1    2    0    0 -0.28052429357E+02 -0.91307485868E+01 -0.27979565152E+02  0.50528862913E+02  0.30000009311E+02 0.  0.
        -12    1    1    2    0    0  0.28052429357E+02  0.91307485868E+01  0.27979565152E+02  0.40659137087E+02  0.00000000000E+00 0.  1.
         11    1    3    3    0    0 -0.98449260646E+01 -0.11217848019E+02 -0.16376403226E+02  0.22157374986E+02  0.51100000000E-03 0. -1.
        -11    1    3    3    0    0 -0.20572946285E+02  0.42163435232E+01 -0.13206353573E+02  0.24807890811E+02  0.51100000000E-03 0.  1.
        -12    1    3    3    0    0  0.23654429926E+01 -0.21292440914E+01  0.16031916466E+01  0.35635971164E+01  0.00000000000E+00 0.  1.
</event>
<event>
 7    1  0.5714431E-011  0.5052886E+02  0.7816164E-02  0.1300439E+00
        -11   -1    0    0    0    0  0.00000000000E+00  0.00000000000E+00  0.45593999997E+02  0.45594000000E+02  0.51100000000E-03 0. -1.
         11   -1    0    0    0    0 -0.00000000000E+00 -0.00000000000E+00 -0.45593999997E+02  0.45594000000E+02  0.51100000000E-03 0.  1.
    9900012    2    1    2    0    0  0.12830803792E+02  0.48882603054E+01  0.38270628082E+02  0.50528860947E+02  0.30000003334E+02 0.  0.
        -12    1    1    2    0    0 -0.12830803792E+02 -0.48882603054E+01 -0.38270628082E+02  0.40659139053E+02  0.00000000000E+00 0.  1.
         11    1    3    3    0    0  0.11240764250E+02  0.56588719687E+01  0.41960903351E+02  0.43807476795E+02  0.51100000000E-03 0. -1.
        -11    1    3    3    0    0  0.34983529923E+01 -0.40347694343E+00 -0.16020817191E+01  0.38688413509E+01  0.51100000000E-03 0.  1.
        -12    1    3    3    0    0 -0.19083134504E+01 -0.36713471984E+00 -0.20881935498E+01  0.28525428005E+01  0.00000000000E+00 0.  1.
</event>
<event>
 7    1  0.5714431E-011  0.5052886E+02  0.7816164E-02  0.1300439E+00
        -11   -1    0    0    0    0  0.00000000000E+00  0.00000000000E+00  0.45593999997E+02  0.45594000000E+02  0.51100000000E-03 0. -1.
         11   -1    0    0    0    0 -0.00000000000E+00 -0.00000000000E+00 -0.45593999997E+02  0.45594000000E+02  0.51100000000E-03 0.  1.
    9900012    2    1    2    0    0  0.31596211561E+02 -0.16153814656E+02  0.19846903042E+02  0.50528857445E+02  0.29999992691E+02 0.  0.
        -12    1    1    2    0    0 -0.31596211561E+02  0.16153814656E+02 -0.19846903042E+02  0.40659142555E+02  0.00000000000E+00 0.  1.
         11    1    3    3    0    0  0.24390136056E+02 -0.64882504995E+01  0.21779959019E+02  0.33336807683E+02  0.51100000000E-03 0. -1.
        -11    1    3    3    0    0 -0.32157616086E+01 -0.14703089086E+01 -0.17203797812E+01  0.39322560780E+01  0.51100000000E-03 0.  1.
         12    1    3    3    0    0  0.10421837113E+02 -0.81952552474E+01 -0.21267619513E+00  0.13259793684E+02  0.00000000000E+00 0. -1.
</event>
<event>
 7    1  0.5714431E-011  0.5052878E+02  0.7816164E-02  0.1300439E+00
        -11   -1    0    0    0    0  0.00000000000E+00  0.00000000000E+00  0.45593999997E+02  0.45594000000E+02  0.51100000000E-03 0.  1.
         11   -1    0    0    0    0 -0.00000000000E+00 -0.00000000000E+00 -0.45593999997E+02  0.45594000000E+02  0.51100000000E-03 0. -1.
    9900012    2    1    2    0    0 -0.22975069253E+02  0.25619946809E+02 -0.21654942323E+02  0.50528781996E+02  0.29999763354E+02 0.  0.
        -12    1    1    2    0    0  0.22975069253E+02 -0.25619946809E+02  0.21654942323E+02  0.40659218004E+02  0.00000000000E+00 0.  1.
         11    1    3    3    0    0 -0.12780513754E+02  0.25073062459E+02 -0.23428752233E+02  0.36618389155E+02  0.51100000000E-03 0. -1.
        -11    1    3    3    0    0 -0.98829786045E+00 -0.35539519432E+01  0.72589229611E-01  0.36895225346E+01  0.51100000000E-03 0.  1.
         12    1    3    3    0    0 -0.92062576388E+01  0.41008362938E+01  0.17012206801E+01  0.10220870307E+02  0.00000000000E+00 0. -1.
</event>
<event>
 7    1  0.5714431E-011  0.5052884E+02  0.7816164E-02  0.1300439E+00
        -11   -1    0    0    0    0  0.00000000000E+00  0.00000000000E+00  0.45593999997E+02  0.45594000000E+02  0.51100000000E-03 0.  1.
         11   -1    0    0    0    0 -0.00000000000E+00 -0.00000000000E+00 -0.45593999997E+02  0.45594000000E+02  0.51100000000E-03 0. -1.
    9900012    2    1    2    0    0  0.11986108457E+02  0.57217365703E+01 -0.38428662881E+02  0.50528841178E+02  0.29999943243E+02 0.  0.
        -12    1    1    2    0    0 -0.11986108457E+02 -0.57217365703E+01  0.38428662881E+02  0.40659158822E+02  0.00000000000E+00 0.  1.
         11    1    3    3    0    0  0.64824310816E+01  0.12738838168E+02 -0.21069179731E+02  0.25459973398E+02  0.51100000000E-03 0.  1.
        -11    1    3    3    0    0  0.66750616579E+01 -0.77021460267E+01 -0.19804088019E+02  0.22272884952E+02  0.51100000000E-03 0. -1.
        -12    1    3    3    0    0 -0.11713842822E+01  0.68504442881E+00  0.24446048695E+01  0.27959828279E+01  0.00000000000E+00 0.  1.
</event>
<event>
 7    1  0.5714431E-011  0.5052886E+02  0.7816164E-02  0.1300439E+00
        -11   -1    0    0    0    0  0.00000000000E+00  0.00000000000E+00  0.45593999997E+02  0.45594000000E+02  0.51100000000E-03 0. -1.
         11   -1    0    0    0    0 -0.00000000000E+00 -0.00000000000E+00 -0.45593999997E+02  0.45594000000E+02  0.51100000000E-03 0.  1.
    9900012    2    1    2    0    0 -0.29357914649E+02 -0.21457555500E+02  0.18189334557E+02  0.50528859180E+02  0.29999997964E+02 0.  0.
        -12    1    1    2    0    0  0.29357914649E+02  0.21457555500E+02 -0.18189334557E+02  0.40659140820E+02  0.00000000000E+00 0.  1.
         11    1    3    3    0    0 -0.11120247056E+02 -0.20946758089E+02  0.52702036475E+00  0.23721389499E+02  0.51100000000E-03 0. -1.
        -11    1    3    3    0    0 -0.14328139641E+02 -0.11714772285E+01  0.17750151215E+02  0.22841537008E+02  0.51100000000E-03 0.  1.
        -12    1    3    3    0    0 -0.39095279511E+01  0.66067981772E+00 -0.87837022217E-01  0.39659326727E+01  0.00000000000E+00 0.  1.
</event>
<event>
 7    1  0.5714431E-011  0.5052886E+02  0.7816164E-02  0.1300439E+00
        -11   -1    0    0    0    0  0.00000000000E+00  0.00000000000E+00  0.45593999997E+02  0.45594000000E+02  0.51100000000E-03 0. -1.
         11   -1    0    0    0    0 -0.00000000000E+00 -0.00000000000E+00 -0.45593999997E+02  0.45594000000E+02  0.51100000000E-03 0.  1.
    9900012    2    1    2    0    0  0.64040193933E+01 -0.40151542098E+02 -0.89105051570E-01  0.50528859122E+02  0.29999997788E+02 0.  0.
        -12    1    1    2    0    0 -0.64040193933E+01  0.40151542098E+02  0.89105051570E-01  0.40659140878E+02  0.00000000000E+00 0.  1.
         11    1    3    3    0    0  0.13576507366E+02 -0.17886053686E+02 -0.46342619393E+01  0.22928341690E+02  0.51100000000E-03 0. -1.
        -11    1    3    3    0    0 -0.55966939944E+01 -0.17838137593E+01  0.38948224896E+01  0.70480222532E+01  0.51100000000E-03 0.  1.
         12    1    3    3    0    0 -0.15757939780E+01 -0.20481674653E+02  0.65033439806E+00  0.20552495179E+02  0.00000000000E+00 0. -1.
</event>
<event>
 7    1  0.5714431E-011  0.5052887E+02  0.7816164E-02  0.1300439E+00
        -11   -1    0    0    0    0  0.00000000000E+00  0.00000000000E+00  0.45593999997E+02  0.45594000000E+02  0.51100000000E-03 0.  1.
         11   -1    0    0    0    0 -0.00000000000E+00 -0.00000000000E+00 -0.45593999997E+02  0.45594000000E+02  0.51100000000E-03 0. -1.
    9900012    2    1    2    0    0  0.37464273302E+02  0.15592871946E+02  0.25407101332E+01  0.50528872642E+02  0.30000038881E+02 0.  0.
        -12    1    1    2    0    0 -0.37464273302E+02 -0.15592871946E+02 -0.25407101332E+01  0.40659127358E+02  0.00000000000E+00 0.  1.
         11    1    3    3    0    0  0.39038254047E+02  0.10513009432E+02  0.64180637829E+01  0.40935317140E+02  0.51100000000E-03 0. -1.
        -11    1    3    3    0    0  0.17355676449E+01  0.51542385653E+01 -0.27662444002E+01  0.61016783412E+01  0.51100000000E-03 0.  1.
         12    1    3    3    0    0 -0.33095483897E+01 -0.74376051109E-01 -0.11111092496E+01  0.34918771607E+01  0.00000000000E+00 0. -1.
</event>
<event>
 7    1  0.5714431E-011  0.5052886E+02  0.7816164E-02  0.1300439E+00
        -11   -1    0    0    0    0  0.00000000000E+00  0.00000000000E+00  0.45593999997E+02  0.45594000000E+02  0.51100000000E-03 0. -1.
         11   -1    0    0    0    0 -0.00000000000E+00 -0.00000000000E+00 -0.45593999997E+02  0.45594000000E+02  0.51100000000E-03 0.  1.
    9900012    2    1    2    0    0 -0.40522235511E+02 -0.22254078343E+01  0.24822201562E+01  0.50528862924E+02  0.30000009345E+02 0.  0.
        -12    1    1    2    0    0  0.40522235511E+02  0.22254078343E+01 -0.24822201562E+01  0.40659137076E+02  0.00000000000E+00 0.  1.
         11    1    3    3    0    0  0.23420268009E+01 -0.28743787044E+01 -0.48582229684E+01  0.61114215322E+01  0.51100000000E-03 0. -1.
        -11    1    3    3    0    0 -0.25759005970E+02  0.26101432619E+01  0.51345560608E+00  0.25896001107E+02  0.51100000000E-03 0.  1.
         12    1    3    3    0    0 -0.17105256342E+02 -0.19611723919E+01  0.68269875185E+01  0.18521440286E+02  0.00000000000E+00 0. -1.
</event>
<event>
 7    1  0.5714431E-011  0.5052886E+02  0.7816164E-02  0.1300439E+00
        -11   -1    0    0    0    0  0.00000000000E+00  0.00000000000E+00  0.45593999997E+02  0.45594000000E+02  0.51100000000E-03 0.  1.
         11   -1    0    0    0    0 -0.00000000000E+00 -0.00000000000E+00 -0.45593999997E+02  0.45594000000E+02  0.51100000000E-03 0. -1.
    9900012    2    1    2    0    0  0.77903498278E+01  0.14405630852E+02 -0.37214970626E+02  0.50528858477E+02  0.29999995827E+02 0.  0.
        -12    1    1    2    0    0 -0.77903498278E+01 -0.14405630852E+02  0.37214970626E+02  0.40659141523E+02  0.00000000000E+00 0.  1.
         11    1    3    3    0    0  0.92047265655E-01  0.13572932904E+02 -0.30796574407E+02  0.33655043839E+02  0.51100000000E-03 0. -1.
        -11    1    3    3    0    0  0.77673099515E+01  0.62035906862E+01 -0.56883960797E+01  0.11453099646E+02  0.51100000000E-03 0.  1.
         12    1    3    3    0    0 -0.69007389364E-01 -0.53708927377E+01 -0.73000013888E+00  0.54207149918E+01  0.00000000000E+00 0. -1.
</event>
<event>
 7    1  0.5714431E-011  0.5052888E+02  0.7816164E-02  0.1300439E+00
        -11   -1    0    0    0    0  0.00000000000E+00  0.00000000000E+00  0.45593999997E+02  0.45594000000E+02  0.51100000000E-03 0.  1.
         11   -1    0    0    0    0 -0.00000000000E+00 -0.00000000000E+00 -0.45593999997E+02  0.45594000000E+02  0.51100000000E-03 0. -1.
    9900012    2    1    2    0    0  0.14692081440E+02 -0.37898535303E+02 -0.10039820611E+01  0.50528877836E+02  0.30000054671E+02 0.  0.
        -12    1    1    2    0    0 -0.14692081440E+02  0.37898535303E+02  0.10039820611E+01  0.40659122164E+02  0.00000000000E+00 0.  1.
         11    1    3    3    0    0  0.16310685017E+02 -0.16804343701E+02  0.62308277188E+01  0.24233192676E+02  0.51100000000E-03 0. -1.
        -11    1    3    3    0    0 -0.59657734495E+01 -0.53928376383E+01 -0.58505421895E+01  0.99449482058E+01  0.51100000000E-03 0.  1.
        -12    1    3    3    0    0  0.43471698722E+01 -0.15701353964E+02 -0.13842675904E+01  0.16350736955E+02  0.00000000000E+00 0.  1.
</event>
<event>
 7    1  0.5714431E-011  0.5052885E+02  0.7816164E-02  0.1300439E+00
        -11   -1    0    0    0    0  0.00000000000E+00  0.00000000000E+00  0.45593999997E+02  0.45594000000E+02  0.51100000000E-03 0.  1.
         11   -1    0    0    0    0 -0.00000000000E+00 -0.00000000000E+00 -0.45593999997E+02  0.45594000000E+02  0.51100000000E-03 0. -1.
    9900012    2    1    2    0    0  0.56787419681E+01 -0.31763086512E+02 -0.24739126158E+02  0.50528854188E+02  0.29999982789E+02 0.  0.
        -12    1    1    2    0    0 -0.56787419681E+01  0.31763086512E+02  0.24739126158E+02  0.40659145812E+02  0.00000000000E+00 0.  1.
         11    1    3    3    0    0  0.20096030235E+01 -0.38528554109E+00 -0.24290507117E+01  0.31760410704E+01  0.51100000000E-03 0. -1.
        -11    1    3    3    0    0 -0.48856189656E+01 -0.54155807600E+01 -0.18331815641E+02  0.19729502087E+02  0.51100000000E-03 0.  1.
        -12    1    3    3    0    0  0.85547579102E+01 -0.25962220211E+02 -0.39782598050E+01  0.27623311030E+02  0.00000000000E+00 0.  1.
</event>
<event>
 7    1  0.5714431E-011  0.5052886E+02  0.7816164E-02  0.1300439E+00
        -11   -1    0    0    0    0  0.00000000000E+00  0.00000000000E+00  0.45593999997E+02  0.45594000000E+02  0.51100000000E-03 0.  1.
         11   -1    0    0    0    0 -0.00000000000E+00 -0.00000000000E+00 -0.45593999997E+02  0.45594000000E+02  0.51100000000E-03 0. -1.
    9900012    2    1    2    0    0  0.18983160988E+02  0.28677976909E+02 -0.21688229233E+02  0.50528855298E+02  0.29999986163E+02 0.  0.
        -12    1    1    2    0    0 -0.18983160988E+02 -0.28677976909E+02  0.21688229233E+02  0.40659144702E+02  0.00000000000E+00 0.  1.
         11    1    3    3    0    0 -0.48198512437E+01  0.16514062672E+02 -0.13943250432E+02  0.22144061615E+02  0.51100000000E-03 0. -1.
        -11    1    3    3    0    0  0.21663332399E+02  0.12686985765E+02 -0.71033136246E+01  0.26090547007E+02  0.51100000000E-03 0.  1.
         12    1    3    3    0    0  0.21396798324E+01 -0.52307152849E+00 -0.64166517683E+00  0.22942466755E+01  0.00000000000E+00 0. -1.
</event>
<event>
 7    1  0.5714431E-011  0.5052885E+02  0.7816164E-02  0.1300439E+00
        -11   -1    0    0    0    0  0.00000000000E+00  0.00000000000E+00  0.45593999997E+02  0.45594000000E+02  0.51100000000E-03 0.  1.
         11   -1    0    0    0    0 -0.00000000000E+00 -0.00000000000E+00 -0.45593999997E+02  0.45594000000E+02  0.51100000000E-03 0. -1.
    9900012    2    1    2    0    0  0.33576536770E+02 -0.76542487503E+01 -0.21614690307E+02  0.50528853643E+02  0.29999981133E+02 0.  0.
        -12    1    1    2    0    0 -0.33576536770E+02  0.76542487503E+01  0.21614690307E+02  0.40659146357E+02  0.00000000000E+00 0.  1.
         11    1    3    3    0    0  0.11333427841E+02  0.31072860604E+01  0.47529199919E+01  0.12676437276E+02  0.51100000000E-03 0. -1.
        -11    1    3    3    0    0  0.37785369331E+01  0.16825573963E+01 -0.79273124002E+01  0.89415112200E+01  0.51100000000E-03 0.  1.
         12    1    3    3    0    0  0.18464571996E+02 -0.12444092207E+02 -0.18440297898E+02  0.28910905147E+02  0.00000000000E+00 0. -1.
</event>
<event>
 7    1  0.5714431E-011  0.5052888E+02  0.7816164E-02  0.1300439E+00
        -11   -1    0    0    0    0  0.00000000000E+00  0.00000000000E+00  0.45593999997E+02  0.45594000000E+02  0.51100000000E-03 0. -1.
         11   -1    0    0    0    0 -0.00000000000E+00 -0.00000000000E+00 -0.45593999997E+02  0.45594000000E+02  0.51100000000E-03 0.  1.
    9900012    2    1    2    0    0  0.29004051084E+02 -0.18864018917E+02  0.21355985355E+02  0.50528876799E+02  0.30000051519E+02 0.  0.
        -12    1    1    2    0    0 -0.29004051084E+02  0.18864018917E+02 -0.21355985355E+02  0.40659123201E+02  0.00000000000E+00 0.  1.
         11    1    3    3    0    0  0.12444210097E+01 -0.52844984254E+01  0.15063254520E+02  0.16011750193E+02  0.51100000000E-03 0. -1.
        -11    1    3    3    0    0  0.20225641193E+02 -0.14027907683E+02 -0.11822286048E+00  0.24614482171E+02  0.51100000000E-03 0.  1.
        -12    1    3    3    0    0  0.75339888812E+01  0.44838719105E+00  0.64109536955E+01  0.99026444357E+01  0.00000000000E+00 0.  1.
</event>
<event>
 7    1  0.5714431E-011  0.5052886E+02  0.7816164E-02  0.1300439E+00
        -11   -1    0    0    0    0  0.00000000000E+00  0.00000000000E+00  0.45593999997E+02  0.45594000000E+02  0.51100000000E-03 0. -1.
         11   -1    0    0    0    0 -0.00000000000E+00 -0.00000000000E+00 -0.45593999997E+02  0.45594000000E+02  0.51100000000E-03 0.  1.
    9900012    2    1    2    0    0  0.33781394447E+02 -0.19268175650E+02  0.11862550068E+02  0.50528864522E+02  0.30000014203E+02 0.  0.
        -12    1    1    2    0    0 -0.33781394447E+02  0.19268175650E+02 -0.11862550068E+02  0.40659135478E+02  0.00000000000E+00 0.  1.
         11    1    3    3    0    0  0.24666795710E+02 -0.19259697687E+02  0.76698196346E+00  0.31304552819E+02  0.51100000000E-03 0. -1.
        -11    1    3    3    0    0  0.30995669051E+01  0.60768134448E+01  0.68696114231E+01  0.96812467176E+01  0.51100000000E-03 0.  1.
        -12    1    3    3    0    0  0.60150318321E+01 -0.60852914070E+01  0.42259566811E+01  0.95430649856E+01  0.00000000000E+00 0.  1.
</event>
<event>
 7    1  0.5714431E-011  0.5052887E+02  0.7816164E-02  0.1300439E+00
        -11   -1    0    0    0    0  0.00000000000E+00  0.00000000000E+00  0.45593999997E+02  0.45594000000E+02  0.51100000000E-03 0.  1.
         11   -1    0    0    0    0 -0.00000000000E+00 -0.00000000000E+00 -0.45593999997E+02  0.45594000000E+02  0.51100000000E-03 0. -1.
    9900012    2    1    2    0    0  0.19969946431E+01  0.32481305214E+02 -0.24375029827E+02  0.50528865047E+02  0.30000015798E+02 0.  0.
        -12    1    1    2    0    0 -0.19969946431E+01 -0.32481305214E+02  0.24375029827E+02  0.40659134953E+02  0.00000000000E+00 0.  1.
         11    1    3    3    0    0  0.24818260035E+01  0.40707840657E+01 -0.57188860571E+01  0.74455625184E+01  0.51100000000E-03 0. -1.
        -11    1    3    3    0    0  0.57194540900E+00  0.19513470530E+01  0.63465555705E+01  0.66643562887E+01  0.51100000000E-03 0.  1.
        -12    1    3    3    0    0 -0.10567767693E+01  0.26459174096E+02 -0.25002699340E+02  0.36418946240E+02  0.00000000000E+00 0.  1.
</event>
<event>
 7    1  0.5714431E-011  0.5052886E+02  0.7816164E-02  0.1300439E+00
        -11   -1    0    0    0    0  0.00000000000E+00  0.00000000000E+00  0.45593999997E+02  0.45594000000E+02  0.51100000000E-03 0.  1.
         11   -1    0    0    0    0 -0.00000000000E+00 -0.00000000000E+00 -0.45593999997E+02  0.45594000000E+02  0.51100000000E-03 0. -1.
    9900012    2    1    2    0    0 -0.17388139526E+01 -0.17414374773E+02 -0.36699887946E+02  0.50528859602E+02  0.29999999246E+02 0.  0.
        -12    1    1    2    0    0  0.17388139526E+01  0.17414374773E+02  0.36699887946E+02  0.40659140398E+02  0.00000000000E+00 0.  1.
         11    1    3    3    0    0 -0.44267848737E+01 -0.15485987841E+02 -0.36507675335E+02  0.39902664101E+02  0.51100000000E-03 0. -1.
        -11    1    3    3    0    0  0.64767828549E+01 -0.38931824765E+00 -0.60146575066E+00  0.65162908282E+01  0.51100000000E-03 0.  1.
         12    1    3    3    0    0 -0.37888119337E+01 -0.15390686849E+01  0.40925314022E+00  0.41099046727E+01  0.00000000000E+00 0. -1.
</event>
<event>
 7    1  0.5714431E-011  0.5052884E+02  0.7816164E-02  0.1300439E+00
        -11   -1    0    0    0    0  0.00000000000E+00  0.00000000000E+00  0.45593999997E+02  0.45594000000E+02  0.51100000000E-03 0. -1.
         11   -1    0    0    0    0 -0.00000000000E+00 -0.00000000000E+00 -0.45593999997E+02  0.45594000000E+02  0.51100000000E-03 0.  1.
    9900012    2    1    2    0    0  0.36593007834E+02  0.42045332249E+01  0.17217452236E+02  0.50528843793E+02  0.29999951193E+02 0.  0.
        -12    1    1    2    0    0 -0.36593007834E+02 -0.42045332249E+01 -0.17217452236E+02  0.40659156207E+02  0.00000000000E+00 0.  1.
         11    1    3    3    0    0  0.18760943799E+02  0.10463162433E+01  0.75937683159E+01  0.20266551443E+02  0.51100000000E-03 0. -1.
        -11    1    3    3    0    0  0.67944837244E+01  0.12240921417E+02  0.72713043077E+01  0.15775836992E+02  0.51100000000E-03 0.  1.
        -12    1    3    3    0    0  0.11037580311E+02 -0.90827044353E+01  0.23523796124E+01  0.14486455357E+02  0.00000000000E+00 0.  1.
</event>
<event>
 7    1  0.5714431E-011  0.5052885E+02  0.7816164E-02  0.1300439E+00
        -11   -1    0    0    0    0  0.00000000000E+00  0.00000000000E+00  0.45593999997E+02  0.45594000000E+02  0.51100000000E-03 0. -1.
         11   -1    0    0    0    0 -0.00000000000E+00 -0.00000000000E+00 -0.45593999997E+02  0.45594000000E+02  0.51100000000E-03 0.  1.
    9900012    2    1    2    0    0 -0.20978950422E+02  0.14601455568E+02 -0.31620367671E+02  0.50528849527E+02  0.29999968622E+02 0.  0.
        -12    1    1    2    0    0  0.20978950422E+02 -0.14601455568E+02  0.31620367671E+02  0.40659150473E+02  0.00000000000E+00 0.  1.
         11    1    3    3    0    0  0.53704838543E+01  0.11527086842E+02 -0.83447593059E+01  0.15210221432E+02  0.51100000000E-03 0. -1.
        -11    1    3    3    0    0 -0.74725968850E+01  0.12037654407E+01 -0.59443145031E+01  0.96241171343E+01  0.51100000000E-03 0.  1.
         12    1    3    3    0    0 -0.18876837391E+02  0.18706032855E+01 -0.17331293862E+02  0.25694510960E+02  0.00000000000E+00 0. -1.
</event>
<event>
 7    1  0.5714431E-011  0.5052887E+02  0.7816164E-02  0.1300439E+00
        -11   -1    0    0    0    0  0.00000000000E+00  0.00000000000E+00  0.45593999997E+02  0.45594000000E+02  0.51100000000E-03 0.  1.
         11   -1    0    0    0    0 -0.00000000000E+00 -0.00000000000E+00 -0.45593999997E+02  0.45594000000E+02  0.51100000000E-03 0. -1.
    9900012    2    1    2    0    0  0.70796576627E+01 -0.57073191356E+01 -0.39629158015E+02  0.50528865611E+02  0.30000017510E+02 0.  0.
        -12    1    1    2    0    0 -0.70796576627E+01  0.57073191356E+01  0.39629158015E+02  0.40659134389E+02  0.00000000000E+00 0.  1.
         11    1    3    3    0    0  0.13807309138E+02 -0.11826857821E+02 -0.20579575551E+02  0.27459702869E+02  0.51100000000E-03 0. -1.
        -11    1    3    3    0    0 -0.52284335683E+01 -0.10598899678E+01 -0.55019469529E+01  0.76636352246E+01  0.51100000000E-03 0.  1.
         12    1    3    3    0    0 -0.14992179072E+01  0.71794286536E+01 -0.13547635511E+02  0.15405527517E+02  0.00000000000E+00 0. -1.
</event>
<event>
 7    1  0.5714431E-011  0.5052886E+02  0.7816164E-02  0.1300439E+00
        -11   -1    0    0    0    0  0.00000000000E+00  0.00000000000E+00  0.45593999997E+02  0.45594000000E+02  0.51100000000E-03 0. -1.
         11   -1    0    0    0    0 -0.00000000000E+00 -0.00000000000E+00 -0.45593999997E+02  0.45594000000E+02  0.51100000000E-03 0.  1.
    9900012    2    1    2    0    0 -0.24414643008E+02  0.23813873731E+02  0.22135721252E+02  0.50528861659E+02  0.30000005499E+02 0.  0.
        -12    1    1    2    0    0  0.24414643008E+02 -0.23813873731E+02 -0.22135721252E+02  0.40659138341E+02  0.00000000000E+00 0.  1.
         11    1    3    3    0    0 -0.17318178427E+01  0.30611670043E+01  0.14155481203E+02  0.14585869354E+02  0.51100000000E-03 0. -1.
        -11    1    3    3    0    0 -0.17039077750E+02  0.20970879227E+02  0.11414854739E+02  0.29332692599E+02  0.51100000000E-03 0.  1.
         12    1    3    3    0    0 -0.56437474155E+01 -0.21817250055E+00 -0.34346146901E+01  0.66102997058E+01  0.00000000000E+00 0. -1.
</event>
<event>
 7    1  0.5714431E-011  0.5052882E+02  0.7816164E-02  0.1300439E+00
        -11   -1    0    0    0    0  0.00000000000E+00  0.00000000000E+00  0.45593999997E+02  0.45594000000E+02  0.51100000000E-03 0.  1.
         11   -1    0    0    0    0 -0.00000000000E+00 -0.00000000000E+00 -0.45593999997E+02  0.45594000000E+02  0.51100000000E-03 0. -1.
    9900012    2    1    2    0    0  0.28607697153E+02 -0.11499136360E+01 -0.28869470606E+02  0.50528819353E+02  0.29999876906E+02 0.  0.
        -12    1    1    2    0    0 -0.28607697153E+02  0.11499136360E+01  0.28869470606E+02  0.40659180647E+02  0.00000000000E+00 0.  1.
         11    1    3    3    0    0  0.22764740441E+02 -0.10644318940E+02 -0.25900980436E+02  0.36088720133E+02  0.51100000000E-03 0. -1.
        -11    1    3    3    0    0  0.34928847826E+01  0.10490352858E+02 -0.38982126342E+01  0.11723643171E+02  0.51100000000E-03 0.  1.
        -12    1    3    3    0    0  0.23500719297E+01 -0.99594755421E+00  0.92972246410E+00  0.27164560489E+01  0.00000000000E+00 0.  1.
</event>
<event>
 7    1  0.5714431E-011  0.5052885E+02  0.7816164E-02  0.1300439E+00
        -11   -1    0    0    0    0  0.00000000000E+00  0.00000000000E+00  0.45593999997E+02  0.45594000000E+02  0.51100000000E-03 0.  1.
         11   -1    0    0    0    0 -0.00000000000E+00 -0.00000000000E+00 -0.45593999997E+02  0.45594000000E+02  0.51100000000E-03 0. -1.
    9900012    2    1    2    0    0 -0.92816395894E+01 -0.23419484785E+02 -0.31914656157E+02  0.50528851231E+02  0.29999973801E+02 0.  0.
        -12    1    1    2    0    0  0.92816395894E+01  0.23419484785E+02  0.31914656157E+02  0.40659148769E+02  0.00000000000E+00 0.  1.
         11    1    3    3    0    0  0.30730830078E+01  0.36998310456E+01 -0.38531778563E+01  0.61627565903E+01  0.51100000000E-03 0. -1.
        -11    1    3    3    0    0 -0.83163321771E+01 -0.25892946290E+02 -0.29291548512E+02  0.39969999537E+02  0.51100000000E-03 0.  1.
        -12    1    3    3    0    0 -0.40383904201E+01 -0.12263695399E+01  0.12300702117E+01  0.43960951036E+01  0.00000000000E+00 0.  1.
</event>
<event>
 7    1  0.5714431E-011  0.5052886E+02  0.7816164E-02  0.1300439E+00
        -11   -1    0    0    0    0  0.00000000000E+00  0.00000000000E+00  0.45593999997E+02  0.45594000000E+02  0.51100000000E-03 0.  1.
         11   -1    0    0    0    0 -0.00000000000E+00 -0.00000000000E+00 -0.45593999997E+02  0.45594000000E+02  0.51100000000E-03 0. -1.
    9900012    2    1    2    0    0 -0.18020431443E+02 -0.10173381247E+02 -0.34999032093E+02  0.50528857327E+02  0.29999992332E+02 0.  0.
        -12    1    1    2    0    0  0.18020431443E+02  0.10173381247E+02  0.34999032093E+02  0.40659142673E+02  0.00000000000E+00 0.  1.
         11    1    3    3    0    0  0.50788045223E+01  0.36874137715E+01 -0.71577278846E+01  0.95196819500E+01  0.51100000000E-03 0. -1.
        -11    1    3    3    0    0 -0.46036745229E+01 -0.86126763983E+01 -0.44532594377E+01  0.10733290909E+02  0.51100000000E-03 0.  1.
         12    1    3    3    0    0 -0.18495561443E+02 -0.52481186198E+01 -0.23388044771E+02  0.30275884469E+02  0.00000000000E+00 0. -1.
</event>
<event>
 7    1  0.5714431E-011  0.5052886E+02  0.7816164E-02  0.1300439E+00
        -11   -1    0    0    0    0  0.00000000000E+00  0.00000000000E+00  0.45593999997E+02  0.45594000000E+02  0.51100000000E-03 0.  1.
         11   -1    0    0    0    0 -0.00000000000E+00 -0.00000000000E+00 -0.45593999997E+02  0.45594000000E+02  0.51100000000E-03 0. -1.
    9900012    2    1    2    0    0 -0.34818918231E+02  0.16762315613E+02 -0.12642519485E+02  0.50528860924E+02  0.30000003265E+02 0.  0.
        -12    1    1    2    0    0  0.34818918231E+02 -0.16762315613E+02  0.12642519485E+02  0.40659139076E+02  0.00000000000E+00 0.  1.
         11    1    3    3    0    0 -0.16999104206E+02  0.19033685583E+02 -0.16950955041E+01  0.25575849541E+02  0.51100000000E-03 0. -1.
        -11    1    3    3    0    0 -0.14590977768E+02 -0.62680544601E+01 -0.41160069021E+01  0.16405080067E+02  0.51100000000E-03 0.  1.
        -12    1    3    3    0    0 -0.32288362566E+01  0.39966844897E+01 -0.68314170786E+01  0.85479313160E+01  0.00000000000E+00 0.  1.
</event>
<event>
 7    1  0.5714431E-011  0.5052880E+02  0.7816164E-02  0.1300439E+00
        -11   -1    0    0    0    0  0.00000000000E+00  0.00000000000E+00  0.45593999997E+02  0.45594000000E+02  0.51100000000E-03 0. -1.
         11   -1    0    0    0    0 -0.00000000000E+00 -0.00000000000E+00 -0.45593999997E+02  0.45594000000E+02  0.51100000000E-03 0.  1.
    9900012    2    1    2    0    0  0.11541838220E+02  0.26509463701E+02  0.28586799420E+02  0.50528796905E+02  0.29999808673E+02 0.  0.
        -12    1    1    2    0    0 -0.11541838220E+02 -0.26509463701E+02 -0.28586799420E+02  0.40659203095E+02  0.00000000000E+00 0.  1.
         11    1    3    3    0    0 -0.59438720180E+01  0.11460560403E+02  0.20191548677E+01  0.13067174368E+02  0.51100000000E-03 0. -1.
        -11    1    3    3    0    0  0.14023719061E+02  0.80853797867E+01  0.24585905612E+02  0.29436453890E+02  0.51100000000E-03 0.  1.
        -12    1    3    3    0    0  0.34619911767E+01  0.69635235107E+01  0.19817389406E+01  0.80251686475E+01  0.00000000000E+00 0.  1.
</event>
<event>
 7    1  0.5714431E-011  0.5052884E+02  0.7816164E-02  0.1300439E+00
        -11   -1    0    0    0    0  0.00000000000E+00  0.00000000000E+00  0.45593999997E+02  0.45594000000E+02  0.51100000000E-03 0. -1.
         11   -1    0    0    0    0 -0.00000000000E+00 -0.00000000000E+00 -0.45593999997E+02  0.45594000000E+02  0.51100000000E-03 0.  1.
    9900012    2    1    2    0    0 -0.35884368410E+02 -0.16220201705E+02 -0.10118508021E+02  0.50528843047E+02  0.29999948927E+02 0.  0.
        -12    1    1    2    0    0  0.35884368410E+02  0.16220201705E+02  0.10118508021E+02  0.40659156953E+02  0.00000000000E+00 0.  1.
         11    1    3    3    0    0  0.24149475381E+01 -0.56703866043E+01 -0.33945094825E+01  0.70361886516E+01  0.51100000000E-03 0.  1.
        -11    1    3    3    0    0 -0.79374931905E+01  0.50334705066E+00  0.46798161603E+01  0.92281003440E+01  0.51100000000E-03 0. -1.
         12    1    3    3    0    0 -0.30361822757E+02 -0.11053162151E+02 -0.11403814699E+02  0.34264554052E+02  0.00000000000E+00 0. -1.
</event>
<event>
 7    1  0.5714431E-011  0.5052886E+02  0.7816164E-02  0.1300439E+00
        -11   -1    0    0    0    0  0.00000000000E+00  0.00000000000E+00  0.45593999997E+02  0.45594000000E+02  0.51100000000E-03 0.  1.
         11   -1    0    0    0    0 -0.00000000000E+00 -0.00000000000E+00 -0.45593999997E+02  0.45594000000E+02  0.51100000000E-03 0. -1.
    9900012    2    1    2    0    0 -0.33068511365E+02 -0.21451620331E+02  0.99733098296E+01  0.50528863663E+02  0.30000011590E+02 0.  0.
        -12    1    1    2    0    0  0.33068511365E+02  0.21451620331E+02 -0.99733098296E+01  0.40659136337E+02  0.00000000000E+00 0.  1.
         11    1    3    3    0    0 -0.22854534694E+02 -0.10520074825E+02  0.94915888022E+01  0.26890369812E+02  0.51100000000E-03 0. -1.
        -11    1    3    3    0    0 -0.99821227010E+00 -0.44634726422E+01  0.86117475006E+01  0.97509594933E+01  0.51100000000E-03 0.  1.
        -12    1    3    3    0    0 -0.92157644015E+01 -0.64680728635E+01 -0.81300264732E+01  0.13887534357E+02  0.00000000000E+00 0.  1.
</event>
<event>
 7    1  0.5714431E-011  0.5052886E+02  0.7816164E-02  0.1300439E+00
        -11   -1    0    0    0    0  0.00000000000E+00  0.00000000000E+00  0.45593999997E+02  0.45594000000E+02  0.51100000000E-03 0.  1.
         11   -1    0    0    0    0 -0.00000000000E+00 -0.00000000000E+00 -0.45593999997E+02  0.45594000000E+02  0.51100000000E-03 0. -1.
    9900012    2    1    2    0    0 -0.22307255499E+02  0.28155810678E+02 -0.19047367468E+02  0.50528861664E+02  0.30000005512E+02 0.  0.
        -12    1    1    2    0    0  0.22307255499E+02 -0.28155810678E+02  0.19047367468E+02  0.40659138336E+02  0.00000000000E+00 0.  1.
         11    1    3    3    0    0 -0.11962670581E+02  0.69781784010E+01 -0.55805838000E+01  0.14931288525E+02  0.51100000000E-03 0. -1.
        -11    1    3    3    0    0 -0.60697373305E+01  0.21836704811E+02 -0.13192453166E+01  0.22702946873E+02  0.51100000000E-03 0.  1.
        -12    1    3    3    0    0 -0.42748475874E+01 -0.65907253457E+00 -0.12147538352E+02  0.12894626265E+02  0.00000000000E+00 0.  1.
</event>
<event>
 7    1  0.5714431E-011  0.5052884E+02  0.7816164E-02  0.1300439E+00
        -11   -1    0    0    0    0  0.00000000000E+00  0.00000000000E+00  0.45593999997E+02  0.45594000000E+02  0.51100000000E-03 0.  1.
         11   -1    0    0    0    0 -0.00000000000E+00 -0.00000000000E+00 -0.45593999997E+02  0.45594000000E+02  0.51100000000E-03 0. -1.
    9900012    2    1    2    0    0  0.30441857113E+02  0.23767031993E+02 -0.12711754540E+02  0.50528841404E+02  0.29999943932E+02 0.  0.
        -12    1    1    2    0    0 -0.30441857113E+02 -0.23767031993E+02  0.12711754540E+02  0.40659158596E+02  0.00000000000E+00 0.  1.
         11    1    3    3    0    0  0.18239494931E+02  0.12760260562E+02 -0.18229907233E+02  0.28772086176E+02  0.51100000000E-03 0. -1.
        -11    1    3    3    0    0  0.12794446779E+02  0.37450608745E+01  0.56268539307E+01  0.14470135962E+02  0.51100000000E-03 0.  1.
        -12    1    3    3    0    0 -0.59208459664E+00  0.72617105559E+01 -0.10870123772E+00  0.72866192659E+01  0.00000000000E+00 0.  1.
</event>
<event>
 7    1  0.5714431E-011  0.5052887E+02  0.7816164E-02  0.1300439E+00
        -11   -1    0    0    0    0  0.00000000000E+00  0.00000000000E+00  0.45593999997E+02  0.45594000000E+02  0.51100000000E-03 0.  1.
         11   -1    0    0    0    0 -0.00000000000E+00 -0.00000000000E+00 -0.45593999997E+02  0.45594000000E+02  0.51100000000E-03 0. -1.
    9900012    2    1    2    0    0 -0.14226169863E+02 -0.20842611017E+02 -0.31880503675E+02  0.50528869936E+02  0.30000030656E+02 0.  0.
        -12    1    1    2    0    0  0.14226169863E+02  0.20842611017E+02  0.31880503675E+02  0.40659130064E+02  0.00000000000E+00 0.  1.
         11    1    3    3    0    0 -0.12940594027E+02 -0.67514200318E+01 -0.21533267725E+02  0.26013886011E+02  0.51100000000E-03 0. -1.
        -11    1    3    3    0    0 -0.28698230576E+01 -0.16434696075E+02 -0.34170639088E+01  0.17029722413E+02  0.51100000000E-03 0.  1.
         12    1    3    3    0    0  0.15842472219E+01  0.23435050893E+01 -0.69301720415E+01  0.74852615110E+01  0.00000000000E+00 0. -1.
</event>
<event>
 7    1  0.5714431E-011  0.5052885E+02  0.7816164E-02  0.1300439E+00
        -11   -1    0    0    0    0  0.00000000000E+00  0.00000000000E+00  0.45593999997E+02  0.45594000000E+02  0.51100000000E-03 0.  1.
         11   -1    0    0    0    0 -0.00000000000E+00 -0.00000000000E+00 -0.45593999997E+02  0.45594000000E+02  0.51100000000E-03 0. -1.
    9900012    2    1    2    0    0 -0.28951335836E+02 -0.21493977251E+02 -0.18788168118E+02  0.50528853846E+02  0.29999981750E+02 0.  0.
        -12    1    1    2    0    0  0.28951335836E+02  0.21493977251E+02  0.18788168118E+02  0.40659146154E+02  0.00000000000E+00 0.  1.
         11    1    3    3    0    0 -0.12679966005E+02 -0.88834368797E+01 -0.96510837456E+01  0.18243914230E+02  0.51100000000E-03 0. -1.
        -11    1    3    3    0    0 -0.38798153386E+01  0.65863099272E+01  0.86609591368E-01  0.76446024750E+01  0.51100000000E-03 0.  1.
        -12    1    3    3    0    0 -0.12391554492E+02 -0.19196850299E+02 -0.92236939636E+01  0.24640337141E+02  0.00000000000E+00 0.  1.
</event>
<event>
 7    1  0.5714431E-011  0.5052885E+02  0.7816164E-02  0.1300439E+00
        -11   -1    0    0    0    0  0.00000000000E+00  0.00000000000E+00  0.45593999997E+02  0.45594000000E+02  0.51100000000E-03 0.  1.
         11   -1    0    0    0    0 -0.00000000000E+00 -0.00000000000E+00 -0.45593999997E+02  0.45594000000E+02  0.51100000000E-03 0. -1.
    9900012    2    1    2    0    0  0.18909915998E+02 -0.31858436502E+02 -0.16751759847E+02  0.50528851492E+02  0.29999974597E+02 0.  0.
        -12    1    1    2    0    0 -0.18909915998E+02  0.31858436502E+02  0.16751759847E+02  0.40659148508E+02  0.00000000000E+00 0.  1.
         11    1    3    3    0    0  0.13752578429E+02  0.75984243717E+00 -0.77767169806E+01  0.15817335466E+02  0.51100000000E-03 0. -1.
        -11    1    3    3    0    0  0.21660565675E+01 -0.27102083070E+02 -0.81417757066E+01  0.28381388615E+02  0.51100000000E-03 0.  1.
         12    1    3    3    0    0  0.29912810015E+01 -0.55161958689E+01 -0.83326715992E+00  0.63301274122E+01  0.00000000000E+00 0. -1.
</event>
<event>
 7    1  0.5714431E-011  0.5052886E+02  0.7816164E-02  0.1300439E+00
        -11   -1    0    0    0    0  0.00000000000E+00  0.00000000000E+00  0.45593999997E+02  0.45594000000E+02  0.51100000000E-03 0.  1.
         11   -1    0    0    0    0 -0.00000000000E+00 -0.00000000000E+00 -0.45593999997E+02  0.45594000000E+02  0.51100000000E-03 0. -1.
    9900012    2    1    2    0    0  0.18292960942E+02 -0.15606791755E+02 -0.32786600235E+02  0.50528861742E+02  0.30000005751E+02 0.  0.
        -12    1    1    2    0    0 -0.18292960942E+02  0.15606791755E+02  0.32786600235E+02  0.40659138258E+02  0.00000000000E+00 0.  1.
         11    1    3    3    0    0  0.11955810224E+02 -0.16429018210E+02 -0.45843128682E+01  0.20829545415E+02  0.51100000000E-03 0. -1.
        -11    1    3    3    0    0  0.52698795633E+01  0.66760815297E+00 -0.88841998064E+01  0.10351151517E+02  0.51100000000E-03 0.  1.
         12    1    3    3    0    0  0.10672711552E+01  0.15461830220E+00 -0.19318087561E+02  0.19348164811E+02  0.00000000000E+00 0. -1.
</event>
<event>
 7    1  0.5714431E-011  0.5052886E+02  0.7816164E-02  0.1300439E+00
        -11   -1    0    0    0    0  0.00000000000E+00  0.00000000000E+00  0.45593999997E+02  0.45594000000E+02  0.51100000000E-03 0.  1.
         11   -1    0    0    0    0 -0.00000000000E+00 -0.00000000000E+00 -0.45593999997E+02  0.45594000000E+02  0.51100000000E-03 0. -1.
    9900012    2    1    2    0    0  0.31306595117E+02  0.19409601589E+02 -0.17214253633E+02  0.50528855151E+02  0.29999985717E+02 0.  0.
        -12    1    1    2    0    0 -0.31306595117E+02 -0.19409601589E+02  0.17214253633E+02  0.40659144849E+02  0.00000000000E+00 0.  1.
         11    1    3    3    0    0  0.15140223895E+02  0.15917516015E+02 -0.20087449447E+02  0.29767420466E+02  0.51100000000E-03 0. -1.
        -11    1    3    3    0    0  0.64280585333E+01 -0.19465374516E+01  0.61805704804E+01  0.91273433310E+01  0.51100000000E-03 0.  1.
         12    1    3    3    0    0  0.97383126887E+01  0.54386230257E+01 -0.33073746669E+01  0.11634091354E+02  0.00000000000E+00 0. -1.
</event>
<event>
 7    1  0.5714431E-011  0.5052888E+02  0.7816164E-02  0.1300439E+00
        -11   -1    0    0    0    0  0.00000000000E+00  0.00000000000E+00  0.45593999997E+02  0.45594000000E+02  0.51100000000E-03 0. -1.
         11   -1    0    0    0    0 -0.00000000000E+00 -0.00000000000E+00 -0.45593999997E+02  0.45594000000E+02  0.51100000000E-03 0.  1.
    9900012    2    1    2    0    0  0.60115706893E+01  0.15786389127E+02  0.36983983450E+02  0.50528879305E+02  0.30000059137E+02 0.  0.
        -12    1    1    2    0    0 -0.60115706893E+01 -0.15786389127E+02 -0.36983983450E+02  0.40659120695E+02  0.00000000000E+00 0.  1.
         11    1    3    3    0    0  0.10343129198E+02 -0.17103671698E+01  0.14414792730E+02  0.17823914474E+02  0.51100000000E-03 0. -1.
        -11    1    3    3    0    0 -0.95407716623E+01  0.69352474913E+01  0.12781041190E+02  0.17391923293E+02  0.51100000000E-03 0.  1.
        -12    1    3    3    0    0  0.52092131539E+01  0.10561508806E+02  0.97881495296E+01  0.15313041538E+02  0.00000000000E+00 0.  1.
</event>
<event>
 7    1  0.5714431E-011  0.5052886E+02  0.7816164E-02  0.1300439E+00
        -11   -1    0    0    0    0  0.00000000000E+00  0.00000000000E+00  0.45593999997E+02  0.45594000000E+02  0.51100000000E-03 0.  1.
         11   -1    0    0    0    0 -0.00000000000E+00 -0.00000000000E+00 -0.45593999997E+02  0.45594000000E+02  0.51100000000E-03 0. -1.
    9900012    2    1    2    0    0  0.56856317243E+00 -0.47396571048E+01 -0.40377938643E+02  0.50528861511E+02  0.30000005050E+02 0.  0.
        -12    1    1    2    0    0 -0.56856317243E+00  0.47396571048E+01  0.40377938643E+02  0.40659138489E+02  0.00000000000E+00 0.  1.
         11    1    3    3    0    0  0.13310960561E+02 -0.75964224294E+01 -0.18748202214E+02  0.24215333806E+02  0.51100000000E-03 0. -1.
        -11    1    3    3    0    0 -0.89507698764E+01  0.46890950684E+01 -0.11303182844E+02  0.15161327007E+02  0.51100000000E-03 0.  1.
         12    1    3    3    0    0 -0.37916275125E+01 -0.18323297438E+01 -0.10326553585E+02  0.11152200699E+02  0.00000000000E+00 0. -1.
</event>
<event>
 7    1  0.5714431E-011  0.5052898E+02  0.7816164E-02  0.1300438E+00
        -11   -1    0    0    0    0  0.00000000000E+00  0.00000000000E+00  0.45593999997E+02  0.45594000000E+02  0.51100000000E-03 0.  1.
         11   -1    0    0    0    0 -0.00000000000E+00 -0.00000000000E+00 -0.45593999997E+02  0.45594000000E+02  0.51100000000E-03 0. -1.
    9900012    2    1    2    0    0 -0.39237405498E+01 -0.22315364451E+01 -0.40407673504E+02  0.50528984114E+02  0.30000377712E+02 0.  0.
        -12    1    1    2    0    0  0.39237405498E+01  0.22315364451E+01  0.40407673504E+02  0.40659015886E+02  0.00000000000E+00 0.  1.
         11    1    3    3    0    0 -0.31110620341E-01  0.63634412880E+01 -0.13587785710E+02  0.15004075235E+02  0.51100000000E-03 0. -1.
        -11    1    3    3    0    0 -0.69915005921E-01 -0.15124582243E+02 -0.13843116006E+02  0.20503407940E+02  0.51100000000E-03 0.  1.
        -12    1    3    3    0    0 -0.38227149236E+01  0.65296045100E+01 -0.12976771788E+02  0.15021500940E+02  0.00000000000E+00 0.  1.
</event>
<event>
 7    1  0.5714431E-011  0.5052886E+02  0.7816164E-02  0.1300439E+00
        -11   -1    0    0    0    0  0.00000000000E+00  0.00000000000E+00  0.45593999997E+02  0.45594000000E+02  0.51100000000E-03 0.  1.
         11   -1    0    0    0    0 -0.00000000000E+00 -0.00000000000E+00 -0.45593999997E+02  0.45594000000E+02  0.51100000000E-03 0. -1.
    9900012    2    1    2    0    0  0.23075383674E+02  0.24573468060E+02 -0.22734049470E+02  0.50528859951E+02  0.30000000308E+02 0.  0.
        -12    1    1    2    0    0 -0.23075383674E+02 -0.24573468060E+02  0.22734049470E+02  0.40659140049E+02  0.00000000000E+00 0.  1.
         11    1    3    3    0    0  0.23371913555E+01  0.19851171092E+02 -0.18150593298E+01  0.20070523107E+02  0.51100000000E-03 0.  1.
        -11    1    3    3    0    0  0.11803302035E+02  0.33622639101E+01 -0.16011785339E+02  0.20174241684E+02  0.51100000000E-03 0. -1.
         12    1    3    3    0    0  0.89348902838E+01  0.13600330581E+01 -0.49072048011E+01  0.10284095160E+02  0.00000000000E+00 0. -1.
</event>
<event>
 7    1  0.5714431E-011  0.5052885E+02  0.7816164E-02  0.1300439E+00
        -11   -1    0    0    0    0  0.00000000000E+00  0.00000000000E+00  0.45593999997E+02  0.45594000000E+02  0.51100000000E-03 0.  1.
         11   -1    0    0    0    0 -0.00000000000E+00 -0.00000000000E+00 -0.45593999997E+02  0.45594000000E+02  0.51100000000E-03 0. -1.
    9900012    2    1    2    0    0 -0.32449795993E+02  0.15001981557E+02 -0.19367954026E+02  0.50528851536E+02  0.29999974730E+02 0.  0.
        -12    1    1    2    0    0  0.32449795993E+02 -0.15001981557E+02  0.19367954026E+02  0.40659148464E+02  0.00000000000E+00 0.  1.
         11    1    3    3    0    0 -0.23620244010E+02  0.92477616156E+01 -0.21075856307E+02  0.32979216809E+02  0.51100000000E-03 0. -1.
        -11    1    3    3    0    0 -0.70072729744E+01  0.43369028411E+01  0.76069160759E+01  0.11214979859E+02  0.51100000000E-03 0.  1.
         12    1    3    3    0    0 -0.18222790083E+01  0.14173171003E+01 -0.58990137953E+01  0.63346548686E+01  0.00000000000E+00 0. -1.
</event>
<event>
 7    1  0.5714431E-011  0.5052886E+02  0.7816164E-02  0.1300439E+00
        -11   -1    0    0    0    0  0.00000000000E+00  0.00000000000E+00  0.45593999997E+02  0.45594000000E+02  0.51100000000E-03 0. -1.
         11   -1    0    0    0    0 -0.00000000000E+00 -0.00000000000E+00 -0.45593999997E+02  0.45594000000E+02  0.51100000000E-03 0.  1.
    9900012    2    1    2    0    0 -0.16764378687E+02 -0.50687181946E+01  0.36693723915E+02  0.50528859925E+02  0.30000000227E+02 0.  0.
        -12    1    1    2    0    0  0.16764378687E+02  0.50687181946E+01 -0.36693723915E+02  0.40659140075E+02  0.00000000000E+00 0.  1.
         11    1    3    3    0    0 -0.34075035647E+01 -0.16459793648E+02  0.21447222638E+02  0.27249206348E+02  0.51100000000E-03 0. -1.
        -11    1    3    3    0    0 -0.48815476108E+01  0.36848026056E+01  0.58548340907E+01  0.84667797780E+01  0.51100000000E-03 0.  1.
         12    1    3    3    0    0 -0.84753275110E+01  0.77062728476E+01  0.93916671870E+01  0.14812873799E+02  0.00000000000E+00 0. -1.
</event>
<event>
 7    1  0.5714431E-011  0.5052886E+02  0.7816164E-02  0.1300439E+00
        -11   -1    0    0    0    0  0.00000000000E+00  0.00000000000E+00  0.45593999997E+02  0.45594000000E+02  0.51100000000E-03 0.  1.
         11   -1    0    0    0    0 -0.00000000000E+00 -0.00000000000E+00 -0.45593999997E+02  0.45594000000E+02  0.51100000000E-03 0. -1.
    9900012    2    1    2    0    0  0.23787652342E+02  0.11961806074E+01 -0.32952735278E+02  0.50528855711E+02  0.29999987421E+02 0.  0.
        -12    1    1    2    0    0 -0.23787652342E+02 -0.11961806074E+01  0.32952735278E+02  0.40659144289E+02  0.00000000000E+00 0.  1.
         11    1    3    3    0    0  0.53409688673E+01  0.63000062593E+00 -0.26409818325E+01  0.59914634715E+01  0.51100000000E-03 0. -1.
        -11    1    3    3    0    0  0.20305004673E+02  0.49861349625E+01 -0.32980824128E+02  0.39049833765E+02  0.51100000000E-03 0.  1.
        -12    1    3    3    0    0 -0.18583211983E+01 -0.44199549810E+01  0.26690706827E+01  0.54875584752E+01  0.00000000000E+00 0.  1.
</event>
<event>
 7    1  0.5714431E-011  0.5052886E+02  0.7816164E-02  0.1300439E+00
        -11   -1    0    0    0    0  0.00000000000E+00  0.00000000000E+00  0.45593999997E+02  0.45594000000E+02  0.51100000000E-03 0.  1.
         11   -1    0    0    0    0 -0.00000000000E+00 -0.00000000000E+00 -0.45593999997E+02  0.45594000000E+02  0.51100000000E-03 0. -1.
    9900012    2    1    2    0    0 -0.10421197701E+02  0.32859014137E+02 -0.21560370889E+02  0.50528858783E+02  0.29999996758E+02 0.  0.
        -12    1    1    2    0    0  0.10421197701E+02 -0.32859014137E+02  0.21560370889E+02  0.40659141217E+02  0.00000000000E+00 0.  1.
         11    1    3    3    0    0  0.49163478995E+01  0.15143724948E+02 -0.18764907380E+02  0.24609441912E+02  0.51100000000E-03 0. -1.
        -11    1    3    3    0    0 -0.12273164217E+02  0.62239100075E+01 -0.27141090131E+01  0.14026189920E+02  0.51100000000E-03 0.  1.
         12    1    3    3    0    0 -0.30643813840E+01  0.11491379182E+02 -0.81354495767E-01  0.11893226952E+02  0.00000000000E+00 0. -1.
</event>
<event>
 7    1  0.5714431E-011  0.5052885E+02  0.7816164E-02  0.1300439E+00
        -11   -1    0    0    0    0  0.00000000000E+00  0.00000000000E+00  0.45593999997E+02  0.45594000000E+02  0.51100000000E-03 0.  1.
         11   -1    0    0    0    0 -0.00000000000E+00 -0.00000000000E+00 -0.45593999997E+02  0.45594000000E+02  0.51100000000E-03 0. -1.
    9900012    2    1    2    0    0 -0.13843364930E+02 -0.10932336779E+02 -0.36633482563E+02  0.50528846236E+02  0.29999958620E+02 0.  0.
        -12    1    1    2    0    0  0.13843364930E+02  0.10932336779E+02  0.36633482563E+02  0.40659153764E+02  0.00000000000E+00 0.  1.
         11    1    3    3    0    0  0.89859993053E+00 -0.76853317263E+01 -0.29892476183E+02  0.30877693213E+02  0.51100000000E-03 0. -1.
        -11    1    3    3    0    0 -0.38594801538E+01 -0.21558288493E+01  0.27194096459E+01  0.51902190867E+01  0.51100000000E-03 0.  1.
         12    1    3    3    0    0 -0.10882484707E+02 -0.10911762037E+01 -0.94604160265E+01  0.14460933936E+02  0.00000000000E+00 0. -1.
</event>
<event>
 7    1  0.5714431E-011  0.5052887E+02  0.7816164E-02  0.1300439E+00
        -11   -1    0    0    0    0  0.00000000000E+00  0.00000000000E+00  0.45593999997E+02  0.45594000000E+02  0.51100000000E-03 0.  1.
         11   -1    0    0    0    0 -0.00000000000E+00 -0.00000000000E+00 -0.45593999997E+02  0.45594000000E+02  0.51100000000E-03 0. -1.
    9900012    2    1    2    0    0  0.26866902090E+02 -0.98880259681E+01 -0.28871463928E+02  0.50528869232E+02  0.30000028517E+02 0.  0.
        -12    1    1    2    0    0 -0.26866902090E+02  0.98880259681E+01  0.28871463928E+02  0.40659130768E+02  0.00000000000E+00 0.  1.
         11    1    3    3    0    0  0.86391713522E+01  0.46606843864E+01 -0.16580257779E+02  0.19268165685E+02  0.51100000000E-03 0. -1.
        -11    1    3    3    0    0  0.40157551356E+01 -0.47586569574E+01  0.41034159114E+01  0.74571527912E+01  0.51100000000E-03 0.  1.
        -12    1    3    3    0    0  0.14211975602E+02 -0.97900533971E+01 -0.16394622061E+02  0.23803550755E+02  0.00000000000E+00 0.  1.
</event>
<event>
 7    1  0.5714431E-011  0.5052886E+02  0.7816164E-02  0.1300439E+00
        -11   -1    0    0    0    0  0.00000000000E+00  0.00000000000E+00  0.45593999997E+02  0.45594000000E+02  0.51100000000E-03 0. -1.
         11   -1    0    0    0    0 -0.00000000000E+00 -0.00000000000E+00 -0.45593999997E+02  0.45594000000E+02  0.51100000000E-03 0.  1.
    9900012    2    1    2    0    0  0.22128525613E+02  0.42692015843E+01  0.33841810107E+02  0.50528857863E+02  0.29999993961E+02 0.  0.
        -12    1    1    2    0    0 -0.22128525613E+02 -0.42692015843E+01 -0.33841810107E+02  0.40659142137E+02  0.00000000000E+00 0.  1.
         11    1    3    3    0    0  0.23688224159E+02  0.90052118728E+01  0.26533702090E+02  0.36691458836E+02  0.51100000000E-03 0. -1.
        -11    1    3    3    0    0  0.20435661905E+01 -0.71029223990E+01  0.40054530536E+01  0.84066238055E+01  0.51100000000E-03 0.  1.
         12    1    3    3    0    0 -0.36032647363E+01  0.23669121105E+01  0.33026549642E+01  0.54307752219E+01  0.00000000000E+00 0. -1.
</event>
<event>
 7    1  0.6619660E-011  0.5052886E+02  0.7816164E-02  0.1300439E+00
        -11   -1    0    0    0    0  0.00000000000E+00  0.00000000000E+00  0.45593999997E+02  0.45594000000E+02  0.51100000000E-03 0.  1.
         11   -1    0    0    0    0 -0.00000000000E+00 -0.00000000000E+00 -0.45593999997E+02  0.45594000000E+02  0.51100000000E-03 0. -1.
    9900012    2    1    2    0    0  0.37040953065E+02  0.16224939469E+02 -0.42290405245E+01  0.50528860209E+02  0.30000001093E+02 0.  0.
        -12    1    1    2    0    0 -0.37040953065E+02 -0.16224939469E+02  0.42290405245E+01  0.40659139791E+02  0.00000000000E+00 0.  1.
         11    1    3    3    0    0  0.34177666609E+02  0.12537429237E+02 -0.78047331861E+01  0.37231893413E+02  0.51100000000E-03 0. -1.
        -11    1    3    3    0    0  0.22164487675E+01  0.80721542085E+01  0.24986609957E+01  0.87358815089E+01  0.51100000000E-03 0.  1.
         12    1    3    3    0    0  0.64683768844E+00 -0.43846439764E+01  0.10770316658E+01  0.45610852879E+01  0.00000000000E+00 0. -1.
</event>
<event>
 7    1  0.5714431E-011  0.5052885E+02  0.7816164E-02  0.1300439E+00
        -11   -1    0    0    0    0  0.00000000000E+00  0.00000000000E+00  0.45593999997E+02  0.45594000000E+02  0.51100000000E-03 0.  1.
         11   -1    0    0    0    0 -0.00000000000E+00 -0.00000000000E+00 -0.45593999997E+02  0.45594000000E+02  0.51100000000E-03 0. -1.
    9900012    2    1    2    0    0  0.28816934659E+01  0.11041827765E+01 -0.40541864464E+02  0.50528854029E+02  0.29999982307E+02 0.  0.
        -12    1    1    2    0    0 -0.28816934659E+01 -0.11041827765E+01  0.40541864464E+02  0.40659145971E+02  0.00000000000E+00 0.  1.
         11    1    3    3    0    0 -0.10718991111E+00  0.61615332821E+01 -0.80588092318E+01  0.10144968633E+02  0.51100000000E-03 0. -1.
        -11    1    3    3    0    0 -0.68625139563E+01 -0.10098570614E+02 -0.12095304360E+02  0.17186378736E+02  0.51100000000E-03 0.  1.
        -12    1    3    3    0    0  0.98513973333E+01  0.50412201087E+01 -0.20387750873E+02  0.23197506660E+02  0.00000000000E+00 0.  1.
</event>
<event>
 7    1  0.5714431E-011  0.5052901E+02  0.7816164E-02  0.1300438E+00
        -11   -1    0    0    0    0  0.00000000000E+00  0.00000000000E+00  0.45593999997E+02  0.45594000000E+02  0.51100000000E-03 0. -1.
         11   -1    0    0    0    0 -0.00000000000E+00 -0.00000000000E+00 -0.45593999997E+02  0.45594000000E+02  0.51100000000E-03 0.  1.
    9900012    2    1    2    0    0 -0.13134471563E+02 -0.37786602246E+02  0.72671861020E+01  0.50529007804E+02  0.30000449718E+02 0.  0.
        -12    1    1    2    0    0  0.13134471563E+02  0.37786602246E+02 -0.72671861020E+01  0.40658992196E+02  0.00000000000E+00 0.  1.
         11    1    3    3    0    0  0.53216757240E+01 -0.87804765755E+00  0.24102277375E+01  0.59076558979E+01  0.51100000000E-03 0.  1.
        -11    1    3    3    0    0 -0.16713705976E+02 -0.16524018961E+02 -0.36776508767E+00  0.23505880573E+02  0.51100000000E-03 0. -1.
         12    1    3    3    0    0 -0.17424413109E+01 -0.20384535628E+02  0.52247234521E+01  0.21115471334E+02  0.00000000000E+00 0. -1.
</event>
<event>
 7    1  0.5714431E-011  0.5052883E+02  0.7816164E-02  0.1300439E+00
        -11   -1    0    0    0    0  0.00000000000E+00  0.00000000000E+00  0.45593999997E+02  0.45594000000E+02  0.51100000000E-03 0. -1.
         11   -1    0    0    0    0 -0.00000000000E+00 -0.00000000000E+00 -0.45593999997E+02  0.45594000000E+02  0.51100000000E-03 0.  1.
    9900012    2    1    2    0    0 -0.35629384101E+02  0.73206650727E+01  0.18169295849E+02  0.50528825634E+02  0.29999895996E+02 0.  0.
        -12    1    1    2    0    0  0.35629384101E+02 -0.73206650727E+01 -0.18169295849E+02  0.40659174366E+02  0.00000000000E+00 0.  1.
         11    1    3    3    0    0 -0.28434370494E+01  0.25734395302E+01  0.75795327079E+01  0.84945300989E+01  0.51100000000E-03 0. -1.
        -11    1    3    3    0    0 -0.25467673217E+02  0.10388971998E+02 -0.61340748437E+00  0.27511986248E+02  0.51100000000E-03 0.  1.
        -12    1    3    3    0    0 -0.73182738340E+01 -0.56417464552E+01  0.11203170625E+02  0.14522309287E+02  0.00000000000E+00 0.  1.
</event>
<event>
 7    1  0.5714431E-011  0.5052886E+02  0.7816164E-02  0.1300439E+00
        -11   -1    0    0    0    0  0.00000000000E+00  0.00000000000E+00  0.45593999997E+02  0.45594000000E+02  0.51100000000E-03 0.  1.
         11   -1    0    0    0    0 -0.00000000000E+00 -0.00000000000E+00 -0.45593999997E+02  0.45594000000E+02  0.51100000000E-03 0. -1.
    9900012    2    1    2    0    0 -0.16736752328E+02 -0.13943733833E+01 -0.37028403210E+02  0.50528858347E+02  0.29999995432E+02 0.  0.
        -12    1    1    2    0    0  0.16736752328E+02  0.13943733833E+01  0.37028403210E+02  0.40659141653E+02  0.00000000000E+00 0.  1.
         11    1    3    3    0    0 -0.15480051247E+02  0.63928938920E+01 -0.32281121662E+02  0.36367181564E+02  0.51100000000E-03 0. -1.
        -11    1    3    3    0    0  0.25556878542E+01 -0.84320386484E+01 -0.52596906992E+01  0.10261343123E+02  0.51100000000E-03 0.  1.
         12    1    3    3    0    0 -0.38123889356E+01  0.64477137307E+00  0.51240915072E+00  0.39003336598E+01  0.00000000000E+00 0. -1.
</event>
<event>
 7    1  0.5714431E-011  0.5052887E+02  0.7816164E-02  0.1300439E+00
        -11   -1    0    0    0    0  0.00000000000E+00  0.00000000000E+00  0.45593999997E+02  0.45594000000E+02  0.51100000000E-03 0. -1.
         11   -1    0    0    0    0 -0.00000000000E+00 -0.00000000000E+00 -0.45593999997E+02  0.45594000000E+02  0.51100000000E-03 0.  1.
    9900012    2    1    2    0    0  0.33204732777E+02  0.10898080694E+02  0.20780811574E+02  0.50528873457E+02  0.30000041359E+02 0.  0.
        -12    1    1    2    0    0 -0.33204732777E+02 -0.10898080694E+02 -0.20780811574E+02  0.40659126543E+02  0.00000000000E+00 0.  1.
         11    1    3    3    0    0  0.25962387014E+02  0.76570583281E+01  0.24794464541E+02  0.36707513589E+02  0.51100000000E-03 0. -1.
        -11    1    3    3    0    0  0.69538321748E+01 -0.24138059874E+01 -0.10653104426E+01  0.74375485114E+01  0.51100000000E-03 0.  1.
         12    1    3    3    0    0  0.28851358748E+00  0.56548283531E+01 -0.29483425243E+01  0.63838113564E+01  0.00000000000E+00 0. -1.
</event>
<event>
 7    1  0.5714431E-011  0.5052887E+02  0.7816164E-02  0.1300439E+00
        -11   -1    0    0    0    0  0.00000000000E+00  0.00000000000E+00  0.45593999997E+02  0.45594000000E+02  0.51100000000E-03 0.  1.
         11   -1    0    0    0    0 -0.00000000000E+00 -0.00000000000E+00 -0.45593999997E+02  0.45594000000E+02  0.51100000000E-03 0. -1.
    9900012    2    1    2    0    0 -0.97636319459E+01 -0.29245582691E+02 -0.26505324690E+02  0.50528869996E+02  0.30000030841E+02 0.  0.
        -12    1    1    2    0    0  0.97636319459E+01  0.29245582691E+02  0.26505324690E+02  0.40659130004E+02  0.00000000000E+00 0.  1.
         11    1    3    3    0    0 -0.10824470053E+02 -0.56766234083E+01 -0.86412714626E+01  0.14968793471E+02  0.51100000000E-03 0. -1.
        -11    1    3    3    0    0  0.93832916639E+01 -0.10207502972E+02 -0.13196540848E+02  0.19141263542E+02  0.51100000000E-03 0.  1.
         12    1    3    3    0    0 -0.83224535570E+01 -0.13361456311E+02 -0.46675123795E+01  0.16418812983E+02  0.00000000000E+00 0. -1.
</event>
<event>
 7    1  0.5714431E-011  0.5052886E+02  0.7816164E-02  0.1300439E+00
        -11   -1    0    0    0    0  0.00000000000E+00  0.00000000000E+00  0.45593999997E+02  0.45594000000E+02  0.51100000000E-03 0. -1.
         11   -1    0    0    0    0 -0.00000000000E+00 -0.00000000000E+00 -0.45593999997E+02  0.45594000000E+02  0.51100000000E-03 0.  1.
    9900012    2    1    2    0    0  0.39977973957E+02  0.51361995699E+01  0.53429170943E+01  0.50528859443E+02  0.29999998764E+02 0.  0.
        -12    1    1    2    0    0 -0.39977973957E+02 -0.51361995699E+01 -0.53429170943E+01  0.40659140557E+02  0.00000000000E+00 0.  1.
         11    1    3    3    0    0  0.25438868036E+02 -0.41970981053E+01  0.13226543558E+02  0.28977458381E+02  0.51100000000E-03 0. -1.
        -11    1    3    3    0    0  0.41529035826E+01  0.31020750634E+01 -0.78887374187E+01  0.94393673616E+01  0.51100000000E-03 0.  1.
         12    1    3    3    0    0  0.10386202338E+02  0.62312226118E+01  0.51109547966E-02  0.12112033701E+02  0.00000000000E+00 0. -1.
</event>
<event>
 7    1  0.5714431E-011  0.5052886E+02  0.7816164E-02  0.1300439E+00
        -11   -1    0    0    0    0  0.00000000000E+00  0.00000000000E+00  0.45593999997E+02  0.45594000000E+02  0.51100000000E-03 0. -1.
         11   -1    0    0    0    0 -0.00000000000E+00 -0.00000000000E+00 -0.45593999997E+02  0.45594000000E+02  0.51100000000E-03 0.  1.
    9900012    2    1    2    0    0 -0.38959087898E+01 -0.36256188620E+02 -0.17985456599E+02  0.50528856285E+02  0.29999989164E+02 0.  0.
        -12    1    1    2    0    0  0.38959087898E+01  0.36256188620E+02  0.17985456599E+02  0.40659143715E+02  0.00000000000E+00 0.  1.
         11    1    3    3    0    0  0.71631327675E+00 -0.79141021615E+01  0.29493207631E+00  0.79519244792E+01  0.51100000000E-03 0. -1.
        -11    1    3    3    0    0  0.23102440333E+01  0.33177036120E+01 -0.73266675850E+01  0.83680608813E+01  0.51100000000E-03 0.  1.
        -12    1    3    3    0    0 -0.69224660998E+01 -0.31659790071E+02 -0.10953721090E+02  0.34208870925E+02  0.00000000000E+00 0.  1.
</event>
<event>
 7    1  0.5714431E-011  0.5052886E+02  0.7816164E-02  0.1300439E+00
        -11   -1    0    0    0    0  0.00000000000E+00  0.00000000000E+00  0.45593999997E+02  0.45594000000E+02  0.51100000000E-03 0.  1.
         11   -1    0    0    0    0 -0.00000000000E+00 -0.00000000000E+00 -0.45593999997E+02  0.45594000000E+02  0.51100000000E-03 0. -1.
    9900012    2    1    2    0    0 -0.28548575008E+02 -0.18427709238E+02 -0.22328544368E+02  0.50528862081E+02  0.30000006781E+02 0.  0.
        -12    1    1    2    0    0  0.28548575008E+02  0.18427709238E+02  0.22328544368E+02  0.40659137919E+02  0.00000000000E+00 0.  1.
         11    1    3    3    0    0 -0.10846486329E+02 -0.10288253006E+02 -0.17848310693E+02  0.23282109236E+02  0.51100000000E-03 0. -1.
        -11    1    3    3    0    0 -0.68983301159E+01  0.44297001400E+01  0.34237778505E+01  0.88843377214E+01  0.51100000000E-03 0.  1.
        -12    1    3    3    0    0 -0.10803758563E+02 -0.12569156372E+02 -0.79040115251E+01  0.18362415124E+02  0.00000000000E+00 0.  1.
</event>
<event>
 7    1  0.5714431E-011  0.5052882E+02  0.7816164E-02  0.1300439E+00
        -11   -1    0    0    0    0  0.00000000000E+00  0.00000000000E+00  0.45593999997E+02  0.45594000000E+02  0.51100000000E-03 0. -1.
         11   -1    0    0    0    0 -0.00000000000E+00 -0.00000000000E+00 -0.45593999997E+02  0.45594000000E+02  0.51100000000E-03 0.  1.
    9900012    2    1    2    0    0  0.29518601498E+02 -0.21097000408E+02  0.18350411335E+02  0.50528820757E+02  0.29999881171E+02 0.  0.
        -12    1    1    2    0    0 -0.29518601498E+02  0.21097000408E+02 -0.18350411335E+02  0.40659179243E+02  0.00000000000E+00 0.  1.
         11    1    3    3    0    0  0.88793437041E+01 -0.33180451423E+01  0.19949262341E+02  0.22086766092E+02  0.51100000000E-03 0. -1.
        -11    1    3    3    0    0  0.14890462769E+02 -0.76548380316E+01 -0.13463545997E+01  0.16796877619E+02  0.51100000000E-03 0.  1.
         12    1    3    3    0    0  0.57487950244E+01 -0.10124117234E+02 -0.25249640634E+00  0.11645177046E+02  0.00000000000E+00 0. -1.
</event>
<event>
 7    1  0.5714431E-011  0.5052887E+02  0.7816164E-02  0.1300439E+00
        -11   -1    0    0    0    0  0.00000000000E+00  0.00000000000E+00  0.45593999997E+02  0.45594000000E+02  0.51100000000E-03 0. -1.
         11   -1    0    0    0    0 -0.00000000000E+00 -0.00000000000E+00 -0.45593999997E+02  0.45594000000E+02  0.51100000000E-03 0.  1.
    9900012    2    1    2    0    0 -0.31584641766E+01 -0.42988328760E+01  0.40307682992E+02  0.50528866115E+02  0.30000019044E+02 0.  0.
        -12    1    1    2    0    0  0.31584641766E+01  0.42988328760E+01 -0.40307682992E+02  0.40659133885E+02  0.00000000000E+00 0.  1.
         11    1    3    3    0    0  0.40333038620E+01 -0.24530214803E+00  0.34665584457E+02  0.34900293110E+02  0.51100000000E-03 0. -1.
        -11    1    3    3    0    0 -0.67471789567E+01  0.49022601842E+00 -0.17068415273E+01  0.69769659368E+01  0.51100000000E-03 0.  1.
         12    1    3    3    0    0 -0.44458908190E+00 -0.45437567464E+01  0.73489400626E+01  0.86516070684E+01  0.00000000000E+00 0. -1.
</event>
<event>
 7    1  0.5714431E-011  0.5052887E+02  0.7816164E-02  0.1300439E+00
        -11   -1    0    0    0    0  0.00000000000E+00  0.00000000000E+00  0.45593999997E+02  0.45594000000E+02  0.51100000000E-03 0.  1.
         11   -1    0    0    0    0 -0.00000000000E+00 -0.00000000000E+00 -0.45593999997E+02  0.45594000000E+02  0.51100000000E-03 0. -1.
    9900012    2    1    2    0    0  0.15887926357E+02 -0.37108440515E+02 -0.48685379540E+01  0.50528865439E+02  0.30000016990E+02 0.  0.
        -12    1    1    2    0    0 -0.15887926357E+02  0.37108440515E+02  0.48685379540E+01  0.40659134561E+02  0.00000000000E+00 0.  1.
         11    1    3    3    0    0  0.60688645596E+01 -0.29194158369E+02 -0.18931878730E+01  0.29878322586E+02  0.51100000000E-03 0. -1.
        -11    1    3    3    0    0  0.10813833482E+02  0.52632893091E+00  0.16860534039E+01  0.10957134346E+02  0.51100000000E-03 0.  1.
         12    1    3    3    0    0 -0.99477168490E+00 -0.84406110768E+01 -0.46614034849E+01  0.96934085080E+01  0.00000000000E+00 0. -1.
</event>
<event>
 7    1  0.5714431E-011  0.5052888E+02  0.7816164E-02  0.1300439E+00
        -11   -1    0    0    0    0  0.00000000000E+00  0.00000000000E+00  0.45593999997E+02  0.45594000000E+02  0.51100000000E-03 0. -1.
         11   -1    0    0    0    0 -0.00000000000E+00 -0.00000000000E+00 -0.45593999997E+02  0.45594000000E+02  0.51100000000E-03 0.  1.
    9900012    2    1    2    0    0  0.86922355175E+01 -0.74764239957E+00  0.39712092124E+02  0.50528878166E+02  0.30000055675E+02 0.  0.
        -12    1    1    2    0    0 -0.86922355175E+01  0.74764239957E+00 -0.39712092124E+02  0.40659121834E+02  0.00000000000E+00 0.  1.
         11    1    3    3    0    0  0.37057527912E+01 -0.53849232102E+01  0.35833165780E+02  0.36424521573E+02  0.51100000000E-03 0. -1.
        -11    1    3    3    0    0  0.84655538797E+01  0.10153882861E+01  0.27279224991E+01  0.89519929224E+01  0.51100000000E-03 0.  1.
         12    1    3    3    0    0 -0.34790711534E+01  0.36218925245E+01  0.11510038444E+01  0.51523636711E+01  0.00000000000E+00 0. -1.
</event>
<event>
 7    1  0.5714431E-011  0.5052886E+02  0.7816164E-02  0.1300439E+00
        -11   -1    0    0    0    0  0.00000000000E+00  0.00000000000E+00  0.45593999997E+02  0.45594000000E+02  0.51100000000E-03 0. -1.
         11   -1    0    0    0    0 -0.00000000000E+00 -0.00000000000E+00 -0.45593999997E+02  0.45594000000E+02  0.51100000000E-03 0.  1.
    9900012    2    1    2    0    0 -0.22005439474E+02  0.33625204587E+02 -0.61864174384E+01  0.50528861905E+02  0.30000006246E+02 0.  0.
        -12    1    1    2    0    0  0.22005439474E+02 -0.33625204587E+02  0.61864174384E+01  0.40659138095E+02  0.00000000000E+00 0.  1.
         11    1    3    3    0    0 -0.73997964016E+01 -0.16503303513E+00  0.57143274850E+01  0.93508160903E+01  0.51100000000E-03 0. -1.
        -11    1    3    3    0    0 -0.11767752998E+02  0.17814772417E+02 -0.12859556762E+02  0.24924171546E+02  0.51100000000E-03 0.  1.
         12    1    3    3    0    0 -0.28378900744E+01  0.15975465205E+02  0.95881183873E+00  0.16253874268E+02  0.00000000000E+00 0. -1.
</event>
<event>
 7    1  0.5714431E-011  0.5052887E+02  0.7816164E-02  0.1300439E+00
        -11   -1    0    0    0    0  0.00000000000E+00  0.00000000000E+00  0.45593999997E+02  0.45594000000E+02  0.51100000000E-03 0.  1.
         11   -1    0    0    0    0 -0.00000000000E+00 -0.00000000000E+00 -0.45593999997E+02  0.45594000000E+02  0.51100000000E-03 0. -1.
    9900012    2    1    2    0    0  0.26285942661E+02  0.25113465789E+02 -0.18207915096E+02  0.50528866738E+02  0.30000020937E+02 0.  0.
        -12    1    1    2    0    0 -0.26285942661E+02 -0.25113465789E+02  0.18207915096E+02  0.40659133262E+02  0.00000000000E+00 0.  1.
         11    1    3    3    0    0  0.16899772473E+01  0.61490234498E+01 -0.10032696628E+02  0.11887872576E+02  0.51100000000E-03 0. -1.
        -11    1    3    3    0    0  0.62304233047E+00  0.98390236087E+01  0.34951311991E+01  0.10459947881E+02  0.51100000000E-03 0.  1.
        -12    1    3    3    0    0  0.23972923083E+02  0.91254187301E+01 -0.11670349667E+02  0.28181046281E+02  0.00000000000E+00 0.  1.
</event>
<event>
 7    1  0.5714431E-011  0.5052887E+02  0.7816164E-02  0.1300439E+00
        -11   -1    0    0    0    0  0.00000000000E+00  0.00000000000E+00  0.45593999997E+02  0.45594000000E+02  0.51100000000E-03 0.  1.
         11   -1    0    0    0    0 -0.00000000000E+00 -0.00000000000E+00 -0.45593999997E+02  0.45594000000E+02  0.51100000000E-03 0. -1.
    9900012    2    1    2    0    0  0.23834120892E+02 -0.21055126895E+02 -0.25333399751E+02  0.50528870272E+02  0.30000031680E+02 0.  0.
        -12    1    1    2    0    0 -0.23834120892E+02  0.21055126895E+02  0.25333399751E+02  0.40659129728E+02  0.00000000000E+00 0.  1.
         11    1    3    3    0    0  0.21307608491E+02 -0.18319733285E+02 -0.26173028243E+02  0.38401226737E+02  0.51100000000E-03 0. -1.
        -11    1    3    3    0    0 -0.14204904635E+01 -0.54730239226E+01  0.34868231600E+01  0.66430203993E+01  0.51100000000E-03 0.  1.
         12    1    3    3    0    0  0.39470028640E+01  0.27376303123E+01 -0.26471946686E+01  0.54846231364E+01  0.00000000000E+00 0. -1.
</event>
<event>
 7    1  0.5714431E-011  0.5052887E+02  0.7816164E-02  0.1300439E+00
        -11   -1    0    0    0    0  0.00000000000E+00  0.00000000000E+00  0.45593999997E+02  0.45594000000E+02  0.51100000000E-03 0.  1.
         11   -1    0    0    0    0 -0.00000000000E+00 -0.00000000000E+00 -0.45593999997E+02  0.45594000000E+02  0.51100000000E-03 0. -1.
    9900012    2    1    2    0    0  0.29208231320E+01 -0.49002447609E+01 -0.40256938107E+02  0.50528872215E+02  0.30000037584E+02 0.  0.
        -12    1    1    2    0    0 -0.29208231320E+01  0.49002447609E+01  0.40256938107E+02  0.40659127785E+02  0.00000000000E+00 0.  1.
         11    1    3    3    0    0 -0.55130430996E+01 -0.11741325776E+02 -0.27844940442E+02  0.30717960278E+02  0.51100000000E-03 0. -1.
        -11    1    3    3    0    0  0.10444245465E+02  0.29439257646E+01 -0.73120105615E+01  0.13084894380E+02  0.51100000000E-03 0.  1.
        -12    1    3    3    0    0 -0.20103792331E+01  0.38971552501E+01 -0.50999871042E+01  0.67260175563E+01  0.00000000000E+00 0.  1.
</event>
<event>
 7    1  0.5714431E-011  0.5052885E+02  0.7816164E-02  0.1300439E+00
        -11   -1    0    0    0    0  0.00000000000E+00  0.00000000000E+00  0.45593999997E+02  0.45594000000E+02  0.51100000000E-03 0. -1.
         11   -1    0    0    0    0 -0.00000000000E+00 -0.00000000000E+00 -0.45593999997E+02  0.45594000000E+02  0.51100000000E-03 0.  1.
    9900012    2    1    2    0    0 -0.25437337935E+02  0.10782380394E+02  0.29830329708E+02  0.50528850247E+02  0.29999970810E+02 0.  0.
        -12    1    1    2    0    0  0.25437337935E+02 -0.10782380394E+02 -0.29830329708E+02  0.40659149753E+02  0.00000000000E+00 0.  1.
         11    1    3    3    0    0 -0.12716071579E+02 -0.12135814441E+01  0.55749440564E+01  0.13937404989E+02  0.51100000000E-03 0. -1.
        -11    1    3    3    0    0 -0.10554822292E+02  0.15447380455E+02  0.26104497790E+02  0.32116516649E+02  0.51100000000E-03 0.  1.
        -12    1    3    3    0    0 -0.21664440636E+01 -0.34514186174E+01 -0.18491121387E+01  0.44749286089E+01  0.00000000000E+00 0.  1.
</event>
<event>
 7    1  0.5714431E-011  0.5052886E+02  0.7816164E-02  0.1300439E+00
        -11   -1    0    0    0    0  0.00000000000E+00  0.00000000000E+00  0.45593999997E+02  0.45594000000E+02  0.51100000000E-03 0.  1.
         11   -1    0    0    0    0 -0.00000000000E+00 -0.00000000000E+00 -0.45593999997E+02  0.45594000000E+02  0.51100000000E-03 0. -1.
    9900012    2    1    2    0    0 -0.20907085695E+02 -0.99444464911E+01 -0.33424050163E+02  0.50528863541E+02  0.30000011219E+02 0.  0.
        -12    1    1    2    0    0  0.20907085695E+02  0.99444464911E+01  0.33424050163E+02  0.40659136459E+02  0.00000000000E+00 0.  1.
         11    1    3    3    0    0 -0.14428537701E+01 -0.12639348092E+02 -0.95572832031E+01  0.15911524430E+02  0.51100000000E-03 0. -1.
        -11    1    3    3    0    0 -0.20363257705E+02  0.17732464308E+01 -0.14255914483E+02  0.24920629311E+02  0.51100000000E-03 0.  1.
        -12    1    3    3    0    0  0.89902577928E+00  0.92165517040E+00 -0.96108524774E+01  0.96967098001E+01  0.00000000000E+00 0.  1.
</event>
<event>
 7    1  0.5714431E-011  0.5052887E+02  0.7816164E-02  0.1300439E+00
        -11   -1    0    0    0    0  0.00000000000E+00  0.00000000000E+00  0.45593999997E+02  0.45594000000E+02  0.51100000000E-03 0.  1.
         11   -1    0    0    0    0 -0.00000000000E+00 -0.00000000000E+00 -0.45593999997E+02  0.45594000000E+02  0.51100000000E-03 0. -1.
    9900012    2    1    2    0    0  0.10989754111E+02 -0.26733878177E+02 -0.28595275876E+02  0.50528871379E+02  0.30000035043E+02 0.  0.
        -12    1    1    2    0    0 -0.10989754111E+02  0.26733878177E+02  0.28595275876E+02  0.40659128621E+02  0.00000000000E+00 0.  1.
         11    1    3    3    0    0  0.12439758756E+02 -0.11270139017E+02 -0.12858247588E+02  0.21144695852E+02  0.51100000000E-03 0. -1.
        -11    1    3    3    0    0 -0.71118771282E+01 -0.12039942940E+02 -0.19856773315E+01  0.14123807455E+02  0.51100000000E-03 0.  1.
        -12    1    3    3    0    0  0.56618724834E+01 -0.34237962200E+01 -0.13751350957E+02  0.15260368073E+02  0.00000000000E+00 0.  1.
</event>
<event>
 7    1  0.5714431E-011  0.5052886E+02  0.7816164E-02  0.1300439E+00
        -11   -1    0    0    0    0  0.00000000000E+00  0.00000000000E+00  0.45593999997E+02  0.45594000000E+02  0.51100000000E-03 0.  1.
         11   -1    0    0    0    0 -0.00000000000E+00 -0.00000000000E+00 -0.45593999997E+02  0.45594000000E+02  0.51100000000E-03 0. -1.
    9900012    2    1    2    0    0 -0.32734140606E+01 -0.40506574509E+02 -0.12913923218E+01  0.50528861886E+02  0.30000006188E+02 0.  0.
        -12    1    1    2    0    0  0.32734140606E+01  0.40506574509E+02  0.12913923218E+01  0.40659138114E+02  0.00000000000E+00 0.  1.
         11    1    3    3    0    0 -0.32974890312E+00 -0.36435898600E+02  0.74166490853E+01  0.37184541479E+02  0.51100000000E-03 0. -1.
        -11    1    3    3    0    0 -0.17082288232E+01 -0.16181090315E+01  0.14886450485E+01  0.27843108468E+01  0.51100000000E-03 0.  1.
         12    1    3    3    0    0 -0.12354363342E+01 -0.24525668778E+01 -0.10196686456E+02  0.10560009560E+02  0.00000000000E+00 0. -1.
</event>
<event>
 7    1  0.5714431E-011  0.5052886E+02  0.7816164E-02  0.1300439E+00
        -11   -1    0    0    0    0  0.00000000000E+00  0.00000000000E+00  0.45593999997E+02  0.45594000000E+02  0.51100000000E-03 0.  1.
         11   -1    0    0    0    0 -0.00000000000E+00 -0.00000000000E+00 -0.45593999997E+02  0.45594000000E+02  0.51100000000E-03 0. -1.
    9900012    2    1    2    0    0 -0.29897227160E+02  0.21204781715E+02 -0.17597698967E+02  0.50528856276E+02  0.29999989136E+02 0.  0.
        -12    1    1    2    0    0  0.29897227160E+02 -0.21204781715E+02  0.17597698967E+02  0.40659143724E+02  0.00000000000E+00 0.  1.
         11    1    3    3    0    0 -0.17334054829E+01  0.16931858389E+01  0.41606837643E+01  0.48148585131E+01  0.51100000000E-03 0. -1.
        -11    1    3    3    0    0 -0.27107346361E+02  0.74818158605E+01 -0.15604673767E+02  0.32160404832E+02  0.51100000000E-03 0.  1.
        -12    1    3    3    0    0 -0.10564753162E+01  0.12029780015E+02 -0.61537089640E+01  0.13553592931E+02  0.00000000000E+00 0.  1.
</event>
<event>
 7    1  0.5714431E-011  0.5052886E+02  0.7816164E-02  0.1300439E+00
        -11   -1    0    0    0    0  0.00000000000E+00  0.00000000000E+00  0.45593999997E+02  0.45594000000E+02  0.51100000000E-03 0. -1.
         11   -1    0    0    0    0 -0.00000000000E+00 -0.00000000000E+00 -0.45593999997E+02  0.45594000000E+02  0.51100000000E-03 0.  1.
    9900012    2    1    2    0    0  0.26280016553E+02  0.18106365820E+02  0.25192978926E+02  0.50528856620E+02  0.29999990181E+02 0.  0.
        -12    1    1    2    0    0 -0.26280016553E+02 -0.18106365820E+02 -0.25192978926E+02  0.40659143380E+02  0.00000000000E+00 0.  1.
         11    1    3    3    0    0 -0.49268871110E+01  0.10498951005E+01 -0.86535439466E+00  0.51112948278E+01  0.51100000000E-03 0.  1.
        -11    1    3    3    0    0  0.21984664133E+02  0.12781929945E+02  0.24159842690E+02  0.35077074981E+02  0.51100000000E-03 0. -1.
         12    1    3    3    0    0  0.92222395315E+01  0.42745407743E+01  0.18984906304E+01  0.10340486811E+02  0.00000000000E+00 0. -1.
</event>
<event>
 7    1  0.5714431E-011  0.5052881E+02  0.7816164E-02  0.1300439E+00
        -11   -1    0    0    0    0  0.00000000000E+00  0.00000000000E+00  0.45593999997E+02  0.45594000000E+02  0.51100000000E-03 0. -1.
         11   -1    0    0    0    0 -0.00000000000E+00 -0.00000000000E+00 -0.45593999997E+02  0.45594000000E+02  0.51100000000E-03 0.  1.
    9900012    2    1    2    0    0  0.35857493668E+02 -0.34121503409E+01  0.18861798951E+02  0.50528805692E+02  0.29999835381E+02 0.  0.
        -12    1    1    2    0    0 -0.35857493668E+02  0.34121503409E+01 -0.18861798951E+02  0.40659194308E+02  0.00000000000E+00 0.  1.
         11    1    3    3    0    0  0.26622927759E+02  0.52876107215E+01  0.23209792273E+02  0.35713212782E+02  0.51100000000E-03 0. -1.
        -11    1    3    3    0    0  0.12599810393E+01  0.54447818679E+00 -0.19324655866E+01  0.23703232311E+01  0.51100000000E-03 0.  1.
         12    1    3    3    0    0  0.79745848693E+01 -0.92442392492E+01 -0.24155277351E+01  0.12445269679E+02  0.00000000000E+00 0. -1.
</event>
<event>
 7    1  0.5714431E-011  0.5052886E+02  0.7816164E-02  0.1300439E+00
        -11   -1    0    0    0    0  0.00000000000E+00  0.00000000000E+00  0.45593999997E+02  0.45594000000E+02  0.51100000000E-03 0.  1.
         11   -1    0    0    0    0 -0.00000000000E+00 -0.00000000000E+00 -0.45593999997E+02  0.45594000000E+02  0.51100000000E-03 0. -1.
    9900012    2    1    2    0    0  0.33098848329E+02 -0.23081950361E+02  0.49855475218E+01  0.50528857396E+02  0.29999992541E+02 0.  0.
        -12    1    1    2    0    0 -0.33098848329E+02  0.23081950361E+02 -0.49855475218E+01  0.40659142604E+02  0.00000000000E+00 0.  1.
         11    1    3    3    0    0 -0.27204944866E+01 -0.32175231465E+00 -0.32753893946E+01  0.42699872073E+01  0.51100000000E-03 0. -1.
        -11    1    3    3    0    0  0.35899844880E+02 -0.17211821837E+02  0.59792880391E+01  0.40259130133E+02  0.51100000000E-03 0.  1.
        -12    1    3    3    0    0 -0.80502063784E-01 -0.55483762092E+01  0.22816488772E+01  0.59997400560E+01  0.00000000000E+00 0.  1.
</event>
<event>
 7    1  0.5714431E-011  0.5052886E+02  0.7816164E-02  0.1300439E+00
        -11   -1    0    0    0    0  0.00000000000E+00  0.00000000000E+00  0.45593999997E+02  0.45594000000E+02  0.51100000000E-03 0. -1.
         11   -1    0    0    0    0 -0.00000000000E+00 -0.00000000000E+00 -0.45593999997E+02  0.45594000000E+02  0.51100000000E-03 0.  1.
    9900012    2    1    2    0    0  0.59058393205E+01  0.28403279943E+02  0.28487546675E+02  0.50528861234E+02  0.30000004208E+02 0.  0.
        -12    1    1    2    0    0 -0.59058393205E+01 -0.28403279943E+02 -0.28487546675E+02  0.40659138766E+02  0.00000000000E+00 0.  1.
         11    1    3    3    0    0  0.90270531430E+01  0.10907130510E+02 -0.19812723729E+01  0.14296105235E+02  0.51100000000E-03 0. -1.
        -11    1    3    3    0    0  0.43280595813E+00  0.35828884873E+01  0.13642814063E+02  0.14112079461E+02  0.51100000000E-03 0.  1.
         12    1    3    3    0    0 -0.35540197806E+01  0.13913260946E+02  0.16826004985E+02  0.22120676538E+02  0.00000000000E+00 0. -1.
</event>
<event>
 7    1  0.5714431E-011  0.5052886E+02  0.7816164E-02  0.1300439E+00
        -11   -1    0    0    0    0  0.00000000000E+00  0.00000000000E+00  0.45593999997E+02  0.45594000000E+02  0.51100000000E-03 0.  1.
         11   -1    0    0    0    0 -0.00000000000E+00 -0.00000000000E+00 -0.45593999997E+02  0.45594000000E+02  0.51100000000E-03 0. -1.
    9900012    2    1    2    0    0 -0.30857101494E+02 -0.25741410508E+02  0.61955471032E+01  0.50528859189E+02  0.29999997992E+02 0.  0.
        -12    1    1    2    0    0  0.30857101494E+02  0.25741410508E+02 -0.61955471032E+01  0.40659140811E+02  0.00000000000E+00 0.  1.
         11    1    3    3    0    0 -0.13719218606E+02 -0.14824988646E+02 -0.40123899865E+01  0.20593603890E+02  0.51100000000E-03 0. -1.
        -11    1    3    3    0    0 -0.13477817763E+02 -0.50832792442E+01  0.15567250381E+02  0.21209209891E+02  0.51100000000E-03 0.  1.
        -12    1    3    3    0    0 -0.36600651244E+01 -0.58331426179E+01 -0.53593132909E+01  0.87260454082E+01  0.00000000000E+00 0.  1.
</event>
<event>
 7    1  0.5714431E-011  0.5052887E+02  0.7816164E-02  0.1300439E+00
        -11   -1    0    0    0    0  0.00000000000E+00  0.00000000000E+00  0.45593999997E+02  0.45594000000E+02  0.51100000000E-03 0.  1.
         11   -1    0    0    0    0 -0.00000000000E+00 -0.00000000000E+00 -0.45593999997E+02  0.45594000000E+02  0.51100000000E-03 0. -1.
    9900012    2    1    2    0    0 -0.24660870880E+02 -0.30288709034E+02 -0.11296051666E+02  0.50528865346E+02  0.30000016707E+02 0.  0.
        -12    1    1    2    0    0  0.24660870880E+02  0.30288709034E+02  0.11296051666E+02  0.40659134654E+02  0.00000000000E+00 0.  1.
         11    1    3    3    0    0 -0.16206029701E+02 -0.13040095202E+02 -0.16665764476E+02  0.26653840012E+02  0.51100000000E-03 0. -1.
        -11    1    3    3    0    0  0.32859885555E+01 -0.43159514942E+01 -0.50129923671E+00  0.54476104186E+01  0.51100000000E-03 0.  1.
         12    1    3    3    0    0 -0.11740829735E+02 -0.12932662338E+02  0.58710120475E+01  0.18427414915E+02  0.00000000000E+00 0. -1.
</event>
<event>
 7    1  0.6023976E-011  0.5052885E+02  0.7816164E-02  0.1300439E+00
        -11   -1    0    0    0    0  0.00000000000E+00  0.00000000000E+00  0.45593999997E+02  0.45594000000E+02  0.51100000000E-03 0.  1.
         11   -1    0    0    0    0 -0.00000000000E+00 -0.00000000000E+00 -0.45593999997E+02  0.45594000000E+02  0.51100000000E-03 0. -1.
    9900012    2    1    2    0    0 -0.27567774583E+02  0.22506627923E+02 -0.19663062262E+02  0.50528849573E+02  0.29999968762E+02 0.  0.
        -12    1    1    2    0    0  0.27567774583E+02 -0.22506627923E+02  0.19663062262E+02  0.40659150427E+02  0.00000000000E+00 0.  1.
         11    1    3    3    0    0 -0.25837460819E+02  0.18132878583E+02 -0.19949546235E+02  0.37341130975E+02  0.51100000000E-03 0. -1.
        -11    1    3    3    0    0  0.14346721632E+01 -0.25565973313E+00 -0.51650755423E+01  0.53667170350E+01  0.51100000000E-03 0.  1.
         12    1    3    3    0    0 -0.31649859273E+01  0.46294090734E+01  0.54515595158E+01  0.78210015627E+01  0.00000000000E+00 0. -1.
</event>
<event>
 7    1  0.5714431E-011  0.5052885E+02  0.7816164E-02  0.1300439E+00
        -11   -1    0    0    0    0  0.00000000000E+00  0.00000000000E+00  0.45593999997E+02  0.45594000000E+02  0.51100000000E-03 0.  1.
         11   -1    0    0    0    0 -0.00000000000E+00 -0.00000000000E+00 -0.45593999997E+02  0.45594000000E+02  0.51100000000E-03 0. -1.
    9900012    2    1    2    0    0 -0.97414020326E+01  0.90819735470E+01 -0.38415998292E+02  0.50528854881E+02  0.29999984896E+02 0.  0.
        -12    1    1    2    0    0  0.97414020326E+01 -0.90819735470E+01  0.38415998292E+02  0.40659145119E+02  0.00000000000E+00 0.  1.
         11    1    3    3    0    0 -0.98735533031E+01 -0.54141540278E+01 -0.53587528012E+01  0.12470619492E+02  0.51100000000E-03 0. -1.
        -11    1    3    3    0    0 -0.10471690064E+01  0.89465078746E+01 -0.70476610312E+01  0.11437049110E+02  0.51100000000E-03 0.  1.
         12    1    3    3    0    0  0.11793202769E+01  0.55496197003E+01 -0.26009584459E+02  0.26621186279E+02  0.00000000000E+00 0. -1.
</event>
<event>
 7    1  0.5714431E-011  0.5052885E+02  0.7816164E-02  0.1300439E+00
        -11   -1    0    0    0    0  0.00000000000E+00  0.00000000000E+00  0.45593999997E+02  0.45594000000E+02  0.51100000000E-03 0. -1.
         11   -1    0    0    0    0 -0.00000000000E+00 -0.00000000000E+00 -0.45593999997E+02  0.45594000000E+02  0.51100000000E-03 0.  1.
    9900012    2    1    2    0    0 -0.23270204968E+02 -0.12544404707E+02  0.30891774056E+02  0.50528853022E+02  0.29999979244E+02 0.  0.
        -12    1    1    2    0    0  0.23270204968E+02  0.12544404707E+02 -0.30891774056E+02  0.40659146978E+02  0.00000000000E+00 0.  1.
         11    1    3    3    0    0 -0.12872826807E+02 -0.10634172551E+02  0.65526582217E+01  0.17936906809E+02  0.51100000000E-03 0. -1.
        -11    1    3    3    0    0 -0.44256520247E+01 -0.69381741224E+01  0.23307340608E+02  0.24717539976E+02  0.51100000000E-03 0.  1.
        -12    1    3    3    0    0 -0.59717261361E+01  0.50279419664E+01  0.10317752266E+01  0.78744062367E+01  0.00000000000E+00 0.  1.
</event>
<event>
 7    1  0.5714431E-011  0.5052885E+02  0.7816164E-02  0.1300439E+00
        -11   -1    0    0    0    0  0.00000000000E+00  0.00000000000E+00  0.45593999997E+02  0.45594000000E+02  0.51100000000E-03 0.  1.
         11   -1    0    0    0    0 -0.00000000000E+00 -0.00000000000E+00 -0.45593999997E+02  0.45594000000E+02  0.51100000000E-03 0. -1.
    9900012    2    1    2    0    0  0.20007124514E+02 -0.34941982303E+02 -0.56514785097E+01  0.50528851363E+02  0.29999974203E+02 0.  0.
        -12    1    1    2    0    0 -0.20007124514E+02  0.34941982303E+02  0.56514785097E+01  0.40659148637E+02  0.00000000000E+00 0.  1.
         11    1    3    3    0    0  0.24229541747E+02 -0.35113419713E+02 -0.96958629334E+01  0.43749659375E+02  0.51100000000E-03 0. -1.
        -11    1    3    3    0    0 -0.17769953634E+00  0.12428702177E+01  0.88203356849E+00  0.15343685933E+01  0.51100000000E-03 0.  1.
         12    1    3    3    0    0 -0.40447176964E+01 -0.10714328073E+01  0.31623508552E+01  0.52448233941E+01  0.00000000000E+00 0. -1.
</event>
<event>
 7    1  0.5714431E-011  0.5052887E+02  0.7816164E-02  0.1300439E+00
        -11   -1    0    0    0    0  0.00000000000E+00  0.00000000000E+00  0.45593999997E+02  0.45594000000E+02  0.51100000000E-03 0.  1.
         11   -1    0    0    0    0 -0.00000000000E+00 -0.00000000000E+00 -0.45593999997E+02  0.45594000000E+02  0.51100000000E-03 0. -1.
    9900012    2    1    2    0    0 -0.17574043459E+01  0.39447092131E+02 -0.96955285146E+01  0.50528870388E+02  0.30000032032E+02 0.  0.
        -12    1    1    2    0    0  0.17574043459E+01 -0.39447092131E+02  0.96955285146E+01  0.40659129612E+02  0.00000000000E+00 0.  1.
         11    1    3    3    0    0 -0.36028956283E+01  0.29664814517E-01  0.51130267995E+01  0.62549804334E+01  0.51100000000E-03 0. -1.
        -11    1    3    3    0    0 -0.16485686955E+00  0.64403663300E+01 -0.84557221103E+01  0.10630368428E+02  0.51100000000E-03 0.  1.
         12    1    3    3    0    0  0.20103481519E+01  0.32977060986E+02 -0.63528332038E+01  0.33643521526E+02  0.00000000000E+00 0. -1.
</event>
<event>
 7    1  0.5714431E-011  0.5052885E+02  0.7816164E-02  0.1300439E+00
        -11   -1    0    0    0    0  0.00000000000E+00  0.00000000000E+00  0.45593999997E+02  0.45594000000E+02  0.51100000000E-03 0.  1.
         11   -1    0    0    0    0 -0.00000000000E+00 -0.00000000000E+00 -0.45593999997E+02  0.45594000000E+02  0.51100000000E-03 0. -1.
    9900012    2    1    2    0    0 -0.39640867167E+02 -0.82627396307E+00  0.90047508021E+01  0.50528848319E+02  0.29999964949E+02 0.  0.
        -12    1    1    2    0    0  0.39640867167E+02  0.82627396307E+00 -0.90047508021E+01  0.40659151681E+02  0.00000000000E+00 0.  1.
         11    1    3    3    0    0 -0.57815635286E+01 -0.82027202872E+01 -0.46143378108E+01  0.11045506355E+02  0.51100000000E-03 0. -1.
        -11    1    3    3    0    0 -0.24429602209E+02  0.10101430406E+02  0.61301211872E+01  0.27137110133E+02  0.51100000000E-03 0.  1.
        -12    1    3    3    0    0 -0.94297014300E+01 -0.27249840823E+01  0.74889674258E+01  0.12346231830E+02  0.00000000000E+00 0.  1.
</event>
<event>
 7    1  0.5714431E-011  0.5052884E+02  0.7816164E-02  0.1300439E+00
        -11   -1    0    0    0    0  0.00000000000E+00  0.00000000000E+00  0.45593999997E+02  0.45594000000E+02  0.51100000000E-03 0. -1.
         11   -1    0    0    0    0 -0.00000000000E+00 -0.00000000000E+00 -0.45593999997E+02  0.45594000000E+02  0.51100000000E-03 0.  1.
    9900012    2    1    2    0    0  0.15228548301E+02 -0.70153907043E+01  0.37041102875E+02  0.50528835076E+02  0.29999924698E+02 0.  0.
        -12    1    1    2    0    0 -0.15228548301E+02  0.70153907043E+01 -0.37041102875E+02  0.40659164924E+02  0.00000000000E+00 0.  1.
         11    1    3    3    0    0  0.61513124796E+01 -0.48116613262E+01  0.15444958969E+02  0.17307151348E+02  0.51100000000E-03 0. -1.
        -11    1    3    3    0    0 -0.80293678894E+01 -0.34244507220E+00  0.67987531018E+01  0.10526683302E+02  0.51100000000E-03 0.  1.
        -12    1    3    3    0    0  0.17106603711E+02 -0.18612843059E+01  0.14797390804E+02  0.22695000427E+02  0.00000000000E+00 0.  1.
</event>
<event>
 7    1  0.5714431E-011  0.5052890E+02  0.7816164E-02  0.1300439E+00
        -11   -1    0    0    0    0  0.00000000000E+00  0.00000000000E+00  0.45593999997E+02  0.45594000000E+02  0.51100000000E-03 0.  1.
         11   -1    0    0    0    0 -0.00000000000E+00 -0.00000000000E+00 -0.45593999997E+02  0.45594000000E+02  0.51100000000E-03 0. -1.
    9900012    2    1    2    0    0  0.50970850392E+01  0.28232756519E+02 -0.28811351155E+02  0.50528895584E+02  0.30000108615E+02 0.  0.
        -12    1    1    2    0    0 -0.50970850392E+01 -0.28232756519E+02  0.28811351155E+02  0.40659104416E+02  0.00000000000E+00 0.  1.
         11    1    3    3    0    0 -0.68486534544E+01  0.24235043158E+02 -0.24968029583E+02  0.35463274983E+02  0.51100000000E-03 0. -1.
        -11    1    3    3    0    0  0.32506585962E+01 -0.13640012883E+01 -0.33112165813E+01  0.48364694078E+01  0.51100000000E-03 0.  1.
         12    1    3    3    0    0  0.86950798973E+01  0.53617146496E+01 -0.53210499109E+00  0.10229151193E+02  0.00000000000E+00 0. -1.
</event>
<event>
 7    1  0.5714431E-011  0.5052884E+02  0.7816164E-02  0.1300439E+00
        -11   -1    0    0    0    0  0.00000000000E+00  0.00000000000E+00  0.45593999997E+02  0.45594000000E+02  0.51100000000E-03 0.  1.
         11   -1    0    0    0    0 -0.00000000000E+00 -0.00000000000E+00 -0.45593999997E+02  0.45594000000E+02  0.51100000000E-03 0. -1.
    9900012    2    1    2    0    0  0.19190473738E+02  0.30868021140E+02 -0.18222466102E+02  0.50528840119E+02  0.29999940025E+02 0.  0.
        -12    1    1    2    0    0 -0.19190473738E+02 -0.30868021140E+02  0.18222466102E+02  0.40659159881E+02  0.00000000000E+00 0.  1.
         11    1    3    3    0    0  0.49615126938E+01  0.22698835028E+02 -0.15241954088E+02  0.27787962944E+02  0.51100000000E-03 0. -1.
        -11    1    3    3    0    0  0.63742935294E+01  0.59685890353E+01  0.60104755698E+01  0.10601013626E+02  0.51100000000E-03 0.  1.
        -12    1    3    3    0    0  0.78546675145E+01  0.22005970766E+01 -0.89909875836E+01  0.12139863549E+02  0.00000000000E+00 0.  1.
</event>
<event>
 7    1  0.5714431E-011  0.5052886E+02  0.7816164E-02  0.1300439E+00
        -11   -1    0    0    0    0  0.00000000000E+00  0.00000000000E+00  0.45593999997E+02  0.45594000000E+02  0.51100000000E-03 0.  1.
         11   -1    0    0    0    0 -0.00000000000E+00 -0.00000000000E+00 -0.45593999997E+02  0.45594000000E+02  0.51100000000E-03 0. -1.
    9900012    2    1    2    0    0 -0.30097894384E+02 -0.12485138021E+02 -0.24318798869E+02  0.50528857164E+02  0.29999991835E+02 0.  0.
        -12    1    1    2    0    0  0.30097894384E+02  0.12485138021E+02  0.24318798869E+02  0.40659142836E+02  0.00000000000E+00 0.  1.
         11    1    3    3    0    0 -0.31175408187E+01 -0.12942923291E+02 -0.53584588950E+00  0.13323867875E+02  0.51100000000E-03 0. -1.
        -11    1    3    3    0    0 -0.17168874932E+02  0.42917595793E+01 -0.11904574884E+02  0.21328581063E+02  0.51100000000E-03 0.  1.
         12    1    3    3    0    0 -0.98114786333E+01 -0.38339743094E+01 -0.11878378096E+02  0.15876408226E+02  0.00000000000E+00 0. -1.
</event>
<event>
 7    1  0.5714431E-011  0.5052886E+02  0.7816164E-02  0.1300439E+00
        -11   -1    0    0    0    0  0.00000000000E+00  0.00000000000E+00  0.45593999997E+02  0.45594000000E+02  0.51100000000E-03 0.  1.
         11   -1    0    0    0    0 -0.00000000000E+00 -0.00000000000E+00 -0.45593999997E+02  0.45594000000E+02  0.51100000000E-03 0. -1.
    9900012    2    1    2    0    0 -0.10611961846E+02  0.30469039137E+02 -0.24742467603E+02  0.50528858552E+02  0.29999996056E+02 0.  0.
        -12    1    1    2    0    0  0.10611961846E+02 -0.30469039137E+02  0.24742467603E+02  0.40659141448E+02  0.00000000000E+00 0.  1.
         11    1    3    3    0    0 -0.29558380773E+01  0.11221646619E+02  0.39910565071E+01  0.12271546923E+02  0.51100000000E-03 0. -1.
        -11    1    3    3    0    0  0.23497813296E+00  0.37017026247E+01 -0.16618346843E+02  0.17027250780E+02  0.51100000000E-03 0.  1.
         12    1    3    3    0    0 -0.78911019013E+01  0.15545689894E+02 -0.12115177266E+02  0.21230060850E+02  0.00000000000E+00 0. -1.
</event>
<event>
 7    1  0.5714431E-011  0.5052887E+02  0.7816164E-02  0.1300439E+00
        -11   -1    0    0    0    0  0.00000000000E+00  0.00000000000E+00  0.45593999997E+02  0.45594000000E+02  0.51100000000E-03 0. -1.
         11   -1    0    0    0    0 -0.00000000000E+00 -0.00000000000E+00 -0.45593999997E+02  0.45594000000E+02  0.51100000000E-03 0.  1.
    9900012    2    1    2    0    0  0.21579758009E+02 -0.18711429026E+02  0.28937198035E+02  0.50528868651E+02  0.30000026751E+02 0.  0.
        -12    1    1    2    0    0 -0.21579758009E+02  0.18711429026E+02 -0.28937198035E+02  0.40659131349E+02  0.00000000000E+00 0.  1.
         11    1    3    3    0    0  0.19035008134E+02 -0.11467231533E+02  0.12395516802E+02  0.25445584504E+02  0.51100000000E-03 0. -1.
        -11    1    3    3    0    0 -0.42576584762E+01 -0.76607488888E+01  0.19502758513E+01  0.89787697038E+01  0.51100000000E-03 0.  1.
        -12    1    3    3    0    0  0.68024083513E+01  0.41655139532E+00  0.14591405382E+02  0.16104514444E+02  0.00000000000E+00 0.  1.
</event>
<event>
 7    1  0.5714431E-011  0.5052886E+02  0.7816164E-02  0.1300439E+00
        -11   -1    0    0    0    0  0.00000000000E+00  0.00000000000E+00  0.45593999997E+02  0.45594000000E+02  0.51100000000E-03 0.  1.
         11   -1    0    0    0    0 -0.00000000000E+00 -0.00000000000E+00 -0.45593999997E+02  0.45594000000E+02  0.51100000000E-03 0. -1.
    9900012    2    1    2    0    0  0.29540379343E+02 -0.27731497345E+02  0.33905375068E+01  0.50528859560E+02  0.29999999119E+02 0.  0.
        -12    1    1    2    0    0 -0.29540379343E+02  0.27731497345E+02 -0.33905375068E+01  0.40659140440E+02  0.00000000000E+00 0.  1.
         11    1    3    3    0    0  0.60015350031E+01 -0.86532428635E+01 -0.55253995853E+01  0.11892311604E+02  0.51100000000E-03 0. -1.
        -11    1    3    3    0    0  0.13696923819E+02 -0.10347947658E+02  0.16195822829E+02  0.23600644487E+02  0.51100000000E-03 0.  1.
        -12    1    3    3    0    0  0.98419205213E+01 -0.87303068236E+01 -0.72798857372E+01  0.15035903469E+02  0.00000000000E+00 0.  1.
</event>
<event>
 7    1  0.5714431E-011  0.5052885E+02  0.7816164E-02  0.1300439E+00
        -11   -1    0    0    0    0  0.00000000000E+00  0.00000000000E+00  0.45593999997E+02  0.45594000000E+02  0.51100000000E-03 0.  1.
         11   -1    0    0    0    0 -0.00000000000E+00 -0.00000000000E+00 -0.45593999997E+02  0.45594000000E+02  0.51100000000E-03 0. -1.
    9900012    2    1    2    0    0  0.45876942170E+01  0.28590746341E+02 -0.28542754273E+02  0.50528849295E+02  0.29999967917E+02 0.  0.
        -12    1    1    2    0    0 -0.45876942170E+01 -0.28590746341E+02  0.28542754273E+02  0.40659150705E+02  0.00000000000E+00 0.  1.
         11    1    3    3    0    0 -0.67184292952E+01  0.18434349842E+01  0.26265898048E+01  0.74454361188E+01  0.51100000000E-03 0.  1.
        -11    1    3    3    0    0  0.10448923785E+02  0.18120938432E+02 -0.23980639078E+02  0.31821682369E+02  0.51100000000E-03 0. -1.
        -12    1    3    3    0    0  0.85719972715E+00  0.86263729246E+01 -0.71887049992E+01  0.11261730807E+02  0.00000000000E+00 0.  1.
</event>
<event>
 7    1  0.6543790E-011  0.5052886E+02  0.7816164E-02  0.1300439E+00
        -11   -1    0    0    0    0  0.00000000000E+00  0.00000000000E+00  0.45593999997E+02  0.45594000000E+02  0.51100000000E-03 0. -1.
         11   -1    0    0    0    0 -0.00000000000E+00 -0.00000000000E+00 -0.45593999997E+02  0.45594000000E+02  0.51100000000E-03 0.  1.
    9900012    2    1    2    0    0 -0.15887359783E+02  0.11960346925E+02  0.35464171283E+02  0.50528861492E+02  0.30000004990E+02 0.  0.
        -12    1    1    2    0    0  0.15887359783E+02 -0.11960346925E+02 -0.35464171283E+02  0.40659138508E+02  0.00000000000E+00 0.  1.
         11    1    3    3    0    0  0.23424231935E+01  0.21889648527E+01  0.25284907823E+02  0.25487351323E+02  0.51100000000E-03 0. -1.
        -11    1    3    3    0    0 -0.10876932882E+02  0.12052656844E+01  0.20594400189E+01  0.11135601813E+02  0.51100000000E-03 0.  1.
         12    1    3    3    0    0 -0.73528500942E+01  0.85661163884E+01  0.81198234410E+01  0.13905908356E+02  0.00000000000E+00 0. -1.
</event>
<event>
 7    1  0.5714431E-011  0.5052885E+02  0.7816164E-02  0.1300439E+00
        -11   -1    0    0    0    0  0.00000000000E+00  0.00000000000E+00  0.45593999997E+02  0.45594000000E+02  0.51100000000E-03 0. -1.
         11   -1    0    0    0    0 -0.00000000000E+00 -0.00000000000E+00 -0.45593999997E+02  0.45594000000E+02  0.51100000000E-03 0.  1.
    9900012    2    1    2    0    0 -0.14900849767E+01  0.37164603566E+02  0.16423703135E+02  0.50528854213E+02  0.29999982867E+02 0.  0.
        -12    1    1    2    0    0  0.14900849767E+01 -0.37164603566E+02 -0.16423703135E+02  0.40659145787E+02  0.00000000000E+00 0.  1.
         11    1    3    3    0    0  0.95178401883E+01  0.41757291897E+01  0.44856830843E+01  0.11320218598E+02  0.51100000000E-03 0. -1.
        -11    1    3    3    0    0 -0.12852578446E+02  0.18861969083E+02  0.50161622586E+01  0.23369307531E+02  0.51100000000E-03 0.  1.
        -12    1    3    3    0    0  0.18446532806E+01  0.14126905293E+02  0.69218577924E+01  0.15839328085E+02  0.00000000000E+00 0.  1.
</event>
<event>
 7    1  0.5714431E-011  0.5052885E+02  0.7816164E-02  0.1300439E+00
        -11   -1    0    0    0    0  0.00000000000E+00  0.00000000000E+00  0.45593999997E+02  0.45594000000E+02  0.51100000000E-03 0. -1.
         11   -1    0    0    0    0 -0.00000000000E+00 -0.00000000000E+00 -0.45593999997E+02  0.45594000000E+02  0.51100000000E-03 0.  1.
    9900012    2    1    2    0    0  0.22805305149E+02  0.16692902761E+02  0.29230667061E+02  0.50528845529E+02  0.29999956469E+02 0.  0.
        -12    1    1    2    0    0 -0.22805305149E+02 -0.16692902761E+02 -0.29230667061E+02  0.40659154471E+02  0.00000000000E+00 0.  1.
         11    1    3    3    0    0  0.21331354375E+01  0.75166036178E+00  0.13165713267E+02  0.13358565274E+02  0.51100000000E-03 0. -1.
        -11    1    3    3    0    0  0.18234866968E+02  0.13058960413E+02  0.18977533285E+01  0.22508849113E+02  0.51100000000E-03 0.  1.
        -12    1    3    3    0    0  0.24373027435E+01  0.28822819853E+01  0.14167200466E+02  0.14661431142E+02  0.00000000000E+00 0.  1.
</event>
<event>
 7    1  0.7650149E-011  0.5052887E+02  0.7816164E-02  0.1300439E+00
        -11   -1    0    0    0    0  0.00000000000E+00  0.00000000000E+00  0.45593999997E+02  0.45594000000E+02  0.51100000000E-03 0. -1.
         11   -1    0    0    0    0 -0.00000000000E+00 -0.00000000000E+00 -0.45593999997E+02  0.45594000000E+02  0.51100000000E-03 0.  1.
    9900012    2    1    2    0    0  0.16805980671E+02  0.20177378728E+02  0.31041864312E+02  0.50528868939E+02  0.30000027628E+02 0.  0.
        -12    1    1    2    0    0 -0.16805980671E+02 -0.20177378728E+02 -0.31041864312E+02  0.40659131061E+02  0.00000000000E+00 0.  1.
         11    1    3    3    0    0  0.16812971786E+02  0.20725257861E+01  0.87676038097E+01  0.19074649675E+02  0.51100000000E-03 0. -1.
        -11    1    3    3    0    0 -0.64704976433E+00  0.67109202580E+01  0.36605029101E+00  0.67519713553E+01  0.51100000000E-03 0.  1.
         12    1    3    3    0    0  0.64005864916E+00  0.11393932684E+02  0.21908210211E+02  0.24702247909E+02  0.00000000000E+00 0. -1.
</event>
<event>
 7    1  0.5714431E-011  0.5052888E+02  0.7816164E-02  0.1300439E+00
        -11   -1    0    0    0    0  0.00000000000E+00  0.00000000000E+00  0.45593999997E+02  0.45594000000E+02  0.51100000000E-03 0.  1.
         11   -1    0    0    0    0 -0.00000000000E+00 -0.00000000000E+00 -0.45593999997E+02  0.45594000000E+02  0.51100000000E-03 0. -1.
    9900012    2    1    2    0    0  0.28173441268E+02  0.29245684439E+02  0.20276377538E+01  0.50528878440E+02  0.30000056507E+02 0.  0.
        -12    1    1    2    0    0 -0.28173441268E+02 -0.29245684439E+02 -0.20276377538E+01  0.40659121560E+02  0.00000000000E+00 0.  1.
         11    1    3    3    0    0  0.62225007932E+01  0.64046942056E+00 -0.86203405103E+01  0.10650821000E+02  0.51100000000E-03 0. -1.
        -11    1    3    3    0    0  0.13441276674E+02  0.13142429405E+02  0.11792444970E+02  0.22191284954E+02  0.51100000000E-03 0.  1.
         12    1    3    3    0    0  0.85096638003E+01  0.15462785613E+02 -0.11444667059E+01  0.17686772486E+02  0.00000000000E+00 0. -1.
</event>
<event>
 7    1  0.5714431E-011  0.5052886E+02  0.7816164E-02  0.1300439E+00
        -11   -1    0    0    0    0  0.00000000000E+00  0.00000000000E+00  0.45593999997E+02  0.45594000000E+02  0.51100000000E-03 0.  1.
         11   -1    0    0    0    0 -0.00000000000E+00 -0.00000000000E+00 -0.45593999997E+02  0.45594000000E+02  0.51100000000E-03 0. -1.
    9900012    2    1    2    0    0 -0.29400389252E+02 -0.22409632184E+02 -0.16929013818E+02  0.50528855744E+02  0.29999987518E+02 0.  0.
        -12    1    1    2    0    0  0.29400389252E+02  0.22409632184E+02  0.16929013818E+02  0.40659144256E+02  0.00000000000E+00 0.  1.
         11    1    3    3    0    0 -0.17805307157E+02 -0.11657116318E+02 -0.14977183447E+02  0.26023707423E+02  0.51100000000E-03 0. -1.
        -11    1    3    3    0    0  0.51179110263E+01 -0.16250460284E+01 -0.78870215438E-01  0.53702894372E+01  0.51100000000E-03 0.  1.
         12    1    3    3    0    0 -0.16712993122E+02 -0.91274698381E+01 -0.18729601554E+01  0.19134858883E+02  0.00000000000E+00 0. -1.
</event>
