<event>
 7    1  0.2935819E-010  0.4778727E+02  0.7816164E-02  0.1312668E+00
        -11   -1    0    0    0    0  0.00000000000E+00  0.00000000000E+00  0.45593999997E+02  0.45594000000E+02  0.51100000000E-03 0.  1.
         11   -1    0    0    0    0 -0.00000000000E+00 -0.00000000000E+00 -0.45593999997E+02  0.45594000000E+02  0.51100000000E-03 0. -1.
    9900012    2    1    2    0    0 -0.39389113260E+02  0.11608561596E+02 -0.14048565634E+02  0.47787272563E+02  0.20000006922E+02 0.  0.
        -12    1    1    2    0    0  0.39389113260E+02 -0.11608561596E+02  0.14048565634E+02  0.43400727437E+02  0.00000000000E+00 0.  1.
         11    1    3    3    0    0 -0.12583975090E+02  0.95247498834E+01 -0.75027148419E+01  0.17474782392E+02  0.51100000000E-03 0. -1.
        -11    1    3    3    0    0 -0.14424516286E+02 -0.48963319295E+01 -0.49165355118E+01  0.16006656682E+02  0.51100000000E-03 0.  1.
        -12    1    3    3    0    0 -0.12380621884E+02  0.69801436423E+01 -0.16293152802E+01  0.14305833488E+02  0.00000000000E+00 0.  1.
</event>
<event>
 7    1  0.2935819E-010  0.4778727E+02  0.7816164E-02  0.1312668E+00
        -11   -1    0    0    0    0  0.00000000000E+00  0.00000000000E+00  0.45593999997E+02  0.45594000000E+02  0.51100000000E-03 0.  1.
         11   -1    0    0    0    0 -0.00000000000E+00 -0.00000000000E+00 -0.45593999997E+02  0.45594000000E+02  0.51100000000E-03 0. -1.
    9900012    2    1    2    0    0 -0.86285976089E+01  0.70765074602E+01 -0.41941552761E+02  0.47787268410E+02  0.19999987988E+02 0.  0.
        -12    1    1    2    0    0  0.86285976089E+01 -0.70765074602E+01  0.41941552761E+02  0.43400731590E+02  0.00000000000E+00 0.  1.
         11    1    3    3    0    0 -0.74989250693E+01  0.33317849601E+01 -0.71361167083E+01  0.10874687589E+02  0.51100000000E-03 0. -1.
        -11    1    3    3    0    0  0.32347572707E+00 -0.41292286074E+01 -0.14671986317E+02  0.15245404167E+02  0.51100000000E-03 0.  1.
        -12    1    3    3    0    0 -0.14531482667E+01  0.78739511074E+01 -0.20133449736E+02  0.21667176655E+02  0.00000000000E+00 0.  1.
</event>
<event>
 7    1  0.2935819E-010  0.4778727E+02  0.7816164E-02  0.1312668E+00
        -11   -1    0    0    0    0  0.00000000000E+00  0.00000000000E+00  0.45593999997E+02  0.45594000000E+02  0.51100000000E-03 0.  1.
         11   -1    0    0    0    0 -0.00000000000E+00 -0.00000000000E+00 -0.45593999997E+02  0.45594000000E+02  0.51100000000E-03 0. -1.
    9900012    2    1    2    0    0  0.15431885847E+02  0.39573390337E+02 -0.89122043174E+01  0.47787266028E+02  0.19999977127E+02 0.  0.
        -12    1    1    2    0    0 -0.15431885847E+02 -0.39573390337E+02  0.89122043174E+01  0.43400733972E+02  0.00000000000E+00 0.  1.
         11    1    3    3    0    0  0.15054664232E+02  0.28732449009E+02 -0.63994075225E+01  0.33062803241E+02  0.51100000000E-03 0. -1.
        -11    1    3    3    0    0 -0.18937737051E+01  0.47921312541E+01  0.32288755300E+01  0.60808336807E+01  0.51100000000E-03 0.  1.
         12    1    3    3    0    0  0.22709953198E+01  0.60488100730E+01 -0.57416723249E+01  0.86436291064E+01  0.00000000000E+00 0. -1.
</event>
<event>
 7    1 -0.2935819E-010  0.4778727E+02  0.7816164E-02  0.1312668E+00
        -11   -1    0    0    0    0  0.00000000000E+00  0.00000000000E+00  0.45593999997E+02  0.45594000000E+02  0.51100000000E-03 0.  1.
         11   -1    0    0    0    0 -0.00000000000E+00 -0.00000000000E+00 -0.45593999997E+02  0.45594000000E+02  0.51100000000E-03 0. -1.
    9900012    2    1    2    0    0  0.11645417422E+01  0.82994262715E+01 -0.42583876405E+02  0.47787272316E+02  0.20000005795E+02 0.  0.
        -12    1    1    2    0    0 -0.11645417422E+01 -0.82994262715E+01  0.42583876405E+02  0.43400727684E+02  0.00000000000E+00 0.  1.
         11    1    3    3    0    0  0.25708241625E+01  0.39263157871E+01 -0.16785202162E+02  0.17428944443E+02  0.51100000000E-03 0. -1.
        -11    1    3    3    0    0  0.47273589848E+01 -0.28341912293E+01 -0.47357224056E+01  0.72668858433E+01  0.51100000000E-03 0.  1.
        -12    1    3    3    0    0 -0.61336414051E+01  0.72073017137E+01 -0.21062951837E+02  0.23091442029E+02  0.00000000000E+00 0.  1.
</event>
<event>
 7    1  0.2935819E-010  0.4778728E+02  0.7816164E-02  0.1312668E+00
        -11   -1    0    0    0    0  0.00000000000E+00  0.00000000000E+00  0.45593999997E+02  0.45594000000E+02  0.51100000000E-03 0. -1.
         11   -1    0    0    0    0 -0.00000000000E+00 -0.00000000000E+00 -0.45593999997E+02  0.45594000000E+02  0.51100000000E-03 0.  1.
    9900012    2    1    2    0    0  0.12254638288E+02 -0.16754221032E+02  0.38114859064E+02  0.47787279229E+02  0.20000037319E+02 0.  0.
        -12    1    1    2    0    0 -0.12254638288E+02  0.16754221032E+02 -0.38114859064E+02  0.43400720771E+02  0.00000000000E+00 0.  1.
         11    1    3    3    0    0 -0.47811287976E+01 -0.21809970743E+01  0.59450106780E+01  0.79346766185E+01  0.51100000000E-03 0. -1.
        -11    1    3    3    0    0  0.12277747283E+02 -0.12472530399E+02  0.19756565695E+02  0.26393729960E+02  0.51100000000E-03 0.  1.
         12    1    3    3    0    0  0.47580198022E+01 -0.21006935590E+01  0.12413282691E+02  0.13458872651E+02  0.00000000000E+00 0. -1.
</event>
<event>
 7    1  0.2935819E-010  0.4778727E+02  0.7816164E-02  0.1312668E+00
        -11   -1    0    0    0    0  0.00000000000E+00  0.00000000000E+00  0.45593999997E+02  0.45594000000E+02  0.51100000000E-03 0.  1.
         11   -1    0    0    0    0 -0.00000000000E+00 -0.00000000000E+00 -0.45593999997E+02  0.45594000000E+02  0.51100000000E-03 0. -1.
    9900012    2    1    2    0    0  0.67263312640E+01 -0.33002456550E+02 -0.27371837804E+02  0.47787272179E+02  0.20000005171E+02 0.  0.
        -12    1    1    2    0    0 -0.67263312640E+01  0.33002456550E+02  0.27371837804E+02  0.43400727821E+02  0.00000000000E+00 0.  1.
         11    1    3    3    0    0  0.28577440979E+01 -0.16467825027E+02 -0.11954548684E+02  0.20549141027E+02  0.51100000000E-03 0. -1.
        -11    1    3    3    0    0  0.95580916467E+00  0.45985287570E-01  0.24856129055E+01  0.26634484382E+01  0.51100000000E-03 0.  1.
        -12    1    3    3    0    0  0.29127780015E+01 -0.16580616811E+02 -0.17902902026E+02  0.24574682713E+02  0.00000000000E+00 0.  1.
</event>
<event>
 7    1  0.2935819E-010  0.4778727E+02  0.7816164E-02  0.1312668E+00
        -11   -1    0    0    0    0  0.00000000000E+00  0.00000000000E+00  0.45593999997E+02  0.45594000000E+02  0.51100000000E-03 0.  1.
         11   -1    0    0    0    0 -0.00000000000E+00 -0.00000000000E+00 -0.45593999997E+02  0.45594000000E+02  0.51100000000E-03 0. -1.
    9900012    2    1    2    0    0  0.28559627014E+02 -0.32676937579E+02  0.43439354805E+00  0.47787271406E+02  0.20000001649E+02 0.  0.
        -12    1    1    2    0    0 -0.28559627014E+02  0.32676937579E+02 -0.43439354805E+00  0.43400728594E+02  0.00000000000E+00 0.  1.
         11    1    3    3    0    0  0.59507086287E+01 -0.60206873851E+01 -0.50494359867E+01  0.98567953118E+01  0.51100000000E-03 0. -1.
        -11    1    3    3    0    0  0.21689387770E+02 -0.28066149656E+02  0.40155406256E+01  0.35696818698E+02  0.51100000000E-03 0.  1.
        -12    1    3    3    0    0  0.91953061507E+00  0.14098994621E+01  0.14682889091E+01  0.22336573967E+01  0.00000000000E+00 0.  1.
</event>
<event>
 7    1  0.2935819E-010  0.4778728E+02  0.7816164E-02  0.1312668E+00
        -11   -1    0    0    0    0  0.00000000000E+00  0.00000000000E+00  0.45593999997E+02  0.45594000000E+02  0.51100000000E-03 0.  1.
         11   -1    0    0    0    0 -0.00000000000E+00 -0.00000000000E+00 -0.45593999997E+02  0.45594000000E+02  0.51100000000E-03 0. -1.
    9900012    2    1    2    0    0  0.25720572728E+02 -0.23419675913E+02  0.25953671647E+02  0.47787283954E+02  0.20000058862E+02 0.  0.
        -12    1    1    2    0    0 -0.25720572728E+02  0.23419675913E+02 -0.25953671647E+02  0.43400716046E+02  0.00000000000E+00 0.  1.
         11    1    3    3    0    0  0.10898301591E+02 -0.77936780462E+01  0.10051998995E+02  0.16749838182E+02  0.51100000000E-03 0. -1.
        -11    1    3    3    0    0  0.17547034292E+02 -0.13422968332E+02  0.16378156966E+02  0.27501245738E+02  0.51100000000E-03 0.  1.
        -12    1    3    3    0    0 -0.27247631548E+01 -0.22030295348E+01 -0.47648431480E+00  0.35362000344E+01  0.00000000000E+00 0.  1.
</event>
<event>
 7    1  0.2935819E-010  0.4778727E+02  0.7816164E-02  0.1312668E+00
        -11   -1    0    0    0    0  0.00000000000E+00  0.00000000000E+00  0.45593999997E+02  0.45594000000E+02  0.51100000000E-03 0.  1.
         11   -1    0    0    0    0 -0.00000000000E+00 -0.00000000000E+00 -0.45593999997E+02  0.45594000000E+02  0.51100000000E-03 0. -1.
    9900012    2    1    2    0    0  0.16977706430E+02 -0.87615960465E+01 -0.38969411002E+02  0.47787273339E+02  0.20000010460E+02 0.  0.
        -12    1    1    2    0    0 -0.16977706430E+02  0.87615960465E+01  0.38969411002E+02  0.43400726661E+02  0.00000000000E+00 0.  1.
         11    1    3    3    0    0  0.81948851070E+01  0.13056027910E+01 -0.12393469544E+02  0.14915053743E+02  0.51100000000E-03 0. -1.
        -11    1    3    3    0    0  0.85200284560E+01 -0.12232310621E+02 -0.26813087139E+02  0.30678362900E+02  0.51100000000E-03 0.  1.
        -12    1    3    3    0    0  0.26279286679E+00  0.21651117833E+01  0.23714568139E+00  0.21938566953E+01  0.00000000000E+00 0.  1.
</event>
<event>
 7    1  0.2935819E-010  0.4778727E+02  0.7816164E-02  0.1312668E+00
        -11   -1    0    0    0    0  0.00000000000E+00  0.00000000000E+00  0.45593999997E+02  0.45594000000E+02  0.51100000000E-03 0. -1.
         11   -1    0    0    0    0 -0.00000000000E+00 -0.00000000000E+00 -0.45593999997E+02  0.45594000000E+02  0.51100000000E-03 0.  1.
    9900012    2    1    2    0    0 -0.30744637015E+01  0.23288371928E+02  0.36494146116E+02  0.47787270803E+02  0.19999998897E+02 0.  0.
        -12    1    1    2    0    0  0.30744637015E+01 -0.23288371928E+02 -0.36494146116E+02  0.43400729197E+02  0.00000000000E+00 0.  1.
         11    1    3    3    0    0 -0.16354317564E+01  0.16746770141E+02  0.28419716323E+02  0.33027401098E+02  0.51100000000E-03 0. -1.
        -11    1    3    3    0    0  0.34116433051E+01 -0.30327802288E+00  0.50826923469E+00  0.34626038579E+01  0.51100000000E-03 0.  1.
         12    1    3    3    0    0 -0.48506752502E+01  0.68448798106E+01  0.75661605585E+01  0.11297265846E+02  0.00000000000E+00 0. -1.
</event>
<event>
 7    1  0.2935819E-010  0.4778727E+02  0.7816164E-02  0.1312668E+00
        -11   -1    0    0    0    0  0.00000000000E+00  0.00000000000E+00  0.45593999997E+02  0.45594000000E+02  0.51100000000E-03 0.  1.
         11   -1    0    0    0    0 -0.00000000000E+00 -0.00000000000E+00 -0.45593999997E+02  0.45594000000E+02  0.51100000000E-03 0. -1.
    9900012    2    1    2    0    0 -0.19592869208E+02  0.34691969732E+02 -0.17210752169E+02  0.47787270998E+02  0.19999999789E+02 0.  0.
        -12    1    1    2    0    0  0.19592869208E+02 -0.34691969732E+02  0.17210752169E+02  0.43400729002E+02  0.00000000000E+00 0.  1.
         11    1    3    3    0    0 -0.68742797917E+01  0.13453425983E+01  0.18091130756E+01  0.72345393594E+01  0.51100000000E-03 0. -1.
        -11    1    3    3    0    0 -0.64810204427E+01  0.19993402290E+02 -0.10020328072E+02  0.23284044666E+02  0.51100000000E-03 0.  1.
         12    1    3    3    0    0 -0.62375689733E+01  0.13353224844E+02 -0.89995371722E+01  0.17268686972E+02  0.00000000000E+00 0. -1.
</event>
<event>
 7    1  0.2935819E-010  0.4778727E+02  0.7816164E-02  0.1312668E+00
        -11   -1    0    0    0    0  0.00000000000E+00  0.00000000000E+00  0.45593999997E+02  0.45594000000E+02  0.51100000000E-03 0.  1.
         11   -1    0    0    0    0 -0.00000000000E+00 -0.00000000000E+00 -0.45593999997E+02  0.45594000000E+02  0.51100000000E-03 0. -1.
    9900012    2    1    2    0    0  0.30383979485E+02  0.71768383637E+01 -0.30148462060E+02  0.47787274397E+02  0.20000015286E+02 0.  0.
        -12    1    1    2    0    0 -0.30383979485E+02 -0.71768383637E+01  0.30148462060E+02  0.43400725603E+02  0.00000000000E+00 0.  1.
         11    1    3    3    0    0  0.21537415734E+02  0.73532481209E+01 -0.26304298450E+02  0.34782849964E+02  0.51100000000E-03 0. -1.
        -11    1    3    3    0    0  0.62562757010E+01  0.19384318121E+01  0.14822471961E+01  0.67153228179E+01  0.51100000000E-03 0.  1.
         12    1    3    3    0    0  0.25902880504E+01 -0.21148415693E+01 -0.53264108066E+01  0.62891016153E+01  0.00000000000E+00 0. -1.
</event>
<event>
 7    1  0.2935819E-010  0.4778727E+02  0.7816164E-02  0.1312668E+00
        -11   -1    0    0    0    0  0.00000000000E+00  0.00000000000E+00  0.45593999997E+02  0.45594000000E+02  0.51100000000E-03 0. -1.
         11   -1    0    0    0    0 -0.00000000000E+00 -0.00000000000E+00 -0.45593999997E+02  0.45594000000E+02  0.51100000000E-03 0.  1.
    9900012    2    1    2    0    0 -0.23703528393E+02 -0.18951516394E+02  0.31025897291E+02  0.47787268041E+02  0.19999986304E+02 0.  0.
        -12    1    1    2    0    0  0.23703528393E+02  0.18951516394E+02 -0.31025897291E+02  0.43400731959E+02  0.00000000000E+00 0.  1.
         11    1    3    3    0    0 -0.53904171294E+01 -0.14129784537E+02  0.16709463643E+02  0.22536938199E+02  0.51100000000E-03 0. -1.
        -11    1    3    3    0    0 -0.29985225516E+01 -0.29114589677E+01  0.70413550861E+01  0.81883095033E+01  0.51100000000E-03 0.  1.
         12    1    3    3    0    0 -0.15314588712E+02 -0.19102728894E+01  0.72750785617E+01  0.17062020338E+02  0.00000000000E+00 0. -1.
</event>
<event>
 7    1  0.2935819E-010  0.4778727E+02  0.7816164E-02  0.1312668E+00
        -11   -1    0    0    0    0  0.00000000000E+00  0.00000000000E+00  0.45593999997E+02  0.45594000000E+02  0.51100000000E-03 0.  1.
         11   -1    0    0    0    0 -0.00000000000E+00 -0.00000000000E+00 -0.45593999997E+02  0.45594000000E+02  0.51100000000E-03 0. -1.
    9900012    2    1    2    0    0  0.13909512852E+02  0.24725720676E+01 -0.41036997570E+02  0.47787270398E+02  0.19999997054E+02 0.  0.
        -12    1    1    2    0    0 -0.13909512852E+02 -0.24725720676E+01  0.41036997570E+02  0.43400729602E+02  0.00000000000E+00 0.  1.
         11    1    3    3    0    0  0.64739490500E+01  0.65944899269E+00 -0.44204372082E+01  0.78668389235E+01  0.51100000000E-03 0. -1.
        -11    1    3    3    0    0  0.29424329147E+01 -0.25881667886E+01 -0.31689079199E+02  0.31930459745E+02  0.51100000000E-03 0.  1.
        -12    1    3    3    0    0  0.44931308871E+01  0.44012898635E+01 -0.49274811625E+01  0.79899717295E+01  0.00000000000E+00 0.  1.
</event>
<event>
 7    1  0.2935819E-010  0.4778729E+02  0.7816164E-02  0.1312668E+00
        -11   -1    0    0    0    0  0.00000000000E+00  0.00000000000E+00  0.45593999997E+02  0.45594000000E+02  0.51100000000E-03 0. -1.
         11   -1    0    0    0    0 -0.00000000000E+00 -0.00000000000E+00 -0.45593999997E+02  0.45594000000E+02  0.51100000000E-03 0.  1.
    9900012    2    1    2    0    0  0.21519737441E+02  0.72423713262E+01  0.36987443284E+02  0.47787285690E+02  0.20000066776E+02 0.  0.
        -12    1    1    2    0    0 -0.21519737441E+02 -0.72423713262E+01 -0.36987443284E+02  0.43400714310E+02  0.00000000000E+00 0.  1.
         11    1    3    3    0    0  0.11560804425E+02  0.16500646984E+01  0.23164434986E+02  0.25941587479E+02  0.51100000000E-03 0. -1.
        -11    1    3    3    0    0  0.11152380827E+01  0.38066956991E+01 -0.13523857325E+01  0.41908991347E+01  0.51100000000E-03 0.  1.
        -12    1    3    3    0    0  0.88436949325E+01  0.17856109288E+01  0.15175394030E+02  0.17654799076E+02  0.00000000000E+00 0.  1.
</event>
<event>
 7    1  0.2935819E-010  0.4778727E+02  0.7816164E-02  0.1312668E+00
        -11   -1    0    0    0    0  0.00000000000E+00  0.00000000000E+00  0.45593999997E+02  0.45594000000E+02  0.51100000000E-03 0.  1.
         11   -1    0    0    0    0 -0.00000000000E+00 -0.00000000000E+00 -0.45593999997E+02  0.45594000000E+02  0.51100000000E-03 0. -1.
    9900012    2    1    2    0    0  0.32350334799E+02  0.22209091274E+02 -0.18542800386E+02  0.47787270248E+02  0.19999996371E+02 0.  0.
        -12    1    1    2    0    0 -0.32350334799E+02 -0.22209091274E+02  0.18542800386E+02  0.43400729752E+02  0.00000000000E+00 0.  1.
         11    1    3    3    0    0  0.25479998669E+02  0.22354591990E+02 -0.15357593260E+02  0.37213086223E+02  0.51100000000E-03 0. -1.
        -11    1    3    3    0    0  0.70591594955E+01 -0.23108637576E+01 -0.37609315500E+01  0.83256489521E+01  0.51100000000E-03 0.  1.
         12    1    3    3    0    0 -0.18882336575E+00  0.21653630417E+01  0.57572442377E+00  0.22485350738E+01  0.00000000000E+00 0. -1.
</event>
<event>
 7    1  0.2935819E-010  0.4778727E+02  0.7816164E-02  0.1312668E+00
        -11   -1    0    0    0    0  0.00000000000E+00  0.00000000000E+00  0.45593999997E+02  0.45594000000E+02  0.51100000000E-03 0.  1.
         11   -1    0    0    0    0 -0.00000000000E+00 -0.00000000000E+00 -0.45593999997E+02  0.45594000000E+02  0.51100000000E-03 0. -1.
    9900012    2    1    2    0    0  0.33192993108E+02  0.21020191511E+02 -0.18439089398E+02  0.47787271199E+02  0.20000000705E+02 0.  0.
        -12    1    1    2    0    0 -0.33192993108E+02 -0.21020191511E+02  0.18439089398E+02  0.43400728801E+02  0.00000000000E+00 0.  1.
         11    1    3    3    0    0  0.10033785532E+02 -0.22287417813E+01 -0.43453015006E+01  0.11159112304E+02  0.51100000000E-03 0. -1.
        -11    1    3    3    0    0  0.20931929625E+02  0.22718152927E+02 -0.11025488999E+02  0.32799718873E+02  0.51100000000E-03 0.  1.
        -12    1    3    3    0    0  0.22272779513E+01  0.53078036527E+00 -0.30682988988E+01  0.38284400218E+01  0.00000000000E+00 0.  1.
</event>
<event>
 7    1  0.2935819E-010  0.4778727E+02  0.7816164E-02  0.1312668E+00
        -11   -1    0    0    0    0  0.00000000000E+00  0.00000000000E+00  0.45593999997E+02  0.45594000000E+02  0.51100000000E-03 0.  1.
         11   -1    0    0    0    0 -0.00000000000E+00 -0.00000000000E+00 -0.45593999997E+02  0.45594000000E+02  0.51100000000E-03 0. -1.
    9900012    2    1    2    0    0 -0.16866218762E+02  0.58512833342E+01 -0.39559025819E+02  0.47787269871E+02  0.19999994650E+02 0.  0.
        -12    1    1    2    0    0  0.16866218762E+02 -0.58512833342E+01  0.39559025819E+02  0.43400730129E+02  0.00000000000E+00 0.  1.
         11    1    3    3    0    0 -0.98283684537E+01 -0.28211612912E+01 -0.13487978352E+02  0.16925759593E+02  0.51100000000E-03 0. -1.
        -11    1    3    3    0    0 -0.38591014278E+01  0.94206042426E+01 -0.25615394147E+02  0.27564267915E+02  0.51100000000E-03 0.  1.
        -12    1    3    3    0    0 -0.31787488804E+01 -0.74815961716E+00 -0.45565331996E+00  0.32972423638E+01  0.00000000000E+00 0.  1.
</event>
<event>
 7    1  0.2935819E-010  0.4778728E+02  0.7816164E-02  0.1312668E+00
        -11   -1    0    0    0    0  0.00000000000E+00  0.00000000000E+00  0.45593999997E+02  0.45594000000E+02  0.51100000000E-03 0. -1.
         11   -1    0    0    0    0 -0.00000000000E+00 -0.00000000000E+00 -0.45593999997E+02  0.45594000000E+02  0.51100000000E-03 0.  1.
    9900012    2    1    2    0    0  0.31381761727E+02  0.81815697406E+01  0.28842154263E+02  0.47787275179E+02  0.20000018850E+02 0.  0.
        -12    1    1    2    0    0 -0.31381761727E+02 -0.81815697406E+01 -0.28842154263E+02  0.43400724821E+02  0.00000000000E+00 0.  1.
         11    1    3    3    0    0  0.17542667550E+02  0.68738034645E+01  0.20422937718E+02  0.27786520907E+02  0.51100000000E-03 0. -1.
        -11    1    3    3    0    0  0.27295226307E+01  0.48081976348E+01 -0.16489504957E+00  0.55313876130E+01  0.51100000000E-03 0.  1.
        -12    1    3    3    0    0  0.11109571546E+02 -0.35004313587E+01  0.85841115943E+01  0.14469366659E+02  0.00000000000E+00 0.  1.
</event>
<event>
 7    1  0.2935819E-010  0.4778727E+02  0.7816164E-02  0.1312668E+00
        -11   -1    0    0    0    0  0.00000000000E+00  0.00000000000E+00  0.45593999997E+02  0.45594000000E+02  0.51100000000E-03 0.  1.
         11   -1    0    0    0    0 -0.00000000000E+00 -0.00000000000E+00 -0.45593999997E+02  0.45594000000E+02  0.51100000000E-03 0. -1.
    9900012    2    1    2    0    0  0.39509656800E+02  0.15915480844E+02 -0.83251529375E+01  0.47787266338E+02  0.19999978542E+02 0.  0.
        -12    1    1    2    0    0 -0.39509656800E+02 -0.15915480844E+02  0.83251529375E+01  0.43400733662E+02  0.00000000000E+00 0.  1.
         11    1    3    3    0    0  0.54277653449E+01  0.17812488184E+01 -0.86689410673E+01  0.10381908470E+02  0.51100000000E-03 0. -1.
        -11    1    3    3    0    0  0.23402716358E+02  0.10184072087E+02  0.30433245187E+01  0.25703390469E+02  0.51100000000E-03 0.  1.
        -12    1    3    3    0    0  0.10679175097E+02  0.39501599387E+01 -0.26995363889E+01  0.11701967399E+02  0.00000000000E+00 0.  1.
</event>
<event>
 7    1  0.2935819E-010  0.4778727E+02  0.7816164E-02  0.1312668E+00
        -11   -1    0    0    0    0  0.00000000000E+00  0.00000000000E+00  0.45593999997E+02  0.45594000000E+02  0.51100000000E-03 0. -1.
         11   -1    0    0    0    0 -0.00000000000E+00 -0.00000000000E+00 -0.45593999997E+02  0.45594000000E+02  0.51100000000E-03 0.  1.
    9900012    2    1    2    0    0 -0.17694462196E+02  0.35134381674E+02 -0.18333144343E+02  0.47787274781E+02  0.20000017035E+02 0.  0.
        -12    1    1    2    0    0  0.17694462196E+02 -0.35134381674E+02  0.18333144343E+02  0.43400725219E+02  0.00000000000E+00 0.  1.
         11    1    3    3    0    0 -0.64764089308E+01  0.22708246884E+01 -0.36964222156E+01  0.77951302017E+01  0.51100000000E-03 0. -1.
        -11    1    3    3    0    0  0.19470350544E+01  0.12558486182E+02 -0.26301745830E+01  0.12977840317E+02  0.51100000000E-03 0.  1.
        -12    1    3    3    0    0 -0.13165088320E+02  0.20305070803E+02 -0.12006547545E+02  0.27014304262E+02  0.00000000000E+00 0.  1.
</event>
<event>
 7    1  0.2935819E-010  0.4778727E+02  0.7816164E-02  0.1312668E+00
        -11   -1    0    0    0    0  0.00000000000E+00  0.00000000000E+00  0.45593999997E+02  0.45594000000E+02  0.51100000000E-03 0.  1.
         11   -1    0    0    0    0 -0.00000000000E+00 -0.00000000000E+00 -0.45593999997E+02  0.45594000000E+02  0.51100000000E-03 0. -1.
    9900012    2    1    2    0    0  0.35211760541E+02  0.13870899231E+02 -0.21245079440E+02  0.47787270441E+02  0.19999997247E+02 0.  0.
        -12    1    1    2    0    0 -0.35211760541E+02 -0.13870899231E+02  0.21245079440E+02  0.43400729559E+02  0.00000000000E+00 0.  1.
         11    1    3    3    0    0  0.27537263043E+02  0.11003527730E+02 -0.18281679818E+02  0.34836737729E+02  0.51100000000E-03 0. -1.
        -11    1    3    3    0    0  0.22495357609E+01  0.27816862286E+01  0.31571648190E+01  0.47713603269E+01  0.51100000000E-03 0.  1.
         12    1    3    3    0    0  0.54249617372E+01  0.85685272302E-01 -0.61205644413E+01  0.81791723846E+01  0.00000000000E+00 0. -1.
</event>
<event>
 7    1  0.2935819E-010  0.4778727E+02  0.7816164E-02  0.1312668E+00
        -11   -1    0    0    0    0  0.00000000000E+00  0.00000000000E+00  0.45593999997E+02  0.45594000000E+02  0.51100000000E-03 0.  1.
         11   -1    0    0    0    0 -0.00000000000E+00 -0.00000000000E+00 -0.45593999997E+02  0.45594000000E+02  0.51100000000E-03 0. -1.
    9900012    2    1    2    0    0  0.93870452751E+01 -0.42338450288E+02  0.17211283943E+01  0.47787271035E+02  0.19999999956E+02 0.  0.
        -12    1    1    2    0    0 -0.93870452751E+01  0.42338450288E+02 -0.17211283943E+01  0.43400728965E+02  0.00000000000E+00 0.  1.
         11    1    3    3    0    0  0.19104892151E+01 -0.15804824019E+02  0.50847641839E+01  0.16712188916E+02  0.51100000000E-03 0. -1.
        -11    1    3    3    0    0  0.78982079850E+01 -0.25749499548E+02 -0.65900423313E+01  0.27728091794E+02  0.51100000000E-03 0.  1.
        -12    1    3    3    0    0 -0.42165192509E+00 -0.78412672093E+00  0.32264065417E+01  0.33469903245E+01  0.00000000000E+00 0.  1.
</event>
<event>
 7    1  0.2935819E-010  0.4778728E+02  0.7816164E-02  0.1312668E+00
        -11   -1    0    0    0    0  0.00000000000E+00  0.00000000000E+00  0.45593999997E+02  0.45594000000E+02  0.51100000000E-03 0. -1.
         11   -1    0    0    0    0 -0.00000000000E+00 -0.00000000000E+00 -0.45593999997E+02  0.45594000000E+02  0.51100000000E-03 0.  1.
    9900012    2    1    2    0    0 -0.32795176523E+02 -0.26772680305E+02 -0.95562908239E+01  0.47787277561E+02  0.20000029711E+02 0.  0.
        -12    1    1    2    0    0  0.32795176523E+02  0.26772680305E+02  0.95562908239E+01  0.43400722439E+02  0.00000000000E+00 0.  1.
         11    1    3    3    0    0 -0.16804129278E+02 -0.90114590975E+01 -0.68127985346E+01  0.20248441422E+02  0.51100000000E-03 0. -1.
        -11    1    3    3    0    0 -0.47081245218E+00  0.19710350220E+01  0.81321160496E+00  0.21835651579E+01  0.51100000000E-03 0.  1.
        -12    1    3    3    0    0 -0.15520234793E+02 -0.19732256230E+02 -0.35567038942E+01  0.25355270981E+02  0.00000000000E+00 0.  1.
</event>
<event>
 7    1  0.2964875E-010  0.4778727E+02  0.7816164E-02  0.1312668E+00
        -11   -1    0    0    0    0  0.00000000000E+00  0.00000000000E+00  0.45593999997E+02  0.45594000000E+02  0.51100000000E-03 0. -1.
         11   -1    0    0    0    0 -0.00000000000E+00 -0.00000000000E+00 -0.45593999997E+02  0.45594000000E+02  0.51100000000E-03 0.  1.
    9900012    2    1    2    0    0  0.61830215713E+01 -0.25061803261E+00  0.42957311337E+02  0.47787272328E+02  0.20000005852E+02 0.  0.
        -12    1    1    2    0    0 -0.61830215713E+01  0.25061803261E+00 -0.42957311337E+02  0.43400727672E+02  0.00000000000E+00 0.  1.
         11    1    3    3    0    0  0.85154715729E+01  0.13241829877E+01  0.14233527714E+02  0.16639111399E+02  0.51100000000E-03 0. -1.
        -11    1    3    3    0    0 -0.48345578320E+01  0.93282019052E+00  0.45113999423E+01  0.66780111290E+01  0.51100000000E-03 0.  1.
        -12    1    3    3    0    0  0.25021078305E+01 -0.25076212109E+01  0.24212383681E+02  0.24470149800E+02  0.00000000000E+00 0.  1.
</event>
<event>
 7    1  0.2935819E-010  0.4778727E+02  0.7816164E-02  0.1312668E+00
        -11   -1    0    0    0    0  0.00000000000E+00  0.00000000000E+00  0.45593999997E+02  0.45594000000E+02  0.51100000000E-03 0. -1.
         11   -1    0    0    0    0 -0.00000000000E+00 -0.00000000000E+00 -0.45593999997E+02  0.45594000000E+02  0.51100000000E-03 0.  1.
    9900012    2    1    2    0    0  0.26682359707E+02 -0.12250274336E+02  0.31962572059E+02  0.47787267823E+02  0.19999985313E+02 0.  0.
        -12    1    1    2    0    0 -0.26682359707E+02  0.12250274336E+02 -0.31962572059E+02  0.43400732177E+02  0.00000000000E+00 0.  1.
         11    1    3    3    0    0  0.18548864423E+02 -0.13900988028E+02  0.29444292582E+02  0.37473513386E+02  0.51100000000E-03 0. -1.
        -11    1    3    3    0    0  0.30088516917E+01  0.34429911969E+01  0.11758172961E+01  0.47212205477E+01  0.51100000000E-03 0.  1.
         12    1    3    3    0    0  0.51246435920E+01 -0.17922775056E+01  0.13424621804E+01  0.55925338898E+01  0.00000000000E+00 0. -1.
</event>
<event>
 7    1  0.2935819E-010  0.4778727E+02  0.7816164E-02  0.1312668E+00
        -11   -1    0    0    0    0  0.00000000000E+00  0.00000000000E+00  0.45593999997E+02  0.45594000000E+02  0.51100000000E-03 0.  1.
         11   -1    0    0    0    0 -0.00000000000E+00 -0.00000000000E+00 -0.45593999997E+02  0.45594000000E+02  0.51100000000E-03 0. -1.
    9900012    2    1    2    0    0 -0.38418320492E+02  0.19059304966E+02 -0.66632594116E+01  0.47787268656E+02  0.19999989108E+02 0.  0.
        -12    1    1    2    0    0  0.38418320492E+02 -0.19059304966E+02  0.66632594116E+01  0.43400731344E+02  0.00000000000E+00 0.  1.
         11    1    3    3    0    0 -0.34024818192E+02  0.13221194421E+02 -0.49190213608E+01  0.36833205214E+02  0.51100000000E-03 0. -1.
        -11    1    3    3    0    0 -0.47003703844E+01  0.75731485357E+01 -0.78460518117E+00  0.89477184827E+01  0.51100000000E-03 0.  1.
         12    1    3    3    0    0  0.30686808380E+00 -0.17350379908E+01 -0.95963286959E+00  0.20063449591E+01  0.00000000000E+00 0. -1.
</event>
<event>
 7    1  0.2935819E-010  0.4778727E+02  0.7816164E-02  0.1312668E+00
        -11   -1    0    0    0    0  0.00000000000E+00  0.00000000000E+00  0.45593999997E+02  0.45594000000E+02  0.51100000000E-03 0.  1.
         11   -1    0    0    0    0 -0.00000000000E+00 -0.00000000000E+00 -0.45593999997E+02  0.45594000000E+02  0.51100000000E-03 0. -1.
    9900012    2    1    2    0    0  0.12076543212E+02  0.24374743884E+02 -0.33817932624E+02  0.47787267260E+02  0.19999982747E+02 0.  0.
        -12    1    1    2    0    0 -0.12076543212E+02 -0.24374743884E+02  0.33817932624E+02  0.43400732740E+02  0.00000000000E+00 0.  1.
         11    1    3    3    0    0  0.87665713920E+01  0.21404335294E+02 -0.14375802874E+02  0.27233473004E+02  0.51100000000E-03 0. -1.
        -11    1    3    3    0    0  0.20858709469E+01  0.36120029681E+01 -0.18274722699E+02  0.18744676925E+02  0.51100000000E-03 0.  1.
         12    1    3    3    0    0  0.12241008730E+01 -0.64159437778E+00 -0.11674070511E+01  0.18091173306E+01  0.00000000000E+00 0. -1.
</event>
<event>
 7    1  0.2935819E-010  0.4778727E+02  0.7816164E-02  0.1312668E+00
        -11   -1    0    0    0    0  0.00000000000E+00  0.00000000000E+00  0.45593999997E+02  0.45594000000E+02  0.51100000000E-03 0.  1.
         11   -1    0    0    0    0 -0.00000000000E+00 -0.00000000000E+00 -0.45593999997E+02  0.45594000000E+02  0.51100000000E-03 0. -1.
    9900012    2    1    2    0    0  0.27917898572E+02 -0.30689200561E+02 -0.12743139999E+02  0.47787266034E+02  0.19999977155E+02 0.  0.
        -12    1    1    2    0    0 -0.27917898572E+02  0.30689200561E+02  0.12743139999E+02  0.43400733966E+02  0.00000000000E+00 0.  1.
         11    1    3    3    0    0  0.21608205020E+02 -0.24730647972E+02 -0.15629180627E+02  0.36370190550E+02  0.51100000000E-03 0. -1.
        -11    1    3    3    0    0  0.77031349961E+01 -0.41974638982E+01  0.26216686591E+01  0.91558800103E+01  0.51100000000E-03 0.  1.
         12    1    3    3    0    0 -0.13934414438E+01 -0.17610886906E+01  0.26437196805E+00  0.22611954739E+01  0.00000000000E+00 0. -1.
</event>
<event>
 7    1  0.2935819E-010  0.4778727E+02  0.7816164E-02  0.1312668E+00
        -11   -1    0    0    0    0  0.00000000000E+00  0.00000000000E+00  0.45593999997E+02  0.45594000000E+02  0.51100000000E-03 0.  1.
         11   -1    0    0    0    0 -0.00000000000E+00 -0.00000000000E+00 -0.45593999997E+02  0.45594000000E+02  0.51100000000E-03 0. -1.
    9900012    2    1    2    0    0  0.37773064713E+02 -0.29374292797E+01  0.21170510413E+02  0.47787269364E+02  0.19999992339E+02 0.  0.
        -12    1    1    2    0    0 -0.37773064713E+02  0.29374292797E+01 -0.21170510413E+02  0.43400730636E+02  0.00000000000E+00 0.  1.
         11    1    3    3    0    0  0.32363735195E+02 -0.30708873636E+01  0.10892920576E+02  0.34285527908E+02  0.51100000000E-03 0. -1.
        -11    1    3    3    0    0  0.50685088092E+01  0.15266223561E+01  0.10757498041E+02  0.11989333665E+02  0.51100000000E-03 0.  1.
         12    1    3    3    0    0  0.34082070810E+00 -0.13931642722E+01 -0.47990820329E+00  0.15124077916E+01  0.00000000000E+00 0. -1.
</event>
<event>
 7    1  0.2935819E-010  0.4778727E+02  0.7816164E-02  0.1312668E+00
        -11   -1    0    0    0    0  0.00000000000E+00  0.00000000000E+00  0.45593999997E+02  0.45594000000E+02  0.51100000000E-03 0.  1.
         11   -1    0    0    0    0 -0.00000000000E+00 -0.00000000000E+00 -0.45593999997E+02  0.45594000000E+02  0.51100000000E-03 0. -1.
    9900012    2    1    2    0    0 -0.35989735540E+02  0.23043168272E+02  0.75746057708E+01  0.47787270504E+02  0.19999997536E+02 0.  0.
        -12    1    1    2    0    0  0.35989735540E+02 -0.23043168272E+02 -0.75746057708E+01  0.43400729496E+02  0.00000000000E+00 0.  1.
         11    1    3    3    0    0 -0.93471042474E+01  0.12133261065E+02 -0.46142008693E+01  0.15996100519E+02  0.51100000000E-03 0. -1.
        -11    1    3    3    0    0 -0.39179792687E+01  0.39851020683E+01  0.19021093656E+01  0.59033567014E+01  0.51100000000E-03 0.  1.
         12    1    3    3    0    0 -0.22724652023E+02  0.69248051381E+01  0.10286697275E+02  0.25887813284E+02  0.00000000000E+00 0. -1.
</event>
<event>
 7    1  0.2935819E-010  0.4778728E+02  0.7816164E-02  0.1312668E+00
        -11   -1    0    0    0    0  0.00000000000E+00  0.00000000000E+00  0.45593999997E+02  0.45594000000E+02  0.51100000000E-03 0.  1.
         11   -1    0    0    0    0 -0.00000000000E+00 -0.00000000000E+00 -0.45593999997E+02  0.45594000000E+02  0.51100000000E-03 0. -1.
    9900012    2    1    2    0    0  0.15520364075E+02  0.40506530006E+02  0.14006574185E+01  0.47787279783E+02  0.20000039843E+02 0.  0.
        -12    1    1    2    0    0 -0.15520364075E+02 -0.40506530006E+02 -0.14006574185E+01  0.43400720217E+02  0.00000000000E+00 0.  1.
         11    1    3    3    0    0  0.11949247100E+02  0.30119350484E+02 -0.51897842197E+01  0.32816057660E+02  0.51100000000E-03 0. -1.
        -11    1    3    3    0    0 -0.19476002704E+00 -0.98475291152E+00  0.18171661177E+01  0.20759968028E+01  0.51100000000E-03 0.  1.
         12    1    3    3    0    0  0.37658770013E+01  0.11371932434E+02  0.47732755205E+01  0.12895225320E+02  0.00000000000E+00 0. -1.
</event>
<event>
 7    1  0.2935819E-010  0.4778727E+02  0.7816164E-02  0.1312668E+00
        -11   -1    0    0    0    0  0.00000000000E+00  0.00000000000E+00  0.45593999997E+02  0.45594000000E+02  0.51100000000E-03 0.  1.
         11   -1    0    0    0    0 -0.00000000000E+00 -0.00000000000E+00 -0.45593999997E+02  0.45594000000E+02  0.51100000000E-03 0. -1.
    9900012    2    1    2    0    0  0.60085940029E+01  0.47267750507E+01 -0.42722098792E+02  0.47787270404E+02  0.19999997081E+02 0.  0.
        -12    1    1    2    0    0 -0.60085940029E+01 -0.47267750507E+01  0.42722098792E+02  0.43400729596E+02  0.00000000000E+00 0.  1.
         11    1    3    3    0    0  0.47711170032E+01  0.58905023843E+01 -0.82703345763E+01  0.11218734780E+02  0.51100000000E-03 0. -1.
        -11    1    3    3    0    0  0.29415085051E+01  0.85916988667E+00 -0.13287629500E+01  0.33400982648E+01  0.51100000000E-03 0.  1.
         12    1    3    3    0    0 -0.17040315054E+01 -0.20228972202E+01 -0.33123001265E+02  0.33228437360E+02  0.00000000000E+00 0. -1.
</event>
<event>
 7    1  0.2935819E-010  0.4778727E+02  0.7816164E-02  0.1312668E+00
        -11   -1    0    0    0    0  0.00000000000E+00  0.00000000000E+00  0.45593999997E+02  0.45594000000E+02  0.51100000000E-03 0. -1.
         11   -1    0    0    0    0 -0.00000000000E+00 -0.00000000000E+00 -0.45593999997E+02  0.45594000000E+02  0.51100000000E-03 0.  1.
    9900012    2    1    2    0    0  0.17265778597E+02 -0.88664116888E+01  0.38818848267E+02  0.47787270196E+02  0.19999996131E+02 0.  0.
        -12    1    1    2    0    0 -0.17265778597E+02  0.88664116888E+01 -0.38818848267E+02  0.43400729804E+02  0.00000000000E+00 0.  1.
         11    1    3    3    0    0  0.46651611032E+01  0.10763407050E+01  0.65360316676E+00  0.48321252874E+01  0.51100000000E-03 0. -1.
        -11    1    3    3    0    0  0.87632958593E+01 -0.12052776361E+02  0.25270235927E+02  0.29336830033E+02  0.51100000000E-03 0.  1.
        -12    1    3    3    0    0  0.38373216341E+01  0.21100239677E+01  0.12895009173E+02  0.13618314875E+02  0.00000000000E+00 0.  1.
</event>
<event>
 7    1  0.2935819E-010  0.4778727E+02  0.7816164E-02  0.1312668E+00
        -11   -1    0    0    0    0  0.00000000000E+00  0.00000000000E+00  0.45593999997E+02  0.45594000000E+02  0.51100000000E-03 0. -1.
         11   -1    0    0    0    0 -0.00000000000E+00 -0.00000000000E+00 -0.45593999997E+02  0.45594000000E+02  0.51100000000E-03 0.  1.
    9900012    2    1    2    0    0 -0.20270186507E+02  0.35070304573E+02  0.15582571270E+02  0.47787271305E+02  0.20000001187E+02 0.  0.
        -12    1    1    2    0    0  0.20270186507E+02 -0.35070304573E+02 -0.15582571270E+02  0.43400728695E+02  0.00000000000E+00 0.  1.
         11    1    3    3    0    0 -0.18344981562E+02  0.17638665709E+02  0.11556217027E+02  0.27950081015E+02  0.51100000000E-03 0. -1.
        -11    1    3    3    0    0 -0.51282182408E+01  0.93013053859E+01  0.30110172122E+01  0.11039888094E+02  0.51100000000E-03 0.  1.
         12    1    3    3    0    0  0.32030132959E+01  0.81303334781E+01  0.10153370312E+01  0.87973021959E+01  0.00000000000E+00 0. -1.
</event>
<event>
 7    1  0.2935819E-010  0.4778727E+02  0.7816164E-02  0.1312668E+00
        -11   -1    0    0    0    0  0.00000000000E+00  0.00000000000E+00  0.45593999997E+02  0.45594000000E+02  0.51100000000E-03 0. -1.
         11   -1    0    0    0    0 -0.00000000000E+00 -0.00000000000E+00 -0.45593999997E+02  0.45594000000E+02  0.51100000000E-03 0.  1.
    9900012    2    1    2    0    0  0.17531482693E+02  0.38128810295E+01  0.39518757734E+02  0.47787272356E+02  0.20000005981E+02 0.  0.
        -12    1    1    2    0    0 -0.17531482693E+02 -0.38128810295E+01 -0.39518757734E+02  0.43400727644E+02  0.00000000000E+00 0.  1.
         11    1    3    3    0    0  0.62495472476E+01 -0.65010501245E+01  0.20187905942E+02  0.22110450925E+02  0.51100000000E-03 0. -1.
        -11    1    3    3    0    0  0.46688204657E+01  0.90248065876E+01  0.11799844114E+02  0.15571812350E+02  0.51100000000E-03 0.  1.
        -12    1    3    3    0    0  0.66131149799E+01  0.12891245664E+01  0.75310076786E+01  0.10105009082E+02  0.00000000000E+00 0.  1.
</event>
<event>
 7    1  0.2935819E-010  0.4778727E+02  0.7816164E-02  0.1312668E+00
        -11   -1    0    0    0    0  0.00000000000E+00  0.00000000000E+00  0.45593999997E+02  0.45594000000E+02  0.51100000000E-03 0. -1.
         11   -1    0    0    0    0 -0.00000000000E+00 -0.00000000000E+00 -0.45593999997E+02  0.45594000000E+02  0.51100000000E-03 0.  1.
    9900012    2    1    2    0    0  0.17933334677E+02 -0.39389961714E+02  0.32326260215E+01  0.47787269044E+02  0.19999990881E+02 0.  0.
        -12    1    1    2    0    0 -0.17933334677E+02  0.39389961714E+02 -0.32326260215E+01  0.43400730956E+02  0.00000000000E+00 0.  1.
         11    1    3    3    0    0  0.95359316403E+01 -0.27234846402E+02  0.10054686649E+01  0.28873548765E+02  0.51100000000E-03 0. -1.
        -11    1    3    3    0    0  0.97348376071E+01 -0.75179518929E+01  0.50797497429E+01  0.13307536271E+02  0.51100000000E-03 0.  1.
        -12    1    3    3    0    0 -0.13374345706E+01 -0.46371634196E+01 -0.28525923863E+01  0.56061840081E+01  0.00000000000E+00 0.  1.
</event>
<event>
 7    1  0.2935819E-010  0.4778727E+02  0.7816164E-02  0.1312668E+00
        -11   -1    0    0    0    0  0.00000000000E+00  0.00000000000E+00  0.45593999997E+02  0.45594000000E+02  0.51100000000E-03 0.  1.
         11   -1    0    0    0    0 -0.00000000000E+00 -0.00000000000E+00 -0.45593999997E+02  0.45594000000E+02  0.51100000000E-03 0. -1.
    9900012    2    1    2    0    0  0.31987055513E+02 -0.25919505851E+02 -0.13734290790E+02  0.47787271349E+02  0.20000001389E+02 0.  0.
        -12    1    1    2    0    0 -0.31987055513E+02  0.25919505851E+02  0.13734290790E+02  0.43400728651E+02  0.00000000000E+00 0.  1.
         11    1    3    3    0    0  0.19438157186E+02 -0.84124175803E+01 -0.14677596209E+02  0.25769023169E+02  0.51100000000E-03 0. -1.
        -11    1    3    3    0    0  0.44563725333E+01 -0.52989650238E+01  0.23317364513E+01  0.73058388717E+01  0.51100000000E-03 0.  1.
         12    1    3    3    0    0  0.80925257930E+01 -0.12208123247E+02 -0.13884310321E+01  0.14712409308E+02  0.00000000000E+00 0. -1.
</event>
<event>
 7    1  0.2935819E-010  0.4778725E+02  0.7816164E-02  0.1312668E+00
        -11   -1    0    0    0    0  0.00000000000E+00  0.00000000000E+00  0.45593999997E+02  0.45594000000E+02  0.51100000000E-03 0.  1.
         11   -1    0    0    0    0 -0.00000000000E+00 -0.00000000000E+00 -0.45593999997E+02  0.45594000000E+02  0.51100000000E-03 0. -1.
    9900012    2    1    2    0    0 -0.29848044678E+02  0.17980431417E+02 -0.25873210648E+02  0.47787254450E+02  0.19999924341E+02 0.  0.
        -12    1    1    2    0    0  0.29848044678E+02 -0.17980431417E+02  0.25873210648E+02  0.43400745550E+02  0.00000000000E+00 0.  1.
         11    1    3    3    0    0 -0.10135494450E+02 -0.63200338070E+00 -0.84250208941E+01  0.13195023810E+02  0.51100000000E-03 0. -1.
        -11    1    3    3    0    0 -0.97444837507E+00  0.83804944998E+01 -0.61235010768E+01  0.10424946206E+02  0.51100000000E-03 0.  1.
        -12    1    3    3    0    0 -0.18738101853E+02  0.10231940298E+02 -0.11324688677E+02  0.24167284435E+02  0.00000000000E+00 0.  1.
</event>
<event>
 7    1  0.2935819E-010  0.4778727E+02  0.7816164E-02  0.1312668E+00
        -11   -1    0    0    0    0  0.00000000000E+00  0.00000000000E+00  0.45593999997E+02  0.45594000000E+02  0.51100000000E-03 0.  1.
         11   -1    0    0    0    0 -0.00000000000E+00 -0.00000000000E+00 -0.45593999997E+02  0.45594000000E+02  0.51100000000E-03 0. -1.
    9900012    2    1    2    0    0  0.34868267031E+02 -0.25738396392E+02 -0.23157254157E+01  0.47787266380E+02  0.19999978733E+02 0.  0.
        -12    1    1    2    0    0 -0.34868267031E+02  0.25738396392E+02  0.23157254157E+01  0.43400733620E+02  0.00000000000E+00 0.  1.
         11    1    3    3    0    0  0.22222577190E+02 -0.20574463101E+02 -0.99553876147E+01  0.31878852107E+02  0.51100000000E-03 0. -1.
        -11    1    3    3    0    0  0.10749843103E+02 -0.39209540870E+01  0.51709752484E+01  0.12556750892E+02  0.51100000000E-03 0.  1.
        -12    1    3    3    0    0  0.18958467381E+01 -0.12429792039E+01  0.24686869506E+01  0.33516633804E+01  0.00000000000E+00 0.  1.
</event>
<event>
 7    1  0.2935819E-010  0.4778727E+02  0.7816164E-02  0.1312668E+00
        -11   -1    0    0    0    0  0.00000000000E+00  0.00000000000E+00  0.45593999997E+02  0.45594000000E+02  0.51100000000E-03 0. -1.
         11   -1    0    0    0    0 -0.00000000000E+00 -0.00000000000E+00 -0.45593999997E+02  0.45594000000E+02  0.51100000000E-03 0.  1.
    9900012    2    1    2    0    0 -0.28320613450E+02  0.30620335594E+02  0.11998398554E+02  0.47787266528E+02  0.19999979407E+02 0.  0.
        -12    1    1    2    0    0  0.28320613450E+02 -0.30620335594E+02 -0.11998398554E+02  0.43400733472E+02  0.00000000000E+00 0.  1.
         11    1    3    3    0    0 -0.81213804404E+01  0.89051969689E+01  0.35789992386E+00  0.12057671663E+02  0.51100000000E-03 0. -1.
        -11    1    3    3    0    0 -0.16113913809E+02  0.54844578008E+01  0.52304682274E+01  0.17807169729E+02  0.51100000000E-03 0.  1.
        -12    1    3    3    0    0 -0.40853192002E+01  0.16230680824E+02  0.64100304027E+01  0.17922425136E+02  0.00000000000E+00 0.  1.
</event>
<event>
 7    1  0.2935819E-010  0.4778725E+02  0.7816164E-02  0.1312668E+00
        -11   -1    0    0    0    0  0.00000000000E+00  0.00000000000E+00  0.45593999997E+02  0.45594000000E+02  0.51100000000E-03 0. -1.
         11   -1    0    0    0    0 -0.00000000000E+00 -0.00000000000E+00 -0.45593999997E+02  0.45594000000E+02  0.51100000000E-03 0.  1.
    9900012    2    1    2    0    0 -0.16265940487E+02  0.48032309781E+00  0.40234483721E+02  0.47787248734E+02  0.19999898276E+02 0.  0.
        -12    1    1    2    0    0  0.16265940487E+02 -0.48032309781E+00 -0.40234483721E+02  0.43400751266E+02  0.00000000000E+00 0.  1.
         11    1    3    3    0    0 -0.12808459776E+02 -0.37001209458E+01  0.27665980903E+02  0.30710813021E+02  0.51100000000E-03 0. -1.
        -11    1    3    3    0    0  0.25664518156E+01  0.48620003747E+01  0.59856531164E+01  0.81273468030E+01  0.51100000000E-03 0.  1.
        -12    1    3    3    0    0 -0.60239325260E+01 -0.68155633099E+00  0.65828497020E+01  0.89490889095E+01  0.00000000000E+00 0.  1.
</event>
<event>
 7    1  0.2935819E-010  0.4778730E+02  0.7816164E-02  0.1312668E+00
        -11   -1    0    0    0    0  0.00000000000E+00  0.00000000000E+00  0.45593999997E+02  0.45594000000E+02  0.51100000000E-03 0.  1.
         11   -1    0    0    0    0 -0.00000000000E+00 -0.00000000000E+00 -0.45593999997E+02  0.45594000000E+02  0.51100000000E-03 0. -1.
    9900012    2    1    2    0    0  0.19419623129E+02 -0.24412381069E+02 -0.30175067987E+02  0.47787299085E+02  0.20000127846E+02 0.  0.
        -12    1    1    2    0    0 -0.19419623129E+02  0.24412381069E+02  0.30175067987E+02  0.43400700915E+02  0.00000000000E+00 0.  1.
         11    1    3    3    0    0  0.62617737403E+01 -0.18578136386E+02 -0.19714111751E+02  0.27802934455E+02  0.51100000000E-03 0. -1.
        -11    1    3    3    0    0  0.26745168352E+01  0.44363766905E+00  0.13159609771E+01  0.30135706791E+01  0.51100000000E-03 0.  1.
         12    1    3    3    0    0  0.10483332553E+02 -0.62778823523E+01 -0.11776917214E+02  0.16970793950E+02  0.00000000000E+00 0. -1.
</event>
<event>
 7    1  0.2935819E-010  0.4778727E+02  0.7816164E-02  0.1312668E+00
        -11   -1    0    0    0    0  0.00000000000E+00  0.00000000000E+00  0.45593999997E+02  0.45594000000E+02  0.51100000000E-03 0. -1.
         11   -1    0    0    0    0 -0.00000000000E+00 -0.00000000000E+00 -0.45593999997E+02  0.45594000000E+02  0.51100000000E-03 0.  1.
    9900012    2    1    2    0    0 -0.17700787250E+02  0.39493637931E+02 -0.32493091061E+01  0.47787270560E+02  0.19999997789E+02 0.  0.
        -12    1    1    2    0    0  0.17700787250E+02 -0.39493637931E+02  0.32493091061E+01  0.43400729440E+02  0.00000000000E+00 0.  1.
         11    1    3    3    0    0 -0.60436551496E+01  0.29951264801E+02 -0.92962991243E+00  0.30569073306E+02  0.51100000000E-03 0.  1.
        -11    1    3    3    0    0 -0.50071120404E+01  0.10452234620E+01 -0.37380648205E+01  0.63353604423E+01  0.51100000000E-03 0. -1.
        -12    1    3    3    0    0 -0.66500200597E+01  0.84971496678E+01  0.14183856268E+01  0.10882836811E+02  0.00000000000E+00 0.  1.
</event>
<event>
 7    1  0.2935819E-010  0.4778728E+02  0.7816164E-02  0.1312668E+00
        -11   -1    0    0    0    0  0.00000000000E+00  0.00000000000E+00  0.45593999997E+02  0.45594000000E+02  0.51100000000E-03 0.  1.
         11   -1    0    0    0    0 -0.00000000000E+00 -0.00000000000E+00 -0.45593999997E+02  0.45594000000E+02  0.51100000000E-03 0. -1.
    9900012    2    1    2    0    0 -0.32029297533E+02  0.29127203296E+02 -0.30582753609E+01  0.47787275115E+02  0.20000018561E+02 0.  0.
        -12    1    1    2    0    0  0.32029297533E+02 -0.29127203296E+02  0.30582753609E+01  0.43400724885E+02  0.00000000000E+00 0.  1.
         11    1    3    3    0    0 -0.29957954562E+02  0.22288552423E+02 -0.36838542033E+01  0.37521052660E+02  0.51100000000E-03 0. -1.
        -11    1    3    3    0    0  0.33329391371E+00  0.28554077207E+01  0.37028910415E+01  0.46878396315E+01  0.51100000000E-03 0.  1.
         12    1    3    3    0    0 -0.24046368852E+01  0.39832431527E+01 -0.30773121991E+01  0.55783828243E+01  0.00000000000E+00 0. -1.
</event>
<event>
 7    1  0.2935819E-010  0.4778727E+02  0.7816164E-02  0.1312668E+00
        -11   -1    0    0    0    0  0.00000000000E+00  0.00000000000E+00  0.45593999997E+02  0.45594000000E+02  0.51100000000E-03 0. -1.
         11   -1    0    0    0    0 -0.00000000000E+00 -0.00000000000E+00 -0.45593999997E+02  0.45594000000E+02  0.51100000000E-03 0.  1.
    9900012    2    1    2    0    0 -0.77559433195E+01 -0.41312820177E+02  0.10803702180E+02  0.47787265576E+02  0.19999975068E+02 0.  0.
        -12    1    1    2    0    0  0.77559433195E+01  0.41312820177E+02 -0.10803702180E+02  0.43400734424E+02  0.00000000000E+00 0.  1.
         11    1    3    3    0    0  0.13840472686E+01 -0.17407222138E+02 -0.21472212719E+01  0.17593678661E+02  0.51100000000E-03 0. -1.
        -11    1    3    3    0    0 -0.94069936992E+01 -0.17486828033E+02  0.60330816750E+01  0.20752801253E+02  0.51100000000E-03 0.  1.
        -12    1    3    3    0    0  0.26700311116E+00 -0.64187700068E+01  0.69178417767E+01  0.94407856617E+01  0.00000000000E+00 0.  1.
</event>
<event>
 7    1  0.2935819E-010  0.4778727E+02  0.7816164E-02  0.1312668E+00
        -11   -1    0    0    0    0  0.00000000000E+00  0.00000000000E+00  0.45593999997E+02  0.45594000000E+02  0.51100000000E-03 0.  1.
         11   -1    0    0    0    0 -0.00000000000E+00 -0.00000000000E+00 -0.45593999997E+02  0.45594000000E+02  0.51100000000E-03 0. -1.
    9900012    2    1    2    0    0  0.34720282933E+01  0.43002254918E+02 -0.47301263418E+01  0.47787274157E+02  0.20000014190E+02 0.  0.
        -12    1    1    2    0    0 -0.34720282933E+01 -0.43002254918E+02  0.47301263418E+01  0.43400725843E+02  0.00000000000E+00 0.  1.
         11    1    3    3    0    0 -0.24067378806E+01  0.93687853800E+00  0.26004435524E+01  0.36650287245E+01  0.51100000000E-03 0. -1.
        -11    1    3    3    0    0 -0.80993484663E+00  0.11335357772E+01 -0.18064071819E+01  0.22812288315E+01  0.51100000000E-03 0.  1.
         12    1    3    3    0    0  0.66887010206E+01  0.40931840603E+02 -0.55241627124E+01  0.41841016601E+02  0.00000000000E+00 0. -1.
</event>
<event>
 7    1  0.2935819E-010  0.4778727E+02  0.7816164E-02  0.1312668E+00
        -11   -1    0    0    0    0  0.00000000000E+00  0.00000000000E+00  0.45593999997E+02  0.45594000000E+02  0.51100000000E-03 0. -1.
         11   -1    0    0    0    0 -0.00000000000E+00 -0.00000000000E+00 -0.45593999997E+02  0.45594000000E+02  0.51100000000E-03 0.  1.
    9900012    2    1    2    0    0  0.40784109308E+02 -0.12338104299E+01  0.14790439205E+02  0.47787274751E+02  0.20000016902E+02 0.  0.
        -12    1    1    2    0    0 -0.40784109308E+02  0.12338104299E+01 -0.14790439205E+02  0.43400725249E+02  0.00000000000E+00 0.  1.
         11    1    3    3    0    0  0.15325295719E+02  0.53681047815E+01  0.32317039321E+01  0.16556725171E+02  0.51100000000E-03 0. -1.
        -11    1    3    3    0    0  0.14545159009E+02 -0.74113045535E+01  0.12027590498E+02  0.20276883864E+02  0.51100000000E-03 0.  1.
        -12    1    3    3    0    0  0.10913654580E+02  0.80938934204E+00 -0.46885522596E+00  0.10953665716E+02  0.00000000000E+00 0.  1.
</event>
<event>
 7    1  0.2935819E-010  0.4778727E+02  0.7816164E-02  0.1312668E+00
        -11   -1    0    0    0    0  0.00000000000E+00  0.00000000000E+00  0.45593999997E+02  0.45594000000E+02  0.51100000000E-03 0.  1.
         11   -1    0    0    0    0 -0.00000000000E+00 -0.00000000000E+00 -0.45593999997E+02  0.45594000000E+02  0.51100000000E-03 0. -1.
    9900012    2    1    2    0    0  0.32399555864E+02 -0.18156160747E+02 -0.22455421221E+02  0.47787270335E+02  0.19999996764E+02 0.  0.
        -12    1    1    2    0    0 -0.32399555864E+02  0.18156160747E+02  0.22455421221E+02  0.43400729665E+02  0.00000000000E+00 0.  1.
         11    1    3    3    0    0  0.20525340880E+02 -0.12288699734E+02 -0.21754760372E+02  0.32335295862E+02  0.51100000000E-03 0. -1.
        -11    1    3    3    0    0  0.30538139954E+01  0.18317822275E+01  0.79521588477E+00  0.36487771393E+01  0.51100000000E-03 0.  1.
         12    1    3    3    0    0  0.88204009888E+01 -0.76992432408E+01 -0.14958767334E+01  0.11803197333E+02  0.00000000000E+00 0. -1.
</event>
<event>
 7    1  0.2935819E-010  0.4778727E+02  0.7816164E-02  0.1312668E+00
        -11   -1    0    0    0    0  0.00000000000E+00  0.00000000000E+00  0.45593999997E+02  0.45594000000E+02  0.51100000000E-03 0. -1.
         11   -1    0    0    0    0 -0.00000000000E+00 -0.00000000000E+00 -0.45593999997E+02  0.45594000000E+02  0.51100000000E-03 0.  1.
    9900012    2    1    2    0    0 -0.42419620936E+02 -0.39504849979E+01 -0.82820869701E+01  0.47787268017E+02  0.19999986196E+02 0.  0.
        -12    1    1    2    0    0  0.42419620936E+02  0.39504849979E+01  0.82820869701E+01  0.43400731983E+02  0.00000000000E+00 0.  1.
         11    1    3    3    0    0 -0.10138364550E+02  0.35824857897E+01  0.21841603815E+01  0.10972292240E+02  0.51100000000E-03 0. -1.
        -11    1    3    3    0    0 -0.15867623859E+02 -0.62654606747E+01 -0.11078055266E+02  0.20341110912E+02  0.51100000000E-03 0.  1.
        -12    1    3    3    0    0 -0.16413632528E+02 -0.12675101129E+01  0.61180791453E+00  0.16473864865E+02  0.00000000000E+00 0.  1.
</event>
<event>
 7    1  0.2935819E-010  0.4778727E+02  0.7816164E-02  0.1312668E+00
        -11   -1    0    0    0    0  0.00000000000E+00  0.00000000000E+00  0.45593999997E+02  0.45594000000E+02  0.51100000000E-03 0.  1.
         11   -1    0    0    0    0 -0.00000000000E+00 -0.00000000000E+00 -0.45593999997E+02  0.45594000000E+02  0.51100000000E-03 0. -1.
    9900012    2    1    2    0    0  0.31549155987E+02 -0.14882258031E+02 -0.25822324250E+02  0.47787271005E+02  0.19999999822E+02 0.  0.
        -12    1    1    2    0    0 -0.31549155987E+02  0.14882258031E+02  0.25822324250E+02  0.43400728995E+02  0.00000000000E+00 0.  1.
         11    1    3    3    0    0  0.22968838706E+02 -0.11596072084E+02 -0.18685471581E+02  0.31799108285E+02  0.51100000000E-03 0. -1.
        -11    1    3    3    0    0 -0.15372643735E+00 -0.78011252750E+00 -0.68512211800E+01  0.68972051798E+01  0.51100000000E-03 0.  1.
        -12    1    3    3    0    0  0.87340437181E+01 -0.25060734190E+01 -0.28563148944E+00  0.90909575403E+01  0.00000000000E+00 0.  1.
</event>
<event>
 7    1  0.2935819E-010  0.4778724E+02  0.7816164E-02  0.1312668E+00
        -11   -1    0    0    0    0  0.00000000000E+00  0.00000000000E+00  0.45593999997E+02  0.45594000000E+02  0.51100000000E-03 0.  1.
         11   -1    0    0    0    0 -0.00000000000E+00 -0.00000000000E+00 -0.45593999997E+02  0.45594000000E+02  0.51100000000E-03 0. -1.
    9900012    2    1    2    0    0  0.13997683805E+02 -0.24641795966E+02 -0.32870550262E+02  0.47787235780E+02  0.19999839214E+02 0.  0.
        -12    1    1    2    0    0 -0.13997683805E+02  0.24641795966E+02  0.32870550262E+02  0.43400764220E+02  0.00000000000E+00 0.  1.
         11    1    3    3    0    0  0.30836396727E+01  0.80205188351E+00 -0.60072947440E+01  0.67999787689E+01  0.51100000000E-03 0. -1.
        -11    1    3    3    0    0  0.69390639093E+00 -0.17620816558E+02 -0.12021763387E+02  0.21342386873E+02  0.51100000000E-03 0.  1.
        -12    1    3    3    0    0  0.10220137742E+02 -0.78230312919E+01 -0.14841492131E+02  0.19644870138E+02  0.00000000000E+00 0.  1.
</event>
<event>
 7    1  0.2935819E-010  0.4778727E+02  0.7816164E-02  0.1312668E+00
        -11   -1    0    0    0    0  0.00000000000E+00  0.00000000000E+00  0.45593999997E+02  0.45594000000E+02  0.51100000000E-03 0.  1.
         11   -1    0    0    0    0 -0.00000000000E+00 -0.00000000000E+00 -0.45593999997E+02  0.45594000000E+02  0.51100000000E-03 0. -1.
    9900012    2    1    2    0    0 -0.19879967003E+02  0.38297850750E+02  0.46566926345E+01  0.47787271361E+02  0.20000001442E+02 0.  0.
        -12    1    1    2    0    0  0.19879967003E+02 -0.38297850750E+02 -0.46566926345E+01  0.43400728639E+02  0.00000000000E+00 0.  1.
         11    1    3    3    0    0 -0.21537239541E+02  0.32771765634E+02  0.68401855475E+01  0.39807404442E+02  0.51100000000E-03 0. -1.
        -11    1    3    3    0    0  0.12972180534E+01 -0.51850651198E+00  0.31045911492E+00  0.14310865817E+01  0.51100000000E-03 0.  1.
         12    1    3    3    0    0  0.36005448469E+00  0.60445916284E+01 -0.24939520279E+01  0.65487803371E+01  0.00000000000E+00 0. -1.
</event>
<event>
 7    1  0.2935819E-010  0.4778727E+02  0.7816164E-02  0.1312668E+00
        -11   -1    0    0    0    0  0.00000000000E+00  0.00000000000E+00  0.45593999997E+02  0.45594000000E+02  0.51100000000E-03 0.  1.
         11   -1    0    0    0    0 -0.00000000000E+00 -0.00000000000E+00 -0.45593999997E+02  0.45594000000E+02  0.51100000000E-03 0. -1.
    9900012    2    1    2    0    0  0.30618884050E+02 -0.12682165327E+02 -0.28022663362E+02  0.47787273742E+02  0.20000012298E+02 0.  0.
        -12    1    1    2    0    0 -0.30618884050E+02  0.12682165327E+02  0.28022663362E+02  0.43400726258E+02  0.00000000000E+00 0.  1.
         11    1    3    3    0    0  0.16728531641E+02 -0.86015981231E+01 -0.55346557677E+01  0.19607745303E+02  0.51100000000E-03 0. -1.
        -11    1    3    3    0    0  0.30881516100E+01  0.27560846790E+01 -0.65463261993E+01  0.77451320255E+01  0.51100000000E-03 0.  1.
         12    1    3    3    0    0  0.10802200799E+02 -0.68366518829E+01 -0.15941681395E+02  0.20434396413E+02  0.00000000000E+00 0. -1.
</event>
<event>
 7    1  0.2935819E-010  0.4778727E+02  0.7816164E-02  0.1312668E+00
        -11   -1    0    0    0    0  0.00000000000E+00  0.00000000000E+00  0.45593999997E+02  0.45594000000E+02  0.51100000000E-03 0.  1.
         11   -1    0    0    0    0 -0.00000000000E+00 -0.00000000000E+00 -0.45593999997E+02  0.45594000000E+02  0.51100000000E-03 0. -1.
    9900012    2    1    2    0    0  0.14945936312E+02  0.32952994101E+02 -0.23965442427E+02  0.47787271168E+02  0.20000000562E+02 0.  0.
        -12    1    1    2    0    0 -0.14945936312E+02 -0.32952994101E+02  0.23965442427E+02  0.43400728832E+02  0.00000000000E+00 0.  1.
         11    1    3    3    0    0  0.99304173885E+01  0.27821660285E+02 -0.92427214990E+01  0.30952962241E+02  0.51100000000E-03 0. -1.
        -11    1    3    3    0    0  0.52426583436E+01  0.33183081083E+01 -0.99762512008E+01  0.11748285981E+02  0.51100000000E-03 0.  1.
         12    1    3    3    0    0 -0.22713942008E+00  0.18130257073E+01 -0.47464697270E+01  0.50860229454E+01  0.00000000000E+00 0. -1.
</event>
<event>
 7    1  0.2935819E-010  0.4778727E+02  0.7816164E-02  0.1312668E+00
        -11   -1    0    0    0    0  0.00000000000E+00  0.00000000000E+00  0.45593999997E+02  0.45594000000E+02  0.51100000000E-03 0.  1.
         11   -1    0    0    0    0 -0.00000000000E+00 -0.00000000000E+00 -0.45593999997E+02  0.45594000000E+02  0.51100000000E-03 0. -1.
    9900012    2    1    2    0    0 -0.20441229882E+02  0.31230064003E+02 -0.22146393770E+02  0.47787268050E+02  0.19999986348E+02 0.  0.
        -12    1    1    2    0    0  0.20441229882E+02 -0.31230064003E+02  0.22146393770E+02  0.43400731950E+02  0.00000000000E+00 0.  1.
         11    1    3    3    0    0 -0.15536480742E+02  0.23721782962E+02 -0.18525232234E+02  0.33871661463E+02  0.51100000000E-03 0. -1.
        -11    1    3    3    0    0  0.19873878327E+01  0.19660761233E+01 -0.42081277128E+01  0.50520792579E+01  0.51100000000E-03 0.  1.
         12    1    3    3    0    0 -0.68921369733E+01  0.55422049185E+01  0.58696617612E+00  0.88635273289E+01  0.00000000000E+00 0. -1.
</event>
<event>
 7    1  0.2935819E-010  0.4778727E+02  0.7816164E-02  0.1312668E+00
        -11   -1    0    0    0    0  0.00000000000E+00  0.00000000000E+00  0.45593999997E+02  0.45594000000E+02  0.51100000000E-03 0.  1.
         11   -1    0    0    0    0 -0.00000000000E+00 -0.00000000000E+00 -0.45593999997E+02  0.45594000000E+02  0.51100000000E-03 0. -1.
    9900012    2    1    2    0    0 -0.21073043076E+01  0.23365307375E+02 -0.36513624217E+02  0.47787273351E+02  0.20000010516E+02 0.  0.
        -12    1    1    2    0    0  0.21073043076E+01 -0.23365307375E+02  0.36513624217E+02  0.43400726649E+02  0.00000000000E+00 0.  1.
         11    1    3    3    0    0  0.69511928423E+01  0.48062553570E+01 -0.15963586567E+02  0.18062537719E+02  0.51100000000E-03 0. -1.
        -11    1    3    3    0    0 -0.53709897325E+01  0.12544084067E+02 -0.95460383709E+01  0.16653180616E+02  0.51100000000E-03 0.  1.
        -12    1    3    3    0    0 -0.36875074173E+01  0.60149679517E+01 -0.11003999279E+02  0.13071555017E+02  0.00000000000E+00 0.  1.
</event>
<event>
 7    1  0.2935819E-010  0.4778728E+02  0.7816164E-02  0.1312668E+00
        -11   -1    0    0    0    0  0.00000000000E+00  0.00000000000E+00  0.45593999997E+02  0.45594000000E+02  0.51100000000E-03 0.  1.
         11   -1    0    0    0    0 -0.00000000000E+00 -0.00000000000E+00 -0.45593999997E+02  0.45594000000E+02  0.51100000000E-03 0. -1.
    9900012    2    1    2    0    0 -0.23379111845E+02 -0.22100750889E+02 -0.29130683998E+02  0.47787276380E+02  0.20000024329E+02 0.  0.
        -12    1    1    2    0    0  0.23379111845E+02  0.22100750889E+02  0.29130683998E+02  0.43400723620E+02  0.00000000000E+00 0.  1.
         11    1    3    3    0    0 -0.21353591160E+02 -0.22785126285E+02 -0.17250029914E+02  0.35674940330E+02  0.51100000000E-03 0. -1.
        -11    1    3    3    0    0 -0.19295602508E+01  0.53327978157E+00 -0.87294740028E+01  0.89560765245E+01  0.51100000000E-03 0.  1.
         12    1    3    3    0    0 -0.95960434016E-01  0.15109561429E+00 -0.31511800814E+01  0.31562595259E+01  0.00000000000E+00 0. -1.
</event>
<event>
 7    1  0.2935819E-010  0.4778727E+02  0.7816164E-02  0.1312668E+00
        -11   -1    0    0    0    0  0.00000000000E+00  0.00000000000E+00  0.45593999997E+02  0.45594000000E+02  0.51100000000E-03 0.  1.
         11   -1    0    0    0    0 -0.00000000000E+00 -0.00000000000E+00 -0.45593999997E+02  0.45594000000E+02  0.51100000000E-03 0. -1.
    9900012    2    1    2    0    0 -0.12440689001E+02  0.12741158375E+02 -0.39579234135E+02  0.47787266893E+02  0.19999981070E+02 0.  0.
        -12    1    1    2    0    0  0.12440689001E+02 -0.12741158375E+02  0.39579234135E+02  0.43400733107E+02  0.00000000000E+00 0.  1.
         11    1    3    3    0    0 -0.78100091095E+01  0.52302700704E+01 -0.32239203333E+02  0.33581515736E+02  0.51100000000E-03 0. -1.
        -11    1    3    3    0    0  0.13317130714E+01 -0.26370258092E+00 -0.33720564231E+01  0.36350740759E+01  0.51100000000E-03 0.  1.
         12    1    3    3    0    0 -0.59623929628E+01  0.77745908854E+01 -0.39679743789E+01  0.10570677081E+02  0.00000000000E+00 0. -1.
</event>
<event>
 7    1  0.2935819E-010  0.4778727E+02  0.7816164E-02  0.1312668E+00
        -11   -1    0    0    0    0  0.00000000000E+00  0.00000000000E+00  0.45593999997E+02  0.45594000000E+02  0.51100000000E-03 0. -1.
         11   -1    0    0    0    0 -0.00000000000E+00 -0.00000000000E+00 -0.45593999997E+02  0.45594000000E+02  0.51100000000E-03 0.  1.
    9900012    2    1    2    0    0 -0.20894555345E+00 -0.40038723245E+02  0.16747541565E+02  0.47787272290E+02  0.20000005677E+02 0.  0.
        -12    1    1    2    0    0  0.20894555345E+00  0.40038723245E+02 -0.16747541565E+02  0.43400727710E+02  0.00000000000E+00 0.  1.
         11    1    3    3    0    0 -0.78895101228E+01 -0.23315587744E+02  0.81741800595E+01  0.25936040981E+02  0.51100000000E-03 0. -1.
        -11    1    3    3    0    0  0.92043933467E+01 -0.11934154588E+02  0.62890303343E+01  0.16330854400E+02  0.51100000000E-03 0.  1.
        -12    1    3    3    0    0 -0.15238287774E+01 -0.47889809122E+01  0.22843311710E+01  0.55203769091E+01  0.00000000000E+00 0.  1.
</event>
<event>
 7    1  0.2935819E-010  0.4778727E+02  0.7816164E-02  0.1312668E+00
        -11   -1    0    0    0    0  0.00000000000E+00  0.00000000000E+00  0.45593999997E+02  0.45594000000E+02  0.51100000000E-03 0. -1.
         11   -1    0    0    0    0 -0.00000000000E+00 -0.00000000000E+00 -0.45593999997E+02  0.45594000000E+02  0.51100000000E-03 0.  1.
    9900012    2    1    2    0    0  0.43083271112E+02  0.71419629856E-01 -0.52392997564E+01  0.47787267144E+02  0.19999982216E+02 0.  0.
        -12    1    1    2    0    0 -0.43083271112E+02 -0.71419629856E-01  0.52392997564E+01  0.43400732856E+02  0.00000000000E+00 0.  1.
         11    1    3    3    0    0  0.13265336298E+02  0.19905750180E+00  0.44439502555E+01  0.13991335358E+02  0.51100000000E-03 0. -1.
        -11    1    3    3    0    0  0.25187985079E+02 -0.49650212820E+01 -0.73328493087E+01  0.26699376545E+02  0.51100000000E-03 0.  1.
        -12    1    3    3    0    0  0.46299497360E+01  0.48373834101E+01 -0.23504007032E+01  0.70965552403E+01  0.00000000000E+00 0.  1.
</event>
<event>
 7    1  0.2935819E-010  0.4778727E+02  0.7816164E-02  0.1312668E+00
        -11   -1    0    0    0    0  0.00000000000E+00  0.00000000000E+00  0.45593999997E+02  0.45594000000E+02  0.51100000000E-03 0.  1.
         11   -1    0    0    0    0 -0.00000000000E+00 -0.00000000000E+00 -0.45593999997E+02  0.45594000000E+02  0.51100000000E-03 0. -1.
    9900012    2    1    2    0    0 -0.37761336835E+02 -0.17078681638E+02  0.12885002478E+02  0.47787271724E+02  0.20000003097E+02 0.  0.
        -12    1    1    2    0    0  0.37761336835E+02  0.17078681638E+02 -0.12885002478E+02  0.43400728276E+02  0.00000000000E+00 0.  1.
         11    1    3    3    0    0 -0.16461865588E+02 -0.71277006359E+01  0.87807457014E+01  0.19972446779E+02  0.51100000000E-03 0. -1.
        -11    1    3    3    0    0 -0.22746078264E+01 -0.28925830556E+01 -0.44664312773E+01  0.57870446787E+01  0.51100000000E-03 0.  1.
        -12    1    3    3    0    0 -0.19024863421E+02 -0.70583979464E+01  0.85706880540E+01  0.22027780266E+02  0.00000000000E+00 0.  1.
</event>
<event>
 7    1  0.2935819E-010  0.4778727E+02  0.7816164E-02  0.1312668E+00
        -11   -1    0    0    0    0  0.00000000000E+00  0.00000000000E+00  0.45593999997E+02  0.45594000000E+02  0.51100000000E-03 0.  1.
         11   -1    0    0    0    0 -0.00000000000E+00 -0.00000000000E+00 -0.45593999997E+02  0.45594000000E+02  0.51100000000E-03 0. -1.
    9900012    2    1    2    0    0 -0.17477816691E+02 -0.18674026215E+02 -0.35063227214E+02  0.47787271503E+02  0.20000002092E+02 0.  0.
        -12    1    1    2    0    0  0.17477816691E+02  0.18674026215E+02  0.35063227214E+02  0.43400728497E+02  0.00000000000E+00 0.  1.
         11    1    3    3    0    0 -0.18512350567E+02 -0.13689236331E+02 -0.24382523718E+02  0.33535202072E+02  0.51100000000E-03 0. -1.
        -11    1    3    3    0    0  0.83914893779E+00 -0.29531666993E+01  0.29870092879E+00  0.30845724177E+01  0.51100000000E-03 0.  1.
         12    1    3    3    0    0  0.19538493787E+00 -0.20316231846E+01 -0.10979404424E+02  0.11167497014E+02  0.00000000000E+00 0. -1.
</event>
<event>
 7    1  0.2935819E-010  0.4778728E+02  0.7816164E-02  0.1312668E+00
        -11   -1    0    0    0    0  0.00000000000E+00  0.00000000000E+00  0.45593999997E+02  0.45594000000E+02  0.51100000000E-03 0. -1.
         11   -1    0    0    0    0 -0.00000000000E+00 -0.00000000000E+00 -0.45593999997E+02  0.45594000000E+02  0.51100000000E-03 0.  1.
    9900012    2    1    2    0    0  0.29865981485E+02 -0.14737422589E+02  0.27829019777E+02  0.47787276315E+02  0.20000024031E+02 0.  0.
        -12    1    1    2    0    0 -0.29865981485E+02  0.14737422589E+02 -0.27829019777E+02  0.43400723685E+02  0.00000000000E+00 0.  1.
         11    1    3    3    0    0  0.16812875462E+02 -0.64675519678E+01  0.80449458441E+01  0.19728739535E+02  0.51100000000E-03 0. -1.
        -11    1    3    3    0    0  0.11887481156E+02 -0.94257507402E+01  0.21076853786E+02  0.25969034464E+02  0.51100000000E-03 0.  1.
        -12    1    3    3    0    0  0.11656248674E+01  0.11558801185E+01 -0.12927798528E+01  0.20895023159E+01  0.00000000000E+00 0.  1.
</event>
<event>
 7    1  0.2935819E-010  0.4778727E+02  0.7816164E-02  0.1312668E+00
        -11   -1    0    0    0    0  0.00000000000E+00  0.00000000000E+00  0.45593999997E+02  0.45594000000E+02  0.51100000000E-03 0. -1.
         11   -1    0    0    0    0 -0.00000000000E+00 -0.00000000000E+00 -0.45593999997E+02  0.45594000000E+02  0.51100000000E-03 0.  1.
    9900012    2    1    2    0    0  0.33433217595E+02  0.24167014521E+02  0.13483278353E+02  0.47787269306E+02  0.19999992076E+02 0.  0.
        -12    1    1    2    0    0 -0.33433217595E+02 -0.24167014521E+02 -0.13483278353E+02  0.43400730694E+02  0.00000000000E+00 0.  1.
         11    1    3    3    0    0 -0.15781479271E+01  0.26988245111E+01  0.38080416228E+00  0.31494787970E+01  0.51100000000E-03 0. -1.
        -11    1    3    3    0    0  0.28361596680E+02  0.11412828010E+02  0.84733427010E+01  0.31724286378E+02  0.51100000000E-03 0.  1.
         12    1    3    3    0    0  0.66497688425E+01  0.10055362000E+02  0.46291314895E+01  0.12913504131E+02  0.00000000000E+00 0. -1.
</event>
<event>
 7    1  0.2935819E-010  0.4778728E+02  0.7816164E-02  0.1312668E+00
        -11   -1    0    0    0    0  0.00000000000E+00  0.00000000000E+00  0.45593999997E+02  0.45594000000E+02  0.51100000000E-03 0.  1.
         11   -1    0    0    0    0 -0.00000000000E+00 -0.00000000000E+00 -0.45593999997E+02  0.45594000000E+02  0.51100000000E-03 0. -1.
    9900012    2    1    2    0    0  0.19684552874E+02  0.14109866135E+02 -0.36014618336E+02  0.47787277908E+02  0.20000031295E+02 0.  0.
        -12    1    1    2    0    0 -0.19684552874E+02 -0.14109866135E+02  0.36014618336E+02  0.43400722092E+02  0.00000000000E+00 0.  1.
         11    1    3    3    0    0 -0.30067704211E+01  0.23882980240E+01 -0.89355765146E+01  0.97256960535E+01  0.51100000000E-03 0.  1.
        -11    1    3    3    0    0  0.39084654526E+01 -0.99270205633E+00 -0.47897730321E+01  0.62612686835E+01  0.51100000000E-03 0. -1.
         12    1    3    3    0    0  0.18782857843E+02  0.12714270168E+02 -0.22289268789E+02  0.31800313171E+02  0.00000000000E+00 0. -1.
</event>
<event>
 7    1  0.2935819E-010  0.4778727E+02  0.7816164E-02  0.1312668E+00
        -11   -1    0    0    0    0  0.00000000000E+00  0.00000000000E+00  0.45593999997E+02  0.45594000000E+02  0.51100000000E-03 0.  1.
         11   -1    0    0    0    0 -0.00000000000E+00 -0.00000000000E+00 -0.45593999997E+02  0.45594000000E+02  0.51100000000E-03 0. -1.
    9900012    2    1    2    0    0  0.38589319438E+01  0.21771197032E+02 -0.37346312200E+02  0.47787269466E+02  0.19999992804E+02 0.  0.
        -12    1    1    2    0    0 -0.38589319438E+01 -0.21771197032E+02  0.37346312200E+02  0.43400730534E+02  0.00000000000E+00 0.  1.
         11    1    3    3    0    0  0.54882864391E+01  0.10955035865E+02 -0.15852165801E+02  0.20035599809E+02  0.51100000000E-03 0. -1.
        -11    1    3    3    0    0 -0.34952091690E+01 -0.23253722492E+01 -0.40637379525E+01  0.58427570238E+01  0.51100000000E-03 0.  1.
        -12    1    3    3    0    0  0.18658546736E+01  0.13141533416E+02 -0.17430408446E+02  0.21908912634E+02  0.00000000000E+00 0.  1.
</event>
<event>
 7    1  0.2935819E-010  0.4778727E+02  0.7816164E-02  0.1312668E+00
        -11   -1    0    0    0    0  0.00000000000E+00  0.00000000000E+00  0.45593999997E+02  0.45594000000E+02  0.51100000000E-03 0.  1.
         11   -1    0    0    0    0 -0.00000000000E+00 -0.00000000000E+00 -0.45593999997E+02  0.45594000000E+02  0.51100000000E-03 0. -1.
    9900012    2    1    2    0    0 -0.92577222610E+01  0.42188112566E+02  0.42521744469E+01  0.47787271310E+02  0.20000001209E+02 0.  0.
        -12    1    1    2    0    0  0.92577222610E+01 -0.42188112566E+02 -0.42521744469E+01  0.43400728690E+02  0.00000000000E+00 0.  1.
         11    1    3    3    0    0  0.31339317180E+01  0.10691714264E+02  0.19800025954E+01  0.11316125328E+02  0.51100000000E-03 0. -1.
        -11    1    3    3    0    0 -0.10168724101E+02  0.11253351712E+02 -0.29413032328E+01  0.15449664707E+02  0.51100000000E-03 0.  1.
        -12    1    3    3    0    0 -0.22229298781E+01  0.20243046590E+02  0.52134750843E+01  0.21021481274E+02  0.00000000000E+00 0.  1.
</event>
<event>
 7    1  0.2935819E-010  0.4778727E+02  0.7816164E-02  0.1312668E+00
        -11   -1    0    0    0    0  0.00000000000E+00  0.00000000000E+00  0.45593999997E+02  0.45594000000E+02  0.51100000000E-03 0.  1.
         11   -1    0    0    0    0 -0.00000000000E+00 -0.00000000000E+00 -0.45593999997E+02  0.45594000000E+02  0.51100000000E-03 0. -1.
    9900012    2    1    2    0    0 -0.37009781830E+02  0.22119707735E+02 -0.49616183191E+01  0.47787273305E+02  0.20000010305E+02 0.  0.
        -12    1    1    2    0    0  0.37009781830E+02 -0.22119707735E+02  0.49616183191E+01  0.43400726695E+02  0.00000000000E+00 0.  1.
         11    1    3    3    0    0 -0.13074882495E+02  0.93195111638E+01 -0.11138867281E+02  0.19541755427E+02  0.51100000000E-03 0. -1.
        -11    1    3    3    0    0 -0.51899871526E+01  0.16753612328E+01  0.29798872212E+01  0.62147027295E+01  0.51100000000E-03 0.  1.
         12    1    3    3    0    0 -0.18744912182E+02  0.11124835338E+02  0.31973617404E+01  0.22030815148E+02  0.00000000000E+00 0. -1.
</event>
<event>
 7    1  0.2935819E-010  0.4778727E+02  0.7816164E-02  0.1312668E+00
        -11   -1    0    0    0    0  0.00000000000E+00  0.00000000000E+00  0.45593999997E+02  0.45594000000E+02  0.51100000000E-03 0. -1.
         11   -1    0    0    0    0 -0.00000000000E+00 -0.00000000000E+00 -0.45593999997E+02  0.45594000000E+02  0.51100000000E-03 0.  1.
    9900012    2    1    2    0    0  0.39487080594E+02 -0.80879610699E+01  0.16092809872E+02  0.47787272153E+02  0.20000005053E+02 0.  0.
        -12    1    1    2    0    0 -0.39487080594E+02  0.80879610699E+01 -0.16092809872E+02  0.43400727847E+02  0.00000000000E+00 0.  1.
         11    1    3    3    0    0  0.23719216330E+02 -0.24032189218E+01  0.19429940811E+01  0.23919697129E+02  0.51100000000E-03 0. -1.
        -11    1    3    3    0    0  0.16424812431E+02 -0.63707835515E+01  0.14538373379E+02  0.22841314481E+02  0.51100000000E-03 0.  1.
        -12    1    3    3    0    0 -0.65694816733E+00  0.68604140342E+00 -0.38855758797E+00  0.10262605424E+01  0.00000000000E+00 0.  1.
</event>
<event>
 7    1  0.2935819E-010  0.4778726E+02  0.7816164E-02  0.1312668E+00
        -11   -1    0    0    0    0  0.00000000000E+00  0.00000000000E+00  0.45593999997E+02  0.45594000000E+02  0.51100000000E-03 0. -1.
         11   -1    0    0    0    0 -0.00000000000E+00 -0.00000000000E+00 -0.45593999997E+02  0.45594000000E+02  0.51100000000E-03 0.  1.
    9900012    2    1    2    0    0  0.26058560661E+02 -0.30685066732E+02  0.16217357755E+02  0.47787255806E+02  0.19999930521E+02 0.  0.
        -12    1    1    2    0    0 -0.26058560661E+02  0.30685066732E+02 -0.16217357755E+02  0.43400744194E+02  0.00000000000E+00 0.  1.
         11    1    3    3    0    0  0.12118253104E+02 -0.27327249588E+01  0.61110842874E+01  0.13844319970E+02  0.51100000000E-03 0. -1.
        -11    1    3    3    0    0  0.61516432211E+01 -0.17020035450E+02  0.96555951913E+01  0.20512309470E+02  0.51100000000E-03 0.  1.
        -12    1    3    3    0    0  0.77886643359E+01 -0.10932306323E+02  0.45067827651E+00  0.13430626366E+02  0.00000000000E+00 0.  1.
</event>
<event>
 7    1  0.2935819E-010  0.4778728E+02  0.7816164E-02  0.1312668E+00
        -11   -1    0    0    0    0  0.00000000000E+00  0.00000000000E+00  0.45593999997E+02  0.45594000000E+02  0.51100000000E-03 0. -1.
         11   -1    0    0    0    0 -0.00000000000E+00 -0.00000000000E+00 -0.45593999997E+02  0.45594000000E+02  0.51100000000E-03 0.  1.
    9900012    2    1    2    0    0  0.26654648542E+02 -0.19137887309E+02  0.28405873642E+02  0.47787277922E+02  0.20000031355E+02 0.  0.
        -12    1    1    2    0    0 -0.26654648542E+02  0.19137887309E+02 -0.28405873642E+02  0.43400722078E+02  0.00000000000E+00 0.  1.
         11    1    3    3    0    0  0.17742707579E+02 -0.11030469731E+02  0.14976745821E+02  0.25705599592E+02  0.51100000000E-03 0. -1.
        -11    1    3    3    0    0 -0.19869265169E+01  0.44012630017E+00 -0.83455743935E+00  0.21995623483E+01  0.51100000000E-03 0.  1.
        -12    1    3    3    0    0  0.10898867481E+02 -0.85475438777E+01  0.14263685260E+02  0.19882115981E+02  0.00000000000E+00 0.  1.
</event>
<event>
 7    1  0.2935819E-010  0.4778727E+02  0.7816164E-02  0.1312668E+00
        -11   -1    0    0    0    0  0.00000000000E+00  0.00000000000E+00  0.45593999997E+02  0.45594000000E+02  0.51100000000E-03 0. -1.
         11   -1    0    0    0    0 -0.00000000000E+00 -0.00000000000E+00 -0.45593999997E+02  0.45594000000E+02  0.51100000000E-03 0.  1.
    9900012    2    1    2    0    0 -0.18839248278E+02 -0.28502095946E+02  0.26764461750E+02  0.47787272336E+02  0.20000005889E+02 0.  0.
        -12    1    1    2    0    0  0.18839248278E+02  0.28502095946E+02 -0.26764461750E+02  0.43400727664E+02  0.00000000000E+00 0.  1.
         11    1    3    3    0    0  0.27744223753E+01 -0.81605966079E+01  0.78924453473E+01  0.11686892245E+02  0.51100000000E-03 0. -1.
        -11    1    3    3    0    0 -0.16860146226E+02 -0.17101006399E+02  0.11165961562E+02  0.26483724218E+02  0.51100000000E-03 0.  1.
        -12    1    3    3    0    0 -0.47535244270E+01 -0.32404929397E+01  0.77060548407E+01  0.96166558730E+01  0.00000000000E+00 0.  1.
</event>
<event>
 7    1  0.2935819E-010  0.4778727E+02  0.7816164E-02  0.1312668E+00
        -11   -1    0    0    0    0  0.00000000000E+00  0.00000000000E+00  0.45593999997E+02  0.45594000000E+02  0.51100000000E-03 0.  1.
         11   -1    0    0    0    0 -0.00000000000E+00 -0.00000000000E+00 -0.45593999997E+02  0.45594000000E+02  0.51100000000E-03 0. -1.
    9900012    2    1    2    0    0 -0.13867773488E+02  0.83373449685E+01 -0.40271537051E+02  0.47787272367E+02  0.20000006031E+02 0.  0.
        -12    1    1    2    0    0  0.13867773488E+02 -0.83373449685E+01  0.40271537051E+02  0.43400727633E+02  0.00000000000E+00 0.  1.
         11    1    3    3    0    0 -0.11332275257E+02  0.74053091561E+01 -0.11509188938E+02  0.17768525445E+02  0.51100000000E-03 0. -1.
        -11    1    3    3    0    0  0.29627715669E+01  0.75189403261E+00 -0.89947198671E+01  0.94999129334E+01  0.51100000000E-03 0.  1.
         12    1    3    3    0    0 -0.54982697971E+01  0.18014177980E+00 -0.19767628246E+02  0.20518833989E+02  0.00000000000E+00 0. -1.
</event>
<event>
 7    1  0.2935819E-010  0.4778727E+02  0.7816164E-02  0.1312668E+00
        -11   -1    0    0    0    0  0.00000000000E+00  0.00000000000E+00  0.45593999997E+02  0.45594000000E+02  0.51100000000E-03 0. -1.
         11   -1    0    0    0    0 -0.00000000000E+00 -0.00000000000E+00 -0.45593999997E+02  0.45594000000E+02  0.51100000000E-03 0.  1.
    9900012    2    1    2    0    0  0.35511831668E+02 -0.18445324444E+02  0.16801876188E+02  0.47787271600E+02  0.20000002531E+02 0.  0.
        -12    1    1    2    0    0 -0.35511831668E+02  0.18445324444E+02 -0.16801876188E+02  0.43400728400E+02  0.00000000000E+00 0.  1.
         11    1    3    3    0    0  0.10987666441E+02  0.28211676457E+01  0.49994316290E+01  0.12396859182E+02  0.51100000000E-03 0. -1.
        -11    1    3    3    0    0  0.56355774865E+01 -0.84422916819E+01  0.61580048660E+01  0.11872364829E+02  0.51100000000E-03 0.  1.
         12    1    3    3    0    0  0.18888587740E+02 -0.12824200408E+02  0.56444396931E+01  0.23518047588E+02  0.00000000000E+00 0. -1.
</event>
<event>
 7    1  0.2935819E-010  0.4778727E+02  0.7816164E-02  0.1312668E+00
        -11   -1    0    0    0    0  0.00000000000E+00  0.00000000000E+00  0.45593999997E+02  0.45594000000E+02  0.51100000000E-03 0.  1.
         11   -1    0    0    0    0 -0.00000000000E+00 -0.00000000000E+00 -0.45593999997E+02  0.45594000000E+02  0.51100000000E-03 0. -1.
    9900012    2    1    2    0    0  0.10183256513E+02 -0.14325128976E+02 -0.39682681788E+02  0.47787271120E+02  0.20000000345E+02 0.  0.
        -12    1    1    2    0    0 -0.10183256513E+02  0.14325128976E+02  0.39682681788E+02  0.43400728880E+02  0.00000000000E+00 0.  1.
         11    1    3    3    0    0  0.86147690330E+01 -0.45501435854E+01 -0.28371159682E+02  0.29997345784E+02  0.51100000000E-03 0. -1.
        -11    1    3    3    0    0 -0.22438580766E+01 -0.53496068633E+01 -0.92608966461E+00  0.58745923252E+01  0.51100000000E-03 0.  1.
         12    1    3    3    0    0  0.38123455569E+01 -0.44253785268E+01 -0.10385432442E+02  0.11915333011E+02  0.00000000000E+00 0. -1.
</event>
<event>
 7    1  0.2935819E-010  0.4778727E+02  0.7816164E-02  0.1312668E+00
        -11   -1    0    0    0    0  0.00000000000E+00  0.00000000000E+00  0.45593999997E+02  0.45594000000E+02  0.51100000000E-03 0. -1.
         11   -1    0    0    0    0 -0.00000000000E+00 -0.00000000000E+00 -0.45593999997E+02  0.45594000000E+02  0.51100000000E-03 0.  1.
    9900012    2    1    2    0    0  0.27429004807E+02  0.33606373945E+02 -0.13727760253E+01  0.47787272028E+02  0.20000004484E+02 0.  0.
        -12    1    1    2    0    0 -0.27429004807E+02 -0.33606373945E+02  0.13727760253E+01  0.43400727972E+02  0.00000000000E+00 0.  1.
         11    1    3    3    0    0  0.19247649642E+02  0.22935757210E+02  0.16700518301E+01  0.29988498611E+02  0.51100000000E-03 0. -1.
        -11    1    3    3    0    0 -0.16466352938E+01  0.61375777092E+01  0.59089902884E+00  0.63820396309E+01  0.51100000000E-03 0.  1.
         12    1    3    3    0    0  0.98279904593E+01  0.45330390260E+01 -0.36337268843E+01  0.11416733786E+02  0.00000000000E+00 0. -1.
</event>
<event>
 7    1  0.2935819E-010  0.4778727E+02  0.7816164E-02  0.1312668E+00
        -11   -1    0    0    0    0  0.00000000000E+00  0.00000000000E+00  0.45593999997E+02  0.45594000000E+02  0.51100000000E-03 0.  1.
         11   -1    0    0    0    0 -0.00000000000E+00 -0.00000000000E+00 -0.45593999997E+02  0.45594000000E+02  0.51100000000E-03 0. -1.
    9900012    2    1    2    0    0 -0.24100189129E+00  0.11734414572E+02 -0.41783595575E+02  0.47787269287E+02  0.19999991988E+02 0.  0.
        -12    1    1    2    0    0  0.24100189129E+00 -0.11734414572E+02  0.41783595575E+02  0.43400730713E+02  0.00000000000E+00 0.  1.
         11    1    3    3    0    0  0.39134106886E+01  0.36817908827E+01 -0.26588077347E+02  0.27125564042E+02  0.51100000000E-03 0. -1.
        -11    1    3    3    0    0  0.56580550249E+00  0.34406455088E+01  0.60450330557E+00  0.35388701433E+01  0.51100000000E-03 0.  1.
        -12    1    3    3    0    0 -0.47202180823E+01  0.46119781801E+01 -0.15800021533E+02  0.17122835102E+02  0.00000000000E+00 0.  1.
</event>
<event>
 7    1  0.2935819E-010  0.4778727E+02  0.7816164E-02  0.1312668E+00
        -11   -1    0    0    0    0  0.00000000000E+00  0.00000000000E+00  0.45593999997E+02  0.45594000000E+02  0.51100000000E-03 0. -1.
         11   -1    0    0    0    0 -0.00000000000E+00 -0.00000000000E+00 -0.45593999997E+02  0.45594000000E+02  0.51100000000E-03 0.  1.
    9900012    2    1    2    0    0 -0.37355423849E+02 -0.19781203820E+02  0.98437565852E+01  0.47787271213E+02  0.20000000768E+02 0.  0.
        -12    1    1    2    0    0  0.37355423849E+02  0.19781203820E+02 -0.98437565852E+01  0.43400728787E+02  0.00000000000E+00 0.  1.
         11    1    3    3    0    0 -0.23033770033E+02 -0.17972408400E+02  0.60028044949E+01  0.29826090721E+02  0.51100000000E-03 0. -1.
        -11    1    3    3    0    0 -0.58735754256E+01  0.12389687930E+01  0.62467801086E+01  0.86634977888E+01  0.51100000000E-03 0.  1.
        -12    1    3    3    0    0 -0.84480783903E+01 -0.30477642132E+01 -0.24058280183E+01  0.92976827028E+01  0.00000000000E+00 0.  1.
</event>
<event>
 7    1  0.2935819E-010  0.4778727E+02  0.7816164E-02  0.1312668E+00
        -11   -1    0    0    0    0  0.00000000000E+00  0.00000000000E+00  0.45593999997E+02  0.45594000000E+02  0.51100000000E-03 0. -1.
         11   -1    0    0    0    0 -0.00000000000E+00 -0.00000000000E+00 -0.45593999997E+02  0.45594000000E+02  0.51100000000E-03 0.  1.
    9900012    2    1    2    0    0  0.42781776220E+02  0.45039674188E+01  0.57495485147E+01  0.47787269508E+02  0.19999992997E+02 0.  0.
        -12    1    1    2    0    0 -0.42781776220E+02 -0.45039674188E+01 -0.57495485147E+01  0.43400730492E+02  0.00000000000E+00 0.  1.
         11    1    3    3    0    0  0.17717923581E+02  0.68860412887E+01 -0.36651759448E+01  0.19359129516E+02  0.51100000000E-03 0.  1.
        -11    1    3    3    0    0  0.19728428163E+02 -0.41361170767E+01  0.38497605868E+01  0.20521671449E+02  0.51100000000E-03 0. -1.
         12    1    3    3    0    0  0.53354244766E+01  0.17540432067E+01  0.55649638726E+01  0.79064685429E+01  0.00000000000E+00 0. -1.
</event>
<event>
 7    1  0.2935819E-010  0.4778727E+02  0.7816164E-02  0.1312668E+00
        -11   -1    0    0    0    0  0.00000000000E+00  0.00000000000E+00  0.45593999997E+02  0.45594000000E+02  0.51100000000E-03 0. -1.
         11   -1    0    0    0    0 -0.00000000000E+00 -0.00000000000E+00 -0.45593999997E+02  0.45594000000E+02  0.51100000000E-03 0.  1.
    9900012    2    1    2    0    0  0.14471061072E+02 -0.91898131713E+01  0.39871786217E+02  0.47787267163E+02  0.19999982304E+02 0.  0.
        -12    1    1    2    0    0 -0.14471061072E+02  0.91898131713E+01 -0.39871786217E+02  0.43400732837E+02  0.00000000000E+00 0.  1.
         11    1    3    3    0    0  0.12884895962E+02 -0.11366539266E+01  0.20046112724E+02  0.23857056853E+02  0.51100000000E-03 0. -1.
        -11    1    3    3    0    0 -0.15905608885E+01 -0.34948067306E+01  0.17484255654E+02  0.17900914895E+02  0.51100000000E-03 0.  1.
         12    1    3    3    0    0  0.31767259982E+01 -0.45583525141E+01  0.23414178385E+01  0.60292954153E+01  0.00000000000E+00 0. -1.
</event>
<event>
 7    1  0.2935819E-010  0.4778725E+02  0.7816164E-02  0.1312668E+00
        -11   -1    0    0    0    0  0.00000000000E+00  0.00000000000E+00  0.45593999997E+02  0.45594000000E+02  0.51100000000E-03 0. -1.
         11   -1    0    0    0    0 -0.00000000000E+00 -0.00000000000E+00 -0.45593999997E+02  0.45594000000E+02  0.51100000000E-03 0.  1.
    9900012    2    1    2    0    0  0.28586986588E+02  0.32650352353E+02  0.60304241836E+00  0.47787251492E+02  0.19999910851E+02 0.  0.
        -12    1    1    2    0    0 -0.28586986588E+02 -0.32650352353E+02 -0.60304241836E+00  0.43400748508E+02  0.00000000000E+00 0.  1.
         11    1    3    3    0    0  0.77412827724E+01  0.10615191933E+02  0.16757099117E+01  0.13244537089E+02  0.51100000000E-03 0. -1.
        -11    1    3    3    0    0  0.11627195575E+02  0.55479252751E+01  0.62055304393E+01  0.14299641957E+02  0.51100000000E-03 0.  1.
        -12    1    3    3    0    0  0.92185082400E+01  0.16487235144E+02 -0.72781979327E+01  0.20243072445E+02  0.00000000000E+00 0.  1.
</event>
<event>
 7    1  0.2935819E-010  0.4778727E+02  0.7816164E-02  0.1312668E+00
        -11   -1    0    0    0    0  0.00000000000E+00  0.00000000000E+00  0.45593999997E+02  0.45594000000E+02  0.51100000000E-03 0.  1.
         11   -1    0    0    0    0 -0.00000000000E+00 -0.00000000000E+00 -0.45593999997E+02  0.45594000000E+02  0.51100000000E-03 0. -1.
    9900012    2    1    2    0    0  0.16927675403E+02 -0.72622914778E+01 -0.39298043712E+02  0.47787270609E+02  0.19999998016E+02 0.  0.
        -12    1    1    2    0    0 -0.16927675403E+02  0.72622914778E+01  0.39298043712E+02  0.43400729391E+02  0.00000000000E+00 0.  1.
         11    1    3    3    0    0  0.13390076280E+02 -0.23596622273E+01 -0.14553834697E+02  0.19916732996E+02  0.51100000000E-03 0. -1.
        -11    1    3    3    0    0 -0.18565991865E+01  0.28088916333E+01 -0.76201449933E+01  0.83308728671E+01  0.51100000000E-03 0.  1.
        -12    1    3    3    0    0  0.53941983096E+01 -0.77115208839E+01 -0.17124064022E+02  0.19539664746E+02  0.00000000000E+00 0.  1.
</event>
<event>
 7    1  0.2935819E-010  0.4778727E+02  0.7816164E-02  0.1312668E+00
        -11   -1    0    0    0    0  0.00000000000E+00  0.00000000000E+00  0.45593999997E+02  0.45594000000E+02  0.51100000000E-03 0.  1.
         11   -1    0    0    0    0 -0.00000000000E+00 -0.00000000000E+00 -0.45593999997E+02  0.45594000000E+02  0.51100000000E-03 0. -1.
    9900012    2    1    2    0    0  0.12947799661E+02 -0.13081977507E+02 -0.39304450729E+02  0.47787268455E+02  0.19999988194E+02 0.  0.
        -12    1    1    2    0    0 -0.12947799661E+02  0.13081977507E+02  0.39304450729E+02  0.43400731545E+02  0.00000000000E+00 0.  1.
         11    1    3    3    0    0  0.36019614321E+01 -0.67072796181E+01 -0.21067953092E+02  0.22401347589E+02  0.51100000000E-03 0. -1.
        -11    1    3    3    0    0  0.31491898825E+01  0.40241218876E+01 -0.29976636642E+01  0.59242671772E+01  0.51100000000E-03 0.  1.
        -12    1    3    3    0    0  0.61966483461E+01 -0.10398819777E+02 -0.15238833972E+02  0.19461653689E+02  0.00000000000E+00 0.  1.
</event>
<event>
 7    1  0.2935819E-010  0.4778727E+02  0.7816164E-02  0.1312668E+00
        -11   -1    0    0    0    0  0.00000000000E+00  0.00000000000E+00  0.45593999997E+02  0.45594000000E+02  0.51100000000E-03 0.  1.
         11   -1    0    0    0    0 -0.00000000000E+00 -0.00000000000E+00 -0.45593999997E+02  0.45594000000E+02  0.51100000000E-03 0. -1.
    9900012    2    1    2    0    0  0.35361651280E+02  0.20196211466E+02 -0.15009655763E+02  0.47787272990E+02  0.20000008872E+02 0.  0.
        -12    1    1    2    0    0 -0.35361651280E+02 -0.20196211466E+02  0.15009655763E+02  0.43400727010E+02  0.00000000000E+00 0.  1.
         11    1    3    3    0    0  0.13623531909E+02  0.20895812843E+01  0.20298917609E+01  0.13931526565E+02  0.51100000000E-03 0.  1.
        -11    1    3    3    0    0  0.61221232581E+01  0.17489156217E+01 -0.19127566339E+01  0.66481378777E+01  0.51100000000E-03 0. -1.
         12    1    3    3    0    0  0.15615996113E+02  0.16357714560E+02 -0.15126790890E+02  0.27207608547E+02  0.00000000000E+00 0. -1.
</event>
<event>
 7    1  0.2935819E-010  0.4778727E+02  0.7816164E-02  0.1312668E+00
        -11   -1    0    0    0    0  0.00000000000E+00  0.00000000000E+00  0.45593999997E+02  0.45594000000E+02  0.51100000000E-03 0.  1.
         11   -1    0    0    0    0 -0.00000000000E+00 -0.00000000000E+00 -0.45593999997E+02  0.45594000000E+02  0.51100000000E-03 0. -1.
    9900012    2    1    2    0    0  0.26418320151E+02 -0.24121516166E+02 -0.24573324395E+02  0.47787268974E+02  0.19999990561E+02 0.  0.
        -12    1    1    2    0    0 -0.26418320151E+02  0.24121516166E+02  0.24573324395E+02  0.43400731026E+02  0.00000000000E+00 0.  1.
         11    1    3    3    0    0  0.16206765111E+02 -0.16571911005E+02 -0.10430227980E+02  0.25418047244E+02  0.51100000000E-03 0. -1.
        -11    1    3    3    0    0  0.94635233556E+01 -0.84345252739E+00 -0.11965438830E+02  0.15278789648E+02  0.51100000000E-03 0.  1.
         12    1    3    3    0    0  0.74803168432E+00 -0.67061526340E+01 -0.21776575847E+01  0.70904320819E+01  0.00000000000E+00 0. -1.
</event>
<event>
 7    1  0.2935819E-010  0.4778727E+02  0.7816164E-02  0.1312668E+00
        -11   -1    0    0    0    0  0.00000000000E+00  0.00000000000E+00  0.45593999997E+02  0.45594000000E+02  0.51100000000E-03 0.  1.
         11   -1    0    0    0    0 -0.00000000000E+00 -0.00000000000E+00 -0.45593999997E+02  0.45594000000E+02  0.51100000000E-03 0. -1.
    9900012    2    1    2    0    0  0.33477976287E+02 -0.27619671850E+02  0.42699211058E-01  0.47787274285E+02  0.20000014773E+02 0.  0.
        -12    1    1    2    0    0 -0.33477976287E+02  0.27619671850E+02 -0.42699211058E-01  0.43400725715E+02  0.00000000000E+00 0.  1.
         11    1    3    3    0    0  0.21120413210E+02 -0.18179197730E+02  0.62644969399E+01  0.28562195407E+02  0.51100000000E-03 0. -1.
        -11    1    3    3    0    0  0.39730953042E+01 -0.77988611410E+00  0.21157169318E+01  0.45683659052E+01  0.51100000000E-03 0.  1.
         12    1    3    3    0    0  0.83844677732E+01 -0.86605880057E+01 -0.83375146607E+01  0.14656712973E+02  0.00000000000E+00 0. -1.
</event>
<event>
 7    1  0.2935819E-010  0.4778727E+02  0.7816164E-02  0.1312668E+00
        -11   -1    0    0    0    0  0.00000000000E+00  0.00000000000E+00  0.45593999997E+02  0.45594000000E+02  0.51100000000E-03 0.  1.
         11   -1    0    0    0    0 -0.00000000000E+00 -0.00000000000E+00 -0.45593999997E+02  0.45594000000E+02  0.51100000000E-03 0. -1.
    9900012    2    1    2    0    0  0.14524508762E+02  0.82445342460E+01 -0.40058580058E+02  0.47787268025E+02  0.19999986233E+02 0.  0.
        -12    1    1    2    0    0 -0.14524508762E+02 -0.82445342460E+01  0.40058580058E+02  0.43400731975E+02  0.00000000000E+00 0.  1.
         11    1    3    3    0    0  0.64111050332E+01  0.98679568931E+01 -0.14142404031E+02  0.18398000789E+02  0.51100000000E-03 0. -1.
        -11    1    3    3    0    0  0.37256634676E+01 -0.63478791734E+01 -0.15067350007E+02  0.16769054081E+02  0.51100000000E-03 0.  1.
        -12    1    3    3    0    0  0.43877402615E+01  0.47244565264E+01 -0.10848826019E+02  0.12620213155E+02  0.00000000000E+00 0.  1.
</event>
<event>
 7    1  0.2935819E-010  0.4778727E+02  0.7816164E-02  0.1312668E+00
        -11   -1    0    0    0    0  0.00000000000E+00  0.00000000000E+00  0.45593999997E+02  0.45594000000E+02  0.51100000000E-03 0.  1.
         11   -1    0    0    0    0 -0.00000000000E+00 -0.00000000000E+00 -0.45593999997E+02  0.45594000000E+02  0.51100000000E-03 0. -1.
    9900012    2    1    2    0    0 -0.23678345190E+02  0.31286965620E+02 -0.18549539324E+02  0.47787266622E+02  0.19999979834E+02 0.  0.
        -12    1    1    2    0    0  0.23678345190E+02 -0.31286965620E+02  0.18549539324E+02  0.43400733378E+02  0.00000000000E+00 0.  1.
         11    1    3    3    0    0 -0.12239941790E+02  0.22449762317E+02 -0.19709929159E+02  0.32284505740E+02  0.51100000000E-03 0. -1.
        -11    1    3    3    0    0 -0.11639810712E+02  0.88020894600E+01  0.27681513418E+00  0.14595841845E+02  0.51100000000E-03 0.  1.
        -12    1    3    3    0    0  0.20140731239E+00  0.35113842448E-01  0.88357470097E+00  0.90691903696E+00  0.00000000000E+00 0.  1.
</event>
<event>
 7    1  0.2935819E-010  0.4778728E+02  0.7816164E-02  0.1312668E+00
        -11   -1    0    0    0    0  0.00000000000E+00  0.00000000000E+00  0.45593999997E+02  0.45594000000E+02  0.51100000000E-03 0.  1.
         11   -1    0    0    0    0 -0.00000000000E+00 -0.00000000000E+00 -0.45593999997E+02  0.45594000000E+02  0.51100000000E-03 0. -1.
    9900012    2    1    2    0    0  0.15242676823E+02  0.40581142148E+02 -0.21104506174E+01  0.47787282303E+02  0.20000051333E+02 0.  0.
        -12    1    1    2    0    0 -0.15242676823E+02 -0.40581142148E+02  0.21104506174E+01  0.43400717697E+02  0.00000000000E+00 0.  1.
         11    1    3    3    0    0  0.57690144008E+01  0.12474903780E+02  0.60939219863E+01  0.15034647881E+02  0.51100000000E-03 0. -1.
        -11    1    3    3    0    0  0.93537617919E+01  0.11994681572E+02 -0.65325167189E+01  0.16554123976E+02  0.51100000000E-03 0.  1.
        -12    1    3    3    0    0  0.11990062994E+00  0.16111556797E+02 -0.16718558848E+01  0.16198510446E+02  0.00000000000E+00 0.  1.
</event>
<event>
 7    1  0.2935819E-010  0.4778727E+02  0.7816164E-02  0.1312668E+00
        -11   -1    0    0    0    0  0.00000000000E+00  0.00000000000E+00  0.45593999997E+02  0.45594000000E+02  0.51100000000E-03 0.  1.
         11   -1    0    0    0    0 -0.00000000000E+00 -0.00000000000E+00 -0.45593999997E+02  0.45594000000E+02  0.51100000000E-03 0. -1.
    9900012    2    1    2    0    0  0.26623102566E+02 -0.28723181763E+02 -0.18703281658E+02  0.47787268375E+02  0.19999987828E+02 0.  0.
        -12    1    1    2    0    0 -0.26623102566E+02  0.28723181763E+02  0.18703281658E+02  0.43400731625E+02  0.00000000000E+00 0.  1.
         11    1    3    3    0    0  0.45774362916E+01 -0.35759664589E+01 -0.56048298539E+01  0.80718385186E+01  0.51100000000E-03 0. -1.
        -11    1    3    3    0    0 -0.58070065512E+00 -0.10015801869E+02 -0.55639484787E+01  0.11472184764E+02  0.51100000000E-03 0.  1.
        -12    1    3    3    0    0  0.22626366929E+02 -0.15131413435E+02 -0.75345033254E+01  0.28243245092E+02  0.00000000000E+00 0.  1.
</event>
<event>
 7    1  0.2935819E-010  0.4778730E+02  0.7816164E-02  0.1312668E+00
        -11   -1    0    0    0    0  0.00000000000E+00  0.00000000000E+00  0.45593999997E+02  0.45594000000E+02  0.51100000000E-03 0.  1.
         11   -1    0    0    0    0 -0.00000000000E+00 -0.00000000000E+00 -0.45593999997E+02  0.45594000000E+02  0.51100000000E-03 0. -1.
    9900012    2    1    2    0    0 -0.11403102536E+02  0.41758441507E+02  0.31341489656E+01  0.47787296385E+02  0.20000115540E+02 0.  0.
        -12    1    1    2    0    0  0.11403102536E+02 -0.41758441507E+02 -0.31341489656E+01  0.43400703615E+02  0.00000000000E+00 0.  1.
         11    1    3    3    0    0 -0.93472928311E+01  0.36452827948E+02  0.20417309877E+01  0.37687520671E+02  0.51100000000E-03 0. -1.
        -11    1    3    3    0    0  0.25111900339E+01 -0.31482945109E+00  0.13195562576E+01  0.28541937474E+01  0.51100000000E-03 0.  1.
        -12    1    3    3    0    0 -0.45669997387E+01  0.56204430097E+01 -0.22713827972E+00  0.72455819667E+01  0.00000000000E+00 0.  1.
</event>
<event>
 7    1  0.2935819E-010  0.4778726E+02  0.7816164E-02  0.1312668E+00
        -11   -1    0    0    0    0  0.00000000000E+00  0.00000000000E+00  0.45593999997E+02  0.45594000000E+02  0.51100000000E-03 0. -1.
         11   -1    0    0    0    0 -0.00000000000E+00 -0.00000000000E+00 -0.45593999997E+02  0.45594000000E+02  0.51100000000E-03 0.  1.
    9900012    2    1    2    0    0  0.31752897759E+02  0.12233553632E+02  0.26939149380E+02  0.47787261298E+02  0.19999955562E+02 0.  0.
        -12    1    1    2    0    0 -0.31752897759E+02 -0.12233553632E+02 -0.26939149380E+02  0.43400738702E+02  0.00000000000E+00 0.  1.
         11    1    3    3    0    0  0.84487919207E+01  0.10974351856E+02  0.15007844778E+02  0.20421897285E+02  0.51100000000E-03 0. -1.
        -11    1    3    3    0    0  0.90940941866E+01 -0.17050957929E+01  0.12358836210E+01  0.93347367035E+01  0.51100000000E-03 0.  1.
         12    1    3    3    0    0  0.14210011651E+02  0.29642975694E+01  0.10695420981E+02  0.18030627309E+02  0.00000000000E+00 0. -1.
</event>
<event>
 7    1  0.2935819E-010  0.4778726E+02  0.7816164E-02  0.1312668E+00
        -11   -1    0    0    0    0  0.00000000000E+00  0.00000000000E+00  0.45593999997E+02  0.45594000000E+02  0.51100000000E-03 0. -1.
         11   -1    0    0    0    0 -0.00000000000E+00 -0.00000000000E+00 -0.45593999997E+02  0.45594000000E+02  0.51100000000E-03 0.  1.
    9900012    2    1    2    0    0  0.23580661096E+02 -0.17558777017E+02  0.31925940878E+02  0.47787263497E+02  0.19999965588E+02 0.  0.
        -12    1    1    2    0    0 -0.23580661096E+02  0.17558777017E+02 -0.31925940878E+02  0.43400736503E+02  0.00000000000E+00 0.  1.
         11    1    3    3    0    0  0.11359809962E+01  0.75753977324E+00  0.20378082084E+01  0.24529537067E+01  0.51100000000E-03 0. -1.
        -11    1    3    3    0    0  0.46304560297E-01  0.53360364017E+00  0.98360286018E+01  0.98506007875E+01  0.51100000000E-03 0.  1.
        -12    1    3    3    0    0  0.22398375540E+02 -0.18849920430E+02  0.20052104068E+02  0.35483709003E+02  0.00000000000E+00 0.  1.
</event>
<event>
 7    1  0.2935819E-010  0.4778727E+02  0.7816164E-02  0.1312668E+00
        -11   -1    0    0    0    0  0.00000000000E+00  0.00000000000E+00  0.45593999997E+02  0.45594000000E+02  0.51100000000E-03 0. -1.
         11   -1    0    0    0    0 -0.00000000000E+00 -0.00000000000E+00 -0.45593999997E+02  0.45594000000E+02  0.51100000000E-03 0.  1.
    9900012    2    1    2    0    0  0.38483087668E+02 -0.16562388564E+02  0.11329728543E+02  0.47787268437E+02  0.19999988110E+02 0.  0.
        -12    1    1    2    0    0 -0.38483087668E+02  0.16562388564E+02 -0.11329728543E+02  0.43400731563E+02  0.00000000000E+00 0.  1.
         11    1    3    3    0    0  0.38919378589E+02 -0.16143036490E+02  0.13437584266E+02  0.44225381039E+02  0.51100000000E-03 0. -1.
        -11    1    3    3    0    0  0.76427146159E-01 -0.23063072023E+00 -0.27260559569E+01  0.27368618853E+01  0.51100000000E-03 0.  1.
         12    1    3    3    0    0 -0.51271806772E+00 -0.18872135357E+00  0.61820023404E+00  0.82502551211E+00  0.00000000000E+00 0. -1.
</event>
<event>
 7    1  0.2935819E-010  0.4778728E+02  0.7816164E-02  0.1312668E+00
        -11   -1    0    0    0    0  0.00000000000E+00  0.00000000000E+00  0.45593999997E+02  0.45594000000E+02  0.51100000000E-03 0.  1.
         11   -1    0    0    0    0 -0.00000000000E+00 -0.00000000000E+00 -0.45593999997E+02  0.45594000000E+02  0.51100000000E-03 0. -1.
    9900012    2    1    2    0    0 -0.20011589185E+02  0.34710812290E+02  0.16682882043E+02  0.47787277140E+02  0.20000027791E+02 0.  0.
        -12    1    1    2    0    0  0.20011589185E+02 -0.34710812290E+02 -0.16682882043E+02  0.43400722860E+02  0.00000000000E+00 0.  1.
         11    1    3    3    0    0 -0.50090066301E+00  0.71782587396E+01 -0.31086174503E+01  0.78384821694E+01  0.51100000000E-03 0. -1.
        -11    1    3    3    0    0 -0.49958229813E+01  0.10859775090E+02  0.10711747481E+02  0.16050996749E+02  0.51100000000E-03 0.  1.
         12    1    3    3    0    0 -0.14514865541E+02  0.16672778460E+02  0.90797520125E+01  0.23897798222E+02  0.00000000000E+00 0. -1.
</event>
<event>
 7    1  0.2935819E-010  0.4778727E+02  0.7816164E-02  0.1312668E+00
        -11   -1    0    0    0    0  0.00000000000E+00  0.00000000000E+00  0.45593999997E+02  0.45594000000E+02  0.51100000000E-03 0.  1.
         11   -1    0    0    0    0 -0.00000000000E+00 -0.00000000000E+00 -0.45593999997E+02  0.45594000000E+02  0.51100000000E-03 0. -1.
    9900012    2    1    2    0    0  0.19954500123E+02  0.13390646648E+02 -0.36140444732E+02  0.47787271455E+02  0.20000001871E+02 0.  0.
        -12    1    1    2    0    0 -0.19954500123E+02 -0.13390646648E+02  0.36140444732E+02  0.43400728545E+02  0.00000000000E+00 0.  1.
         11    1    3    3    0    0 -0.19582153424E+01  0.22236991585E+01 -0.61822982517E+01  0.68556733593E+01  0.51100000000E-03 0.  1.
        -11    1    3    3    0    0  0.22313949416E+02  0.73487024328E+01 -0.22430515684E+02  0.32481437778E+02  0.51100000000E-03 0. -1.
         12    1    3    3    0    0 -0.40123395013E+00  0.38182450563E+01 -0.75276307963E+01  0.84501603179E+01  0.00000000000E+00 0. -1.
</event>
<event>
 7    1  0.2935819E-010  0.4778727E+02  0.7816164E-02  0.1312668E+00
        -11   -1    0    0    0    0  0.00000000000E+00  0.00000000000E+00  0.45593999997E+02  0.45594000000E+02  0.51100000000E-03 0.  1.
         11   -1    0    0    0    0 -0.00000000000E+00 -0.00000000000E+00 -0.45593999997E+02  0.45594000000E+02  0.51100000000E-03 0. -1.
    9900012    2    1    2    0    0  0.20777874080E+02  0.10770873530E+02 -0.36549853431E+02  0.47787267821E+02  0.19999985301E+02 0.  0.
        -12    1    1    2    0    0 -0.20777874080E+02 -0.10770873530E+02  0.36549853431E+02  0.43400732179E+02  0.00000000000E+00 0.  1.
         11    1    3    3    0    0  0.74392679182E+00 -0.42297772284E+01 -0.44576190341E+01  0.61898958139E+01  0.51100000000E-03 0. -1.
        -11    1    3    3    0    0  0.74721569864E+01  0.10966184026E+02 -0.15838830925E+02  0.20662983508E+02  0.51100000000E-03 0.  1.
         12    1    3    3    0    0  0.12561790302E+02  0.40344667324E+01 -0.16253403472E+02  0.20934388499E+02  0.00000000000E+00 0. -1.
</event>
<event>
 7    1  0.2935819E-010  0.4778727E+02  0.7816164E-02  0.1312668E+00
        -11   -1    0    0    0    0  0.00000000000E+00  0.00000000000E+00  0.45593999997E+02  0.45594000000E+02  0.51100000000E-03 0.  1.
         11   -1    0    0    0    0 -0.00000000000E+00 -0.00000000000E+00 -0.45593999997E+02  0.45594000000E+02  0.51100000000E-03 0. -1.
    9900012    2    1    2    0    0  0.12047824836E+00 -0.33963122154E+02 -0.27020642461E+02  0.47787270738E+02  0.19999998603E+02 0.  0.
        -12    1    1    2    0    0 -0.12047824836E+00  0.33963122154E+02  0.27020642461E+02  0.43400729262E+02  0.00000000000E+00 0.  1.
         11    1    3    3    0    0 -0.61668616863E+01 -0.22961694644E+02 -0.17639103091E+02  0.29604181497E+02  0.51100000000E-03 0. -1.
        -11    1    3    3    0    0  0.69692881922E+01 -0.11435574709E+02 -0.59440067900E+01  0.14651776814E+02  0.51100000000E-03 0.  1.
         12    1    3    3    0    0 -0.68194825756E+00  0.43414719903E+00 -0.34375325802E+01  0.35313124269E+01  0.00000000000E+00 0. -1.
</event>
<event>
 7    1  0.2935819E-010  0.4778729E+02  0.7816164E-02  0.1312668E+00
        -11   -1    0    0    0    0  0.00000000000E+00  0.00000000000E+00  0.45593999997E+02  0.45594000000E+02  0.51100000000E-03 0. -1.
         11   -1    0    0    0    0 -0.00000000000E+00 -0.00000000000E+00 -0.45593999997E+02  0.45594000000E+02  0.51100000000E-03 0.  1.
    9900012    2    1    2    0    0 -0.26215853847E+02 -0.16919768656E+02  0.30167407204E+02  0.47787285470E+02  0.20000065772E+02 0.  0.
        -12    1    1    2    0    0  0.26215853847E+02  0.16919768656E+02 -0.30167407204E+02  0.43400714530E+02  0.00000000000E+00 0.  1.
         11    1    3    3    0    0 -0.90314589480E+01 -0.12136852211E+02  0.49461453998E+01  0.15916494177E+02  0.51100000000E-03 0. -1.
        -11    1    3    3    0    0 -0.20302169907E+01 -0.13242777707E+01  0.22322809372E+00  0.24341987771E+01  0.51100000000E-03 0.  1.
         12    1    3    3    0    0 -0.15154177908E+02 -0.34586386745E+01  0.24998033710E+02  0.29436592516E+02  0.00000000000E+00 0. -1.
</event>
<event>
 7    1  0.2935819E-010  0.4778727E+02  0.7816164E-02  0.1312668E+00
        -11   -1    0    0    0    0  0.00000000000E+00  0.00000000000E+00  0.45593999997E+02  0.45594000000E+02  0.51100000000E-03 0.  1.
         11   -1    0    0    0    0 -0.00000000000E+00 -0.00000000000E+00 -0.45593999997E+02  0.45594000000E+02  0.51100000000E-03 0. -1.
    9900012    2    1    2    0    0 -0.37543165914E+02 -0.13001059169E+02 -0.17467306153E+02  0.47787266934E+02  0.19999981260E+02 0.  0.
        -12    1    1    2    0    0  0.37543165914E+02  0.13001059169E+02  0.17467306153E+02  0.43400733066E+02  0.00000000000E+00 0.  1.
         11    1    3    3    0    0 -0.27155429936E+02 -0.45777929739E+01 -0.62520163707E+01  0.28239356800E+02  0.51100000000E-03 0. -1.
        -11    1    3    3    0    0 -0.56162943879E+01 -0.83683010396E+01 -0.38846050611E+01  0.10800989847E+02  0.51100000000E-03 0.  1.
         12    1    3    3    0    0 -0.47714415904E+01 -0.54965155298E-01 -0.73306847213E+01  0.87469202867E+01  0.00000000000E+00 0. -1.
</event>
<event>
 7    1  0.2935819E-010  0.4778727E+02  0.7816164E-02  0.1312668E+00
        -11   -1    0    0    0    0  0.00000000000E+00  0.00000000000E+00  0.45593999997E+02  0.45594000000E+02  0.51100000000E-03 0.  1.
         11   -1    0    0    0    0 -0.00000000000E+00 -0.00000000000E+00 -0.45593999997E+02  0.45594000000E+02  0.51100000000E-03 0. -1.
    9900012    2    1    2    0    0 -0.12515730185E+01 -0.13923240964E+02 -0.41087712262E+02  0.47787272208E+02  0.20000005304E+02 0.  0.
        -12    1    1    2    0    0  0.12515730185E+01  0.13923240964E+02  0.41087712262E+02  0.43400727792E+02  0.00000000000E+00 0.  1.
         11    1    3    3    0    0 -0.31318314733E+01 -0.13355210599E+02 -0.26527706787E+02  0.29864514832E+02  0.51100000000E-03 0. -1.
        -11    1    3    3    0    0  0.12601672330E+01  0.28477493160E+01 -0.16873661785E+00  0.31186807995E+01  0.51100000000E-03 0.  1.
         12    1    3    3    0    0  0.62009122186E+00 -0.34157796806E+01 -0.14391268858E+02  0.14804076576E+02  0.00000000000E+00 0. -1.
</event>
<event>
 7    1  0.2935819E-010  0.4778727E+02  0.7816164E-02  0.1312668E+00
        -11   -1    0    0    0    0  0.00000000000E+00  0.00000000000E+00  0.45593999997E+02  0.45594000000E+02  0.51100000000E-03 0. -1.
         11   -1    0    0    0    0 -0.00000000000E+00 -0.00000000000E+00 -0.45593999997E+02  0.45594000000E+02  0.51100000000E-03 0.  1.
    9900012    2    1    2    0    0 -0.34857642648E+02  0.23854313793E+02  0.99769644509E+01  0.47787270085E+02  0.19999995624E+02 0.  0.
        -12    1    1    2    0    0  0.34857642648E+02 -0.23854313793E+02 -0.99769644509E+01  0.43400729915E+02  0.00000000000E+00 0.  1.
         11    1    3    3    0    0 -0.28908126133E+02  0.15649246364E+02  0.82696076917E+01  0.33896387417E+02  0.51100000000E-03 0. -1.
        -11    1    3    3    0    0 -0.30156419348E+01 -0.16953820694E+01  0.43316010043E+00  0.34865519606E+01  0.51100000000E-03 0.  1.
         12    1    3    3    0    0 -0.29338745797E+01  0.99004494991E+01  0.12741966589E+01  0.10404330707E+02  0.00000000000E+00 0. -1.
</event>
<event>
 7    1  0.2935819E-010  0.4778727E+02  0.7816164E-02  0.1312668E+00
        -11   -1    0    0    0    0  0.00000000000E+00  0.00000000000E+00  0.45593999997E+02  0.45594000000E+02  0.51100000000E-03 0.  1.
         11   -1    0    0    0    0 -0.00000000000E+00 -0.00000000000E+00 -0.45593999997E+02  0.45594000000E+02  0.51100000000E-03 0. -1.
    9900012    2    1    2    0    0 -0.36857746811E+02  0.14668070078E+02 -0.17606171047E+02  0.47787273753E+02  0.20000012351E+02 0.  0.
        -12    1    1    2    0    0  0.36857746811E+02 -0.14668070078E+02  0.17606171047E+02  0.43400726247E+02  0.00000000000E+00 0.  1.
         11    1    3    3    0    0 -0.25137075379E+02  0.76222384109E+01 -0.19011230370E+02  0.32425267269E+02  0.51100000000E-03 0. -1.
        -11    1    3    3    0    0 -0.70866927891E+01  0.81415275094E+00 -0.10660610082E+01  0.72125269999E+01  0.51100000000E-03 0.  1.
         12    1    3    3    0    0 -0.46339786427E+01  0.62316789161E+01  0.24711203316E+01  0.81494794844E+01  0.00000000000E+00 0. -1.
</event>
<event>
 7    1  0.2935819E-010  0.4778727E+02  0.7816164E-02  0.1312668E+00
        -11   -1    0    0    0    0  0.00000000000E+00  0.00000000000E+00  0.45593999997E+02  0.45594000000E+02  0.51100000000E-03 0.  1.
         11   -1    0    0    0    0 -0.00000000000E+00 -0.00000000000E+00 -0.45593999997E+02  0.45594000000E+02  0.51100000000E-03 0. -1.
    9900012    2    1    2    0    0 -0.13988963403E+02 -0.25676006575E+02 -0.32072959707E+02  0.47787272413E+02  0.20000006239E+02 0.  0.
        -12    1    1    2    0    0  0.13988963403E+02  0.25676006575E+02  0.32072959707E+02  0.43400727587E+02  0.00000000000E+00 0.  1.
         11    1    3    3    0    0 -0.10171234425E+02 -0.14966455892E+02 -0.16143960548E+02  0.24250284001E+02  0.51100000000E-03 0. -1.
        -11    1    3    3    0    0  0.47913894740E+01 -0.53615264348E+01 -0.64178465160E+01  0.96380564932E+01  0.51100000000E-03 0.  1.
         12    1    3    3    0    0 -0.86091184519E+01 -0.53480242475E+01 -0.95111526437E+01  0.13898931919E+02  0.00000000000E+00 0. -1.
</event>
<event>
 7    1  0.2935819E-010  0.4778729E+02  0.7816164E-02  0.1312668E+00
        -11   -1    0    0    0    0  0.00000000000E+00  0.00000000000E+00  0.45593999997E+02  0.45594000000E+02  0.51100000000E-03 0.  1.
         11   -1    0    0    0    0 -0.00000000000E+00 -0.00000000000E+00 -0.45593999997E+02  0.45594000000E+02  0.51100000000E-03 0. -1.
    9900012    2    1    2    0    0 -0.97317515736E+01  0.13697175569E+02 -0.40016276810E+02  0.47787285524E+02  0.20000066019E+02 0.  0.
        -12    1    1    2    0    0  0.97317515736E+01 -0.13697175569E+02  0.40016276810E+02  0.43400714476E+02  0.00000000000E+00 0.  1.
         11    1    3    3    0    0 -0.13122309316E+02  0.12959671209E+02 -0.26304901674E+02  0.32126249889E+02  0.51100000000E-03 0. -1.
        -11    1    3    3    0    0  0.14089952256E+01 -0.13161475212E+01 -0.30229265888E+00  0.19516385311E+01  0.51100000000E-03 0.  1.
         12    1    3    3    0    0  0.19815625168E+01  0.20536518815E+01 -0.13409082478E+02  0.13709397104E+02  0.00000000000E+00 0. -1.
</event>
<event>
 7    1  0.2935819E-010  0.4778727E+02  0.7816164E-02  0.1312668E+00
        -11   -1    0    0    0    0  0.00000000000E+00  0.00000000000E+00  0.45593999997E+02  0.45594000000E+02  0.51100000000E-03 0. -1.
         11   -1    0    0    0    0 -0.00000000000E+00 -0.00000000000E+00 -0.45593999997E+02  0.45594000000E+02  0.51100000000E-03 0.  1.
    9900012    2    1    2    0    0  0.63752689379E+00  0.50385579762E+01  0.43102548628E+02  0.47787271835E+02  0.20000003602E+02 0.  0.
        -12    1    1    2    0    0 -0.63752689379E+00 -0.50385579762E+01 -0.43102548628E+02  0.43400728165E+02  0.00000000000E+00 0.  1.
         11    1    3    3    0    0 -0.71618599983E+01  0.34574967703E+01  0.16477245975E+02  0.18296069461E+02  0.51100000000E-03 0. -1.
        -11    1    3    3    0    0 -0.52953111530E+00  0.20574175313E+01  0.66922160679E+00  0.22273814043E+01  0.51100000000E-03 0.  1.
         12    1    3    3    0    0  0.83289180074E+01 -0.47635632537E+00  0.25956081047E+02  0.27263820969E+02  0.00000000000E+00 0. -1.
</event>
<event>
 7    1  0.2935819E-010  0.4778727E+02  0.7816164E-02  0.1312668E+00
        -11   -1    0    0    0    0  0.00000000000E+00  0.00000000000E+00  0.45593999997E+02  0.45594000000E+02  0.51100000000E-03 0. -1.
         11   -1    0    0    0    0 -0.00000000000E+00 -0.00000000000E+00 -0.45593999997E+02  0.45594000000E+02  0.51100000000E-03 0.  1.
    9900012    2    1    2    0    0  0.17595700741E+01 -0.14201049471E+02  0.40973862745E+02  0.47787270500E+02  0.19999997517E+02 0.  0.
        -12    1    1    2    0    0 -0.17595700741E+01  0.14201049471E+02 -0.40973862745E+02  0.43400729500E+02  0.00000000000E+00 0.  1.
         11    1    3    3    0    0 -0.24187695361E+01 -0.16998351310E+02  0.22767054797E+02  0.28515490137E+02  0.51100000000E-03 0. -1.
        -11    1    3    3    0    0  0.42571233922E+01  0.94818301754E+00  0.14269779355E+02  0.14921419292E+02  0.51100000000E-03 0.  1.
         12    1    3    3    0    0 -0.78783782024E-01  0.18491188220E+01  0.39370285930E+01  0.43503610706E+01  0.00000000000E+00 0. -1.
</event>
<event>
 7    1  0.2935819E-010  0.4778727E+02  0.7816164E-02  0.1312668E+00
        -11   -1    0    0    0    0  0.00000000000E+00  0.00000000000E+00  0.45593999997E+02  0.45594000000E+02  0.51100000000E-03 0.  1.
         11   -1    0    0    0    0 -0.00000000000E+00 -0.00000000000E+00 -0.45593999997E+02  0.45594000000E+02  0.51100000000E-03 0. -1.
    9900012    2    1    2    0    0 -0.42729394153E+02  0.41758306484E+01 -0.63548913879E+01  0.47787270388E+02  0.19999997006E+02 0.  0.
        -12    1    1    2    0    0  0.42729394153E+02 -0.41758306484E+01  0.63548913879E+01  0.43400729612E+02  0.00000000000E+00 0.  1.
         11    1    3    3    0    0 -0.24634554213E+02 -0.14498209894E+01  0.17556958390E+01  0.24739557602E+02  0.51100000000E-03 0. -1.
        -11    1    3    3    0    0 -0.13544320165E+01 -0.15401462193E+01  0.14202166077E+01  0.24947047798E+01  0.51100000000E-03 0.  1.
         12    1    3    3    0    0 -0.16740407924E+02  0.71657978571E+01 -0.95308038346E+01  0.20553008006E+02  0.00000000000E+00 0. -1.
</event>
<event>
 7    1  0.2935819E-010  0.4778727E+02  0.7816164E-02  0.1312668E+00
        -11   -1    0    0    0    0  0.00000000000E+00  0.00000000000E+00  0.45593999997E+02  0.45594000000E+02  0.51100000000E-03 0.  1.
         11   -1    0    0    0    0 -0.00000000000E+00 -0.00000000000E+00 -0.45593999997E+02  0.45594000000E+02  0.51100000000E-03 0. -1.
    9900012    2    1    2    0    0  0.38323310770E+01 -0.30729383160E+02 -0.30407919589E+02  0.47787270460E+02  0.19999997337E+02 0.  0.
        -12    1    1    2    0    0 -0.38323310770E+01  0.30729383160E+02  0.30407919589E+02  0.43400729540E+02  0.00000000000E+00 0.  1.
         11    1    3    3    0    0  0.16953648553E+01  0.10758599763E+01 -0.93135281569E+01  0.95275150838E+01  0.51100000000E-03 0.  1.
        -11    1    3    3    0    0  0.31370750046E+00 -0.16179723265E+02 -0.10360935205E+02  0.19215380191E+02  0.51100000000E-03 0. -1.
        -12    1    3    3    0    0  0.18232587212E+01 -0.15625519872E+02 -0.10733456227E+02  0.19044375185E+02  0.00000000000E+00 0.  1.
</event>
<event>
 7    1  0.2935819E-010  0.4778727E+02  0.7816164E-02  0.1312668E+00
        -11   -1    0    0    0    0  0.00000000000E+00  0.00000000000E+00  0.45593999997E+02  0.45594000000E+02  0.51100000000E-03 0.  1.
         11   -1    0    0    0    0 -0.00000000000E+00 -0.00000000000E+00 -0.45593999997E+02  0.45594000000E+02  0.51100000000E-03 0. -1.
    9900012    2    1    2    0    0 -0.90809154754E+01  0.32905436330E+02 -0.26802844920E+02  0.47787271184E+02  0.20000000638E+02 0.  0.
        -12    1    1    2    0    0  0.90809154754E+01 -0.32905436330E+02  0.26802844920E+02  0.43400728816E+02  0.00000000000E+00 0.  1.
         11    1    3    3    0    0 -0.48451812681E+01  0.10818444774E+02 -0.12280956860E+02  0.17068580214E+02  0.51100000000E-03 0. -1.
        -11    1    3    3    0    0 -0.75797916400E+01  0.13849709317E+02 -0.28447018241E+01  0.16042444271E+02  0.51100000000E-03 0.  1.
        -12    1    3    3    0    0  0.33440574326E+01  0.82372822390E+01 -0.11677186236E+02  0.14676246699E+02  0.00000000000E+00 0.  1.
</event>
<event>
 7    1  0.2935819E-010  0.4778727E+02  0.7816164E-02  0.1312668E+00
        -11   -1    0    0    0    0  0.00000000000E+00  0.00000000000E+00  0.45593999997E+02  0.45594000000E+02  0.51100000000E-03 0.  1.
         11   -1    0    0    0    0 -0.00000000000E+00 -0.00000000000E+00 -0.45593999997E+02  0.45594000000E+02  0.51100000000E-03 0. -1.
    9900012    2    1    2    0    0 -0.75635332707E+01  0.41422333478E+02 -0.10516970812E+02  0.47787269345E+02  0.19999992253E+02 0.  0.
        -12    1    1    2    0    0  0.75635332707E+01 -0.41422333478E+02  0.10516970812E+02  0.43400730655E+02  0.00000000000E+00 0.  1.
         11    1    3    3    0    0 -0.60666979535E+01  0.32875126889E+01 -0.43766167330E+01  0.81711283203E+01  0.51100000000E-03 0. -1.
        -11    1    3    3    0    0 -0.12264012217E+01  0.15005299357E+02  0.17944980236E+01  0.15161902656E+02  0.51100000000E-03 0.  1.
         12    1    3    3    0    0 -0.27043409548E+00  0.23129521432E+02 -0.79348521031E+01  0.24454238368E+02  0.00000000000E+00 0. -1.
</event>
<event>
 7    1  0.2935819E-010  0.4778727E+02  0.7816164E-02  0.1312668E+00
        -11   -1    0    0    0    0  0.00000000000E+00  0.00000000000E+00  0.45593999997E+02  0.45594000000E+02  0.51100000000E-03 0.  1.
         11   -1    0    0    0    0 -0.00000000000E+00 -0.00000000000E+00 -0.45593999997E+02  0.45594000000E+02  0.51100000000E-03 0. -1.
    9900012    2    1    2    0    0  0.24007258728E+02 -0.17952152790E+02 -0.31384631482E+02  0.47787270113E+02  0.19999995754E+02 0.  0.
        -12    1    1    2    0    0 -0.24007258728E+02  0.17952152790E+02  0.31384631482E+02  0.43400729887E+02  0.00000000000E+00 0.  1.
         11    1    3    3    0    0  0.43996662121E+01 -0.14695221424E+01  0.14492350080E+01  0.48597160899E+01  0.51100000000E-03 0.  1.
        -11    1    3    3    0    0  0.18722945626E+02 -0.17580298137E+02 -0.28474790303E+02  0.38346176584E+02  0.51100000000E-03 0. -1.
        -12    1    3    3    0    0  0.88464689065E+00  0.10976674902E+01 -0.43590761869E+01  0.45813774396E+01  0.00000000000E+00 0.  1.
</event>
<event>
 7    1  0.2935819E-010  0.4778727E+02  0.7816164E-02  0.1312668E+00
        -11   -1    0    0    0    0  0.00000000000E+00  0.00000000000E+00  0.45593999997E+02  0.45594000000E+02  0.51100000000E-03 0.  1.
         11   -1    0    0    0    0 -0.00000000000E+00 -0.00000000000E+00 -0.45593999997E+02  0.45594000000E+02  0.51100000000E-03 0. -1.
    9900012    2    1    2    0    0  0.47918968406E+01 -0.38314346295E+02 -0.19815946332E+02  0.47787272628E+02  0.20000007221E+02 0.  0.
        -12    1    1    2    0    0 -0.47918968406E+01  0.38314346295E+02  0.19815946332E+02  0.43400727372E+02  0.00000000000E+00 0.  1.
         11    1    3    3    0    0  0.21669744399E+01 -0.25049231784E+02 -0.21989285844E+02  0.33401923348E+02  0.51100000000E-03 0. -1.
        -11    1    3    3    0    0  0.27510219218E+01 -0.72253111053E+01  0.29898561727E+01  0.82892992694E+01  0.51100000000E-03 0.  1.
         12    1    3    3    0    0 -0.12609952104E+00 -0.60398034063E+01 -0.81651666088E+00  0.60960500108E+01  0.00000000000E+00 0. -1.
</event>
<event>
 7    1  0.2935819E-010  0.4778728E+02  0.7816164E-02  0.1312668E+00
        -11   -1    0    0    0    0  0.00000000000E+00  0.00000000000E+00  0.45593999997E+02  0.45594000000E+02  0.51100000000E-03 0.  1.
         11   -1    0    0    0    0 -0.00000000000E+00 -0.00000000000E+00 -0.45593999997E+02  0.45594000000E+02  0.51100000000E-03 0. -1.
    9900012    2    1    2    0    0 -0.30948727385E+02 -0.21750451663E+02 -0.21277144441E+02  0.47787277081E+02  0.20000027523E+02 0.  0.
        -12    1    1    2    0    0  0.30948727385E+02  0.21750451663E+02  0.21277144441E+02  0.43400722919E+02  0.00000000000E+00 0.  1.
         11    1    3    3    0    0 -0.12892916468E+02 -0.11231755892E+02 -0.57504763230E+00  0.17108778902E+02  0.51100000000E-03 0. -1.
        -11    1    3    3    0    0 -0.14872897285E+02 -0.11351163704E+02 -0.14547803910E+02  0.23700012446E+02  0.51100000000E-03 0.  1.
         12    1    3    3    0    0 -0.31829136323E+01  0.83246793216E+00 -0.61542928985E+01  0.69784857332E+01  0.00000000000E+00 0. -1.
</event>
<event>
 7    1  0.2935819E-010  0.4778728E+02  0.7816164E-02  0.1312668E+00
        -11   -1    0    0    0    0  0.00000000000E+00  0.00000000000E+00  0.45593999997E+02  0.45594000000E+02  0.51100000000E-03 0.  1.
         11   -1    0    0    0    0 -0.00000000000E+00 -0.00000000000E+00 -0.45593999997E+02  0.45594000000E+02  0.51100000000E-03 0. -1.
    9900012    2    1    2    0    0  0.55633299260E+01 -0.33416712905E+02 -0.27129235928E+02  0.47787276697E+02  0.20000025770E+02 0.  0.
        -12    1    1    2    0    0 -0.55633299260E+01  0.33416712905E+02  0.27129235928E+02  0.43400723303E+02  0.00000000000E+00 0.  1.
         11    1    3    3    0    0  0.63955463356E+01 -0.13104417499E+02 -0.17780435372E+02  0.22995057147E+02  0.51100000000E-03 0. -1.
        -11    1    3    3    0    0 -0.57425792124E+01 -0.10872100397E+02 -0.44273501522E+01  0.13068328611E+02  0.51100000000E-03 0.  1.
         12    1    3    3    0    0  0.49103628028E+01 -0.94401950098E+01 -0.49214504039E+01  0.11723890939E+02  0.00000000000E+00 0. -1.
</event>
<event>
 7    1  0.2935819E-010  0.4778727E+02  0.7816164E-02  0.1312668E+00
        -11   -1    0    0    0    0  0.00000000000E+00  0.00000000000E+00  0.45593999997E+02  0.45594000000E+02  0.51100000000E-03 0.  1.
         11   -1    0    0    0    0 -0.00000000000E+00 -0.00000000000E+00 -0.45593999997E+02  0.45594000000E+02  0.51100000000E-03 0. -1.
    9900012    2    1    2    0    0  0.24139512358E+02  0.14840081992E+02 -0.32873692331E+02  0.47787265699E+02  0.19999975626E+02 0.  0.
        -12    1    1    2    0    0 -0.24139512358E+02 -0.14840081992E+02  0.32873692331E+02  0.43400734301E+02  0.00000000000E+00 0.  1.
         11    1    3    3    0    0  0.57150935856E+01  0.11845699397E+02 -0.16603011712E+02  0.21181191823E+02  0.51100000000E-03 0. -1.
        -11    1    3    3    0    0  0.15281729961E+02 -0.96510252633E+00 -0.14907380288E+02  0.21370369224E+02  0.51100000000E-03 0.  1.
         12    1    3    3    0    0  0.31426888116E+01  0.39594851221E+01 -0.13633003312E+01  0.52357046509E+01  0.00000000000E+00 0. -1.
</event>
<event>
 7    1  0.2935819E-010  0.4778727E+02  0.7816164E-02  0.1312668E+00
        -11   -1    0    0    0    0  0.00000000000E+00  0.00000000000E+00  0.45593999997E+02  0.45594000000E+02  0.51100000000E-03 0. -1.
         11   -1    0    0    0    0 -0.00000000000E+00 -0.00000000000E+00 -0.45593999997E+02  0.45594000000E+02  0.51100000000E-03 0.  1.
    9900012    2    1    2    0    0 -0.16844395409E+02  0.30399736554E+02 -0.25995105629E+02  0.47787272404E+02  0.20000006197E+02 0.  0.
        -12    1    1    2    0    0  0.16844395409E+02 -0.30399736554E+02  0.25995105629E+02  0.43400727596E+02  0.00000000000E+00 0.  1.
         11    1    3    3    0    0 -0.46574101233E+01 -0.14598774954E+00 -0.48770502830E+01  0.67452502699E+01  0.51100000000E-03 0. -1.
        -11    1    3    3    0    0 -0.10672540747E+02  0.19853677029E+02 -0.77023776920E+01  0.23820122584E+02  0.51100000000E-03 0.  1.
        -12    1    3    3    0    0 -0.15144445390E+01  0.10692047274E+02 -0.13415677654E+02  0.17221899550E+02  0.00000000000E+00 0.  1.
</event>
<event>
 7    1  0.2935819E-010  0.4778727E+02  0.7816164E-02  0.1312668E+00
        -11   -1    0    0    0    0  0.00000000000E+00  0.00000000000E+00  0.45593999997E+02  0.45594000000E+02  0.51100000000E-03 0.  1.
         11   -1    0    0    0    0 -0.00000000000E+00 -0.00000000000E+00 -0.45593999997E+02  0.45594000000E+02  0.51100000000E-03 0. -1.
    9900012    2    1    2    0    0  0.57194045570E+01  0.40308415989E+02 -0.15038053077E+02  0.47787273872E+02  0.20000012894E+02 0.  0.
        -12    1    1    2    0    0 -0.57194045570E+01 -0.40308415989E+02  0.15038053077E+02  0.43400726128E+02  0.00000000000E+00 0.  1.
         11    1    3    3    0    0  0.76321756583E+01  0.56210350639E+01 -0.17216703063E+01  0.96338097019E+01  0.51100000000E-03 0.  1.
        -11    1    3    3    0    0 -0.39108494243E+01  0.20564946825E+02 -0.11177986496E+02  0.23730974769E+02  0.51100000000E-03 0. -1.
        -12    1    3    3    0    0  0.19980783231E+01  0.14122434100E+02 -0.21383962751E+01  0.14422489401E+02  0.00000000000E+00 0.  1.
</event>
<event>
 7    1  0.2935819E-010  0.4778727E+02  0.7816164E-02  0.1312668E+00
        -11   -1    0    0    0    0  0.00000000000E+00  0.00000000000E+00  0.45593999997E+02  0.45594000000E+02  0.51100000000E-03 0.  1.
         11   -1    0    0    0    0 -0.00000000000E+00 -0.00000000000E+00 -0.45593999997E+02  0.45594000000E+02  0.51100000000E-03 0. -1.
    9900012    2    1    2    0    0 -0.29990156603E+02 -0.23482326668E+01 -0.31284169744E+02  0.47787274588E+02  0.20000016156E+02 0.  0.
        -12    1    1    2    0    0  0.29990156603E+02  0.23482326668E+01  0.31284169744E+02  0.43400725412E+02  0.00000000000E+00 0.  1.
         11    1    3    3    0    0 -0.27248720205E+02 -0.20963390739E+01 -0.20093285022E+02  0.33920900542E+02  0.51100000000E-03 0. -1.
        -11    1    3    3    0    0 -0.54976323164E+00  0.35444767399E+01 -0.66448489617E+01  0.75511305746E+01  0.51100000000E-03 0.  1.
        -12    1    3    3    0    0 -0.21916731668E+01 -0.37963703327E+01 -0.45460357602E+01  0.63152434716E+01  0.00000000000E+00 0.  1.
</event>
<event>
 7    1  0.2935819E-010  0.4778726E+02  0.7816164E-02  0.1312668E+00
        -11   -1    0    0    0    0  0.00000000000E+00  0.00000000000E+00  0.45593999997E+02  0.45594000000E+02  0.51100000000E-03 0.  1.
         11   -1    0    0    0    0 -0.00000000000E+00 -0.00000000000E+00 -0.45593999997E+02  0.45594000000E+02  0.51100000000E-03 0. -1.
    9900012    2    1    2    0    0 -0.21320010649E+02 -0.53619895055E+01 -0.37420984933E+02  0.47787263844E+02  0.19999967170E+02 0.  0.
        -12    1    1    2    0    0  0.21320010649E+02  0.53619895055E+01  0.37420984933E+02  0.43400736156E+02  0.00000000000E+00 0.  1.
         11    1    3    3    0    0 -0.18523601678E+02  0.70652262443E+00 -0.24285942018E+02  0.30552086235E+02  0.51100000000E-03 0. -1.
        -11    1    3    3    0    0  0.30287890687E+01 -0.14300102653E+01 -0.62630439338E+01  0.71024088983E+01  0.51100000000E-03 0.  1.
         12    1    3    3    0    0 -0.58251980397E+01 -0.46385018646E+01 -0.68719989812E+01  0.10132768711E+02  0.00000000000E+00 0. -1.
</event>
<event>
 7    1  0.2935819E-010  0.4778727E+02  0.7816164E-02  0.1312668E+00
        -11   -1    0    0    0    0  0.00000000000E+00  0.00000000000E+00  0.45593999997E+02  0.45594000000E+02  0.51100000000E-03 0.  1.
         11   -1    0    0    0    0 -0.00000000000E+00 -0.00000000000E+00 -0.45593999997E+02  0.45594000000E+02  0.51100000000E-03 0. -1.
    9900012    2    1    2    0    0 -0.14709405987E+02 -0.14492562048E+02 -0.38173582061E+02  0.47787270207E+02  0.19999996180E+02 0.  0.
        -12    1    1    2    0    0  0.14709405987E+02  0.14492562048E+02  0.38173582061E+02  0.43400729793E+02  0.00000000000E+00 0.  1.
         11    1    3    3    0    0 -0.45258856275E+01 -0.20215274279E+01 -0.11901847062E+02  0.12892795570E+02  0.51100000000E-03 0. -1.
        -11    1    3    3    0    0 -0.12824230248E+02 -0.14144347176E+02 -0.18798899681E+02  0.26794067775E+02  0.51100000000E-03 0.  1.
        -12    1    3    3    0    0  0.26407098885E+01  0.16733125559E+01 -0.74728353185E+01  0.81004068615E+01  0.00000000000E+00 0.  1.
</event>
<event>
 7    1  0.2935819E-010  0.4778727E+02  0.7816164E-02  0.1312668E+00
        -11   -1    0    0    0    0  0.00000000000E+00  0.00000000000E+00  0.45593999997E+02  0.45594000000E+02  0.51100000000E-03 0.  1.
         11   -1    0    0    0    0 -0.00000000000E+00 -0.00000000000E+00 -0.45593999997E+02  0.45594000000E+02  0.51100000000E-03 0. -1.
    9900012    2    1    2    0    0 -0.36420180270E+02  0.15083083190E+02  0.18157481560E+02  0.47787273439E+02  0.20000010917E+02 0.  0.
        -12    1    1    2    0    0  0.36420180270E+02 -0.15083083190E+02 -0.18157481560E+02  0.43400726561E+02  0.00000000000E+00 0.  1.
         11    1    3    3    0    0 -0.12536250393E+02  0.74990254638E+01 -0.10363514224E+01  0.14644691235E+02  0.51100000000E-03 0. -1.
        -11    1    3    3    0    0 -0.15793672160E+02 -0.86173271300E-01  0.10012267416E+02  0.18700080353E+02  0.51100000000E-03 0.  1.
         12    1    3    3    0    0 -0.80902577171E+01  0.76702309977E+01  0.91815655660E+01  0.14442501851E+02  0.00000000000E+00 0. -1.
</event>
<event>
 7    1  0.2935819E-010  0.4778727E+02  0.7816164E-02  0.1312668E+00
        -11   -1    0    0    0    0  0.00000000000E+00  0.00000000000E+00  0.45593999997E+02  0.45594000000E+02  0.51100000000E-03 0.  1.
         11   -1    0    0    0    0 -0.00000000000E+00 -0.00000000000E+00 -0.45593999997E+02  0.45594000000E+02  0.51100000000E-03 0. -1.
    9900012    2    1    2    0    0 -0.34702571267E+01  0.82846804522E+01 -0.42461098009E+02  0.47787268913E+02  0.19999990282E+02 0.  0.
        -12    1    1    2    0    0  0.34702571267E+01 -0.82846804522E+01  0.42461098009E+02  0.43400731087E+02  0.00000000000E+00 0.  1.
         11    1    3    3    0    0 -0.66985328613E+01 -0.38232924915E-01 -0.34838677565E+02  0.35476827070E+02  0.51100000000E-03 0. -1.
        -11    1    3    3    0    0  0.21666655357E+01  0.40138709207E+01 -0.16090749494E+01  0.48368090479E+01  0.51100000000E-03 0.  1.
         12    1    3    3    0    0  0.10616101989E+01  0.43090424564E+01 -0.60133454954E+01  0.74736327949E+01  0.00000000000E+00 0. -1.
</event>
<event>
 7    1  0.2935819E-010  0.4778727E+02  0.7816164E-02  0.1312668E+00
        -11   -1    0    0    0    0  0.00000000000E+00  0.00000000000E+00  0.45593999997E+02  0.45594000000E+02  0.51100000000E-03 0.  1.
         11   -1    0    0    0    0 -0.00000000000E+00 -0.00000000000E+00 -0.45593999997E+02  0.45594000000E+02  0.51100000000E-03 0. -1.
    9900012    2    1    2    0    0 -0.42673510279E+02 -0.79033344743E+01 -0.36347433489E+00  0.47787270871E+02  0.19999999208E+02 0.  0.
        -12    1    1    2    0    0  0.42673510279E+02  0.79033344743E+01  0.36347433489E+00  0.43400729129E+02  0.00000000000E+00 0.  1.
         11    1    3    3    0    0 -0.14851082034E+02 -0.81619276335E+01 -0.46965067811E+01  0.17584904790E+02  0.51100000000E-03 0. -1.
        -11    1    3    3    0    0 -0.23570425050E+02  0.36771061763E+01  0.11440924747E+01  0.23882943594E+02  0.51100000000E-03 0.  1.
         12    1    3    3    0    0 -0.42520031954E+01 -0.34185130172E+01  0.31889399716E+01  0.63194224866E+01  0.00000000000E+00 0. -1.
</event>
<event>
 7    1  0.2935819E-010  0.4778729E+02  0.7816164E-02  0.1312668E+00
        -11   -1    0    0    0    0  0.00000000000E+00  0.00000000000E+00  0.45593999997E+02  0.45594000000E+02  0.51100000000E-03 0. -1.
         11   -1    0    0    0    0 -0.00000000000E+00 -0.00000000000E+00 -0.45593999997E+02  0.45594000000E+02  0.51100000000E-03 0.  1.
    9900012    2    1    2    0    0 -0.40731086346E+02  0.11032061451E+02  0.10143654851E+02  0.47787291382E+02  0.20000092728E+02 0.  0.
        -12    1    1    2    0    0  0.40731086346E+02 -0.11032061451E+02 -0.10143654851E+02  0.43400708618E+02  0.00000000000E+00 0.  1.
         11    1    3    3    0    0 -0.27246238399E+02  0.10986523400E+02  0.47892038564E+01  0.29765713113E+02  0.51100000000E-03 0. -1.
        -11    1    3    3    0    0 -0.13209572359E+02 -0.24305672708E+01  0.68895561720E+01  0.15095245731E+02  0.51100000000E-03 0.  1.
        -12    1    3    3    0    0 -0.27527558814E+00  0.24761053227E+01 -0.15351051774E+01  0.29263325382E+01  0.00000000000E+00 0.  1.
</event>
<event>
 7    1  0.2935819E-010  0.4778727E+02  0.7816164E-02  0.1312668E+00
        -11   -1    0    0    0    0  0.00000000000E+00  0.00000000000E+00  0.45593999997E+02  0.45594000000E+02  0.51100000000E-03 0.  1.
         11   -1    0    0    0    0 -0.00000000000E+00 -0.00000000000E+00 -0.45593999997E+02  0.45594000000E+02  0.51100000000E-03 0. -1.
    9900012    2    1    2    0    0 -0.37549947823E+02  0.52778070263E+01 -0.21113256160E+02  0.47787269428E+02  0.19999992630E+02 0.  0.
        -12    1    1    2    0    0  0.37549947823E+02 -0.52778070263E+01  0.21113256160E+02  0.43400730572E+02  0.00000000000E+00 0.  1.
         11    1    3    3    0    0 -0.67063449200E+01  0.66739251246E+01 -0.45979109506E+01  0.10519368999E+02  0.51100000000E-03 0. -1.
        -11    1    3    3    0    0 -0.93669235576E+01 -0.64151047955E+01 -0.56795009954E+01  0.12694469595E+02  0.51100000000E-03 0.  1.
        -12    1    3    3    0    0 -0.21476679345E+02  0.50189866972E+01 -0.10835844213E+02  0.24573430835E+02  0.00000000000E+00 0.  1.
</event>
<event>
 7    1  0.2935819E-010  0.4778727E+02  0.7816164E-02  0.1312668E+00
        -11   -1    0    0    0    0  0.00000000000E+00  0.00000000000E+00  0.45593999997E+02  0.45594000000E+02  0.51100000000E-03 0.  1.
         11   -1    0    0    0    0 -0.00000000000E+00 -0.00000000000E+00 -0.45593999997E+02  0.45594000000E+02  0.51100000000E-03 0. -1.
    9900012    2    1    2    0    0 -0.32158623129E+02 -0.19902545925E+02 -0.21291655636E+02  0.47787274481E+02  0.20000015666E+02 0.  0.
        -12    1    1    2    0    0  0.32158623129E+02  0.19902545925E+02  0.21291655636E+02  0.43400725519E+02  0.00000000000E+00 0.  1.
         11    1    3    3    0    0 -0.14373085646E+02 -0.59922656108E+01 -0.14161754914E+02  0.21048708764E+02  0.51100000000E-03 0. -1.
        -11    1    3    3    0    0 -0.12853340345E+02 -0.87879056363E+01  0.14002925464E+01  0.15633184671E+02  0.51100000000E-03 0.  1.
        -12    1    3    3    0    0 -0.49321971391E+01 -0.51223746783E+01 -0.85301932684E+01  0.11105381045E+02  0.00000000000E+00 0.  1.
</event>
<event>
 7    1  0.2935819E-010  0.4778727E+02  0.7816164E-02  0.1312668E+00
        -11   -1    0    0    0    0  0.00000000000E+00  0.00000000000E+00  0.45593999997E+02  0.45594000000E+02  0.51100000000E-03 0.  1.
         11   -1    0    0    0    0 -0.00000000000E+00 -0.00000000000E+00 -0.45593999997E+02  0.45594000000E+02  0.51100000000E-03 0. -1.
    9900012    2    1    2    0    0  0.42077211552E+02 -0.10053965337E+02 -0.34712013985E+01  0.47787272009E+02  0.20000004397E+02 0.  0.
        -12    1    1    2    0    0 -0.42077211552E+02  0.10053965337E+02  0.34712013985E+01  0.43400727991E+02  0.00000000000E+00 0.  1.
         11    1    3    3    0    0  0.32166877820E+01  0.25403506310E+01  0.29923114096E+01  0.50748782693E+01  0.51100000000E-03 0. -1.
        -11    1    3    3    0    0  0.27493027943E+02 -0.37010296476E+01 -0.52005108833E+01  0.28224271818E+02  0.51100000000E-03 0.  1.
         12    1    3    3    0    0  0.11367495827E+02 -0.88932863203E+01 -0.12630019248E+01  0.14488121922E+02  0.00000000000E+00 0. -1.
</event>
<event>
 7    1  0.2935819E-010  0.4778727E+02  0.7816164E-02  0.1312668E+00
        -11   -1    0    0    0    0  0.00000000000E+00  0.00000000000E+00  0.45593999997E+02  0.45594000000E+02  0.51100000000E-03 0.  1.
         11   -1    0    0    0    0 -0.00000000000E+00 -0.00000000000E+00 -0.45593999997E+02  0.45594000000E+02  0.51100000000E-03 0. -1.
    9900012    2    1    2    0    0  0.10795246448E+02  0.15003600683E+02 -0.39268026023E+02  0.47787271353E+02  0.20000001409E+02 0.  0.
        -12    1    1    2    0    0 -0.10795246448E+02 -0.15003600683E+02  0.39268026023E+02  0.43400728647E+02  0.00000000000E+00 0.  1.
         11    1    3    3    0    0  0.12829983254E+01  0.12135779229E+02 -0.24174651768E+02  0.27080195911E+02  0.51100000000E-03 0. -1.
        -11    1    3    3    0    0  0.36553886665E+01  0.19057925805E+01  0.37468610164E+00  0.41393600470E+01  0.51100000000E-03 0.  1.
         12    1    3    3    0    0  0.58568594560E+01  0.96202887369E+00 -0.15468060356E+02  0.16567715395E+02  0.00000000000E+00 0. -1.
</event>
<event>
 7    1  0.2935819E-010  0.4778727E+02  0.7816164E-02  0.1312668E+00
        -11   -1    0    0    0    0  0.00000000000E+00  0.00000000000E+00  0.45593999997E+02  0.45594000000E+02  0.51100000000E-03 0. -1.
         11   -1    0    0    0    0 -0.00000000000E+00 -0.00000000000E+00 -0.45593999997E+02  0.45594000000E+02  0.51100000000E-03 0.  1.
    9900012    2    1    2    0    0 -0.31916318230E+02 -0.28119708804E+02 -0.86170693722E+01  0.47787271007E+02  0.19999999828E+02 0.  0.
        -12    1    1    2    0    0  0.31916318230E+02  0.28119708804E+02  0.86170693722E+01  0.43400728993E+02  0.00000000000E+00 0.  1.
         11    1    3    3    0    0 -0.12145739933E+02 -0.44083595883E+01  0.48689769524E+01  0.13807953129E+02  0.51100000000E-03 0. -1.
        -11    1    3    3    0    0 -0.13602070465E+02 -0.18540534538E+02 -0.11392817001E+02  0.25662502243E+02  0.51100000000E-03 0.  1.
         12    1    3    3    0    0 -0.61685078320E+01 -0.51708146783E+01 -0.20932293232E+01  0.83168156352E+01  0.00000000000E+00 0. -1.
</event>
<event>
 7    1  0.2935819E-010  0.4778726E+02  0.7816164E-02  0.1312668E+00
        -11   -1    0    0    0    0  0.00000000000E+00  0.00000000000E+00  0.45593999997E+02  0.45594000000E+02  0.51100000000E-03 0.  1.
         11   -1    0    0    0    0 -0.00000000000E+00 -0.00000000000E+00 -0.45593999997E+02  0.45594000000E+02  0.51100000000E-03 0. -1.
    9900012    2    1    2    0    0 -0.12403116371E+02 -0.24374405208E+02 -0.33699776922E+02  0.47787263951E+02  0.19999967658E+02 0.  0.
        -12    1    1    2    0    0  0.12403116371E+02  0.24374405208E+02  0.33699776922E+02  0.43400736049E+02  0.00000000000E+00 0.  1.
         11    1    3    3    0    0 -0.10416670944E+01 -0.18456175828E+01 -0.80358280757E+01  0.83105900947E+01  0.51100000000E-03 0. -1.
        -11    1    3    3    0    0 -0.83059888547E+01 -0.61518479708E+01 -0.19858569482E+01  0.10525127666E+02  0.51100000000E-03 0.  1.
        -12    1    3    3    0    0 -0.30554604219E+01 -0.16376939655E+02 -0.23678091898E+02  0.28951546190E+02  0.00000000000E+00 0.  1.
</event>
<event>
 7    1  0.2935819E-010  0.4778727E+02  0.7816164E-02  0.1312668E+00
        -11   -1    0    0    0    0  0.00000000000E+00  0.00000000000E+00  0.45593999997E+02  0.45594000000E+02  0.51100000000E-03 0. -1.
         11   -1    0    0    0    0 -0.00000000000E+00 -0.00000000000E+00 -0.45593999997E+02  0.45594000000E+02  0.51100000000E-03 0.  1.
    9900012    2    1    2    0    0 -0.43333377424E+02 -0.14386277266E+01  0.19421759659E+01  0.47787270788E+02  0.19999998829E+02 0.  0.
        -12    1    1    2    0    0  0.43333377424E+02  0.14386277266E+01 -0.19421759659E+01  0.43400729212E+02  0.00000000000E+00 0.  1.
         11    1    3    3    0    0 -0.15246729886E+02  0.27566266877E+01  0.47245520330E+01  0.16198245433E+02  0.51100000000E-03 0. -1.
        -11    1    3    3    0    0 -0.64356527780E+01  0.44821919934E+01 -0.26023288488E+01  0.82631584423E+01  0.51100000000E-03 0.  1.
        -12    1    3    3    0    0 -0.21650994759E+02 -0.86774464076E+01 -0.18004721824E+00  0.23325866913E+02  0.00000000000E+00 0.  1.
</event>
<event>
 7    1  0.2935819E-010  0.4778728E+02  0.7816164E-02  0.1312668E+00
        -11   -1    0    0    0    0  0.00000000000E+00  0.00000000000E+00  0.45593999997E+02  0.45594000000E+02  0.51100000000E-03 0. -1.
         11   -1    0    0    0    0 -0.00000000000E+00 -0.00000000000E+00 -0.45593999997E+02  0.45594000000E+02  0.51100000000E-03 0.  1.
    9900012    2    1    2    0    0  0.43110965973E+02 -0.44316029015E+01  0.23298796208E+01  0.47787276153E+02  0.20000023291E+02 0.  0.
        -12    1    1    2    0    0 -0.43110965973E+02  0.44316029015E+01 -0.23298796208E+01  0.43400723847E+02  0.00000000000E+00 0.  1.
         11    1    3    3    0    0  0.11937949194E+02 -0.44308961751E+01  0.13712920738E+01  0.12807338290E+02  0.51100000000E-03 0. -1.
        -11    1    3    3    0    0  0.97577126493E+01 -0.39833849830E+01 -0.59815656752E+01  0.12118557681E+02  0.51100000000E-03 0.  1.
        -12    1    3    3    0    0  0.21415304130E+02  0.39826782565E+01  0.69401532222E+01  0.22861380182E+02  0.00000000000E+00 0.  1.
</event>
<event>
 7    1  0.2935819E-010  0.4778725E+02  0.7816164E-02  0.1312668E+00
        -11   -1    0    0    0    0  0.00000000000E+00  0.00000000000E+00  0.45593999997E+02  0.45594000000E+02  0.51100000000E-03 0. -1.
         11   -1    0    0    0    0 -0.00000000000E+00 -0.00000000000E+00 -0.45593999997E+02  0.45594000000E+02  0.51100000000E-03 0.  1.
    9900012    2    1    2    0    0  0.32270998726E+02  0.24084856879E+02  0.16190349255E+02  0.47787250022E+02  0.19999904150E+02 0.  0.
        -12    1    1    2    0    0 -0.32270998726E+02 -0.24084856879E+02 -0.16190349255E+02  0.43400749978E+02  0.00000000000E+00 0.  1.
         11    1    3    3    0    0  0.23527370805E+02  0.13731941356E+02  0.17457142420E+02  0.32355141974E+02  0.51100000000E-03 0. -1.
        -11    1    3    3    0    0  0.27320833031E+00  0.56396167016E+01 -0.10059206514E+01  0.57351369601E+01  0.51100000000E-03 0.  1.
         12    1    3    3    0    0  0.84704195908E+01  0.47132988212E+01 -0.26087251354E+00  0.96969710885E+01  0.00000000000E+00 0. -1.
</event>
<event>
 7    1  0.2935819E-010  0.4778727E+02  0.7816164E-02  0.1312668E+00
        -11   -1    0    0    0    0  0.00000000000E+00  0.00000000000E+00  0.45593999997E+02  0.45594000000E+02  0.51100000000E-03 0.  1.
         11   -1    0    0    0    0 -0.00000000000E+00 -0.00000000000E+00 -0.45593999997E+02  0.45594000000E+02  0.51100000000E-03 0. -1.
    9900012    2    1    2    0    0  0.34620315706E+02 -0.24874681936E+01 -0.26055118018E+02  0.47787274977E+02  0.20000017930E+02 0.  0.
        -12    1    1    2    0    0 -0.34620315706E+02  0.24874681936E+01  0.26055118018E+02  0.43400725023E+02  0.00000000000E+00 0.  1.
         11    1    3    3    0    0  0.25028751469E+02  0.74919170065E+00 -0.99046224217E+01  0.26927703836E+02  0.51100000000E-03 0.  1.
        -11    1    3    3    0    0 -0.32360094035E-01 -0.24308069332E+01 -0.75353087282E+01  0.79177488855E+01  0.51100000000E-03 0. -1.
        -12    1    3    3    0    0  0.96239243311E+01 -0.80585296103E+00 -0.86151868678E+01  0.12941822255E+02  0.00000000000E+00 0.  1.
</event>
<event>
 7    1  0.2935819E-010  0.4778727E+02  0.7816164E-02  0.1312668E+00
        -11   -1    0    0    0    0  0.00000000000E+00  0.00000000000E+00  0.45593999997E+02  0.45594000000E+02  0.51100000000E-03 0.  1.
         11   -1    0    0    0    0 -0.00000000000E+00 -0.00000000000E+00 -0.45593999997E+02  0.45594000000E+02  0.51100000000E-03 0. -1.
    9900012    2    1    2    0    0  0.41178434277E+02  0.73972283366E+01  0.11543007333E+02  0.47787268959E+02  0.19999990494E+02 0.  0.
        -12    1    1    2    0    0 -0.41178434277E+02 -0.73972283366E+01 -0.11543007333E+02  0.43400731041E+02  0.00000000000E+00 0.  1.
         11    1    3    3    0    0  0.49714202637E+01  0.29263552688E+01 -0.16413749761E+00  0.57710931353E+01  0.51100000000E-03 0. -1.
        -11    1    3    3    0    0  0.17630686007E+02  0.76893654788E+01 -0.10326742632E+01  0.19262238887E+02  0.51100000000E-03 0.  1.
        -12    1    3    3    0    0  0.18576328006E+02 -0.32184924110E+01  0.12739819093E+02  0.22753936937E+02  0.00000000000E+00 0.  1.
</event>
<event>
 7    1  0.2935819E-010  0.4778727E+02  0.7816164E-02  0.1312668E+00
        -11   -1    0    0    0    0  0.00000000000E+00  0.00000000000E+00  0.45593999997E+02  0.45594000000E+02  0.51100000000E-03 0.  1.
         11   -1    0    0    0    0 -0.00000000000E+00 -0.00000000000E+00 -0.45593999997E+02  0.45594000000E+02  0.51100000000E-03 0. -1.
    9900012    2    1    2    0    0  0.17185529512E+02 -0.13508745480E+02 -0.37493928131E+02  0.47787271023E+02  0.19999999901E+02 0.  0.
        -12    1    1    2    0    0 -0.17185529512E+02  0.13508745480E+02  0.37493928131E+02  0.43400728977E+02  0.00000000000E+00 0.  1.
         11    1    3    3    0    0 -0.32761368638E+00 -0.63812075368E+01 -0.20365809220E+01  0.67063255563E+01  0.51100000000E-03 0. -1.
        -11    1    3    3    0    0  0.17153129552E+02 -0.83043365456E+01 -0.34822217938E+02  0.39696079419E+02  0.51100000000E-03 0.  1.
        -12    1    3    3    0    0  0.36001364694E+00  0.11767986027E+01 -0.63512927175E+00  0.13848660474E+01  0.00000000000E+00 0.  1.
</event>
<event>
 7    1  0.2935819E-010  0.4778727E+02  0.7816164E-02  0.1312668E+00
        -11   -1    0    0    0    0  0.00000000000E+00  0.00000000000E+00  0.45593999997E+02  0.45594000000E+02  0.51100000000E-03 0.  1.
         11   -1    0    0    0    0 -0.00000000000E+00 -0.00000000000E+00 -0.45593999997E+02  0.45594000000E+02  0.51100000000E-03 0. -1.
    9900012    2    1    2    0    0  0.42412381329E+02  0.10964128848E+01  0.91439108800E+01  0.47787270544E+02  0.19999997716E+02 0.  0.
        -12    1    1    2    0    0 -0.42412381329E+02 -0.10964128848E+01 -0.91439108800E+01  0.43400729456E+02  0.00000000000E+00 0.  1.
         11    1    3    3    0    0  0.19098476271E+02  0.64561534883E+01  0.97320312889E+01  0.22386293731E+02  0.51100000000E-03 0. -1.
        -11    1    3    3    0    0  0.44469460529E+01 -0.45367547439E+01  0.10746859687E+01  0.64430135027E+01  0.51100000000E-03 0.  1.
         12    1    3    3    0    0  0.18866959005E+02 -0.82298585960E+00 -0.16628063776E+01  0.18957963310E+02  0.00000000000E+00 0. -1.
</event>
<event>
 7    1  0.2935819E-010  0.4778727E+02  0.7816164E-02  0.1312668E+00
        -11   -1    0    0    0    0  0.00000000000E+00  0.00000000000E+00  0.45593999997E+02  0.45594000000E+02  0.51100000000E-03 0.  1.
         11   -1    0    0    0    0 -0.00000000000E+00 -0.00000000000E+00 -0.45593999997E+02  0.45594000000E+02  0.51100000000E-03 0. -1.
    9900012    2    1    2    0    0 -0.32718990948E+02  0.20968756061E+02 -0.19323616819E+02  0.47787271130E+02  0.20000000392E+02 0.  0.
        -12    1    1    2    0    0  0.32718990948E+02 -0.20968756061E+02  0.19323616819E+02  0.43400728870E+02  0.00000000000E+00 0.  1.
         11    1    3    3    0    0 -0.28296567541E+02  0.13068527701E+02 -0.13963198857E+02  0.34153375726E+02  0.51100000000E-03 0. -1.
        -11    1    3    3    0    0  0.80426338264E+00  0.38647201075E+01 -0.58000848765E+01  0.70159736269E+01  0.51100000000E-03 0.  1.
         12    1    3    3    0    0 -0.52266867900E+01  0.40355082532E+01  0.43966691496E+00  0.66179217779E+01  0.00000000000E+00 0. -1.
</event>
<event>
 7    1  0.2935819E-010  0.4778727E+02  0.7816164E-02  0.1312668E+00
        -11   -1    0    0    0    0  0.00000000000E+00  0.00000000000E+00  0.45593999997E+02  0.45594000000E+02  0.51100000000E-03 0. -1.
         11   -1    0    0    0    0 -0.00000000000E+00 -0.00000000000E+00 -0.45593999997E+02  0.45594000000E+02  0.51100000000E-03 0.  1.
    9900012    2    1    2    0    0 -0.30263465668E+02 -0.22651857628E+02  0.21322269011E+02  0.47787272310E+02  0.20000005771E+02 0.  0.
        -12    1    1    2    0    0  0.30263465668E+02  0.22651857628E+02 -0.21322269011E+02  0.43400727690E+02  0.00000000000E+00 0.  1.
         11    1    3    3    0    0 -0.13681191881E+02 -0.21919308803E+02  0.14966386930E+02  0.29860071126E+02  0.51100000000E-03 0. -1.
        -11    1    3    3    0    0 -0.83834767655E+01 -0.14690620347E+01  0.27970580177E+01  0.89590378811E+01  0.51100000000E-03 0.  1.
         12    1    3    3    0    0 -0.81987970216E+01  0.73651320965E+00  0.35588240637E+01  0.89681633028E+01  0.00000000000E+00 0. -1.
</event>
<event>
 7    1  0.2935819E-010  0.4778727E+02  0.7816164E-02  0.1312668E+00
        -11   -1    0    0    0    0  0.00000000000E+00  0.00000000000E+00  0.45593999997E+02  0.45594000000E+02  0.51100000000E-03 0. -1.
         11   -1    0    0    0    0 -0.00000000000E+00 -0.00000000000E+00 -0.45593999997E+02  0.45594000000E+02  0.51100000000E-03 0.  1.
    9900012    2    1    2    0    0  0.25014314194E+02  0.24855220852E+02  0.25300699760E+02  0.47787270438E+02  0.19999997235E+02 0.  0.
        -12    1    1    2    0    0 -0.25014314194E+02 -0.24855220852E+02 -0.25300699760E+02  0.43400729562E+02  0.00000000000E+00 0.  1.
         11    1    3    3    0    0  0.90094626594E+01  0.11350684252E+02  0.14346277386E+02  0.20391766120E+02  0.51100000000E-03 0. -1.
        -11    1    3    3    0    0  0.83787057227E+01  0.42598254940E+01  0.12139191999E+02  0.15352810996E+02  0.51100000000E-03 0.  1.
        -12    1    3    3    0    0  0.76261458123E+01  0.92447111057E+01 -0.11847696255E+01  0.12042693322E+02  0.00000000000E+00 0.  1.
</event>
<event>
 7    1  0.2935819E-010  0.4778727E+02  0.7816164E-02  0.1312668E+00
        -11   -1    0    0    0    0  0.00000000000E+00  0.00000000000E+00  0.45593999997E+02  0.45594000000E+02  0.51100000000E-03 0.  1.
         11   -1    0    0    0    0 -0.00000000000E+00 -0.00000000000E+00 -0.45593999997E+02  0.45594000000E+02  0.51100000000E-03 0. -1.
    9900012    2    1    2    0    0  0.90228084443E+00  0.43306056001E+02  0.27192625070E+01  0.47787274365E+02  0.20000015141E+02 0.  0.
        -12    1    1    2    0    0 -0.90228084443E+00 -0.43306056001E+02 -0.27192625070E+01  0.43400725635E+02  0.00000000000E+00 0.  1.
         11    1    3    3    0    0  0.28769107855E+00  0.35467595199E+02  0.10221074999E+02  0.36912104380E+02  0.51100000000E-03 0. -1.
        -11    1    3    3    0    0  0.53024479902E+00  0.75162470328E+01 -0.70972338612E+01  0.10351128332E+02  0.51100000000E-03 0.  1.
         12    1    3    3    0    0  0.84344966863E-01  0.32221376908E+00 -0.40457863056E+00  0.52404165362E+00  0.00000000000E+00 0. -1.
</event>
<event>
 7    1  0.5402013E-010  0.4778726E+02  0.7816164E-02  0.1312668E+00
        -11   -1    0    0    0    0  0.00000000000E+00  0.00000000000E+00  0.45593999997E+02  0.45594000000E+02  0.51100000000E-03 0.  1.
         11   -1    0    0    0    0 -0.00000000000E+00 -0.00000000000E+00 -0.45593999997E+02  0.45594000000E+02  0.51100000000E-03 0. -1.
    9900012    2    1    2    0    0  0.38533342741E+02  0.11682810109E+02 -0.16196215695E+02  0.47787263167E+02  0.19999964082E+02 0.  0.
        -12    1    1    2    0    0 -0.38533342741E+02 -0.11682810109E+02  0.16196215695E+02  0.43400736833E+02  0.00000000000E+00 0.  1.
         11    1    3    3    0    0  0.16926307196E+02  0.12639060167E+02 -0.11073487061E+02  0.23850950361E+02  0.51100000000E-03 0.  1.
        -11    1    3    3    0    0  0.32073045813E+01 -0.24682513516E+01 -0.35919488761E+01  0.54112072961E+01  0.51100000000E-03 0. -1.
         12    1    3    3    0    0  0.18399730964E+02  0.15120012941E+01 -0.15307797575E+01  0.18525105509E+02  0.00000000000E+00 0. -1.
</event>
<event>
 7    1  0.2935819E-010  0.4778727E+02  0.7816164E-02  0.1312668E+00
        -11   -1    0    0    0    0  0.00000000000E+00  0.00000000000E+00  0.45593999997E+02  0.45594000000E+02  0.51100000000E-03 0.  1.
         11   -1    0    0    0    0 -0.00000000000E+00 -0.00000000000E+00 -0.45593999997E+02  0.45594000000E+02  0.51100000000E-03 0. -1.
    9900012    2    1    2    0    0  0.25493667262E+02  0.24225095565E+02 -0.25433070676E+02  0.47787269480E+02  0.19999992869E+02 0.  0.
        -12    1    1    2    0    0 -0.25493667262E+02 -0.24225095565E+02  0.25433070676E+02  0.43400730520E+02  0.00000000000E+00 0.  1.
         11    1    3    3    0    0  0.13091811302E+02  0.22349176534E+02 -0.15862833556E+02  0.30372861301E+02  0.51100000000E-03 0. -1.
        -11    1    3    3    0    0  0.22313353262E+01 -0.19392275855E+01 -0.28789635888E-01  0.29563981583E+01  0.51100000000E-03 0.  1.
         12    1    3    3    0    0  0.10170520634E+02  0.38151466163E+01 -0.95414474845E+01  0.14458010021E+02  0.00000000000E+00 0. -1.
</event>
<event>
 7    1  0.2935819E-010  0.4778728E+02  0.7816164E-02  0.1312668E+00
        -11   -1    0    0    0    0  0.00000000000E+00  0.00000000000E+00  0.45593999997E+02  0.45594000000E+02  0.51100000000E-03 0. -1.
         11   -1    0    0    0    0 -0.00000000000E+00 -0.00000000000E+00 -0.45593999997E+02  0.45594000000E+02  0.51100000000E-03 0.  1.
    9900012    2    1    2    0    0 -0.16360002806E+02 -0.10625086395E+02  0.38769582921E+02  0.47787277511E+02  0.20000029482E+02 0.  0.
        -12    1    1    2    0    0  0.16360002806E+02  0.10625086395E+02 -0.38769582921E+02  0.43400722489E+02  0.00000000000E+00 0.  1.
         11    1    3    3    0    0 -0.69731804084E+01 -0.21195090079E+01  0.22587284472E+02  0.23734004793E+02  0.51100000000E-03 0. -1.
        -11    1    3    3    0    0 -0.80960370182E+01 -0.63179673256E+01  0.31007431497E+01  0.10727401124E+02  0.51100000000E-03 0.  1.
        -12    1    3    3    0    0 -0.12907853793E+01 -0.21876100616E+01  0.13081555299E+02  0.13325871594E+02  0.00000000000E+00 0.  1.
</event>
<event>
 7    1  0.2935819E-010  0.4778727E+02  0.7816164E-02  0.1312668E+00
        -11   -1    0    0    0    0  0.00000000000E+00  0.00000000000E+00  0.45593999997E+02  0.45594000000E+02  0.51100000000E-03 0.  1.
         11   -1    0    0    0    0 -0.00000000000E+00 -0.00000000000E+00 -0.45593999997E+02  0.45594000000E+02  0.51100000000E-03 0. -1.
    9900012    2    1    2    0    0  0.25853791460E+02 -0.10668901970E+02 -0.33187032437E+02  0.47787272770E+02  0.20000007869E+02 0.  0.
        -12    1    1    2    0    0 -0.25853791460E+02  0.10668901970E+02  0.33187032437E+02  0.43400727230E+02  0.00000000000E+00 0.  1.
         11    1    3    3    0    0  0.12247641581E+02 -0.61816349793E+01 -0.20557476773E+02  0.24714918305E+02  0.51100000000E-03 0. -1.
        -11    1    3    3    0    0  0.12878088954E+02 -0.29301549274E+01 -0.33371706721E+01  0.13622323273E+02  0.51100000000E-03 0.  1.
         12    1    3    3    0    0  0.72806092541E+00 -0.15571120632E+01 -0.92923849915E+01  0.94500311914E+01  0.00000000000E+00 0. -1.
</event>
<event>
 7    1  0.2935819E-010  0.4778727E+02  0.7816164E-02  0.1312668E+00
        -11   -1    0    0    0    0  0.00000000000E+00  0.00000000000E+00  0.45593999997E+02  0.45594000000E+02  0.51100000000E-03 0.  1.
         11   -1    0    0    0    0 -0.00000000000E+00 -0.00000000000E+00 -0.45593999997E+02  0.45594000000E+02  0.51100000000E-03 0. -1.
    9900012    2    1    2    0    0 -0.14278106611E+02 -0.29418065080E+02 -0.28536577487E+02  0.47787272631E+02  0.20000007235E+02 0.  0.
        -12    1    1    2    0    0  0.14278106611E+02  0.29418065080E+02  0.28536577487E+02  0.43400727369E+02  0.00000000000E+00 0.  1.
         11    1    3    3    0    0 -0.18232428235E+01 -0.61275263646E+01 -0.58112030478E+01  0.86394950585E+01  0.51100000000E-03 0. -1.
        -11    1    3    3    0    0 -0.14324141742E+02 -0.10801053117E+02 -0.18649929624E+02  0.25877860428E+02  0.51100000000E-03 0.  1.
        -12    1    3    3    0    0  0.18692779547E+01 -0.12489485599E+02 -0.40754448157E+01  0.13269917145E+02  0.00000000000E+00 0.  1.
</event>
<event>
 7    1  0.2935819E-010  0.4778727E+02  0.7816164E-02  0.1312668E+00
        -11   -1    0    0    0    0  0.00000000000E+00  0.00000000000E+00  0.45593999997E+02  0.45594000000E+02  0.51100000000E-03 0. -1.
         11   -1    0    0    0    0 -0.00000000000E+00 -0.00000000000E+00 -0.45593999997E+02  0.45594000000E+02  0.51100000000E-03 0.  1.
    9900012    2    1    2    0    0  0.34136544429E+02  0.19919351125E+02  0.17931512249E+02  0.47787270209E+02  0.19999996193E+02 0.  0.
        -12    1    1    2    0    0 -0.34136544429E+02 -0.19919351125E+02 -0.17931512249E+02  0.43400729791E+02  0.00000000000E+00 0.  1.
         11    1    3    3    0    0  0.21257557561E+02  0.73925236530E+01  0.15163788579E+02  0.27138047899E+02  0.51100000000E-03 0. -1.
        -11    1    3    3    0    0  0.42210645903E+01  0.22628580861E+01 -0.33990724353E+01  0.58729555315E+01  0.51100000000E-03 0.  1.
         12    1    3    3    0    0  0.86579222775E+01  0.10263969386E+02  0.61667961053E+01  0.14776266779E+02  0.00000000000E+00 0. -1.
</event>
<event>
 7    1  0.2935819E-010  0.4778727E+02  0.7816164E-02  0.1312668E+00
        -11   -1    0    0    0    0  0.00000000000E+00  0.00000000000E+00  0.45593999997E+02  0.45594000000E+02  0.51100000000E-03 0.  1.
         11   -1    0    0    0    0 -0.00000000000E+00 -0.00000000000E+00 -0.45593999997E+02  0.45594000000E+02  0.51100000000E-03 0. -1.
    9900012    2    1    2    0    0 -0.24021816424E+02 -0.88767346724E+01 -0.35039679688E+02  0.47787271488E+02  0.20000002022E+02 0.  0.
        -12    1    1    2    0    0  0.24021816424E+02  0.88767346724E+01  0.35039679688E+02  0.43400728512E+02  0.00000000000E+00 0.  1.
         11    1    3    3    0    0 -0.25854585402E+02 -0.90728874964E+01 -0.30470601455E+02  0.40978462967E+02  0.51100000000E-03 0. -1.
        -11    1    3    3    0    0  0.21067735354E+01 -0.97740242002E+00 -0.26303252434E+00  0.23373054123E+01  0.51100000000E-03 0.  1.
        -12    1    3    3    0    0 -0.27400455743E+00  0.11735552440E+01 -0.43060457085E+01  0.44715031088E+01  0.00000000000E+00 0.  1.
</event>
<event>
 7    1  0.2935819E-010  0.4778727E+02  0.7816164E-02  0.1312668E+00
        -11   -1    0    0    0    0  0.00000000000E+00  0.00000000000E+00  0.45593999997E+02  0.45594000000E+02  0.51100000000E-03 0.  1.
         11   -1    0    0    0    0 -0.00000000000E+00 -0.00000000000E+00 -0.45593999997E+02  0.45594000000E+02  0.51100000000E-03 0. -1.
    9900012    2    1    2    0    0 -0.18701476394E+02 -0.24579460345E+01 -0.39087554178E+02  0.47787267176E+02  0.19999982364E+02 0.  0.
        -12    1    1    2    0    0  0.18701476394E+02  0.24579460345E+01  0.39087554178E+02  0.43400732824E+02  0.00000000000E+00 0.  1.
         11    1    3    3    0    0 -0.13936148367E+02  0.14036771513E+01 -0.31909473952E+02  0.34848257761E+02  0.51100000000E-03 0. -1.
        -11    1    3    3    0    0  0.25877402782E+01 -0.17115415918E+01 -0.21783365395E+01  0.37909002504E+01  0.51100000000E-03 0.  1.
        -12    1    3    3    0    0 -0.73530683054E+01 -0.21500815940E+01 -0.49997436867E+01  0.91481091651E+01  0.00000000000E+00 0.  1.
</event>
<event>
 7    1  0.2935819E-010  0.4778727E+02  0.7816164E-02  0.1312668E+00
        -11   -1    0    0    0    0  0.00000000000E+00  0.00000000000E+00  0.45593999997E+02  0.45594000000E+02  0.51100000000E-03 0.  1.
         11   -1    0    0    0    0 -0.00000000000E+00 -0.00000000000E+00 -0.45593999997E+02  0.45594000000E+02  0.51100000000E-03 0. -1.
    9900012    2    1    2    0    0  0.38811434259E+02 -0.36997544493E+01 -0.19068494482E+02  0.47787273116E+02  0.20000009445E+02 0.  0.
        -12    1    1    2    0    0 -0.38811434259E+02  0.36997544493E+01  0.19068494482E+02  0.43400726884E+02  0.00000000000E+00 0.  1.
         11    1    3    3    0    0  0.32606989226E+02 -0.12702936554E+01 -0.13559461427E+02  0.35336785180E+02  0.51100000000E-03 0. -1.
        -11    1    3    3    0    0 -0.15920180588E+01 -0.12632206241E+00  0.11284441785E+01  0.19554706053E+01  0.51100000000E-03 0.  1.
        -12    1    3    3    0    0  0.77964630920E+01 -0.23031387316E+01 -0.66374772330E+01  0.10495017331E+02  0.00000000000E+00 0.  1.
</event>
<event>
 7    1  0.2935819E-010  0.4778726E+02  0.7816164E-02  0.1312668E+00
        -11   -1    0    0    0    0  0.00000000000E+00  0.00000000000E+00  0.45593999997E+02  0.45594000000E+02  0.51100000000E-03 0.  1.
         11   -1    0    0    0    0 -0.00000000000E+00 -0.00000000000E+00 -0.45593999997E+02  0.45594000000E+02  0.51100000000E-03 0. -1.
    9900012    2    1    2    0    0  0.44068917808E+01 -0.43169128676E+02 -0.79345437961E+00  0.47787263420E+02  0.19999965238E+02 0.  0.
        -12    1    1    2    0    0 -0.44068917808E+01  0.43169128676E+02  0.79345437961E+00  0.43400736580E+02  0.00000000000E+00 0.  1.
         11    1    3    3    0    0 -0.58499351360E+01 -0.23580959304E+02  0.19027276881E+00  0.24296493302E+02  0.51100000000E-03 0. -1.
        -11    1    3    3    0    0  0.40560473642E+01 -0.15169276527E+01  0.31020157531E+00  0.43415221988E+01  0.51100000000E-03 0.  1.
         12    1    3    3    0    0  0.62007795526E+01 -0.18071241719E+02 -0.12939287237E+01  0.19149247919E+02  0.00000000000E+00 0. -1.
</event>
<event>
 7    1  0.2935819E-010  0.4778724E+02  0.7816164E-02  0.1312668E+00
        -11   -1    0    0    0    0  0.00000000000E+00  0.00000000000E+00  0.45593999997E+02  0.45594000000E+02  0.51100000000E-03 0. -1.
         11   -1    0    0    0    0 -0.00000000000E+00 -0.00000000000E+00 -0.45593999997E+02  0.45594000000E+02  0.51100000000E-03 0.  1.
    9900012    2    1    2    0    0  0.30066794663E+02 -0.11818706328E+02  0.28981575300E+02  0.47787243469E+02  0.19999874272E+02 0.  0.
        -12    1    1    2    0    0 -0.30066794663E+02  0.11818706328E+02 -0.28981575300E+02  0.43400756531E+02  0.00000000000E+00 0.  1.
         11    1    3    3    0    0  0.17491162638E+02 -0.10234723214E+02  0.25693369766E+02  0.32723685305E+02  0.51100000000E-03 0. -1.
        -11    1    3    3    0    0  0.64142047974E+01 -0.40776696571E+01 -0.10344492865E+00  0.76013231828E+01  0.51100000000E-03 0.  1.
        -12    1    3    3    0    0  0.61614272278E+01  0.24936865430E+01  0.33916504623E+01  0.74622349813E+01  0.00000000000E+00 0.  1.
</event>
<event>
 7    1  0.2935819E-010  0.4778729E+02  0.7816164E-02  0.1312668E+00
        -11   -1    0    0    0    0  0.00000000000E+00  0.00000000000E+00  0.45593999997E+02  0.45594000000E+02  0.51100000000E-03 0.  1.
         11   -1    0    0    0    0 -0.00000000000E+00 -0.00000000000E+00 -0.45593999997E+02  0.45594000000E+02  0.51100000000E-03 0. -1.
    9900012    2    1    2    0    0  0.34364701553E+02  0.56318135609E+00 -0.26502302559E+02  0.47787286561E+02  0.20000070748E+02 0.  0.
        -12    1    1    2    0    0 -0.34364701553E+02 -0.56318135609E+00  0.26502302559E+02  0.43400713439E+02  0.00000000000E+00 0.  1.
         11    1    3    3    0    0 -0.22636192493E+01 -0.12640715456E+01 -0.19823174288E+01  0.32636531108E+01  0.51100000000E-03 0. -1.
        -11    1    3    3    0    0  0.60696577843E+01 -0.69451951412E-01 -0.15992263413E+01  0.62771884107E+01  0.51100000000E-03 0.  1.
         12    1    3    3    0    0  0.30558663018E+02  0.18967048531E+01 -0.22920758788E+02  0.38246445040E+02  0.00000000000E+00 0. -1.
</event>
<event>
 7    1  0.2935819E-010  0.4778727E+02  0.7816164E-02  0.1312668E+00
        -11   -1    0    0    0    0  0.00000000000E+00  0.00000000000E+00  0.45593999997E+02  0.45594000000E+02  0.51100000000E-03 0. -1.
         11   -1    0    0    0    0 -0.00000000000E+00 -0.00000000000E+00 -0.45593999997E+02  0.45594000000E+02  0.51100000000E-03 0.  1.
    9900012    2    1    2    0    0 -0.42373490619E+02  0.90013371208E+01  0.26620610961E+01  0.47787270208E+02  0.19999996188E+02 0.  0.
        -12    1    1    2    0    0  0.42373490619E+02 -0.90013371208E+01 -0.26620610961E+01  0.43400729792E+02  0.00000000000E+00 0.  1.
         11    1    3    3    0    0 -0.12137249057E+02  0.19553430090E+01  0.22582473911E+01  0.12499434487E+02  0.51100000000E-03 0. -1.
        -11    1    3    3    0    0 -0.26363043534E+02  0.42521719580E+01  0.65587621962E+01  0.27497425198E+02  0.51100000000E-03 0.  1.
        -12    1    3    3    0    0 -0.38731980284E+01  0.27938221538E+01 -0.61549484912E+01  0.77904105235E+01  0.00000000000E+00 0.  1.
</event>
<event>
 7    1  0.2935819E-010  0.4778727E+02  0.7816164E-02  0.1312668E+00
        -11   -1    0    0    0    0  0.00000000000E+00  0.00000000000E+00  0.45593999997E+02  0.45594000000E+02  0.51100000000E-03 0.  1.
         11   -1    0    0    0    0 -0.00000000000E+00 -0.00000000000E+00 -0.45593999997E+02  0.45594000000E+02  0.51100000000E-03 0. -1.
    9900012    2    1    2    0    0  0.16867075366E+02 -0.38798061248E+02 -0.96868673767E+01  0.47787272039E+02  0.20000004533E+02 0.  0.
        -12    1    1    2    0    0 -0.16867075366E+02  0.38798061248E+02  0.96868673767E+01  0.43400727961E+02  0.00000000000E+00 0.  1.
         11    1    3    3    0    0  0.92574832346E+01 -0.24543290338E+02 -0.10205997649E+02  0.28146695805E+02  0.51100000000E-03 0. -1.
        -11    1    3    3    0    0  0.39035600873E+01 -0.79105985417E+01  0.58309093131E+01  0.10574254315E+02  0.51100000000E-03 0.  1.
        -12    1    3    3    0    0  0.37060320437E+01 -0.63441723681E+01 -0.53117790411E+01  0.90663219183E+01  0.00000000000E+00 0.  1.
</event>
<event>
 7    1  0.2935819E-010  0.4778729E+02  0.7816164E-02  0.1312668E+00
        -11   -1    0    0    0    0  0.00000000000E+00  0.00000000000E+00  0.45593999997E+02  0.45594000000E+02  0.51100000000E-03 0.  1.
         11   -1    0    0    0    0 -0.00000000000E+00 -0.00000000000E+00 -0.45593999997E+02  0.45594000000E+02  0.51100000000E-03 0. -1.
    9900012    2    1    2    0    0 -0.65259836715E+01 -0.37397945386E+02 -0.21033950584E+02  0.47787287343E+02  0.20000074312E+02 0.  0.
        -12    1    1    2    0    0  0.65259836715E+01  0.37397945386E+02  0.21033950584E+02  0.43400712657E+02  0.00000000000E+00 0.  1.
         11    1    3    3    0    0  0.17865891201E+01 -0.13781406058E+02 -0.31591709072E+01  0.14251295194E+02  0.51100000000E-03 0. -1.
        -11    1    3    3    0    0 -0.11104405120E+02 -0.14439092055E+02 -0.84204921539E+01  0.20067383507E+02  0.51100000000E-03 0.  1.
        -12    1    3    3    0    0  0.27918323284E+01 -0.91774472728E+01 -0.94542875225E+01  0.13468608642E+02  0.00000000000E+00 0.  1.
</event>
<event>
 7    1  0.2935819E-010  0.4778727E+02  0.7816164E-02  0.1312668E+00
        -11   -1    0    0    0    0  0.00000000000E+00  0.00000000000E+00  0.45593999997E+02  0.45594000000E+02  0.51100000000E-03 0.  1.
         11   -1    0    0    0    0 -0.00000000000E+00 -0.00000000000E+00 -0.45593999997E+02  0.45594000000E+02  0.51100000000E-03 0. -1.
    9900012    2    1    2    0    0 -0.32406295989E+02  0.28684750449E+02 -0.32619327201E+01  0.47787272666E+02  0.20000007393E+02 0.  0.
        -12    1    1    2    0    0  0.32406295989E+02 -0.28684750449E+02  0.32619327201E+01  0.43400727334E+02  0.00000000000E+00 0.  1.
         11    1    3    3    0    0 -0.42553057192E+01  0.14317395649E+01 -0.43808807050E+01  0.62729276226E+01  0.51100000000E-03 0. -1.
        -11    1    3    3    0    0 -0.14922600682E+02  0.21853088048E+02 -0.30327516808E+01  0.26635297096E+02  0.51100000000E-03 0.  1.
        -12    1    3    3    0    0 -0.13228389587E+02  0.53999228356E+01  0.41516996656E+01  0.14879047947E+02  0.00000000000E+00 0.  1.
</event>
<event>
 7    1  0.2935819E-010  0.4778726E+02  0.7816164E-02  0.1312668E+00
        -11   -1    0    0    0    0  0.00000000000E+00  0.00000000000E+00  0.45593999997E+02  0.45594000000E+02  0.51100000000E-03 0. -1.
         11   -1    0    0    0    0 -0.00000000000E+00 -0.00000000000E+00 -0.45593999997E+02  0.45594000000E+02  0.51100000000E-03 0.  1.
    9900012    2    1    2    0    0  0.23364162018E+02  0.30790927710E+02  0.19739791085E+02  0.47787255213E+02  0.19999927816E+02 0.  0.
        -12    1    1    2    0    0 -0.23364162018E+02 -0.30790927710E+02 -0.19739791085E+02  0.43400744787E+02  0.00000000000E+00 0.  1.
         11    1    3    3    0    0  0.13131339739E+02  0.66665596575E+01  0.16337142181E+01  0.14817021408E+02  0.51100000000E-03 0.  1.
        -11    1    3    3    0    0  0.82186970970E+01  0.21125371475E+02  0.11446494172E+02  0.25393907360E+02  0.51100000000E-03 0. -1.
         12    1    3    3    0    0  0.20141251822E+01  0.29989965774E+01  0.66595826946E+01  0.75763264441E+01  0.00000000000E+00 0. -1.
</event>
<event>
 7    1  0.2935819E-010  0.4778727E+02  0.7816164E-02  0.1312668E+00
        -11   -1    0    0    0    0  0.00000000000E+00  0.00000000000E+00  0.45593999997E+02  0.45594000000E+02  0.51100000000E-03 0.  1.
         11   -1    0    0    0    0 -0.00000000000E+00 -0.00000000000E+00 -0.45593999997E+02  0.45594000000E+02  0.51100000000E-03 0. -1.
    9900012    2    1    2    0    0  0.40759727214E+02  0.12346207789E+02 -0.83569757442E+01  0.47787271286E+02  0.20000001099E+02 0.  0.
        -12    1    1    2    0    0 -0.40759727214E+02 -0.12346207789E+02  0.83569757442E+01  0.43400728714E+02  0.00000000000E+00 0.  1.
         11    1    3    3    0    0  0.11235498814E+02  0.18732101245E+01 -0.27379406019E+01  0.11715018940E+02  0.51100000000E-03 0. -1.
        -11    1    3    3    0    0  0.52734240500E+00  0.13128666893E+01  0.39477057435E+01  0.41935772146E+01  0.51100000000E-03 0.  1.
        -12    1    3    3    0    0  0.28996885996E+02  0.91601309748E+01 -0.95667408859E+01  0.31878675131E+02  0.00000000000E+00 0.  1.
</event>
<event>
 7    1  0.2935819E-010  0.4778728E+02  0.7816164E-02  0.1312668E+00
        -11   -1    0    0    0    0  0.00000000000E+00  0.00000000000E+00  0.45593999997E+02  0.45594000000E+02  0.51100000000E-03 0.  1.
         11   -1    0    0    0    0 -0.00000000000E+00 -0.00000000000E+00 -0.45593999997E+02  0.45594000000E+02  0.51100000000E-03 0. -1.
    9900012    2    1    2    0    0 -0.35915642849E+02 -0.45001232477E+01 -0.23946569145E+02  0.47787277836E+02  0.20000030966E+02 0.  0.
        -12    1    1    2    0    0  0.35915642849E+02  0.45001232477E+01  0.23946569145E+02  0.43400722164E+02  0.00000000000E+00 0.  1.
         11    1    3    3    0    0 -0.11021962909E+02 -0.62228815326E+01 -0.15202189681E+02  0.19781670614E+02  0.51100000000E-03 0. -1.
        -11    1    3    3    0    0 -0.14823825484E+02 -0.12681192687E+01 -0.91847674747E+00  0.14906291567E+02  0.51100000000E-03 0.  1.
         12    1    3    3    0    0 -0.10069854456E+02  0.29908775537E+01 -0.78259027173E+01  0.13099315656E+02  0.00000000000E+00 0. -1.
</event>
<event>
 7    1  0.2935819E-010  0.4778727E+02  0.7816164E-02  0.1312668E+00
        -11   -1    0    0    0    0  0.00000000000E+00  0.00000000000E+00  0.45593999997E+02  0.45594000000E+02  0.51100000000E-03 0. -1.
         11   -1    0    0    0    0 -0.00000000000E+00 -0.00000000000E+00 -0.45593999997E+02  0.45594000000E+02  0.51100000000E-03 0.  1.
    9900012    2    1    2    0    0  0.31630871559E+02 -0.19704918046E+02  0.22244715686E+02  0.47787271817E+02  0.20000003524E+02 0.  0.
        -12    1    1    2    0    0 -0.31630871559E+02  0.19704918046E+02 -0.22244715686E+02  0.43400728183E+02  0.00000000000E+00 0.  1.
         11    1    3    3    0    0  0.25736022783E+02 -0.19017353644E+02  0.13381182561E+02  0.34685135942E+02  0.51100000000E-03 0. -1.
        -11    1    3    3    0    0 -0.15640409970E+01  0.89318033096E+00  0.29364037771E+01  0.34447732504E+01  0.51100000000E-03 0.  1.
         12    1    3    3    0    0  0.74588897731E+01 -0.15807447330E+01  0.59271293483E+01  0.96573626249E+01  0.00000000000E+00 0. -1.
</event>
<event>
 7    1  0.2935819E-010  0.4778727E+02  0.7816164E-02  0.1312668E+00
        -11   -1    0    0    0    0  0.00000000000E+00  0.00000000000E+00  0.45593999997E+02  0.45594000000E+02  0.51100000000E-03 0.  1.
         11   -1    0    0    0    0 -0.00000000000E+00 -0.00000000000E+00 -0.45593999997E+02  0.45594000000E+02  0.51100000000E-03 0. -1.
    9900012    2    1    2    0    0 -0.66125581043E+01 -0.14911881056E+02 -0.40218568164E+02  0.47787270208E+02  0.19999996187E+02 0.  0.
        -12    1    1    2    0    0  0.66125581043E+01  0.14911881056E+02  0.40218568164E+02  0.43400729792E+02  0.00000000000E+00 0.  1.
         11    1    3    3    0    0 -0.11462967077E+02 -0.96660919572E+01 -0.21439480628E+02  0.26162650435E+02  0.51100000000E-03 0. -1.
        -11    1    3    3    0    0  0.49611932334E+01 -0.12049460070E+01 -0.45710641717E+01  0.68527338415E+01  0.51100000000E-03 0.  1.
        -12    1    3    3    0    0 -0.11078426025E+00 -0.40408430914E+01 -0.14208023365E+02  0.14771885932E+02  0.00000000000E+00 0.  1.
</event>
<event>
 7    1  0.2935819E-010  0.4778727E+02  0.7816164E-02  0.1312668E+00
        -11   -1    0    0    0    0  0.00000000000E+00  0.00000000000E+00  0.45593999997E+02  0.45594000000E+02  0.51100000000E-03 0.  1.
         11   -1    0    0    0    0 -0.00000000000E+00 -0.00000000000E+00 -0.45593999997E+02  0.45594000000E+02  0.51100000000E-03 0. -1.
    9900012    2    1    2    0    0 -0.86432088724E+00 -0.36282413338E+02 -0.23800479447E+02  0.47787269706E+02  0.19999993896E+02 0.  0.
        -12    1    1    2    0    0  0.86432088724E+00  0.36282413338E+02  0.23800479447E+02  0.43400730294E+02  0.00000000000E+00 0.  1.
         11    1    3    3    0    0  0.44912986561E+01 -0.12835475504E+02 -0.10940968954E+02  0.17453538236E+02  0.51100000000E-03 0. -1.
        -11    1    3    3    0    0 -0.83971990440E+01 -0.76044355946E+01 -0.57560333141E+01  0.12707175621E+02  0.51100000000E-03 0.  1.
        -12    1    3    3    0    0  0.30415795007E+01 -0.15842502239E+02 -0.71034771782E+01  0.17626555849E+02  0.00000000000E+00 0.  1.
</event>
<event>
 7    1  0.2935819E-010  0.4778727E+02  0.7816164E-02  0.1312668E+00
        -11   -1    0    0    0    0  0.00000000000E+00  0.00000000000E+00  0.45593999997E+02  0.45594000000E+02  0.51100000000E-03 0.  1.
         11   -1    0    0    0    0 -0.00000000000E+00 -0.00000000000E+00 -0.45593999997E+02  0.45594000000E+02  0.51100000000E-03 0. -1.
    9900012    2    1    2    0    0 -0.50879431912E+01 -0.13421352589E+02 -0.40958554435E+02  0.47787273593E+02  0.20000011622E+02 0.  0.
        -12    1    1    2    0    0  0.50879431912E+01  0.13421352589E+02  0.40958554435E+02  0.43400726407E+02  0.00000000000E+00 0.  1.
         11    1    3    3    0    0 -0.22198468117E+01 -0.76857247235E+01 -0.12136153807E+02  0.14535622239E+02  0.51100000000E-03 0. -1.
        -11    1    3    3    0    0 -0.87649391308E+01 -0.38991732906E+01 -0.12206525448E+02  0.15525043449E+02  0.51100000000E-03 0.  1.
        -12    1    3    3    0    0  0.58968427513E+01 -0.18364545747E+01 -0.16615875180E+02  0.17726607906E+02  0.00000000000E+00 0.  1.
</event>
<event>
 7    1  0.2935819E-010  0.4778727E+02  0.7816164E-02  0.1312668E+00
        -11   -1    0    0    0    0  0.00000000000E+00  0.00000000000E+00  0.45593999997E+02  0.45594000000E+02  0.51100000000E-03 0.  1.
         11   -1    0    0    0    0 -0.00000000000E+00 -0.00000000000E+00 -0.45593999997E+02  0.45594000000E+02  0.51100000000E-03 0. -1.
    9900012    2    1    2    0    0  0.95945608862E+01 -0.19231458338E-02 -0.42326916572E+02  0.47787268799E+02  0.19999989764E+02 0.  0.
        -12    1    1    2    0    0 -0.95945608862E+01  0.19231458338E-02  0.42326916572E+02  0.43400731201E+02  0.00000000000E+00 0.  1.
         11    1    3    3    0    0 -0.34396582250E+01  0.16943521195E+01 -0.61744365304E+00  0.38837243383E+01  0.51100000000E-03 0. -1.
        -11    1    3    3    0    0  0.21020776083E+01  0.89222714558E+00 -0.46808228945E+01  0.52081573307E+01  0.51100000000E-03 0.  1.
         12    1    3    3    0    0  0.10932141503E+02 -0.25885024109E+01 -0.37028650024E+02  0.38695387130E+02  0.00000000000E+00 0. -1.
</event>
<event>
 7    1  0.2935819E-010  0.4778727E+02  0.7816164E-02  0.1312668E+00
        -11   -1    0    0    0    0  0.00000000000E+00  0.00000000000E+00  0.45593999997E+02  0.45594000000E+02  0.51100000000E-03 0. -1.
         11   -1    0    0    0    0 -0.00000000000E+00 -0.00000000000E+00 -0.45593999997E+02  0.45594000000E+02  0.51100000000E-03 0.  1.
    9900012    2    1    2    0    0 -0.23143584454E+02 -0.19229072640E+01  0.36664699047E+02  0.47787271550E+02  0.20000002307E+02 0.  0.
        -12    1    1    2    0    0  0.23143584454E+02  0.19229072640E+01 -0.36664699047E+02  0.43400728450E+02  0.00000000000E+00 0.  1.
         11    1    3    3    0    0 -0.14951146939E+02 -0.68987924065E-01  0.12992527515E+02  0.19807759228E+02  0.51100000000E-03 0.  1.
        -11    1    3    3    0    0 -0.62025466752E+01 -0.62264845268E+01  0.20268452307E+02  0.22091873031E+02  0.51100000000E-03 0. -1.
        -12    1    3    3    0    0 -0.19898908393E+01  0.43725651869E+01  0.34037192244E+01  0.58876392913E+01  0.00000000000E+00 0.  1.
</event>
<event>
 7    1  0.2935819E-010  0.4778727E+02  0.7816164E-02  0.1312668E+00
        -11   -1    0    0    0    0  0.00000000000E+00  0.00000000000E+00  0.45593999997E+02  0.45594000000E+02  0.51100000000E-03 0.  1.
         11   -1    0    0    0    0 -0.00000000000E+00 -0.00000000000E+00 -0.45593999997E+02  0.45594000000E+02  0.51100000000E-03 0. -1.
    9900012    2    1    2    0    0  0.25186891817E+02  0.39166843439E+01 -0.35126960251E+02  0.47787271065E+02  0.20000000093E+02 0.  0.
        -12    1    1    2    0    0 -0.25186891817E+02 -0.39166843439E+01  0.35126960251E+02  0.43400728935E+02  0.00000000000E+00 0.  1.
         11    1    3    3    0    0  0.20581662822E+02  0.20621398804E+01 -0.29168300914E+02  0.35758174504E+02  0.51100000000E-03 0. -1.
        -11    1    3    3    0    0  0.11827394502E+01  0.40133822788E+01 -0.67156670327E+01  0.79124139096E+01  0.51100000000E-03 0.  1.
         12    1    3    3    0    0  0.34224895452E+01 -0.21588378153E+01  0.75700769576E+00  0.41166826513E+01  0.00000000000E+00 0. -1.
</event>
<event>
 7    1  0.2935819E-010  0.4778727E+02  0.7816164E-02  0.1312668E+00
        -11   -1    0    0    0    0  0.00000000000E+00  0.00000000000E+00  0.45593999997E+02  0.45594000000E+02  0.51100000000E-03 0.  1.
         11   -1    0    0    0    0 -0.00000000000E+00 -0.00000000000E+00 -0.45593999997E+02  0.45594000000E+02  0.51100000000E-03 0. -1.
    9900012    2    1    2    0    0 -0.18935314395E+02 -0.26899520073E+02 -0.28310654935E+02  0.47787268506E+02  0.19999988425E+02 0.  0.
        -12    1    1    2    0    0  0.18935314395E+02  0.26899520073E+02  0.28310654935E+02  0.43400731494E+02  0.00000000000E+00 0.  1.
         11    1    3    3    0    0 -0.20988431456E+02 -0.20678833879E+02 -0.22047810968E+02  0.36799923836E+02  0.51100000000E-03 0. -1.
        -11    1    3    3    0    0  0.32703447380E+01 -0.23765344277E+01 -0.55910751902E+01  0.68995066951E+01  0.51100000000E-03 0.  1.
         12    1    3    3    0    0 -0.12172276765E+01 -0.38441517658E+01 -0.67176877695E+00  0.40878379744E+01  0.00000000000E+00 0. -1.
</event>
<event>
 7    1  0.2935819E-010  0.4778727E+02  0.7816164E-02  0.1312668E+00
        -11   -1    0    0    0    0  0.00000000000E+00  0.00000000000E+00  0.45593999997E+02  0.45594000000E+02  0.51100000000E-03 0.  1.
         11   -1    0    0    0    0 -0.00000000000E+00 -0.00000000000E+00 -0.45593999997E+02  0.45594000000E+02  0.51100000000E-03 0. -1.
    9900012    2    1    2    0    0 -0.35807229205E+02 -0.16705296528E+02 -0.17955459996E+02  0.47787272597E+02  0.20000007081E+02 0.  0.
        -12    1    1    2    0    0  0.35807229205E+02  0.16705296528E+02  0.17955459996E+02  0.43400727403E+02  0.00000000000E+00 0.  1.
         11    1    3    3    0    0 -0.99901940143E+01  0.31466543002E+00 -0.24855673794E+01  0.10299564857E+02  0.51100000000E-03 0. -1.
        -11    1    3    3    0    0 -0.82653928327E+01 -0.13779372942E+02 -0.95051297460E+01  0.18669100919E+02  0.51100000000E-03 0.  1.
        -12    1    3    3    0    0 -0.17551642358E+02 -0.32405890157E+01 -0.59647628702E+01  0.18818606822E+02  0.00000000000E+00 0.  1.
</event>
<event>
 7    1  0.2935819E-010  0.4778726E+02  0.7816164E-02  0.1312668E+00
        -11   -1    0    0    0    0  0.00000000000E+00  0.00000000000E+00  0.45593999997E+02  0.45594000000E+02  0.51100000000E-03 0.  1.
         11   -1    0    0    0    0 -0.00000000000E+00 -0.00000000000E+00 -0.45593999997E+02  0.45594000000E+02  0.51100000000E-03 0. -1.
    9900012    2    1    2    0    0  0.16662356843E+02  0.23592252607E+02 -0.32394373805E+02  0.47787262992E+02  0.19999963284E+02 0.  0.
        -12    1    1    2    0    0 -0.16662356843E+02 -0.23592252607E+02  0.32394373805E+02  0.43400737008E+02  0.00000000000E+00 0.  1.
         11    1    3    3    0    0  0.14779868345E+02  0.89537122671E+01 -0.11846392936E+02  0.20951145494E+02  0.51100000000E-03 0. -1.
        -11    1    3    3    0    0 -0.18516918789E+01  0.11037122714E+02 -0.96943012586E+01  0.14806293181E+02  0.51100000000E-03 0.  1.
         12    1    3    3    0    0  0.37341803773E+01  0.36014176262E+01 -0.10853679611E+02  0.12029824317E+02  0.00000000000E+00 0. -1.
</event>
<event>
 7    1  0.2935819E-010  0.4778728E+02  0.7816164E-02  0.1312668E+00
        -11   -1    0    0    0    0  0.00000000000E+00  0.00000000000E+00  0.45593999997E+02  0.45594000000E+02  0.51100000000E-03 0. -1.
         11   -1    0    0    0    0 -0.00000000000E+00 -0.00000000000E+00 -0.45593999997E+02  0.45594000000E+02  0.51100000000E-03 0.  1.
    9900012    2    1    2    0    0 -0.15649921240E+02  0.13841073095E+02  0.38041126275E+02  0.47787278491E+02  0.20000033950E+02 0.  0.
        -12    1    1    2    0    0  0.15649921240E+02 -0.13841073095E+02 -0.38041126275E+02  0.43400721509E+02  0.00000000000E+00 0.  1.
         11    1    3    3    0    0  0.40811002036E+00  0.36922494584E+01  0.19673833944E+02  0.20021463537E+02  0.51100000000E-03 0. -1.
        -11    1    3    3    0    0 -0.29036275703E+01  0.59363822730E+01  0.86141450201E+01  0.10857033768E+02  0.51100000000E-03 0.  1.
         12    1    3    3    0    0 -0.13154403690E+02  0.42124413635E+01  0.97531473110E+01  0.16908781185E+02  0.00000000000E+00 0. -1.
</event>
<event>
 7    1  0.2935819E-010  0.4778726E+02  0.7816164E-02  0.1312668E+00
        -11   -1    0    0    0    0  0.00000000000E+00  0.00000000000E+00  0.45593999997E+02  0.45594000000E+02  0.51100000000E-03 0. -1.
         11   -1    0    0    0    0 -0.00000000000E+00 -0.00000000000E+00 -0.45593999997E+02  0.45594000000E+02  0.51100000000E-03 0.  1.
    9900012    2    1    2    0    0  0.59229558887E+01  0.31151388889E+02  0.29633315782E+02  0.47787264517E+02  0.19999970239E+02 0.  0.
        -12    1    1    2    0    0 -0.59229558887E+01 -0.31151388889E+02 -0.29633315782E+02  0.43400735483E+02  0.00000000000E+00 0.  1.
         11    1    3    3    0    0 -0.39944169045E+01  0.17204386498E+01  0.50658845589E+01  0.66767104311E+01  0.51100000000E-03 0. -1.
        -11    1    3    3    0    0  0.28481083233E+01  0.23014773920E+02  0.15149641663E+02  0.27700237949E+02  0.51100000000E-03 0.  1.
        -12    1    3    3    0    0  0.70692644699E+01  0.64161763193E+01  0.94177895599E+01  0.13410316137E+02  0.00000000000E+00 0.  1.
</event>
<event>
 7    1  0.2935819E-010  0.4778727E+02  0.7816164E-02  0.1312668E+00
        -11   -1    0    0    0    0  0.00000000000E+00  0.00000000000E+00  0.45593999997E+02  0.45594000000E+02  0.51100000000E-03 0.  1.
         11   -1    0    0    0    0 -0.00000000000E+00 -0.00000000000E+00 -0.45593999997E+02  0.45594000000E+02  0.51100000000E-03 0. -1.
    9900012    2    1    2    0    0  0.39457175716E+02  0.17132923250E+02  0.57634759773E+01  0.47787269247E+02  0.19999991806E+02 0.  0.
        -12    1    1    2    0    0 -0.39457175716E+02 -0.17132923250E+02 -0.57634759773E+01  0.43400730753E+02  0.00000000000E+00 0.  1.
         11    1    3    3    0    0  0.41971618722E+01  0.89560172312E+01  0.42459115865E+00  0.98998328440E+01  0.51100000000E-03 0. -1.
        -11    1    3    3    0    0  0.26534479662E+02  0.10313871313E+02  0.49499574233E+01  0.28895616124E+02  0.51100000000E-03 0.  1.
         12    1    3    3    0    0  0.87255341811E+01 -0.21369652949E+01  0.38892739526E+00  0.89918202793E+01  0.00000000000E+00 0. -1.
</event>
<event>
 7    1  0.2935819E-010  0.4778727E+02  0.7816164E-02  0.1312668E+00
        -11   -1    0    0    0    0  0.00000000000E+00  0.00000000000E+00  0.45593999997E+02  0.45594000000E+02  0.51100000000E-03 0.  1.
         11   -1    0    0    0    0 -0.00000000000E+00 -0.00000000000E+00 -0.45593999997E+02  0.45594000000E+02  0.51100000000E-03 0. -1.
    9900012    2    1    2    0    0 -0.34952737756E+02 -0.20185837094E+02 -0.15951848885E+02  0.47787269837E+02  0.19999994496E+02 0.  0.
        -12    1    1    2    0    0  0.34952737756E+02  0.20185837094E+02  0.15951848885E+02  0.43400730163E+02  0.00000000000E+00 0.  1.
         11    1    3    3    0    0 -0.26890234104E+02 -0.83582151961E+01 -0.10481700634E+02  0.30046805153E+02  0.51100000000E-03 0. -1.
        -11    1    3    3    0    0  0.53197153264E+00 -0.69612566814E+01 -0.18634671986E+01  0.72259669635E+01  0.51100000000E-03 0.  1.
        -12    1    3    3    0    0 -0.85944751840E+01 -0.48663652166E+01 -0.36066810518E+01  0.10514497721E+02  0.00000000000E+00 0.  1.
</event>
<event>
 7    1  0.2935819E-010  0.4778727E+02  0.7816164E-02  0.1312668E+00
        -11   -1    0    0    0    0  0.00000000000E+00  0.00000000000E+00  0.45593999997E+02  0.45594000000E+02  0.51100000000E-03 0.  1.
         11   -1    0    0    0    0 -0.00000000000E+00 -0.00000000000E+00 -0.45593999997E+02  0.45594000000E+02  0.51100000000E-03 0. -1.
    9900012    2    1    2    0    0 -0.18777838459E+02 -0.22726831355E+02 -0.31851328481E+02  0.47787271819E+02  0.20000003532E+02 0.  0.
        -12    1    1    2    0    0  0.18777838459E+02  0.22726831355E+02  0.31851328481E+02  0.43400728181E+02  0.00000000000E+00 0.  1.
         11    1    3    3    0    0 -0.18872871809E+02 -0.21035368827E+02 -0.23932561542E+02  0.37032952006E+02  0.51100000000E-03 0. -1.
        -11    1    3    3    0    0 -0.33869801715E+01 -0.16981256367E+01 -0.39132322853E+01  0.54468938433E+01  0.51100000000E-03 0.  1.
         12    1    3    3    0    0  0.34820135222E+01  0.66631086937E-02 -0.40055346539E+01  0.53074259702E+01  0.00000000000E+00 0. -1.
</event>
<event>
 7    1  0.2935819E-010  0.4778727E+02  0.7816164E-02  0.1312668E+00
        -11   -1    0    0    0    0  0.00000000000E+00  0.00000000000E+00  0.45593999997E+02  0.45594000000E+02  0.51100000000E-03 0.  1.
         11   -1    0    0    0    0 -0.00000000000E+00 -0.00000000000E+00 -0.45593999997E+02  0.45594000000E+02  0.51100000000E-03 0. -1.
    9900012    2    1    2    0    0  0.20176661468E+02 -0.21370750423E+02 -0.31934570699E+02  0.47787269045E+02  0.19999990886E+02 0.  0.
        -12    1    1    2    0    0 -0.20176661468E+02  0.21370750423E+02  0.31934570699E+02  0.43400730955E+02  0.00000000000E+00 0.  1.
         11    1    3    3    0    0  0.12265795228E+02 -0.14757899408E+02 -0.19857124616E+02  0.27614321027E+02  0.51100000000E-03 0. -1.
        -11    1    3    3    0    0  0.10039034973E+02 -0.86167046707E+01 -0.96946689842E+01  0.16401720323E+02  0.51100000000E-03 0.  1.
         12    1    3    3    0    0 -0.21281687330E+01  0.20038536553E+01 -0.23827770991E+01  0.37712276956E+01  0.00000000000E+00 0. -1.
</event>
<event>
 7    1  0.2935819E-010  0.4778727E+02  0.7816164E-02  0.1312668E+00
        -11   -1    0    0    0    0  0.00000000000E+00  0.00000000000E+00  0.45593999997E+02  0.45594000000E+02  0.51100000000E-03 0. -1.
         11   -1    0    0    0    0 -0.00000000000E+00 -0.00000000000E+00 -0.45593999997E+02  0.45594000000E+02  0.51100000000E-03 0.  1.
    9900012    2    1    2    0    0 -0.35244099679E+02  0.20706340457E+02  0.14585070603E+02  0.47787269801E+02  0.19999994332E+02 0.  0.
        -12    1    1    2    0    0  0.35244099679E+02 -0.20706340457E+02 -0.14585070603E+02  0.43400730199E+02  0.00000000000E+00 0.  1.
         11    1    3    3    0    0 -0.10568596797E+02  0.21902730585E+01 -0.10422248100E+01  0.10843374343E+02  0.51100000000E-03 0. -1.
        -11    1    3    3    0    0 -0.59686742798E+01  0.48619734150E+01  0.10838282754E+02  0.13294067529E+02  0.51100000000E-03 0.  1.
        -12    1    3    3    0    0 -0.18706828602E+02  0.13654093983E+02  0.47890126593E+01  0.23649827930E+02  0.00000000000E+00 0.  1.
</event>
<event>
 7    1  0.2935819E-010  0.4778727E+02  0.7816164E-02  0.1312668E+00
        -11   -1    0    0    0    0  0.00000000000E+00  0.00000000000E+00  0.45593999997E+02  0.45594000000E+02  0.51100000000E-03 0.  1.
         11   -1    0    0    0    0 -0.00000000000E+00 -0.00000000000E+00 -0.45593999997E+02  0.45594000000E+02  0.51100000000E-03 0. -1.
    9900012    2    1    2    0    0  0.90591644070E+01  0.21085835447E+02 -0.36836698276E+02  0.47787271249E+02  0.20000000933E+02 0.  0.
        -12    1    1    2    0    0 -0.90591644070E+01 -0.21085835447E+02  0.36836698276E+02  0.43400728751E+02  0.00000000000E+00 0.  1.
         11    1    3    3    0    0 -0.13558819647E+01  0.11045958661E+01 -0.12229173018E+02  0.12353591416E+02  0.51100000000E-03 0. -1.
        -11    1    3    3    0    0  0.47614105390E+01  0.18277801374E+02 -0.21952190864E+02  0.28959415350E+02  0.51100000000E-03 0.  1.
        -12    1    3    3    0    0  0.56536358327E+01  0.17034382068E+01 -0.26553343940E+01  0.64742644831E+01  0.00000000000E+00 0.  1.
</event>
<event>
 7    1  0.2935819E-010  0.4778727E+02  0.7816164E-02  0.1312668E+00
        -11   -1    0    0    0    0  0.00000000000E+00  0.00000000000E+00  0.45593999997E+02  0.45594000000E+02  0.51100000000E-03 0. -1.
         11   -1    0    0    0    0 -0.00000000000E+00 -0.00000000000E+00 -0.45593999997E+02  0.45594000000E+02  0.51100000000E-03 0.  1.
    9900012    2    1    2    0    0 -0.36312022677E+02  0.65894404653E+01  0.22839426903E+02  0.47787272612E+02  0.20000007146E+02 0.  0.
        -12    1    1    2    0    0  0.36312022677E+02 -0.65894404653E+01 -0.22839426903E+02  0.43400727388E+02  0.00000000000E+00 0.  1.
         11    1    3    3    0    0 -0.28129004644E+02  0.12843362204E+01  0.21220856229E+02  0.35259256390E+02  0.51100000000E-03 0. -1.
        -11    1    3    3    0    0  0.77169861905E+00  0.16642927832E+01 -0.15012473809E+01  0.23704710896E+01  0.51100000000E-03 0.  1.
         12    1    3    3    0    0 -0.89547166523E+01  0.36408114617E+01  0.31198180550E+01  0.10157545132E+02  0.00000000000E+00 0. -1.
</event>
<event>
 7    1  0.2935819E-010  0.4778726E+02  0.7816164E-02  0.1312668E+00
        -11   -1    0    0    0    0  0.00000000000E+00  0.00000000000E+00  0.45593999997E+02  0.45594000000E+02  0.51100000000E-03 0. -1.
         11   -1    0    0    0    0 -0.00000000000E+00 -0.00000000000E+00 -0.45593999997E+02  0.45594000000E+02  0.51100000000E-03 0.  1.
    9900012    2    1    2    0    0 -0.23006460671E+02 -0.35485261318E+02  0.97531179463E+01  0.47787259072E+02  0.19999945413E+02 0.  0.
        -12    1    1    2    0    0  0.23006460671E+02  0.35485261318E+02 -0.97531179463E+01  0.43400740928E+02  0.00000000000E+00 0.  1.
         11    1    3    3    0    0 -0.20189628288E+02 -0.32142813827E+02  0.59682164400E+01  0.38423966204E+02  0.51100000000E-03 0. -1.
        -11    1    3    3    0    0 -0.74323046866E+00  0.19516616650E+01 -0.61152506740E+00  0.21760831678E+01  0.51100000000E-03 0.  1.
         12    1    3    3    0    0 -0.20736019144E+01 -0.52941091563E+01  0.43964265736E+01  0.71872097003E+01  0.00000000000E+00 0. -1.
</event>
<event>
 7    1  0.2935819E-010  0.4778727E+02  0.7816164E-02  0.1312668E+00
        -11   -1    0    0    0    0  0.00000000000E+00  0.00000000000E+00  0.45593999997E+02  0.45594000000E+02  0.51100000000E-03 0.  1.
         11   -1    0    0    0    0 -0.00000000000E+00 -0.00000000000E+00 -0.45593999997E+02  0.45594000000E+02  0.51100000000E-03 0. -1.
    9900012    2    1    2    0    0  0.20194942999E+02 -0.30640417315E+02 -0.23172233361E+02  0.47787270802E+02  0.19999998895E+02 0.  0.
        -12    1    1    2    0    0 -0.20194942999E+02  0.30640417315E+02  0.23172233361E+02  0.43400729198E+02  0.00000000000E+00 0.  1.
         11    1    3    3    0    0  0.33945789546E+01 -0.11076846942E+02 -0.11359183692E+02  0.16225004125E+02  0.51100000000E-03 0. -1.
        -11    1    3    3    0    0  0.35485959595E+01 -0.73802104745E+01  0.25023620599E+01  0.85628182319E+01  0.51100000000E-03 0.  1.
        -12    1    3    3    0    0  0.13251768085E+02 -0.12183359899E+02 -0.14315411729E+02  0.22999448445E+02  0.00000000000E+00 0.  1.
</event>
<event>
 7    1  0.2935819E-010  0.4778727E+02  0.7816164E-02  0.1312668E+00
        -11   -1    0    0    0    0  0.00000000000E+00  0.00000000000E+00  0.45593999997E+02  0.45594000000E+02  0.51100000000E-03 0. -1.
         11   -1    0    0    0    0 -0.00000000000E+00 -0.00000000000E+00 -0.45593999997E+02  0.45594000000E+02  0.51100000000E-03 0.  1.
    9900012    2    1    2    0    0  0.92607276750E+01  0.36440611827E+02  0.21678187311E+02  0.47787273364E+02  0.20000010577E+02 0.  0.
        -12    1    1    2    0    0 -0.92607276750E+01 -0.36440611827E+02 -0.21678187311E+02  0.43400726636E+02  0.00000000000E+00 0.  1.
         11    1    3    3    0    0  0.39358528810E+01  0.11315287203E+02  0.10937368585E+02  0.16221981821E+02  0.51100000000E-03 0. -1.
        -11    1    3    3    0    0 -0.38387244570E+00  0.16524522937E+02  0.12962983028E+02  0.21005859792E+02  0.51100000000E-03 0.  1.
        -12    1    3    3    0    0  0.57087472398E+01  0.86008016877E+01 -0.22221643023E+01  0.10559431751E+02  0.00000000000E+00 0.  1.
</event>
<event>
 7    1  0.2935819E-010  0.4778727E+02  0.7816164E-02  0.1312668E+00
        -11   -1    0    0    0    0  0.00000000000E+00  0.00000000000E+00  0.45593999997E+02  0.45594000000E+02  0.51100000000E-03 0.  1.
         11   -1    0    0    0    0 -0.00000000000E+00 -0.00000000000E+00 -0.45593999997E+02  0.45594000000E+02  0.51100000000E-03 0. -1.
    9900012    2    1    2    0    0  0.23162623715E+02  0.23430205401E+02 -0.28251400004E+02  0.47787271150E+02  0.20000000480E+02 0.  0.
        -12    1    1    2    0    0 -0.23162623715E+02 -0.23430205401E+02  0.28251400004E+02  0.43400728850E+02  0.00000000000E+00 0.  1.
         11    1    3    3    0    0  0.14645419542E+02  0.53445252014E+01 -0.68759183746E+01  0.17039087914E+02  0.51100000000E-03 0. -1.
        -11    1    3    3    0    0 -0.15056972693E+01  0.67528216980E+01 -0.77347000342E+01  0.10377538727E+02  0.51100000000E-03 0.  1.
         12    1    3    3    0    0  0.10022901442E+02  0.11332858502E+02 -0.13640781596E+02  0.20370644508E+02  0.00000000000E+00 0. -1.
</event>
<event>
 7    1  0.2935819E-010  0.4778727E+02  0.7816164E-02  0.1312668E+00
        -11   -1    0    0    0    0  0.00000000000E+00  0.00000000000E+00  0.45593999997E+02  0.45594000000E+02  0.51100000000E-03 0. -1.
         11   -1    0    0    0    0 -0.00000000000E+00 -0.00000000000E+00 -0.45593999997E+02  0.45594000000E+02  0.51100000000E-03 0.  1.
    9900012    2    1    2    0    0  0.15521495416E+02 -0.36021923455E+02 -0.18577605151E+02  0.47787271866E+02  0.20000003748E+02 0.  0.
        -12    1    1    2    0    0 -0.15521495416E+02  0.36021923455E+02  0.18577605151E+02  0.43400728134E+02  0.00000000000E+00 0.  1.
         11    1    3    3    0    0  0.10709659399E+02 -0.20696584088E+02 -0.20000427396E+02  0.30709322585E+02  0.51100000000E-03 0. -1.
        -11    1    3    3    0    0  0.16193960280E-01 -0.56850419728E+01  0.25907373326E+01  0.62475502931E+01  0.51100000000E-03 0.  1.
         12    1    3    3    0    0  0.47956420569E+01 -0.96402973941E+01 -0.11679150876E+01  0.10830398988E+02  0.00000000000E+00 0. -1.
</event>
<event>
 7    1  0.2935819E-010  0.4778727E+02  0.7816164E-02  0.1312668E+00
        -11   -1    0    0    0    0  0.00000000000E+00  0.00000000000E+00  0.45593999997E+02  0.45594000000E+02  0.51100000000E-03 0. -1.
         11   -1    0    0    0    0 -0.00000000000E+00 -0.00000000000E+00 -0.45593999997E+02  0.45594000000E+02  0.51100000000E-03 0.  1.
    9900012    2    1    2    0    0 -0.41396372737E+02 -0.60968347103E+01  0.11523554437E+02  0.47787269866E+02  0.19999994628E+02 0.  0.
        -12    1    1    2    0    0  0.41396372737E+02  0.60968347103E+01 -0.11523554437E+02  0.43400730134E+02  0.00000000000E+00 0.  1.
         11    1    3    3    0    0 -0.28645233732E+02 -0.10288887707E+02  0.71848881631E+01  0.31273523050E+02  0.51100000000E-03 0. -1.
        -11    1    3    3    0    0 -0.95892400006E+01  0.67934542829E+01  0.24491130236E+01  0.12004278393E+02  0.51100000000E-03 0.  1.
         12    1    3    3    0    0 -0.31618990045E+01 -0.26014012866E+01  0.18895532502E+01  0.45094684225E+01  0.00000000000E+00 0. -1.
</event>
<event>
 7    1  0.2935819E-010  0.4778727E+02  0.7816164E-02  0.1312668E+00
        -11   -1    0    0    0    0  0.00000000000E+00  0.00000000000E+00  0.45593999997E+02  0.45594000000E+02  0.51100000000E-03 0.  1.
         11   -1    0    0    0    0 -0.00000000000E+00 -0.00000000000E+00 -0.45593999997E+02  0.45594000000E+02  0.51100000000E-03 0. -1.
    9900012    2    1    2    0    0 -0.21607231774E+02 -0.29305556213E+02 -0.23620651549E+02  0.47787271095E+02  0.20000000230E+02 0.  0.
        -12    1    1    2    0    0  0.21607231774E+02  0.29305556213E+02  0.23620651549E+02  0.43400728905E+02  0.00000000000E+00 0.  1.
         11    1    3    3    0    0 -0.64944314847E+01 -0.85690020878E+01 -0.14169524860E+02  0.17787098474E+02  0.51100000000E-03 0. -1.
        -11    1    3    3    0    0 -0.11535396055E+02 -0.58803272349E+01 -0.23888745692E+01  0.13166257346E+02  0.51100000000E-03 0.  1.
        -12    1    3    3    0    0 -0.35774042338E+01 -0.14856226891E+02 -0.70622521195E+01  0.16833915275E+02  0.00000000000E+00 0.  1.
</event>
<event>
 7    1  0.2935819E-010  0.4778727E+02  0.7816164E-02  0.1312668E+00
        -11   -1    0    0    0    0  0.00000000000E+00  0.00000000000E+00  0.45593999997E+02  0.45594000000E+02  0.51100000000E-03 0. -1.
         11   -1    0    0    0    0 -0.00000000000E+00 -0.00000000000E+00 -0.45593999997E+02  0.45594000000E+02  0.51100000000E-03 0.  1.
    9900012    2    1    2    0    0 -0.14856662883E+02 -0.28166118696E+02 -0.29488518582E+02  0.47787269562E+02  0.19999993239E+02 0.  0.
        -12    1    1    2    0    0  0.14856662883E+02  0.28166118696E+02  0.29488518582E+02  0.43400730438E+02  0.00000000000E+00 0.  1.
         11    1    3    3    0    0 -0.18963124261E+02 -0.16668868026E+02 -0.20715065943E+02  0.32658309820E+02  0.51100000000E-03 0. -1.
        -11    1    3    3    0    0  0.21150369616E+01 -0.82429856700E+01 -0.60460656559E+01  0.10439114152E+02  0.51100000000E-03 0.  1.
         12    1    3    3    0    0  0.19914244164E+01 -0.32542650001E+01 -0.27273869825E+01  0.46898455890E+01  0.00000000000E+00 0. -1.
</event>
<event>
 7    1  0.2935819E-010  0.4778727E+02  0.7816164E-02  0.1312668E+00
        -11   -1    0    0    0    0  0.00000000000E+00  0.00000000000E+00  0.45593999997E+02  0.45594000000E+02  0.51100000000E-03 0. -1.
         11   -1    0    0    0    0 -0.00000000000E+00 -0.00000000000E+00 -0.45593999997E+02  0.45594000000E+02  0.51100000000E-03 0.  1.
    9900012    2    1    2    0    0 -0.70332111579E+01 -0.15780725607E+02  0.39813637619E+02  0.47787273043E+02  0.20000009114E+02 0.  0.
        -12    1    1    2    0    0  0.70332111579E+01  0.15780725607E+02 -0.39813637619E+02  0.43400726957E+02  0.00000000000E+00 0.  1.
         11    1    3    3    0    0 -0.55147279287E+00 -0.14668966399E+02  0.15112706878E+02  0.21068379314E+02  0.51100000000E-03 0. -1.
        -11    1    3    3    0    0 -0.39955857710E+01  0.31297670693E+01  0.99414937994E+01  0.11162143467E+02  0.51100000000E-03 0.  1.
         12    1    3    3    0    0 -0.24861525940E+01 -0.42415262774E+01  0.14759436942E+02  0.15556750262E+02  0.00000000000E+00 0. -1.
</event>
<event>
 7    1  0.2935819E-010  0.4778727E+02  0.7816164E-02  0.1312668E+00
        -11   -1    0    0    0    0  0.00000000000E+00  0.00000000000E+00  0.45593999997E+02  0.45594000000E+02  0.51100000000E-03 0.  1.
         11   -1    0    0    0    0 -0.00000000000E+00 -0.00000000000E+00 -0.45593999997E+02  0.45594000000E+02  0.51100000000E-03 0. -1.
    9900012    2    1    2    0    0 -0.81864122810E+01  0.33439231536E+02 -0.26427706768E+02  0.47787271472E+02  0.20000001948E+02 0.  0.
        -12    1    1    2    0    0  0.81864122810E+01 -0.33439231536E+02  0.26427706768E+02  0.43400728528E+02  0.00000000000E+00 0.  1.
         11    1    3    3    0    0  0.44696367471E+01  0.85621203210E+01 -0.13443519517E+01  0.97516582935E+01  0.51100000000E-03 0. -1.
        -11    1    3    3    0    0 -0.33766932433E+01  0.25592209700E+01 -0.54054863641E+01  0.68681112634E+01  0.51100000000E-03 0.  1.
         12    1    3    3    0    0 -0.92793557848E+01  0.22317890245E+02 -0.19677868452E+02  0.31167501915E+02  0.00000000000E+00 0. -1.
</event>
<event>
 7    1  0.2935819E-010  0.4778727E+02  0.7816164E-02  0.1312668E+00
        -11   -1    0    0    0    0  0.00000000000E+00  0.00000000000E+00  0.45593999997E+02  0.45594000000E+02  0.51100000000E-03 0.  1.
         11   -1    0    0    0    0 -0.00000000000E+00 -0.00000000000E+00 -0.45593999997E+02  0.45594000000E+02  0.51100000000E-03 0. -1.
    9900012    2    1    2    0    0  0.18435823801E+02 -0.92460715076E+01 -0.38187088734E+02  0.47787272085E+02  0.20000004745E+02 0.  0.
        -12    1    1    2    0    0 -0.18435823801E+02  0.92460715076E+01  0.38187088734E+02  0.43400727915E+02  0.00000000000E+00 0.  1.
         11    1    3    3    0    0  0.18846455130E+02 -0.31684121153E+01 -0.20463279803E+02  0.27999527261E+02  0.51100000000E-03 0. -1.
        -11    1    3    3    0    0 -0.28530382197E+01 -0.52646096420E+01 -0.14308842634E+02  0.15511251386E+02  0.51100000000E-03 0.  1.
        -12    1    3    3    0    0  0.24424068908E+01 -0.81304975030E+00 -0.34149662965E+01  0.42764934377E+01  0.00000000000E+00 0.  1.
</event>
<event>
 7    1  0.2935819E-010  0.4778727E+02  0.7816164E-02  0.1312668E+00
        -11   -1    0    0    0    0  0.00000000000E+00  0.00000000000E+00  0.45593999997E+02  0.45594000000E+02  0.51100000000E-03 0.  1.
         11   -1    0    0    0    0 -0.00000000000E+00 -0.00000000000E+00 -0.45593999997E+02  0.45594000000E+02  0.51100000000E-03 0. -1.
    9900012    2    1    2    0    0 -0.22094641226E+02 -0.26211415223E+02 -0.26616009721E+02  0.47787269219E+02  0.19999991676E+02 0.  0.
        -12    1    1    2    0    0  0.22094641226E+02  0.26211415223E+02  0.26616009721E+02  0.43400730781E+02  0.00000000000E+00 0.  1.
         11    1    3    3    0    0 -0.24726937804E+01 -0.11840498818E+02 -0.12475848494E+02  0.17376950904E+02  0.51100000000E-03 0. -1.
        -11    1    3    3    0    0 -0.13229048637E+02 -0.64202596451E+01 -0.24719754964E+01  0.14911006836E+02  0.51100000000E-03 0.  1.
        -12    1    3    3    0    0 -0.63928988083E+01 -0.79506567591E+01 -0.11668185730E+02  0.15499311479E+02  0.00000000000E+00 0.  1.
</event>
<event>
 7    1  0.2935819E-010  0.4778727E+02  0.7816164E-02  0.1312668E+00
        -11   -1    0    0    0    0  0.00000000000E+00  0.00000000000E+00  0.45593999997E+02  0.45594000000E+02  0.51100000000E-03 0. -1.
         11   -1    0    0    0    0 -0.00000000000E+00 -0.00000000000E+00 -0.45593999997E+02  0.45594000000E+02  0.51100000000E-03 0.  1.
    9900012    2    1    2    0    0 -0.13834078567E+02  0.40932860629E+02  0.40917200002E+01  0.47787274411E+02  0.20000015351E+02 0.  0.
        -12    1    1    2    0    0  0.13834078567E+02 -0.40932860629E+02 -0.40917200002E+01  0.43400725589E+02  0.00000000000E+00 0.  1.
         11    1    3    3    0    0 -0.63651053464E+01  0.23633563742E+02  0.86647303311E+01  0.25964157086E+02  0.51100000000E-03 0. -1.
        -11    1    3    3    0    0 -0.96579390713E+01  0.11389515588E+02 -0.41879474331E+01  0.15509215209E+02  0.51100000000E-03 0.  1.
         12    1    3    3    0    0  0.21889658512E+01  0.59097812988E+01 -0.38506289783E+00  0.63139021162E+01  0.00000000000E+00 0. -1.
</event>
<event>
 7    1  0.2935819E-010  0.4778726E+02  0.7816164E-02  0.1312668E+00
        -11   -1    0    0    0    0  0.00000000000E+00  0.00000000000E+00  0.45593999997E+02  0.45594000000E+02  0.51100000000E-03 0. -1.
         11   -1    0    0    0    0 -0.00000000000E+00 -0.00000000000E+00 -0.45593999997E+02  0.45594000000E+02  0.51100000000E-03 0.  1.
    9900012    2    1    2    0    0  0.37490901672E+02  0.33516039523E+00  0.21861925684E+02  0.47787264577E+02  0.19999970511E+02 0.  0.
        -12    1    1    2    0    0 -0.37490901672E+02 -0.33516039523E+00 -0.21861925684E+02  0.43400735423E+02  0.00000000000E+00 0.  1.
         11    1    3    3    0    0  0.13931470766E+02 -0.72321906530E+01  0.87578639974E+01  0.17974722290E+02  0.51100000000E-03 0. -1.
        -11    1    3    3    0    0  0.24177449664E+02  0.84967893716E+01  0.12234631378E+02  0.28397723625E+02  0.51100000000E-03 0.  1.
        -12    1    3    3    0    0 -0.61801875807E+00 -0.92943832338E+00  0.86943030927E+00  0.14148186615E+01  0.00000000000E+00 0.  1.
</event>
<event>
 7    1  0.2935819E-010  0.4778727E+02  0.7816164E-02  0.1312668E+00
        -11   -1    0    0    0    0  0.00000000000E+00  0.00000000000E+00  0.45593999997E+02  0.45594000000E+02  0.51100000000E-03 0.  1.
         11   -1    0    0    0    0 -0.00000000000E+00 -0.00000000000E+00 -0.45593999997E+02  0.45594000000E+02  0.51100000000E-03 0. -1.
    9900012    2    1    2    0    0  0.10522844972E+02  0.38611952580E+02 -0.16793155482E+02  0.47787271672E+02  0.20000002862E+02 0.  0.
        -12    1    1    2    0    0 -0.10522844972E+02 -0.38611952580E+02  0.16793155482E+02  0.43400728328E+02  0.00000000000E+00 0.  1.
         11    1    3    3    0    0  0.51070770915E+01  0.17958959484E+02 -0.11085911188E+02  0.21714140307E+02  0.51100000000E-03 0. -1.
        -11    1    3    3    0    0  0.29109576266E+01 -0.14103044798E+01 -0.64153154565E+00  0.32976045874E+01  0.51100000000E-03 0.  1.
        -12    1    3    3    0    0  0.25048102538E+01  0.22063297576E+02 -0.50657127485E+01  0.22775526777E+02  0.00000000000E+00 0.  1.
</event>
<event>
 7    1  0.2935819E-010  0.4778726E+02  0.7816164E-02  0.1312668E+00
        -11   -1    0    0    0    0  0.00000000000E+00  0.00000000000E+00  0.45593999997E+02  0.45594000000E+02  0.51100000000E-03 0.  1.
         11   -1    0    0    0    0 -0.00000000000E+00 -0.00000000000E+00 -0.45593999997E+02  0.45594000000E+02  0.51100000000E-03 0. -1.
    9900012    2    1    2    0    0  0.30435233493E+02  0.62821313721E+01 -0.30296128136E+02  0.47787262767E+02  0.19999962259E+02 0.  0.
        -12    1    1    2    0    0 -0.30435233493E+02 -0.62821313721E+01  0.30296128136E+02  0.43400737233E+02  0.00000000000E+00 0.  1.
         11    1    3    3    0    0  0.14136266344E+02 -0.30249524436E+01 -0.22965286093E+02  0.27136483357E+02  0.51100000000E-03 0. -1.
        -11    1    3    3    0    0  0.34044755975E+01  0.33575286565E+01 -0.26438642816E+00  0.47888780750E+01  0.51100000000E-03 0.  1.
         12    1    3    3    0    0  0.12894491552E+02  0.59495551592E+01 -0.70664556148E+01  0.15861901334E+02  0.00000000000E+00 0. -1.
</event>
<event>
 7    1  0.2935819E-010  0.4778727E+02  0.7816164E-02  0.1312668E+00
        -11   -1    0    0    0    0  0.00000000000E+00  0.00000000000E+00  0.45593999997E+02  0.45594000000E+02  0.51100000000E-03 0.  1.
         11   -1    0    0    0    0 -0.00000000000E+00 -0.00000000000E+00 -0.45593999997E+02  0.45594000000E+02  0.51100000000E-03 0. -1.
    9900012    2    1    2    0    0  0.41177270120E+02 -0.11963715853E+02 -0.67026359384E+01  0.47787269590E+02  0.19999993369E+02 0.  0.
        -12    1    1    2    0    0 -0.41177270120E+02  0.11963715853E+02  0.67026359384E+01  0.43400730410E+02  0.00000000000E+00 0.  1.
         11    1    3    3    0    0  0.30540603717E+02 -0.64386228288E+01 -0.96613414212E+01  0.32673014211E+02  0.51100000000E-03 0. -1.
        -11    1    3    3    0    0  0.80395406061E+01  0.24404768055E+00  0.34846779310E+01  0.87656575892E+01  0.51100000000E-03 0.  1.
         12    1    3    3    0    0  0.25971257975E+01 -0.57691407048E+01 -0.52597244821E+00  0.63485977898E+01  0.00000000000E+00 0. -1.
</event>
<event>
 7    1  0.2935819E-010  0.4778727E+02  0.7816164E-02  0.1312668E+00
        -11   -1    0    0    0    0  0.00000000000E+00  0.00000000000E+00  0.45593999997E+02  0.45594000000E+02  0.51100000000E-03 0.  1.
         11   -1    0    0    0    0 -0.00000000000E+00 -0.00000000000E+00 -0.45593999997E+02  0.45594000000E+02  0.51100000000E-03 0. -1.
    9900012    2    1    2    0    0  0.57606298249E+01  0.36461913827E+02 -0.22824707328E+02  0.47787270968E+02  0.19999999651E+02 0.  0.
        -12    1    1    2    0    0 -0.57606298249E+01 -0.36461913827E+02  0.22824707328E+02  0.43400729032E+02  0.00000000000E+00 0.  1.
         11    1    3    3    0    0 -0.81987179277E+00  0.20299720170E+02 -0.99999076600E+01  0.22643961274E+02  0.51100000000E-03 0. -1.
        -11    1    3    3    0    0  0.59931423869E+01  0.51303976670E+01  0.41471094030E+00  0.79000456528E+01  0.51100000000E-03 0.  1.
        -12    1    3    3    0    0  0.58735923076E+00  0.11031795990E+02 -0.13239510608E+02  0.17243264041E+02  0.00000000000E+00 0.  1.
</event>
<event>
 7    1  0.2935819E-010  0.4778727E+02  0.7816164E-02  0.1312668E+00
        -11   -1    0    0    0    0  0.00000000000E+00  0.00000000000E+00  0.45593999997E+02  0.45594000000E+02  0.51100000000E-03 0. -1.
         11   -1    0    0    0    0 -0.00000000000E+00 -0.00000000000E+00 -0.45593999997E+02  0.45594000000E+02  0.51100000000E-03 0.  1.
    9900012    2    1    2    0    0  0.31661328225E+02  0.26307235588E+02  0.13751831684E+02  0.47787271620E+02  0.20000002624E+02 0.  0.
        -12    1    1    2    0    0 -0.31661328225E+02 -0.26307235588E+02 -0.13751831684E+02  0.43400728380E+02  0.00000000000E+00 0.  1.
         11    1    3    3    0    0  0.25626955899E+02  0.23832300842E+02  0.32175255588E+01  0.35143589786E+02  0.51100000000E-03 0. -1.
        -11    1    3    3    0    0  0.35773399102E+01  0.27585716150E+01  0.66836201415E+01  0.80670847675E+01  0.51100000000E-03 0.  1.
         12    1    3    3    0    0  0.24570324153E+01 -0.28363686882E+00  0.38506859834E+01  0.45765970661E+01  0.00000000000E+00 0. -1.
</event>
<event>
 7    1  0.2935819E-010  0.4778727E+02  0.7816164E-02  0.1312668E+00
        -11   -1    0    0    0    0  0.00000000000E+00  0.00000000000E+00  0.45593999997E+02  0.45594000000E+02  0.51100000000E-03 0.  1.
         11   -1    0    0    0    0 -0.00000000000E+00 -0.00000000000E+00 -0.45593999997E+02  0.45594000000E+02  0.51100000000E-03 0. -1.
    9900012    2    1    2    0    0  0.13671289918E+02  0.30611908217E+02 -0.27561394284E+02  0.47787267891E+02  0.19999985622E+02 0.  0.
        -12    1    1    2    0    0 -0.13671289918E+02 -0.30611908217E+02  0.27561394284E+02  0.43400732109E+02  0.00000000000E+00 0.  1.
         11    1    3    3    0    0  0.14772489265E+02  0.15704185754E+02 -0.15992750269E+02  0.26844290840E+02  0.51100000000E-03 0. -1.
        -11    1    3    3    0    0 -0.38871978075E+01  0.11165643253E+02 -0.48855454554E+01  0.12792593588E+02  0.51100000000E-03 0.  1.
         12    1    3    3    0    0  0.27859984603E+01  0.37420792108E+01 -0.66830985598E+01  0.81503834634E+01  0.00000000000E+00 0. -1.
</event>
<event>
 7    1  0.2935819E-010  0.4778727E+02  0.7816164E-02  0.1312668E+00
        -11   -1    0    0    0    0  0.00000000000E+00  0.00000000000E+00  0.45593999997E+02  0.45594000000E+02  0.51100000000E-03 0.  1.
         11   -1    0    0    0    0 -0.00000000000E+00 -0.00000000000E+00 -0.45593999997E+02  0.45594000000E+02  0.51100000000E-03 0. -1.
    9900012    2    1    2    0    0 -0.20189012878E+02 -0.14277171132E+02 -0.35667766010E+02  0.47787269722E+02  0.19999993970E+02 0.  0.
        -12    1    1    2    0    0  0.20189012878E+02  0.14277171132E+02  0.35667766010E+02  0.43400730278E+02  0.00000000000E+00 0.  1.
         11    1    3    3    0    0  0.61949523453E-01 -0.88914739708E+01 -0.59223944100E+01  0.10683487395E+02  0.51100000000E-03 0. -1.
        -11    1    3    3    0    0  0.43340302746E+00  0.16307428263E+00 -0.20098569950E+01  0.20625122563E+01  0.51100000000E-03 0.  1.
         12    1    3    3    0    0 -0.20684365429E+02 -0.55487714437E+01 -0.27735514605E+02  0.35041270070E+02  0.00000000000E+00 0. -1.
</event>
<event>
 7    1  0.2935819E-010  0.4778729E+02  0.7816164E-02  0.1312668E+00
        -11   -1    0    0    0    0  0.00000000000E+00  0.00000000000E+00  0.45593999997E+02  0.45594000000E+02  0.51100000000E-03 0.  1.
         11   -1    0    0    0    0 -0.00000000000E+00 -0.00000000000E+00 -0.45593999997E+02  0.45594000000E+02  0.51100000000E-03 0. -1.
    9900012    2    1    2    0    0  0.36881118824E+02  0.21099123214E+02 -0.88448882850E+01  0.47787286009E+02  0.20000068231E+02 0.  0.
        -12    1    1    2    0    0 -0.36881118824E+02 -0.21099123214E+02  0.88448882850E+01  0.43400713991E+02  0.00000000000E+00 0.  1.
         11    1    3    3    0    0  0.79882337823E+01  0.22341546315E+01  0.25401931590E+01  0.86750162780E+01  0.51100000000E-03 0. -1.
        -11    1    3    3    0    0  0.28752680493E+02  0.16247843515E+02 -0.13565105129E+02  0.35703236994E+02  0.51100000000E-03 0.  1.
        -12    1    3    3    0    0  0.14020454847E+00  0.26171250674E+01  0.21800236853E+01  0.34090327371E+01  0.00000000000E+00 0.  1.
</event>
<event>
 7    1  0.2935819E-010  0.4778729E+02  0.7816164E-02  0.1312668E+00
        -11   -1    0    0    0    0  0.00000000000E+00  0.00000000000E+00  0.45593999997E+02  0.45594000000E+02  0.51100000000E-03 0.  1.
         11   -1    0    0    0    0 -0.00000000000E+00 -0.00000000000E+00 -0.45593999997E+02  0.45594000000E+02  0.51100000000E-03 0. -1.
    9900012    2    1    2    0    0  0.27893859093E+02  0.24081037736E+02 -0.22927223119E+02  0.47787293629E+02  0.20000102972E+02 0.  0.
        -12    1    1    2    0    0 -0.27893859093E+02 -0.24081037736E+02  0.22927223119E+02  0.43400706371E+02  0.00000000000E+00 0.  1.
         11    1    3    3    0    0  0.23149736578E+01 -0.14146155994E+01  0.15812305187E+01  0.31401481724E+01  0.51100000000E-03 0. -1.
        -11    1    3    3    0    0 -0.16385571563E+00  0.80067835557E+00  0.60879112305E+00  0.10190983354E+01  0.51100000000E-03 0.  1.
         12    1    3    3    0    0  0.25742741151E+02  0.24694974980E+02 -0.25117244761E+02  0.43628047121E+02  0.00000000000E+00 0. -1.
</event>
<event>
 7    1  0.2935819E-010  0.4778729E+02  0.7816164E-02  0.1312668E+00
        -11   -1    0    0    0    0  0.00000000000E+00  0.00000000000E+00  0.45593999997E+02  0.45594000000E+02  0.51100000000E-03 0. -1.
         11   -1    0    0    0    0 -0.00000000000E+00 -0.00000000000E+00 -0.45593999997E+02  0.45594000000E+02  0.51100000000E-03 0.  1.
    9900012    2    1    2    0    0 -0.33657833170E+02 -0.23414310157E+02  0.14231734417E+02  0.47787286661E+02  0.20000071203E+02 0.  0.
        -12    1    1    2    0    0  0.33657833170E+02  0.23414310157E+02 -0.14231734417E+02  0.43400713339E+02  0.00000000000E+00 0.  1.
         11    1    3    3    0    0 -0.14232670501E+02 -0.34072811216E+01  0.13129676669E+02  0.19661304227E+02  0.51100000000E-03 0. -1.
        -11    1    3    3    0    0 -0.14551192113E+02 -0.15185475021E+02 -0.67830118783E+00  0.21042716942E+02  0.51100000000E-03 0.  1.
         12    1    3    3    0    0 -0.48739705552E+01 -0.48215540146E+01  0.17803589363E+01  0.70832654921E+01  0.00000000000E+00 0. -1.
</event>
<event>
 7    1  0.2935819E-010  0.4778727E+02  0.7816164E-02  0.1312668E+00
        -11   -1    0    0    0    0  0.00000000000E+00  0.00000000000E+00  0.45593999997E+02  0.45594000000E+02  0.51100000000E-03 0. -1.
         11   -1    0    0    0    0 -0.00000000000E+00 -0.00000000000E+00 -0.45593999997E+02  0.45594000000E+02  0.51100000000E-03 0.  1.
    9900012    2    1    2    0    0  0.12942165294E+02  0.39853434718E+02  0.11306071501E+02  0.47787272424E+02  0.20000006290E+02 0.  0.
        -12    1    1    2    0    0 -0.12942165294E+02 -0.39853434718E+02 -0.11306071501E+02  0.43400727576E+02  0.00000000000E+00 0.  1.
         11    1    3    3    0    0  0.63906464900E+01  0.17881918691E+02  0.14879229907E+02  0.24124569665E+02  0.51100000000E-03 0. -1.
        -11    1    3    3    0    0  0.40049133053E+01  0.73368933154E+01 -0.26938879381E+01  0.87821618402E+01  0.51100000000E-03 0.  1.
         12    1    3    3    0    0  0.25466054987E+01  0.14634622711E+02 -0.87927046739E+00  0.14880540919E+02  0.00000000000E+00 0. -1.
</event>
<event>
 7    1  0.2935819E-010  0.4778727E+02  0.7816164E-02  0.1312668E+00
        -11   -1    0    0    0    0  0.00000000000E+00  0.00000000000E+00  0.45593999997E+02  0.45594000000E+02  0.51100000000E-03 0. -1.
         11   -1    0    0    0    0 -0.00000000000E+00 -0.00000000000E+00 -0.45593999997E+02  0.45594000000E+02  0.51100000000E-03 0.  1.
    9900012    2    1    2    0    0  0.36746437824E+02 -0.84826346373E+00  0.23078199221E+02  0.47787268175E+02  0.19999986918E+02 0.  0.
        -12    1    1    2    0    0 -0.36746437824E+02  0.84826346373E+00 -0.23078199221E+02  0.43400731825E+02  0.00000000000E+00 0.  1.
         11    1    3    3    0    0  0.11913387652E+02  0.52463085922E+01  0.62645958862E+01  0.14446373977E+02  0.51100000000E-03 0. -1.
        -11    1    3    3    0    0  0.69272321213E+01 -0.82192198162E+01  0.67157482662E+01  0.12674517517E+02  0.51100000000E-03 0.  1.
        -12    1    3    3    0    0  0.17905818050E+02  0.21246477603E+01  0.10097855069E+02  0.20666376682E+02  0.00000000000E+00 0.  1.
</event>
<event>
 7    1  0.2935819E-010  0.4778727E+02  0.7816164E-02  0.1312668E+00
        -11   -1    0    0    0    0  0.00000000000E+00  0.00000000000E+00  0.45593999997E+02  0.45594000000E+02  0.51100000000E-03 0.  1.
         11   -1    0    0    0    0 -0.00000000000E+00 -0.00000000000E+00 -0.45593999997E+02  0.45594000000E+02  0.51100000000E-03 0. -1.
    9900012    2    1    2    0    0 -0.10091215664E+02  0.58495106519E+01 -0.41803994929E+02  0.47787269586E+02  0.19999993351E+02 0.  0.
        -12    1    1    2    0    0  0.10091215664E+02 -0.58495106519E+01  0.41803994929E+02  0.43400730414E+02  0.00000000000E+00 0.  1.
         11    1    3    3    0    0 -0.12858866098E+02 -0.11638751522E+01 -0.19020467726E+02  0.22988763243E+02  0.51100000000E-03 0. -1.
        -11    1    3    3    0    0  0.47801538216E+01  0.44680161209E+01 -0.14908942939E+02  0.16281572972E+02  0.51100000000E-03 0.  1.
        -12    1    3    3    0    0 -0.20125033882E+01  0.25453696832E+01 -0.78745842643E+01  0.85169333711E+01  0.00000000000E+00 0.  1.
</event>
<event>
 7    1  0.2935819E-010  0.4778727E+02  0.7816164E-02  0.1312668E+00
        -11   -1    0    0    0    0  0.00000000000E+00  0.00000000000E+00  0.45593999997E+02  0.45594000000E+02  0.51100000000E-03 0.  1.
         11   -1    0    0    0    0 -0.00000000000E+00 -0.00000000000E+00 -0.45593999997E+02  0.45594000000E+02  0.51100000000E-03 0. -1.
    9900012    2    1    2    0    0 -0.24415953574E+02  0.37249302780E+01 -0.35687669522E+02  0.47787266707E+02  0.19999980222E+02 0.  0.
        -12    1    1    2    0    0  0.24415953574E+02 -0.37249302780E+01  0.35687669522E+02  0.43400733293E+02  0.00000000000E+00 0.  1.
         11    1    3    3    0    0 -0.26043385181E+01 -0.15993496148E+00 -0.97360260126E+01  0.10079601237E+02  0.51100000000E-03 0. -1.
        -11    1    3    3    0    0 -0.15656294982E+02 -0.49920276196E+01 -0.13898036580E+02  0.21521973268E+02  0.51100000000E-03 0.  1.
        -12    1    3    3    0    0 -0.61553200739E+01  0.88768928591E+01 -0.12053606929E+02  0.16185692202E+02  0.00000000000E+00 0.  1.
</event>
<event>
 7    1  0.2935819E-010  0.4778727E+02  0.7816164E-02  0.1312668E+00
        -11   -1    0    0    0    0  0.00000000000E+00  0.00000000000E+00  0.45593999997E+02  0.45594000000E+02  0.51100000000E-03 0.  1.
         11   -1    0    0    0    0 -0.00000000000E+00 -0.00000000000E+00 -0.45593999997E+02  0.45594000000E+02  0.51100000000E-03 0. -1.
    9900012    2    1    2    0    0 -0.59343129178E+01  0.12830034317E+02 -0.41034099538E+02  0.47787272180E+02  0.20000005178E+02 0.  0.
        -12    1    1    2    0    0  0.59343129178E+01 -0.12830034317E+02  0.41034099538E+02  0.43400727820E+02  0.00000000000E+00 0.  1.
         11    1    3    3    0    0 -0.35202910379E+01 -0.22121900053E+01 -0.19405192259E+02  0.19845597005E+02  0.51100000000E-03 0. -1.
        -11    1    3    3    0    0  0.21401366637E+01  0.85921820226E+01 -0.68842659105E+01  0.11216010620E+02  0.51100000000E-03 0.  1.
        -12    1    3    3    0    0 -0.45541585436E+01  0.64500422998E+01 -0.14744641369E+02  0.16725664555E+02  0.00000000000E+00 0.  1.
</event>
<event>
 7    1  0.2935819E-010  0.4778728E+02  0.7816164E-02  0.1312668E+00
        -11   -1    0    0    0    0  0.00000000000E+00  0.00000000000E+00  0.45593999997E+02  0.45594000000E+02  0.51100000000E-03 0. -1.
         11   -1    0    0    0    0 -0.00000000000E+00 -0.00000000000E+00 -0.45593999997E+02  0.45594000000E+02  0.51100000000E-03 0.  1.
    9900012    2    1    2    0    0  0.28214353789E+02 -0.14361567614E+02  0.29687007944E+02  0.47787276219E+02  0.20000023594E+02 0.  0.
        -12    1    1    2    0    0 -0.28214353789E+02  0.14361567614E+02 -0.29687007944E+02  0.43400723781E+02  0.00000000000E+00 0.  1.
         11    1    3    3    0    0  0.24415893369E+02 -0.10745182126E+02  0.19778498388E+02  0.33208188548E+02  0.51100000000E-03 0. -1.
        -11    1    3    3    0    0 -0.10298306527E+01  0.74689620142E+00  0.75511206100E+01  0.76575340571E+01  0.51100000000E-03 0.  1.
        -12    1    3    3    0    0  0.48282910727E+01 -0.43632816899E+01  0.23573889453E+01  0.69215536137E+01  0.00000000000E+00 0.  1.
</event>
<event>
 7    1  0.2935819E-010  0.4778727E+02  0.7816164E-02  0.1312668E+00
        -11   -1    0    0    0    0  0.00000000000E+00  0.00000000000E+00  0.45593999997E+02  0.45594000000E+02  0.51100000000E-03 0.  1.
         11   -1    0    0    0    0 -0.00000000000E+00 -0.00000000000E+00 -0.45593999997E+02  0.45594000000E+02  0.51100000000E-03 0. -1.
    9900012    2    1    2    0    0  0.22712671199E+02  0.18462130691E+02 -0.32045396063E+02  0.47787272915E+02  0.20000008530E+02 0.  0.
        -12    1    1    2    0    0 -0.22712671199E+02 -0.18462130691E+02  0.32045396063E+02  0.43400727085E+02  0.00000000000E+00 0.  1.
         11    1    3    3    0    0  0.38113109695E+01 -0.48535523305E+00  0.83272795431E+00  0.39312971289E+01  0.51100000000E-03 0. -1.
        -11    1    3    3    0    0  0.33091021813E+01  0.73485560252E+01 -0.38706501651E+01  0.89405461725E+01  0.51100000000E-03 0.  1.
         12    1    3    3    0    0  0.15592258049E+02  0.11598929899E+02 -0.29007473852E+02  0.34915429614E+02  0.00000000000E+00 0. -1.
</event>
<event>
 7    1  0.2935819E-010  0.4778728E+02  0.7816164E-02  0.1312668E+00
        -11   -1    0    0    0    0  0.00000000000E+00  0.00000000000E+00  0.45593999997E+02  0.45594000000E+02  0.51100000000E-03 0.  1.
         11   -1    0    0    0    0 -0.00000000000E+00 -0.00000000000E+00 -0.45593999997E+02  0.45594000000E+02  0.51100000000E-03 0. -1.
    9900012    2    1    2    0    0  0.16399441729E+02  0.15437346834E+02 -0.37099451793E+02  0.47787277775E+02  0.20000030687E+02 0.  0.
        -12    1    1    2    0    0 -0.16399441729E+02 -0.15437346834E+02  0.37099451793E+02  0.43400722225E+02  0.00000000000E+00 0.  1.
         11    1    3    3    0    0  0.72932962921E+01  0.11186689607E+02 -0.28526195159E+02  0.31497269813E+02  0.51100000000E-03 0. -1.
        -11    1    3    3    0    0  0.45206912689E+00  0.13870674629E+01  0.19064093944E+01  0.24005665336E+01  0.51100000000E-03 0.  1.
        -12    1    3    3    0    0  0.86540763100E+01  0.28635897647E+01 -0.10479666029E+02  0.13889441429E+02  0.00000000000E+00 0.  1.
</event>
<event>
 7    1  0.2935819E-010  0.4778727E+02  0.7816164E-02  0.1312668E+00
        -11   -1    0    0    0    0  0.00000000000E+00  0.00000000000E+00  0.45593999997E+02  0.45594000000E+02  0.51100000000E-03 0.  1.
         11   -1    0    0    0    0 -0.00000000000E+00 -0.00000000000E+00 -0.45593999997E+02  0.45594000000E+02  0.51100000000E-03 0. -1.
    9900012    2    1    2    0    0  0.22513447208E+02 -0.34182702277E+02 -0.14432991151E+02  0.47787266438E+02  0.19999978996E+02 0.  0.
        -12    1    1    2    0    0 -0.22513447208E+02  0.34182702277E+02  0.14432991151E+02  0.43400733562E+02  0.00000000000E+00 0.  1.
         11    1    3    3    0    0  0.14587267116E+02 -0.12387385297E+02 -0.67990087072E+01  0.20309165322E+02  0.51100000000E-03 0. -1.
        -11    1    3    3    0    0 -0.26770591566E+01 -0.60977909221E+01 -0.50538650276E+01  0.83600987934E+01  0.51100000000E-03 0.  1.
        -12    1    3    3    0    0  0.10603239249E+02 -0.15697526058E+02 -0.25801174159E+01  0.19118002322E+02  0.00000000000E+00 0.  1.
</event>
<event>
 7    1  0.2935819E-010  0.4778726E+02  0.7816164E-02  0.1312668E+00
        -11   -1    0    0    0    0  0.00000000000E+00  0.00000000000E+00  0.45593999997E+02  0.45594000000E+02  0.51100000000E-03 0.  1.
         11   -1    0    0    0    0 -0.00000000000E+00 -0.00000000000E+00 -0.45593999997E+02  0.45594000000E+02  0.51100000000E-03 0. -1.
    9900012    2    1    2    0    0 -0.13701763215E+02  0.22054333147E+02 -0.34777751283E+02  0.47787263715E+02  0.19999966584E+02 0.  0.
        -12    1    1    2    0    0  0.13701763215E+02 -0.22054333147E+02  0.34777751283E+02  0.43400736285E+02  0.00000000000E+00 0.  1.
         11    1    3    3    0    0 -0.13034975813E+01  0.53564295113E+01 -0.33369018560E+01  0.64440171719E+01  0.51100000000E-03 0. -1.
        -11    1    3    3    0    0 -0.38078997803E+01  0.24542189715E+01  0.12191778550E+01  0.46914482199E+01  0.51100000000E-03 0.  1.
        -12    1    3    3    0    0 -0.85903658535E+01  0.14243684664E+02 -0.32660027282E+02  0.36651798324E+02  0.00000000000E+00 0.  1.
</event>
<event>
 7    1  0.2935819E-010  0.4778727E+02  0.7816164E-02  0.1312668E+00
        -11   -1    0    0    0    0  0.00000000000E+00  0.00000000000E+00  0.45593999997E+02  0.45594000000E+02  0.51100000000E-03 0.  1.
         11   -1    0    0    0    0 -0.00000000000E+00 -0.00000000000E+00 -0.45593999997E+02  0.45594000000E+02  0.51100000000E-03 0. -1.
    9900012    2    1    2    0    0  0.33524518324E+02 -0.26554601306E+02 -0.73880444554E+01  0.47787269819E+02  0.19999994412E+02 0.  0.
        -12    1    1    2    0    0 -0.33524518324E+02  0.26554601306E+02  0.73880444554E+01  0.43400730181E+02  0.00000000000E+00 0.  1.
         11    1    3    3    0    0  0.21432827850E+02 -0.19928057687E+02 -0.14189772444E+01  0.29300291629E+02  0.51100000000E-03 0. -1.
        -11    1    3    3    0    0  0.88830922296E+00 -0.38680832018E+01 -0.57003524681E+01  0.69458749955E+01  0.51100000000E-03 0.  1.
        -12    1    3    3    0    0  0.11203381251E+02 -0.27584604164E+01 -0.26871474290E+00  0.11541103194E+02  0.00000000000E+00 0.  1.
</event>
<event>
 7    1  0.2935819E-010  0.4778727E+02  0.7816164E-02  0.1312668E+00
        -11   -1    0    0    0    0  0.00000000000E+00  0.00000000000E+00  0.45593999997E+02  0.45594000000E+02  0.51100000000E-03 0.  1.
         11   -1    0    0    0    0 -0.00000000000E+00 -0.00000000000E+00 -0.45593999997E+02  0.45594000000E+02  0.51100000000E-03 0. -1.
    9900012    2    1    2    0    0 -0.41429680565E+02  0.10193661136E+02 -0.79557882832E+01  0.47787265833E+02  0.19999976238E+02 0.  0.
        -12    1    1    2    0    0  0.41429680565E+02 -0.10193661136E+02  0.79557882832E+01  0.43400734167E+02  0.00000000000E+00 0.  1.
         11    1    3    3    0    0 -0.14128141570E+02 -0.39240632876E+01 -0.77878868636E+01  0.16602826235E+02  0.51100000000E-03 0. -1.
        -11    1    3    3    0    0 -0.22010865765E+02  0.12216924699E+02  0.17747002995E+01  0.25236501783E+02  0.51100000000E-03 0.  1.
        -12    1    3    3    0    0 -0.52906732288E+01  0.19007997251E+01 -0.19426017191E+01  0.59479378148E+01  0.00000000000E+00 0.  1.
</event>
<event>
 7    1  0.2935819E-010  0.4778727E+02  0.7816164E-02  0.1312668E+00
        -11   -1    0    0    0    0  0.00000000000E+00  0.00000000000E+00  0.45593999997E+02  0.45594000000E+02  0.51100000000E-03 0.  1.
         11   -1    0    0    0    0 -0.00000000000E+00 -0.00000000000E+00 -0.45593999997E+02  0.45594000000E+02  0.51100000000E-03 0. -1.
    9900012    2    1    2    0    0  0.18280518342E+02  0.36903075087E+02 -0.13697036340E+02  0.47787272976E+02  0.20000008808E+02 0.  0.
        -12    1    1    2    0    0 -0.18280518342E+02 -0.36903075087E+02  0.13697036340E+02  0.43400727024E+02  0.00000000000E+00 0.  1.
         11    1    3    3    0    0  0.14498761095E+02  0.24645203814E+02 -0.17526410805E+02  0.33537668677E+02  0.51100000000E-03 0. -1.
        -11    1    3    3    0    0 -0.10614009483E+01  0.18557134687E+01  0.12924511985E+01  0.24981342663E+01  0.51100000000E-03 0.  1.
         12    1    3    3    0    0  0.48431581952E+01  0.10402157804E+02  0.25369232660E+01  0.11751470033E+02  0.00000000000E+00 0. -1.
</event>
<event>
 7    1  0.2935819E-010  0.4778728E+02  0.7816164E-02  0.1312668E+00
        -11   -1    0    0    0    0  0.00000000000E+00  0.00000000000E+00  0.45593999997E+02  0.45594000000E+02  0.51100000000E-03 0. -1.
         11   -1    0    0    0    0 -0.00000000000E+00 -0.00000000000E+00 -0.45593999997E+02  0.45594000000E+02  0.51100000000E-03 0.  1.
    9900012    2    1    2    0    0  0.37665026015E+02 -0.21123749797E+02 -0.43307795849E+01  0.47787278324E+02  0.20000033190E+02 0.  0.
        -12    1    1    2    0    0 -0.37665026015E+02  0.21123749797E+02  0.43307795849E+01  0.43400721676E+02  0.00000000000E+00 0.  1.
         11    1    3    3    0    0  0.10409901516E+02 -0.16057026993E+02 -0.46311247164E+01  0.19688612999E+02  0.51100000000E-03 0. -1.
        -11    1    3    3    0    0  0.15788590476E+02 -0.69698631714E+00 -0.38430484709E+00  0.15808639082E+02  0.51100000000E-03 0.  1.
         12    1    3    3    0    0  0.11466534023E+02 -0.43697364872E+01  0.68464997857E+00  0.12290026243E+02  0.00000000000E+00 0. -1.
</event>
<event>
 7    1  0.2935819E-010  0.4778727E+02  0.7816164E-02  0.1312668E+00
        -11   -1    0    0    0    0  0.00000000000E+00  0.00000000000E+00  0.45593999997E+02  0.45594000000E+02  0.51100000000E-03 0. -1.
         11   -1    0    0    0    0 -0.00000000000E+00 -0.00000000000E+00 -0.45593999997E+02  0.45594000000E+02  0.51100000000E-03 0.  1.
    9900012    2    1    2    0    0  0.14468432465E+02 -0.36079407040E+02 -0.19301911351E+02  0.47787274981E+02  0.20000017949E+02 0.  0.
        -12    1    1    2    0    0 -0.14468432465E+02  0.36079407040E+02  0.19301911351E+02  0.43400725019E+02  0.00000000000E+00 0.  1.
         11    1    3    3    0    0  0.86771663188E+01 -0.20832339554E+02 -0.11625421861E+02  0.25385626255E+02  0.51100000000E-03 0. -1.
        -11    1    3    3    0    0 -0.24612125057E+01 -0.30781646657E+01 -0.65641041434E+01  0.76563782675E+01  0.51100000000E-03 0.  1.
        -12    1    3    3    0    0  0.82524786517E+01 -0.12168902820E+02 -0.11123853459E+01  0.14745270459E+02  0.00000000000E+00 0.  1.
</event>
<event>
 7    1  0.2935819E-010  0.4778728E+02  0.7816164E-02  0.1312668E+00
        -11   -1    0    0    0    0  0.00000000000E+00  0.00000000000E+00  0.45593999997E+02  0.45594000000E+02  0.51100000000E-03 0.  1.
         11   -1    0    0    0    0 -0.00000000000E+00 -0.00000000000E+00 -0.45593999997E+02  0.45594000000E+02  0.51100000000E-03 0. -1.
    9900012    2    1    2    0    0  0.24699142866E+02  0.20984859466E+02 -0.28865392262E+02  0.47787275864E+02  0.20000021975E+02 0.  0.
        -12    1    1    2    0    0 -0.24699142866E+02 -0.20984859466E+02  0.28865392262E+02  0.43400724136E+02  0.00000000000E+00 0.  1.
         11    1    3    3    0    0  0.67341325181E+01  0.64173814668E+01 -0.19485267987E+02  0.21591827029E+02  0.51100000000E-03 0. -1.
        -11    1    3    3    0    0  0.16223908520E+02  0.89499072388E+01 -0.64053180143E+01  0.19604697049E+02  0.51100000000E-03 0.  1.
        -12    1    3    3    0    0  0.17411018273E+01  0.56175707603E+01 -0.29748062604E+01  0.65907517862E+01  0.00000000000E+00 0.  1.
</event>
<event>
 7    1  0.2935819E-010  0.4778727E+02  0.7816164E-02  0.1312668E+00
        -11   -1    0    0    0    0  0.00000000000E+00  0.00000000000E+00  0.45593999997E+02  0.45594000000E+02  0.51100000000E-03 0. -1.
         11   -1    0    0    0    0 -0.00000000000E+00 -0.00000000000E+00 -0.45593999997E+02  0.45594000000E+02  0.51100000000E-03 0.  1.
    9900012    2    1    2    0    0 -0.14522726509E+02  0.24315019786E+02  0.32886064963E+02  0.47787273725E+02  0.20000012224E+02 0.  0.
        -12    1    1    2    0    0  0.14522726509E+02 -0.24315019786E+02 -0.32886064963E+02  0.43400726275E+02  0.00000000000E+00 0.  1.
         11    1    3    3    0    0 -0.12800321140E+01  0.32466802949E+01  0.15959490640E+02  0.16336607876E+02  0.51100000000E-03 0. -1.
        -11    1    3    3    0    0 -0.77863741002E+01  0.13536293427E+02  0.51478196789E+01  0.16442594353E+02  0.51100000000E-03 0.  1.
        -12    1    3    3    0    0 -0.54563202948E+01  0.75320460640E+01  0.11778754644E+02  0.15008071496E+02  0.00000000000E+00 0.  1.
</event>
<event>
 7    1  0.2935819E-010  0.4778727E+02  0.7816164E-02  0.1312668E+00
        -11   -1    0    0    0    0  0.00000000000E+00  0.00000000000E+00  0.45593999997E+02  0.45594000000E+02  0.51100000000E-03 0. -1.
         11   -1    0    0    0    0 -0.00000000000E+00 -0.00000000000E+00 -0.45593999997E+02  0.45594000000E+02  0.51100000000E-03 0.  1.
    9900012    2    1    2    0    0 -0.29150990855E+02 -0.16402383586E+02  0.27655103983E+02  0.47787271533E+02  0.20000002230E+02 0.  0.
        -12    1    1    2    0    0  0.29150990855E+02  0.16402383586E+02 -0.27655103983E+02  0.43400728467E+02  0.00000000000E+00 0.  1.
         11    1    3    3    0    0 -0.99809720933E+01 -0.80516865321E+01  0.16994241508E+02  0.21289755861E+02  0.51100000000E-03 0. -1.
        -11    1    3    3    0    0 -0.16564864912E+02 -0.49969913905E+01  0.27506324358E+01  0.17519436394E+02  0.51100000000E-03 0.  1.
        -12    1    3    3    0    0 -0.26051538500E+01 -0.33537056631E+01  0.79102300389E+01  0.89780792782E+01  0.00000000000E+00 0.  1.
</event>
<event>
 7    1  0.2935819E-010  0.4778732E+02  0.7816164E-02  0.1312668E+00
        -11   -1    0    0    0    0  0.00000000000E+00  0.00000000000E+00  0.45593999997E+02  0.45594000000E+02  0.51100000000E-03 0.  1.
         11   -1    0    0    0    0 -0.00000000000E+00 -0.00000000000E+00 -0.45593999997E+02  0.45594000000E+02  0.51100000000E-03 0. -1.
    9900012    2    1    2    0    0  0.18143703233E+02 -0.39073157850E+02 -0.52643798836E+01  0.47787316515E+02  0.20000207317E+02 0.  0.
        -12    1    1    2    0    0 -0.18143703233E+02  0.39073157850E+02  0.52643798836E+01  0.43400683485E+02  0.00000000000E+00 0.  1.
         11    1    3    3    0    0  0.45573261101E+01 -0.60372434317E+01 -0.22949544025E+01  0.79047040108E+01  0.51100000000E-03 0. -1.
        -11    1    3    3    0    0  0.30765525026E+01 -0.37436373666E+00 -0.45844836103E+01  0.55337883717E+01  0.51100000000E-03 0.  1.
        -12    1    3    3    0    0  0.10509824620E+02 -0.32661550682E+02  0.16150581292E+01  0.34348824132E+02  0.00000000000E+00 0.  1.
</event>
<event>
 7    1  0.2935819E-010  0.4778728E+02  0.7816164E-02  0.1312668E+00
        -11   -1    0    0    0    0  0.00000000000E+00  0.00000000000E+00  0.45593999997E+02  0.45594000000E+02  0.51100000000E-03 0.  1.
         11   -1    0    0    0    0 -0.00000000000E+00 -0.00000000000E+00 -0.45593999997E+02  0.45594000000E+02  0.51100000000E-03 0. -1.
    9900012    2    1    2    0    0  0.40038078349E+02  0.28185070623E+01 -0.16511547659E+02  0.47787275283E+02  0.20000019323E+02 0.  0.
        -12    1    1    2    0    0 -0.40038078349E+02 -0.28185070623E+01  0.16511547659E+02  0.43400724717E+02  0.00000000000E+00 0.  1.
         11    1    3    3    0    0 -0.33135392080E+00  0.23811500349E+01 -0.13945016828E+01  0.27792635920E+01  0.51100000000E-03 0. -1.
        -11    1    3    3    0    0  0.31142024965E+02 -0.49878962221E+01 -0.12908843512E+02  0.34078483956E+02  0.51100000000E-03 0.  1.
        -12    1    3    3    0    0  0.92274073048E+01  0.54252532495E+01 -0.22082024636E+01  0.10929527735E+02  0.00000000000E+00 0.  1.
</event>
<event>
 7    1  0.2935819E-010  0.4778727E+02  0.7816164E-02  0.1312668E+00
        -11   -1    0    0    0    0  0.00000000000E+00  0.00000000000E+00  0.45593999997E+02  0.45594000000E+02  0.51100000000E-03 0.  1.
         11   -1    0    0    0    0 -0.00000000000E+00 -0.00000000000E+00 -0.45593999997E+02  0.45594000000E+02  0.51100000000E-03 0. -1.
    9900012    2    1    2    0    0  0.58870538592E+01  0.13149560873E+02 -0.40939649009E+02  0.47787271720E+02  0.20000003080E+02 0.  0.
        -12    1    1    2    0    0 -0.58870538592E+01 -0.13149560873E+02  0.40939649009E+02  0.43400728280E+02  0.00000000000E+00 0.  1.
         11    1    3    3    0    0  0.17478627756E+01 -0.36107857074E+01 -0.91536383689E+01  0.99940929231E+01  0.51100000000E-03 0. -1.
        -11    1    3    3    0    0  0.26132788600E+01  0.11946148788E+02 -0.30066573945E+02  0.32458258831E+02  0.51100000000E-03 0.  1.
        -12    1    3    3    0    0  0.15259122236E+01  0.48141977924E+01 -0.17194366949E+01  0.53349199662E+01  0.00000000000E+00 0.  1.
</event>
<event>
 7    1  0.2935819E-010  0.4778727E+02  0.7816164E-02  0.1312668E+00
        -11   -1    0    0    0    0  0.00000000000E+00  0.00000000000E+00  0.45593999997E+02  0.45594000000E+02  0.51100000000E-03 0.  1.
         11   -1    0    0    0    0 -0.00000000000E+00 -0.00000000000E+00 -0.45593999997E+02  0.45594000000E+02  0.51100000000E-03 0. -1.
    9900012    2    1    2    0    0  0.29612990984E+02  0.22175698923E+02 -0.22692128484E+02  0.47787267830E+02  0.19999985345E+02 0.  0.
        -12    1    1    2    0    0 -0.29612990984E+02 -0.22175698923E+02  0.22692128484E+02  0.43400732170E+02  0.00000000000E+00 0.  1.
         11    1    3    3    0    0  0.20868883068E+02  0.95923398148E+01 -0.16962891396E+02  0.28552809816E+02  0.51100000000E-03 0. -1.
        -11    1    3    3    0    0  0.27806506281E+01  0.48507156757E+01  0.28143025303E+01  0.62595334870E+01  0.51100000000E-03 0.  1.
        -12    1    3    3    0    0  0.59634572882E+01  0.77326434322E+01 -0.85435396188E+01  0.12974924528E+02  0.00000000000E+00 0.  1.
</event>
<event>
 7    1  0.2935819E-010  0.4778727E+02  0.7816164E-02  0.1312668E+00
        -11   -1    0    0    0    0  0.00000000000E+00  0.00000000000E+00  0.45593999997E+02  0.45594000000E+02  0.51100000000E-03 0.  1.
         11   -1    0    0    0    0 -0.00000000000E+00 -0.00000000000E+00 -0.45593999997E+02  0.45594000000E+02  0.51100000000E-03 0. -1.
    9900012    2    1    2    0    0  0.14806858716E+02 -0.25228108505E+02 -0.32061236982E+02  0.47787269123E+02  0.19999991241E+02 0.  0.
        -12    1    1    2    0    0 -0.14806858716E+02  0.25228108505E+02  0.32061236982E+02  0.43400730877E+02  0.00000000000E+00 0.  1.
         11    1    3    3    0    0  0.23090587958E+01  0.23913052481E+01  0.35809248143E+00  0.33434000357E+01  0.51100000000E-03 0.  1.
        -11    1    3    3    0    0  0.10167355480E+02 -0.23104782123E+02 -0.25743252227E+02  0.36054418729E+02  0.51100000000E-03 0. -1.
        -12    1    3    3    0    0  0.23304444403E+01 -0.45146316299E+01 -0.66760772366E+01  0.83894503582E+01  0.00000000000E+00 0.  1.
</event>
<event>
 7    1  0.2935819E-010  0.4778727E+02  0.7816164E-02  0.1312668E+00
        -11   -1    0    0    0    0  0.00000000000E+00  0.00000000000E+00  0.45593999997E+02  0.45594000000E+02  0.51100000000E-03 0.  1.
         11   -1    0    0    0    0 -0.00000000000E+00 -0.00000000000E+00 -0.45593999997E+02  0.45594000000E+02  0.51100000000E-03 0. -1.
    9900012    2    1    2    0    0 -0.27499372284E+02 -0.14127633546E+02 -0.30460098615E+02  0.47787272895E+02  0.20000008437E+02 0.  0.
        -12    1    1    2    0    0  0.27499372284E+02  0.14127633546E+02  0.30460098615E+02  0.43400727105E+02  0.00000000000E+00 0.  1.
         11    1    3    3    0    0 -0.73460561871E+01 -0.12337826100E+02 -0.95298791569E+01  0.17233835655E+02  0.51100000000E-03 0. -1.
        -11    1    3    3    0    0  0.79214554371E+00  0.69343020126E+00 -0.42068221595E+00  0.11337168052E+01  0.51100000000E-03 0.  1.
         12    1    3    3    0    0 -0.20945461641E+02 -0.24832376469E+01 -0.20509537242E+02  0.29419720434E+02  0.00000000000E+00 0. -1.
</event>
<event>
 7    1  0.2935819E-010  0.4778723E+02  0.7816164E-02  0.1312668E+00
        -11   -1    0    0    0    0  0.00000000000E+00  0.00000000000E+00  0.45593999997E+02  0.45594000000E+02  0.51100000000E-03 0. -1.
         11   -1    0    0    0    0 -0.00000000000E+00 -0.00000000000E+00 -0.45593999997E+02  0.45594000000E+02  0.51100000000E-03 0.  1.
    9900012    2    1    2    0    0 -0.94504978500E+00 -0.41842575987E+02  0.11486207520E+02  0.47787225266E+02  0.19999791279E+02 0.  0.
        -12    1    1    2    0    0  0.94504978500E+00  0.41842575987E+02 -0.11486207520E+02  0.43400774734E+02  0.00000000000E+00 0.  1.
         11    1    3    3    0    0  0.31236937047E+01 -0.13229238567E+02  0.10421729604E+02  0.17128416845E+02  0.51100000000E-03 0. -1.
        -11    1    3    3    0    0 -0.47721694871E+01 -0.28055232430E+02 -0.92800798189E+00  0.28473336077E+02  0.51100000000E-03 0.  1.
        -12    1    3    3    0    0  0.70342599738E+00 -0.55810498970E+00  0.19924858974E+01  0.21854723436E+01  0.00000000000E+00 0.  1.
</event>
<event>
 7    1  0.2935819E-010  0.4778727E+02  0.7816164E-02  0.1312668E+00
        -11   -1    0    0    0    0  0.00000000000E+00  0.00000000000E+00  0.45593999997E+02  0.45594000000E+02  0.51100000000E-03 0.  1.
         11   -1    0    0    0    0 -0.00000000000E+00 -0.00000000000E+00 -0.45593999997E+02  0.45594000000E+02  0.51100000000E-03 0. -1.
    9900012    2    1    2    0    0  0.25468291054E+02 -0.28612452427E+02 -0.20403855192E+02  0.47787267405E+02  0.19999983405E+02 0.  0.
        -12    1    1    2    0    0 -0.25468291054E+02  0.28612452427E+02  0.20403855192E+02  0.43400732595E+02  0.00000000000E+00 0.  1.
         11    1    3    3    0    0  0.59586758365E+01 -0.38361446790E+01 -0.12561662201E+02  0.14422800742E+02  0.51100000000E-03 0. -1.
        -11    1    3    3    0    0  0.26548256637E+01 -0.62793951770E+01  0.85690241065E+00  0.68711851304E+01  0.51100000000E-03 0.  1.
         12    1    3    3    0    0  0.16854789553E+02 -0.18496912571E+02 -0.86990954023E+01  0.26493281533E+02  0.00000000000E+00 0. -1.
</event>
<event>
 7    1  0.2935819E-010  0.4778727E+02  0.7816164E-02  0.1312668E+00
        -11   -1    0    0    0    0  0.00000000000E+00  0.00000000000E+00  0.45593999997E+02  0.45594000000E+02  0.51100000000E-03 0.  1.
         11   -1    0    0    0    0 -0.00000000000E+00 -0.00000000000E+00 -0.45593999997E+02  0.45594000000E+02  0.51100000000E-03 0. -1.
    9900012    2    1    2    0    0  0.39007248831E+02  0.16191911871E+02 -0.99939849616E+01  0.47787271817E+02  0.20000003520E+02 0.  0.
        -12    1    1    2    0    0 -0.39007248831E+02 -0.16191911871E+02  0.99939849616E+01  0.43400728183E+02  0.00000000000E+00 0.  1.
         11    1    3    3    0    0  0.21918970512E+02  0.22226687687E+01 -0.39395054303E+01  0.22380822774E+02  0.51100000000E-03 0. -1.
        -11    1    3    3    0    0  0.96704679677E+01  0.13552908663E+02 -0.15575425704E+01  0.16721998178E+02  0.51100000000E-03 0.  1.
        -12    1    3    3    0    0  0.74178103520E+01  0.41633443933E+00 -0.44969369609E+01  0.86844508643E+01  0.00000000000E+00 0.  1.
</event>
<event>
 7    1  0.2935819E-010  0.4778727E+02  0.7816164E-02  0.1312668E+00
        -11   -1    0    0    0    0  0.00000000000E+00  0.00000000000E+00  0.45593999997E+02  0.45594000000E+02  0.51100000000E-03 0. -1.
         11   -1    0    0    0    0 -0.00000000000E+00 -0.00000000000E+00 -0.45593999997E+02  0.45594000000E+02  0.51100000000E-03 0.  1.
    9900012    2    1    2    0    0  0.50596961590E+01 -0.27382144661E+02  0.33290251770E+02  0.47787271500E+02  0.20000002076E+02 0.  0.
        -12    1    1    2    0    0 -0.50596961590E+01  0.27382144661E+02 -0.33290251770E+02  0.43400728500E+02  0.00000000000E+00 0.  1.
         11    1    3    3    0    0  0.45738307258E+00 -0.44332186297E+01  0.15165056328E+02  0.15806377207E+02  0.51100000000E-03 0. -1.
        -11    1    3    3    0    0  0.59108761550E+01 -0.23741410682E+02  0.18129372356E+02  0.30451062056E+02  0.51100000000E-03 0.  1.
        -12    1    3    3    0    0 -0.13085630685E+01  0.79248465102E+00 -0.41769139357E-02  0.15298322369E+01  0.00000000000E+00 0.  1.
</event>
<event>
 7    1  0.2935819E-010  0.4778727E+02  0.7816164E-02  0.1312668E+00
        -11   -1    0    0    0    0  0.00000000000E+00  0.00000000000E+00  0.45593999997E+02  0.45594000000E+02  0.51100000000E-03 0.  1.
         11   -1    0    0    0    0 -0.00000000000E+00 -0.00000000000E+00 -0.45593999997E+02  0.45594000000E+02  0.51100000000E-03 0. -1.
    9900012    2    1    2    0    0  0.15074231641E+02  0.40610956086E+02 -0.26722798360E+01  0.47787270820E+02  0.19999998979E+02 0.  0.
        -12    1    1    2    0    0 -0.15074231641E+02 -0.40610956086E+02  0.26722798360E+01  0.43400729180E+02  0.00000000000E+00 0.  1.
         11    1    3    3    0    0  0.11816466494E+02  0.31384417414E+02 -0.12955317195E+01  0.33560228538E+02  0.51100000000E-03 0. -1.
        -11    1    3    3    0    0  0.59012132153E+00  0.10189369589E+02  0.13468785579E+01  0.10294929718E+02  0.51100000000E-03 0.  1.
         12    1    3    3    0    0  0.26676438259E+01 -0.96283091698E+00 -0.27236266744E+01  0.39321125642E+01  0.00000000000E+00 0. -1.
</event>
<event>
 7    1  0.2935819E-010  0.4778727E+02  0.7816164E-02  0.1312668E+00
        -11   -1    0    0    0    0  0.00000000000E+00  0.00000000000E+00  0.45593999997E+02  0.45594000000E+02  0.51100000000E-03 0. -1.
         11   -1    0    0    0    0 -0.00000000000E+00 -0.00000000000E+00 -0.45593999997E+02  0.45594000000E+02  0.51100000000E-03 0.  1.
    9900012    2    1    2    0    0  0.28905625292E+02 -0.25563953380E+02  0.19863844170E+02  0.47787271997E+02  0.20000004344E+02 0.  0.
        -12    1    1    2    0    0 -0.28905625292E+02  0.25563953380E+02 -0.19863844170E+02  0.43400728003E+02  0.00000000000E+00 0.  1.
         11    1    3    3    0    0  0.11629034350E+02 -0.13872167457E+02  0.19197750910E+02  0.26386077960E+02  0.51100000000E-03 0. -1.
        -11    1    3    3    0    0  0.13484861210E+02 -0.95912767154E+01  0.24222775625E+01  0.16724278751E+02  0.51100000000E-03 0.  1.
         12    1    3    3    0    0  0.37917297323E+01 -0.21005092082E+01 -0.17561843019E+01  0.46769152867E+01  0.00000000000E+00 0. -1.
</event>
<event>
 7    1  0.2935819E-010  0.4778726E+02  0.7816164E-02  0.1312668E+00
        -11   -1    0    0    0    0  0.00000000000E+00  0.00000000000E+00  0.45593999997E+02  0.45594000000E+02  0.51100000000E-03 0.  1.
         11   -1    0    0    0    0 -0.00000000000E+00 -0.00000000000E+00 -0.45593999997E+02  0.45594000000E+02  0.51100000000E-03 0. -1.
    9900012    2    1    2    0    0 -0.20906832521E+02  0.37513218996E+02 -0.62679400726E+01  0.47787259013E+02  0.19999945145E+02 0.  0.
        -12    1    1    2    0    0  0.20906832521E+02 -0.37513218996E+02  0.62679400726E+01  0.43400740987E+02  0.00000000000E+00 0.  1.
         11    1    3    3    0    0 -0.10275500738E+02  0.22272331815E+02  0.14398848428E+01  0.24570631830E+02  0.51100000000E-03 0. -1.
        -11    1    3    3    0    0  0.73158269248E+00  0.59978253873E+01 -0.59223271931E+01  0.84606785931E+01  0.51100000000E-03 0.  1.
         12    1    3    3    0    0 -0.11362914475E+02  0.92430617931E+01 -0.17854977223E+01  0.14755948590E+02  0.00000000000E+00 0. -1.
</event>
<event>
 7    1  0.2935819E-010  0.4778727E+02  0.7816164E-02  0.1312668E+00
        -11   -1    0    0    0    0  0.00000000000E+00  0.00000000000E+00  0.45593999997E+02  0.45594000000E+02  0.51100000000E-03 0.  1.
         11   -1    0    0    0    0 -0.00000000000E+00 -0.00000000000E+00 -0.45593999997E+02  0.45594000000E+02  0.51100000000E-03 0. -1.
    9900012    2    1    2    0    0  0.37296642924E+02  0.21230573985E+02 -0.64688906329E+01  0.47787269693E+02  0.19999993839E+02 0.  0.
        -12    1    1    2    0    0 -0.37296642924E+02 -0.21230573985E+02  0.64688906329E+01  0.43400730307E+02  0.00000000000E+00 0.  1.
         11    1    3    3    0    0  0.16390811990E+02  0.56285538679E+01  0.38572944038E+01  0.17754381339E+02  0.51100000000E-03 0. -1.
        -11    1    3    3    0    0  0.16209700716E+02  0.16748863561E+02 -0.92739745616E+01  0.25085562229E+02  0.51100000000E-03 0.  1.
        -12    1    3    3    0    0  0.46961302182E+01 -0.11468434442E+01 -0.10522104751E+01  0.49473261259E+01  0.00000000000E+00 0.  1.
</event>
<event>
 7    1  0.2935819E-010  0.4778727E+02  0.7816164E-02  0.1312668E+00
        -11   -1    0    0    0    0  0.00000000000E+00  0.00000000000E+00  0.45593999997E+02  0.45594000000E+02  0.51100000000E-03 0.  1.
         11   -1    0    0    0    0 -0.00000000000E+00 -0.00000000000E+00 -0.45593999997E+02  0.45594000000E+02  0.51100000000E-03 0. -1.
    9900012    2    1    2    0    0 -0.25247598307E+02  0.33334135248E+02 -0.11619688865E+02  0.47787274633E+02  0.20000016364E+02 0.  0.
        -12    1    1    2    0    0  0.25247598307E+02 -0.33334135248E+02  0.11619688865E+02  0.43400725367E+02  0.00000000000E+00 0.  1.
         11    1    3    3    0    0 -0.19398216345E+02  0.13571773962E+02 -0.40119693767E+01  0.24012074970E+02  0.51100000000E-03 0. -1.
        -11    1    3    3    0    0 -0.49279883581E+01  0.17806875059E+02 -0.30438205866E+01  0.18725242659E+02  0.51100000000E-03 0.  1.
        -12    1    3    3    0    0 -0.92139360401E+00  0.19554862274E+01 -0.45638989013E+01  0.50499570038E+01  0.00000000000E+00 0.  1.
</event>
<event>
 7    1  0.2935819E-010  0.4778726E+02  0.7816164E-02  0.1312668E+00
        -11   -1    0    0    0    0  0.00000000000E+00  0.00000000000E+00  0.45593999997E+02  0.45594000000E+02  0.51100000000E-03 0.  1.
         11   -1    0    0    0    0 -0.00000000000E+00 -0.00000000000E+00 -0.45593999997E+02  0.45594000000E+02  0.51100000000E-03 0. -1.
    9900012    2    1    2    0    0 -0.24625455029E+02 -0.20012382785E+02 -0.29609387357E+02  0.47787258996E+02  0.19999945064E+02 0.  0.
        -12    1    1    2    0    0  0.24625455029E+02  0.20012382785E+02  0.29609387357E+02  0.43400741004E+02  0.00000000000E+00 0.  1.
         11    1    3    3    0    0  0.15443689911E+01 -0.77705040646E+00 -0.15620458323E+00  0.17358810580E+01  0.51100000000E-03 0.  1.
        -11    1    3    3    0    0 -0.18880180292E+02 -0.16172077069E+02 -0.28905781791E+02  0.38125339419E+02  0.51100000000E-03 0. -1.
         12    1    3    3    0    0 -0.72896437276E+01 -0.30632553092E+01 -0.54740098274E+00  0.79260385187E+01  0.00000000000E+00 0. -1.
</event>
<event>
 7    1  0.2935819E-010  0.4778727E+02  0.7816164E-02  0.1312668E+00
        -11   -1    0    0    0    0  0.00000000000E+00  0.00000000000E+00  0.45593999997E+02  0.45594000000E+02  0.51100000000E-03 0.  1.
         11   -1    0    0    0    0 -0.00000000000E+00 -0.00000000000E+00 -0.45593999997E+02  0.45594000000E+02  0.51100000000E-03 0. -1.
    9900012    2    1    2    0    0  0.16532488062E+02 -0.33558745264E+02  0.22002517215E+02  0.47787270639E+02  0.19999998153E+02 0.  0.
        -12    1    1    2    0    0 -0.16532488062E+02  0.33558745264E+02 -0.22002517215E+02  0.43400729361E+02  0.00000000000E+00 0.  1.
         11    1    3    3    0    0 -0.15580511580E+01 -0.17902550062E+02  0.69660445601E+01  0.19273157479E+02  0.51100000000E-03 0. -1.
        -11    1    3    3    0    0  0.12865393627E+02 -0.13027465461E+02  0.12294289433E+02  0.22054087205E+02  0.51100000000E-03 0.  1.
         12    1    3    3    0    0  0.52251455932E+01 -0.26287297411E+01  0.27421832223E+01  0.64600259556E+01  0.00000000000E+00 0. -1.
</event>
<event>
 7    1  0.2935819E-010  0.4778727E+02  0.7816164E-02  0.1312668E+00
        -11   -1    0    0    0    0  0.00000000000E+00  0.00000000000E+00  0.45593999997E+02  0.45594000000E+02  0.51100000000E-03 0. -1.
         11   -1    0    0    0    0 -0.00000000000E+00 -0.00000000000E+00 -0.45593999997E+02  0.45594000000E+02  0.51100000000E-03 0.  1.
    9900012    2    1    2    0    0 -0.22263310272E+02 -0.36009521747E+02  0.95541773279E+01  0.47787274832E+02  0.20000017269E+02 0.  0.
        -12    1    1    2    0    0  0.22263310272E+02  0.36009521747E+02 -0.95541773279E+01  0.43400725168E+02  0.00000000000E+00 0.  1.
         11    1    3    3    0    0  0.40345276620E+00 -0.39453900968E+01  0.19239731522E+01  0.44080097666E+01  0.51100000000E-03 0. -1.
        -11    1    3    3    0    0 -0.13532975379E+02 -0.27939751275E+02  0.44500109819E+00  0.31047852586E+02  0.51100000000E-03 0.  1.
        -12    1    3    3    0    0 -0.91337876594E+01 -0.41243803743E+01  0.71852030775E+01  0.12331412480E+02  0.00000000000E+00 0.  1.
</event>
<event>
 7    1  0.2935819E-010  0.4778727E+02  0.7816164E-02  0.1312668E+00
        -11   -1    0    0    0    0  0.00000000000E+00  0.00000000000E+00  0.45593999997E+02  0.45594000000E+02  0.51100000000E-03 0.  1.
         11   -1    0    0    0    0 -0.00000000000E+00 -0.00000000000E+00 -0.45593999997E+02  0.45594000000E+02  0.51100000000E-03 0. -1.
    9900012    2    1    2    0    0 -0.18090967252E+02  0.17925017170E+02 -0.35143047362E+02  0.47787272880E+02  0.20000008369E+02 0.  0.
        -12    1    1    2    0    0  0.18090967252E+02 -0.17925017170E+02  0.35143047362E+02  0.43400727120E+02  0.00000000000E+00 0.  1.
         11    1    3    3    0    0 -0.13668224242E+02  0.24053079912E+01 -0.17651068008E+02  0.22453642523E+02  0.51100000000E-03 0. -1.
        -11    1    3    3    0    0 -0.63353596641E+01  0.13982466722E+02 -0.12595897651E+02  0.19857059088E+02  0.51100000000E-03 0.  1.
         12    1    3    3    0    0  0.19126166534E+01  0.15372424564E+01 -0.48960817027E+01  0.54765712697E+01  0.00000000000E+00 0. -1.
</event>
<event>
 7    1 -0.2935819E-010  0.4778727E+02  0.7816164E-02  0.1312668E+00
        -11   -1    0    0    0    0  0.00000000000E+00  0.00000000000E+00  0.45593999997E+02  0.45594000000E+02  0.51100000000E-03 0.  1.
         11   -1    0    0    0    0 -0.00000000000E+00 -0.00000000000E+00 -0.45593999997E+02  0.45594000000E+02  0.51100000000E-03 0. -1.
    9900012    2    1    2    0    0  0.36045152535E+02 -0.19189515786E+02 -0.14701462279E+02  0.47787268088E+02  0.19999986520E+02 0.  0.
        -12    1    1    2    0    0 -0.36045152535E+02  0.19189515786E+02  0.14701462279E+02  0.43400731912E+02  0.00000000000E+00 0.  1.
         11    1    3    3    0    0  0.15933980322E+02 -0.96299948880E+01 -0.15038748845E+02  0.23933083745E+02  0.51100000000E-03 0. -1.
        -11    1    3    3    0    0  0.12849119234E+02 -0.30313991867E+01 -0.29931817848E+01  0.13536926666E+02  0.51100000000E-03 0.  1.
         12    1    3    3    0    0  0.72620529790E+01 -0.65281217108E+01  0.33304683500E+01  0.10317257677E+02  0.00000000000E+00 0. -1.
</event>
<event>
 7    1  0.2935819E-010  0.4778727E+02  0.7816164E-02  0.1312668E+00
        -11   -1    0    0    0    0  0.00000000000E+00  0.00000000000E+00  0.45593999997E+02  0.45594000000E+02  0.51100000000E-03 0.  1.
         11   -1    0    0    0    0 -0.00000000000E+00 -0.00000000000E+00 -0.45593999997E+02  0.45594000000E+02  0.51100000000E-03 0. -1.
    9900012    2    1    2    0    0  0.26263263197E+02 -0.19057366638E+02 -0.28821539676E+02  0.47787269981E+02  0.19999995150E+02 0.  0.
        -12    1    1    2    0    0 -0.26263263197E+02  0.19057366638E+02  0.28821539676E+02  0.43400730019E+02  0.00000000000E+00 0.  1.
         11    1    3    3    0    0  0.20525185034E+02 -0.17733519362E+02 -0.16778796435E+02  0.31894967310E+02  0.51100000000E-03 0. -1.
        -11    1    3    3    0    0  0.22196969736E+01  0.31366863441E+01 -0.19467342242E+01  0.43076246675E+01  0.51100000000E-03 0.  1.
         12    1    3    3    0    0  0.35183811894E+01 -0.44605336194E+01 -0.10096009017E+02  0.11584678003E+02  0.00000000000E+00 0. -1.
</event>
<event>
 7    1  0.2935819E-010  0.4778727E+02  0.7816164E-02  0.1312668E+00
        -11   -1    0    0    0    0  0.00000000000E+00  0.00000000000E+00  0.45593999997E+02  0.45594000000E+02  0.51100000000E-03 0. -1.
         11   -1    0    0    0    0 -0.00000000000E+00 -0.00000000000E+00 -0.45593999997E+02  0.45594000000E+02  0.51100000000E-03 0.  1.
    9900012    2    1    2    0    0 -0.18008640399E+02  0.39109373587E+02 -0.54561178131E+01  0.47787268981E+02  0.19999990590E+02 0.  0.
        -12    1    1    2    0    0  0.18008640399E+02 -0.39109373587E+02  0.54561178131E+01  0.43400731019E+02  0.00000000000E+00 0.  1.
         11    1    3    3    0    0 -0.16707803661E+01  0.13217044797E+02 -0.12095152295E+01  0.13377021625E+02  0.51100000000E-03 0. -1.
        -11    1    3    3    0    0  0.27047961706E+01  0.21851001732E+01 -0.17691513514E+01  0.39013435964E+01  0.51100000000E-03 0.  1.
        -12    1    3    3    0    0 -0.19042656204E+02  0.23707228617E+02 -0.24774512322E+01  0.30508903759E+02  0.00000000000E+00 0.  1.
</event>
<event>
 7    1  0.2935819E-010  0.4778727E+02  0.7816164E-02  0.1312668E+00
        -11   -1    0    0    0    0  0.00000000000E+00  0.00000000000E+00  0.45593999997E+02  0.45594000000E+02  0.51100000000E-03 0.  1.
         11   -1    0    0    0    0 -0.00000000000E+00 -0.00000000000E+00 -0.45593999997E+02  0.45594000000E+02  0.51100000000E-03 0. -1.
    9900012    2    1    2    0    0  0.44052449829E+01  0.21399678334E+02 -0.37500283780E+02  0.47787266138E+02  0.19999977630E+02 0.  0.
        -12    1    1    2    0    0 -0.44052449829E+01 -0.21399678334E+02  0.37500283780E+02  0.43400733862E+02  0.00000000000E+00 0.  1.
         11    1    3    3    0    0 -0.29980377538E+01  0.10020684050E+02 -0.25513391621E+02  0.27574181611E+02  0.51100000000E-03 0. -1.
        -11    1    3    3    0    0  0.60379952410E+01  0.12892835559E+02 -0.10492650645E+02  0.17685539661E+02  0.51100000000E-03 0.  1.
        -12    1    3    3    0    0  0.13652874957E+01 -0.15138412749E+01 -0.14942415132E+01  0.25275448663E+01  0.00000000000E+00 0.  1.
</event>
<event>
 7    1  0.2935819E-010  0.4778730E+02  0.7816164E-02  0.1312668E+00
        -11   -1    0    0    0    0  0.00000000000E+00  0.00000000000E+00  0.45593999997E+02  0.45594000000E+02  0.51100000000E-03 0.  1.
         11   -1    0    0    0    0 -0.00000000000E+00 -0.00000000000E+00 -0.45593999997E+02  0.45594000000E+02  0.51100000000E-03 0. -1.
    9900012    2    1    2    0    0  0.50660323027E+00 -0.74920820475E+01 -0.42746139792E+02  0.47787304068E+02  0.20000150567E+02 0.  0.
        -12    1    1    2    0    0 -0.50660323027E+00  0.74920820475E+01  0.42746139792E+02  0.43400695932E+02  0.00000000000E+00 0.  1.
         11    1    3    3    0    0  0.64141022488E+01  0.56066219240E+00 -0.15278924751E+02  0.16580126404E+02  0.51100000000E-03 0. -1.
        -11    1    3    3    0    0 -0.35425520644E+00  0.18396132851E+01 -0.48212711308E+00  0.19344561521E+01  0.51100000000E-03 0.  1.
         12    1    3    3    0    0 -0.55532438121E+01 -0.98923575250E+01 -0.26985087928E+02  0.29272721512E+02  0.00000000000E+00 0. -1.
</event>
<event>
 7    1  0.2935819E-010  0.4778728E+02  0.7816164E-02  0.1312668E+00
        -11   -1    0    0    0    0  0.00000000000E+00  0.00000000000E+00  0.45593999997E+02  0.45594000000E+02  0.51100000000E-03 0.  1.
         11   -1    0    0    0    0 -0.00000000000E+00 -0.00000000000E+00 -0.45593999997E+02  0.45594000000E+02  0.51100000000E-03 0. -1.
    9900012    2    1    2    0    0 -0.17629171459E+02  0.17204762101E+02 -0.35732771677E+02  0.47787279994E+02  0.20000040806E+02 0.  0.
        -12    1    1    2    0    0  0.17629171459E+02 -0.17204762101E+02  0.35732771677E+02  0.43400720006E+02  0.00000000000E+00 0.  1.
         11    1    3    3    0    0 -0.63069694559E+00 -0.32154646454E+01 -0.48840380820E+01  0.58813960733E+01  0.51100000000E-03 0. -1.
        -11    1    3    3    0    0 -0.67151718662E+01  0.15643786143E+02 -0.18621731699E+02  0.25230744535E+02  0.51100000000E-03 0.  1.
         12    1    3    3    0    0 -0.10283302647E+02  0.47764406032E+01 -0.12227001897E+02  0.16675139386E+02  0.00000000000E+00 0. -1.
</event>
<event>
 7    1  0.2935819E-010  0.4778727E+02  0.7816164E-02  0.1312668E+00
        -11   -1    0    0    0    0  0.00000000000E+00  0.00000000000E+00  0.45593999997E+02  0.45594000000E+02  0.51100000000E-03 0. -1.
         11   -1    0    0    0    0 -0.00000000000E+00 -0.00000000000E+00 -0.45593999997E+02  0.45594000000E+02  0.51100000000E-03 0.  1.
    9900012    2    1    2    0    0 -0.32944428528E+02 -0.19710048002E+02 -0.20243566358E+02  0.47787270257E+02  0.19999996412E+02 0.  0.
        -12    1    1    2    0    0  0.32944428528E+02  0.19710048002E+02  0.20243566358E+02  0.43400729743E+02  0.00000000000E+00 0.  1.
         11    1    3    3    0    0 -0.83097495081E+01 -0.37594231759E+01 -0.26771026341E+01  0.95053710226E+01  0.51100000000E-03 0. -1.
        -11    1    3    3    0    0 -0.21948614452E+02 -0.11443221656E+02 -0.58357680103E+01  0.25431185320E+02  0.51100000000E-03 0.  1.
        -12    1    3    3    0    0 -0.26860645682E+01 -0.45074031701E+01 -0.11730695714E+02  0.12850713915E+02  0.00000000000E+00 0.  1.
</event>
<event>
 7    1  0.2935819E-010  0.4778727E+02  0.7816164E-02  0.1312668E+00
        -11   -1    0    0    0    0  0.00000000000E+00  0.00000000000E+00  0.45593999997E+02  0.45594000000E+02  0.51100000000E-03 0.  1.
         11   -1    0    0    0    0 -0.00000000000E+00 -0.00000000000E+00 -0.45593999997E+02  0.45594000000E+02  0.51100000000E-03 0. -1.
    9900012    2    1    2    0    0  0.37954307615E+01 -0.43233086160E+02  0.34424961462E+00  0.47787267963E+02  0.19999985949E+02 0.  0.
        -12    1    1    2    0    0 -0.37954307615E+01  0.43233086160E+02 -0.34424961462E+00  0.43400732037E+02  0.00000000000E+00 0.  1.
         11    1    3    3    0    0  0.70055376516E+01 -0.23222116244E+02  0.77836372273E+01  0.25474089766E+02  0.51100000000E-03 0. -1.
        -11    1    3    3    0    0 -0.23971362037E+01 -0.44047914460E+01 -0.37347057671E+01  0.62527175764E+01  0.51100000000E-03 0.  1.
        -12    1    3    3    0    0 -0.81297068643E+00 -0.15606178470E+02 -0.37046818456E+01  0.16060460620E+02  0.00000000000E+00 0.  1.
</event>
<event>
 7    1  0.2935819E-010  0.4778727E+02  0.7816164E-02  0.1312668E+00
        -11   -1    0    0    0    0  0.00000000000E+00  0.00000000000E+00  0.45593999997E+02  0.45594000000E+02  0.51100000000E-03 0.  1.
         11   -1    0    0    0    0 -0.00000000000E+00 -0.00000000000E+00 -0.45593999997E+02  0.45594000000E+02  0.51100000000E-03 0. -1.
    9900012    2    1    2    0    0  0.39738845762E+02 -0.17402383518E+02  0.12667479225E+01  0.47787268844E+02  0.19999989968E+02 0.  0.
        -12    1    1    2    0    0 -0.39738845762E+02  0.17402383518E+02 -0.12667479225E+01  0.43400731156E+02  0.00000000000E+00 0.  1.
         11    1    3    3    0    0  0.12237695422E+02  0.19594333710E+01 -0.39108032560E+00  0.12399738403E+02  0.51100000000E-03 0. -1.
        -11    1    3    3    0    0  0.26813195237E+02 -0.14686735323E+02  0.20838024222E+01  0.30642941537E+02  0.51100000000E-03 0.  1.
        -12    1    3    3    0    0  0.68795510226E+00 -0.46750815655E+01 -0.42597417413E+00  0.47445889035E+01  0.00000000000E+00 0.  1.
</event>
<event>
 7    1  0.2935819E-010  0.4778727E+02  0.7816164E-02  0.1312668E+00
        -11   -1    0    0    0    0  0.00000000000E+00  0.00000000000E+00  0.45593999997E+02  0.45594000000E+02  0.51100000000E-03 0. -1.
         11   -1    0    0    0    0 -0.00000000000E+00 -0.00000000000E+00 -0.45593999997E+02  0.45594000000E+02  0.51100000000E-03 0.  1.
    9900012    2    1    2    0    0  0.39927120751E+02 -0.85774455802E+01  0.14692727843E+02  0.47787265034E+02  0.19999972596E+02 0.  0.
        -12    1    1    2    0    0 -0.39927120751E+02  0.85774455802E+01 -0.14692727843E+02  0.43400734966E+02  0.00000000000E+00 0.  1.
         11    1    3    3    0    0  0.93393458134E+01 -0.59386221022E+00  0.68603282521E+01  0.11603454509E+02  0.51100000000E-03 0. -1.
        -11    1    3    3    0    0  0.14362964863E+02  0.25620853151E-01  0.10638138443E+02  0.17873595214E+02  0.51100000000E-03 0.  1.
        -12    1    3    3    0    0  0.16224810074E+02 -0.80092042231E+01 -0.28057388525E+01  0.18310215311E+02  0.00000000000E+00 0.  1.
</event>
<event>
 7    1  0.2935819E-010  0.4778731E+02  0.7816164E-02  0.1312668E+00
        -11   -1    0    0    0    0  0.00000000000E+00  0.00000000000E+00  0.45593999997E+02  0.45594000000E+02  0.51100000000E-03 0.  1.
         11   -1    0    0    0    0 -0.00000000000E+00 -0.00000000000E+00 -0.45593999997E+02  0.45594000000E+02  0.51100000000E-03 0. -1.
    9900012    2    1    2    0    0  0.15778578188E+02 -0.36787344048E+02  0.16773431986E+02  0.47787306085E+02  0.20000159763E+02 0.  0.
        -12    1    1    2    0    0 -0.15778578188E+02  0.36787344048E+02 -0.16773431986E+02  0.43400693915E+02  0.00000000000E+00 0.  1.
         11    1    3    3    0    0  0.23175331972E+01 -0.37312692902E+01  0.26822785332E+00  0.44005996272E+01  0.51100000000E-03 0. -1.
        -11    1    3    3    0    0  0.23691722567E+01  0.38088099911E+00 -0.24102095458E+01  0.34010524596E+01  0.51100000000E-03 0.  1.
        -12    1    3    3    0    0  0.11091872735E+02 -0.33436955757E+02  0.18915413678E+02  0.39985653998E+02  0.00000000000E+00 0.  1.
</event>
<event>
 7    1  0.2935819E-010  0.4778727E+02  0.7816164E-02  0.1312668E+00
        -11   -1    0    0    0    0  0.00000000000E+00  0.00000000000E+00  0.45593999997E+02  0.45594000000E+02  0.51100000000E-03 0.  1.
         11   -1    0    0    0    0 -0.00000000000E+00 -0.00000000000E+00 -0.45593999997E+02  0.45594000000E+02  0.51100000000E-03 0. -1.
    9900012    2    1    2    0    0  0.18442922015E+02 -0.97268700491E+01 -0.38064024034E+02  0.47787270754E+02  0.19999998678E+02 0.  0.
        -12    1    1    2    0    0 -0.18442922015E+02  0.97268700491E+01  0.38064024034E+02  0.43400729246E+02  0.00000000000E+00 0.  1.
         11    1    3    3    0    0  0.14597081357E+02  0.73584479275E-01 -0.16059131839E+02  0.21701979507E+02  0.51100000000E-03 0. -1.
        -11    1    3    3    0    0  0.23701941449E+01 -0.81470108297E+01 -0.72367125799E+01  0.11151753897E+02  0.51100000000E-03 0.  1.
         12    1    3    3    0    0  0.14756465135E+01 -0.16534436987E+01 -0.14768179614E+02  0.14933537351E+02  0.00000000000E+00 0. -1.
</event>
<event>
 7    1  0.2935819E-010  0.4778727E+02  0.7816164E-02  0.1312668E+00
        -11   -1    0    0    0    0  0.00000000000E+00  0.00000000000E+00  0.45593999997E+02  0.45594000000E+02  0.51100000000E-03 0.  1.
         11   -1    0    0    0    0 -0.00000000000E+00 -0.00000000000E+00 -0.45593999997E+02  0.45594000000E+02  0.51100000000E-03 0. -1.
    9900012    2    1    2    0    0  0.11952230297E+02  0.38934050325E+02  0.14996899619E+02  0.47787273256E+02  0.20000010082E+02 0.  0.
        -12    1    1    2    0    0 -0.11952230297E+02 -0.38934050325E+02 -0.14996899619E+02  0.43400726744E+02  0.00000000000E+00 0.  1.
         11    1    3    3    0    0  0.43960302401E+01  0.60458130388E+01  0.73523355550E+00  0.75111587531E+01  0.51100000000E-03 0. -1.
        -11    1    3    3    0    0  0.14153089918E+01  0.44731893177E+01 -0.38116958223E+01  0.60449605058E+01  0.51100000000E-03 0.  1.
        -12    1    3    3    0    0  0.61408910652E+01  0.28415047968E+02  0.18073361886E+02  0.34231153997E+02  0.00000000000E+00 0.  1.
</event>
<event>
 7    1  0.2935819E-010  0.4778727E+02  0.7816164E-02  0.1312668E+00
        -11   -1    0    0    0    0  0.00000000000E+00  0.00000000000E+00  0.45593999997E+02  0.45594000000E+02  0.51100000000E-03 0. -1.
         11   -1    0    0    0    0 -0.00000000000E+00 -0.00000000000E+00 -0.45593999997E+02  0.45594000000E+02  0.51100000000E-03 0.  1.
    9900012    2    1    2    0    0 -0.35429877651E+02 -0.20967381957E+02  0.13737401147E+02  0.47787268131E+02  0.19999986715E+02 0.  0.
        -12    1    1    2    0    0  0.35429877651E+02  0.20967381957E+02 -0.13737401147E+02  0.43400731869E+02  0.00000000000E+00 0.  1.
         11    1    3    3    0    0 -0.10467319188E+02 -0.13873839440E+01  0.14272474184E+01  0.10654888110E+02  0.51100000000E-03 0. -1.
        -11    1    3    3    0    0 -0.56995702211E+00 -0.15819870984E+01  0.59175948037E+01  0.61518666036E+01  0.51100000000E-03 0.  1.
        -12    1    3    3    0    0 -0.24392601441E+02 -0.17998010915E+02  0.63925589250E+01  0.30980513417E+02  0.00000000000E+00 0.  1.
</event>
<event>
 7    1  0.2935819E-010  0.4778728E+02  0.7816164E-02  0.1312668E+00
        -11   -1    0    0    0    0  0.00000000000E+00  0.00000000000E+00  0.45593999997E+02  0.45594000000E+02  0.51100000000E-03 0.  1.
         11   -1    0    0    0    0 -0.00000000000E+00 -0.00000000000E+00 -0.45593999997E+02  0.45594000000E+02  0.51100000000E-03 0. -1.
    9900012    2    1    2    0    0 -0.29021159933E+02 -0.29963639329E+02 -0.11982293448E+02  0.47787276942E+02  0.20000026888E+02 0.  0.
        -12    1    1    2    0    0  0.29021159933E+02  0.29963639329E+02  0.11982293448E+02  0.43400723058E+02  0.00000000000E+00 0.  1.
         11    1    3    3    0    0 -0.54436516123E+01  0.67025338361E+00 -0.30040223090E+00  0.54929795409E+01  0.51100000000E-03 0. -1.
        -11    1    3    3    0    0  0.63353689119E+00 -0.46423155029E+00  0.12762004203E+01  0.14985218379E+01  0.51100000000E-03 0.  1.
         12    1    3    3    0    0 -0.24211045212E+02 -0.30169661163E+02 -0.12958091637E+02  0.40795775563E+02  0.00000000000E+00 0. -1.
</event>
<event>
 7    1  0.2935819E-010  0.4778728E+02  0.7816164E-02  0.1312668E+00
        -11   -1    0    0    0    0  0.00000000000E+00  0.00000000000E+00  0.45593999997E+02  0.45594000000E+02  0.51100000000E-03 0.  1.
         11   -1    0    0    0    0 -0.00000000000E+00 -0.00000000000E+00 -0.45593999997E+02  0.45594000000E+02  0.51100000000E-03 0. -1.
    9900012    2    1    2    0    0 -0.10262584396E+02  0.41821266077E+02 -0.54114509754E+01  0.47787277236E+02  0.20000028231E+02 0.  0.
        -12    1    1    2    0    0  0.10262584396E+02 -0.41821266077E+02  0.54114509754E+01  0.43400722764E+02  0.00000000000E+00 0.  1.
         11    1    3    3    0    0  0.64899156684E+00  0.13253654917E+02 -0.68971094825E+01  0.14954954971E+02  0.51100000000E-03 0. -1.
        -11    1    3    3    0    0 -0.92689282637E+01  0.28052718046E+02  0.39699654794E+01  0.29809874993E+02  0.51100000000E-03 0.  1.
        -12    1    3    3    0    0 -0.16426476993E+01  0.51489311413E+00 -0.24843069722E+01  0.30224472725E+01  0.00000000000E+00 0.  1.
</event>
<event>
 7    1  0.2935819E-010  0.4778727E+02  0.7816164E-02  0.1312668E+00
        -11   -1    0    0    0    0  0.00000000000E+00  0.00000000000E+00  0.45593999997E+02  0.45594000000E+02  0.51100000000E-03 0.  1.
         11   -1    0    0    0    0 -0.00000000000E+00 -0.00000000000E+00 -0.45593999997E+02  0.45594000000E+02  0.51100000000E-03 0. -1.
    9900012    2    1    2    0    0 -0.17647121477E+02  0.27570566594E+02 -0.28496776971E+02  0.47787270324E+02  0.19999996713E+02 0.  0.
        -12    1    1    2    0    0  0.17647121477E+02 -0.27570566594E+02  0.28496776971E+02  0.43400729676E+02  0.00000000000E+00 0.  1.
         11    1    3    3    0    0 -0.52670948151E+01  0.15774665028E+02 -0.58636000478E+01  0.17634175634E+02  0.51100000000E-03 0.  1.
        -11    1    3    3    0    0 -0.40000359429E+01  0.29800833924E+01 -0.14965199060E+02  0.15774611493E+02  0.51100000000E-03 0. -1.
         12    1    3    3    0    0 -0.83799907192E+01  0.88158181738E+01 -0.76679778623E+01  0.14378483196E+02  0.00000000000E+00 0. -1.
</event>
<event>
 7    1  0.2935819E-010  0.4778727E+02  0.7816164E-02  0.1312668E+00
        -11   -1    0    0    0    0  0.00000000000E+00  0.00000000000E+00  0.45593999997E+02  0.45594000000E+02  0.51100000000E-03 0. -1.
         11   -1    0    0    0    0 -0.00000000000E+00 -0.00000000000E+00 -0.45593999997E+02  0.45594000000E+02  0.51100000000E-03 0.  1.
    9900012    2    1    2    0    0  0.27345363578E+02 -0.15001371164E+02  0.30179685738E+02  0.47787268701E+02  0.19999989316E+02 0.  0.
        -12    1    1    2    0    0 -0.27345363578E+02  0.15001371164E+02 -0.30179685738E+02  0.43400731299E+02  0.00000000000E+00 0.  1.
         11    1    3    3    0    0  0.14441022655E+02 -0.97430462252E+01  0.19594530719E+02  0.26218613988E+02  0.51100000000E-03 0. -1.
        -11    1    3    3    0    0  0.10409265807E+02 -0.45426312403E-01  0.11077214791E+01  0.10468138580E+02  0.51100000000E-03 0.  1.
        -12    1    3    3    0    0  0.24950751156E+01 -0.52128986266E+01  0.94774335404E+01  0.11100516134E+02  0.00000000000E+00 0.  1.
</event>
<event>
 7    1  0.2935819E-010  0.4778728E+02  0.7816164E-02  0.1312668E+00
        -11   -1    0    0    0    0  0.00000000000E+00  0.00000000000E+00  0.45593999997E+02  0.45594000000E+02  0.51100000000E-03 0.  1.
         11   -1    0    0    0    0 -0.00000000000E+00 -0.00000000000E+00 -0.45593999997E+02  0.45594000000E+02  0.51100000000E-03 0. -1.
    9900012    2    1    2    0    0  0.33127368567E+02 -0.18977071528E+02 -0.20641486706E+02  0.47787276902E+02  0.20000026707E+02 0.  0.
        -12    1    1    2    0    0 -0.33127368567E+02  0.18977071528E+02  0.20641486706E+02  0.43400723098E+02  0.00000000000E+00 0.  1.
         11    1    3    3    0    0  0.24580888896E+02 -0.13780007834E+02 -0.12937261655E+02  0.31007764418E+02  0.51100000000E-03 0. -1.
        -11    1    3    3    0    0  0.10672959226E+02 -0.56643330038E+01 -0.44751756057E+01  0.12885027123E+02  0.51100000000E-03 0.  1.
         12    1    3    3    0    0 -0.21264795538E+01  0.46726931015E+00 -0.32290494460E+01  0.38944853608E+01  0.00000000000E+00 0. -1.
</event>
<event>
 7    1  0.2935819E-010  0.4778728E+02  0.7816164E-02  0.1312668E+00
        -11   -1    0    0    0    0  0.00000000000E+00  0.00000000000E+00  0.45593999997E+02  0.45594000000E+02  0.51100000000E-03 0.  1.
         11   -1    0    0    0    0 -0.00000000000E+00 -0.00000000000E+00 -0.45593999997E+02  0.45594000000E+02  0.51100000000E-03 0. -1.
    9900012    2    1    2    0    0 -0.34715420544E+02 -0.10847952340E+02 -0.23680884563E+02  0.47787276651E+02  0.20000025563E+02 0.  0.
        -12    1    1    2    0    0  0.34715420544E+02  0.10847952340E+02  0.23680884563E+02  0.43400723349E+02  0.00000000000E+00 0.  1.
         11    1    3    3    0    0 -0.25973451105E+02 -0.99350462503E+01 -0.13986663128E+02  0.31127994667E+02  0.51100000000E-03 0. -1.
        -11    1    3    3    0    0 -0.11200721377E+01 -0.29031802125E+01 -0.80246101574E+01  0.86068220256E+01  0.51100000000E-03 0.  1.
         12    1    3    3    0    0 -0.76218973017E+01  0.19902741227E+01 -0.16696112774E+01  0.80524599582E+01  0.00000000000E+00 0. -1.
</event>
<event>
 7    1  0.2935819E-010  0.4778728E+02  0.7816164E-02  0.1312668E+00
        -11   -1    0    0    0    0  0.00000000000E+00  0.00000000000E+00  0.45593999997E+02  0.45594000000E+02  0.51100000000E-03 0. -1.
         11   -1    0    0    0    0 -0.00000000000E+00 -0.00000000000E+00 -0.45593999997E+02  0.45594000000E+02  0.51100000000E-03 0.  1.
    9900012    2    1    2    0    0  0.33187111897E+02 -0.27647847686E+02  0.42231410937E+01  0.47787276521E+02  0.20000024972E+02 0.  0.
        -12    1    1    2    0    0 -0.33187111897E+02  0.27647847686E+02 -0.42231410937E+01  0.43400723479E+02  0.00000000000E+00 0.  1.
         11    1    3    3    0    0  0.24000627916E+01 -0.42709501282E+01  0.14500889965E+01  0.51092146912E+01  0.51100000000E-03 0. -1.
        -11    1    3    3    0    0  0.25655720922E+02 -0.26195788703E+02  0.32122548568E+01  0.36806982263E+02  0.51100000000E-03 0.  1.
        -12    1    3    3    0    0  0.51313281838E+01  0.28188911452E+01 -0.43920275960E+00  0.58710795670E+01  0.00000000000E+00 0.  1.
</event>
<event>
 7    1  0.2935819E-010  0.4778729E+02  0.7816164E-02  0.1312668E+00
        -11   -1    0    0    0    0  0.00000000000E+00  0.00000000000E+00  0.45593999997E+02  0.45594000000E+02  0.51100000000E-03 0.  1.
         11   -1    0    0    0    0 -0.00000000000E+00 -0.00000000000E+00 -0.45593999997E+02  0.45594000000E+02  0.51100000000E-03 0. -1.
    9900012    2    1    2    0    0  0.32196949011E+02  0.15599728727E+02 -0.24568804229E+02  0.47787294899E+02  0.20000108763E+02 0.  0.
        -12    1    1    2    0    0 -0.32196949011E+02 -0.15599728727E+02  0.24568804229E+02  0.43400705101E+02  0.00000000000E+00 0.  1.
         11    1    3    3    0    0  0.17341756594E+02  0.13593600658E+02 -0.15880894869E+02  0.27161099438E+02  0.51100000000E-03 0. -1.
        -11    1    3    3    0    0  0.56499833729E+01 -0.24181098322E+01  0.13649731187E+01  0.62954522594E+01  0.51100000000E-03 0.  1.
        -12    1    3    3    0    0  0.92052090444E+01  0.44242379017E+01 -0.10052882479E+02  0.14330743201E+02  0.00000000000E+00 0.  1.
</event>
<event>
 7    1  0.2935819E-010  0.4778727E+02  0.7816164E-02  0.1312668E+00
        -11   -1    0    0    0    0  0.00000000000E+00  0.00000000000E+00  0.45593999997E+02  0.45594000000E+02  0.51100000000E-03 0. -1.
         11   -1    0    0    0    0 -0.00000000000E+00 -0.00000000000E+00 -0.45593999997E+02  0.45594000000E+02  0.51100000000E-03 0.  1.
    9900012    2    1    2    0    0 -0.20014003188E+02  0.37943162395E+02 -0.65862809827E+01  0.47787274276E+02  0.20000014734E+02 0.  0.
        -12    1    1    2    0    0  0.20014003188E+02 -0.37943162395E+02  0.65862809827E+01  0.43400725724E+02  0.00000000000E+00 0.  1.
         11    1    3    3    0    0 -0.60412744558E+01  0.15851388231E+02  0.44177655102E+01  0.17529408383E+02  0.51100000000E-03 0. -1.
        -11    1    3    3    0    0 -0.81931529372E+01  0.15033166651E+02 -0.12247597792E+02  0.21050593972E+02  0.51100000000E-03 0.  1.
        -12    1    3    3    0    0 -0.57795757955E+01  0.70586075132E+01  0.12435512993E+01  0.92072719215E+01  0.00000000000E+00 0.  1.
</event>
<event>
 7    1  0.2935819E-010  0.4778727E+02  0.7816164E-02  0.1312668E+00
        -11   -1    0    0    0    0  0.00000000000E+00  0.00000000000E+00  0.45593999997E+02  0.45594000000E+02  0.51100000000E-03 0. -1.
         11   -1    0    0    0    0 -0.00000000000E+00 -0.00000000000E+00 -0.45593999997E+02  0.45594000000E+02  0.51100000000E-03 0.  1.
    9900012    2    1    2    0    0  0.32385704538E+02 -0.71883039638E+01  0.27984237366E+02  0.47787272895E+02  0.20000008437E+02 0.  0.
        -12    1    1    2    0    0 -0.32385704538E+02  0.71883039638E+01 -0.27984237366E+02  0.43400727105E+02  0.00000000000E+00 0.  1.
         11    1    3    3    0    0  0.16325787114E+02  0.43343843790E+01  0.10804271490E+02  0.20051196860E+02  0.51100000000E-03 0. -1.
        -11    1    3    3    0    0  0.12051595938E+02 -0.12532054964E+02  0.15435114076E+02  0.23249432532E+02  0.51100000000E-03 0.  1.
        -12    1    3    3    0    0  0.40083214867E+01  0.10093666210E+01  0.17448517991E+01  0.44866435023E+01  0.00000000000E+00 0.  1.
</event>
<event>
 7    1  0.2935819E-010  0.4778729E+02  0.7816164E-02  0.1312668E+00
        -11   -1    0    0    0    0  0.00000000000E+00  0.00000000000E+00  0.45593999997E+02  0.45594000000E+02  0.51100000000E-03 0.  1.
         11   -1    0    0    0    0 -0.00000000000E+00 -0.00000000000E+00 -0.45593999997E+02  0.45594000000E+02  0.51100000000E-03 0. -1.
    9900012    2    1    2    0    0  0.48007214679E+01 -0.11882967861E+02 -0.41465288110E+02  0.47787286067E+02  0.20000068495E+02 0.  0.
        -12    1    1    2    0    0 -0.48007214679E+01  0.11882967861E+02  0.41465288110E+02  0.43400713933E+02  0.00000000000E+00 0.  1.
         11    1    3    3    0    0 -0.58180182807E+01 -0.29338429703E+01 -0.20745656405E+02  0.21744862180E+02  0.51100000000E-03 0. -1.
        -11    1    3    3    0    0  0.93803759339E+01 -0.35668615076E+01 -0.15350058628E+02  0.18339527088E+02  0.51100000000E-03 0.  1.
         12    1    3    3    0    0  0.12383638147E+01 -0.53822633836E+01 -0.53695730776E+01  0.77028967995E+01  0.00000000000E+00 0. -1.
</event>
<event>
 7    1  0.2935819E-010  0.4778727E+02  0.7816164E-02  0.1312668E+00
        -11   -1    0    0    0    0  0.00000000000E+00  0.00000000000E+00  0.45593999997E+02  0.45594000000E+02  0.51100000000E-03 0.  1.
         11   -1    0    0    0    0 -0.00000000000E+00 -0.00000000000E+00 -0.45593999997E+02  0.45594000000E+02  0.51100000000E-03 0. -1.
    9900012    2    1    2    0    0 -0.33939157124E+02 -0.11426352123E+02 -0.24519283252E+02  0.47787272353E+02  0.20000005965E+02 0.  0.
        -12    1    1    2    0    0  0.33939157124E+02  0.11426352123E+02  0.24519283252E+02  0.43400727647E+02  0.00000000000E+00 0.  1.
         11    1    3    3    0    0 -0.26875931138E+02 -0.11021502714E+02 -0.27072649060E+02  0.39707902539E+02  0.51100000000E-03 0. -1.
        -11    1    3    3    0    0 -0.14217384728E+01 -0.72922554073E+00  0.17533686521E+01  0.23722166987E+01  0.51100000000E-03 0.  1.
         12    1    3    3    0    0 -0.56414875129E+01  0.32437613158E+00  0.79999715613E+00  0.57071531154E+01  0.00000000000E+00 0. -1.
</event>
<event>
 7    1  0.2935819E-010  0.4778728E+02  0.7816164E-02  0.1312668E+00
        -11   -1    0    0    0    0  0.00000000000E+00  0.00000000000E+00  0.45593999997E+02  0.45594000000E+02  0.51100000000E-03 0.  1.
         11   -1    0    0    0    0 -0.00000000000E+00 -0.00000000000E+00 -0.45593999997E+02  0.45594000000E+02  0.51100000000E-03 0. -1.
    9900012    2    1    2    0    0 -0.35510190642E+02  0.51046365357E+00 -0.24947719005E+02  0.47787275396E+02  0.20000019841E+02 0.  0.
        -12    1    1    2    0    0  0.35510190642E+02 -0.51046365357E+00  0.24947719005E+02  0.43400724604E+02  0.00000000000E+00 0.  1.
         11    1    3    3    0    0  0.52371748581E+00 -0.26488927429E+00 -0.43315576717E+01  0.43711369753E+01  0.51100000000E-03 0. -1.
        -11    1    3    3    0    0 -0.28727448881E+02 -0.44798414195E+01 -0.17252430218E+02  0.33808011581E+02  0.51100000000E-03 0.  1.
        -12    1    3    3    0    0 -0.73064592474E+01  0.52551943474E+01 -0.33637311149E+01  0.96081268402E+01  0.00000000000E+00 0.  1.
</event>
<event>
 7    1  0.2935819E-010  0.4778727E+02  0.7816164E-02  0.1312668E+00
        -11   -1    0    0    0    0  0.00000000000E+00  0.00000000000E+00  0.45593999997E+02  0.45594000000E+02  0.51100000000E-03 0.  1.
         11   -1    0    0    0    0 -0.00000000000E+00 -0.00000000000E+00 -0.45593999997E+02  0.45594000000E+02  0.51100000000E-03 0. -1.
    9900012    2    1    2    0    0  0.32011974581E+01 -0.30468859533E+02 -0.30741248588E+02  0.47787269232E+02  0.19999991738E+02 0.  0.
        -12    1    1    2    0    0 -0.32011974581E+01  0.30468859533E+02  0.30741248588E+02  0.43400730768E+02  0.00000000000E+00 0.  1.
         11    1    3    3    0    0  0.66090564583E+01 -0.16536060689E+02 -0.89222512519E+01  0.19918019431E+02  0.51100000000E-03 0. -1.
        -11    1    3    3    0    0  0.19385973105E+01 -0.32417194072E+01 -0.11410130169E+02  0.12019067143E+02  0.51100000000E-03 0.  1.
         12    1    3    3    0    0 -0.53464563107E+01 -0.10691079436E+02 -0.10408867167E+02  0.15850182658E+02  0.00000000000E+00 0. -1.
</event>
<event>
 7    1  0.2935819E-010  0.4778727E+02  0.7816164E-02  0.1312668E+00
        -11   -1    0    0    0    0  0.00000000000E+00  0.00000000000E+00  0.45593999997E+02  0.45594000000E+02  0.51100000000E-03 0.  1.
         11   -1    0    0    0    0 -0.00000000000E+00 -0.00000000000E+00 -0.45593999997E+02  0.45594000000E+02  0.51100000000E-03 0. -1.
    9900012    2    1    2    0    0 -0.29686487035E+02 -0.71269037538E+00 -0.31651666447E+02  0.47787269258E+02  0.19999991856E+02 0.  0.
        -12    1    1    2    0    0  0.29686487035E+02  0.71269037538E+00  0.31651666447E+02  0.43400730742E+02  0.00000000000E+00 0.  1.
         11    1    3    3    0    0 -0.17612022050E+02 -0.29413639128E+01 -0.69948752135E+01  0.19177153644E+02  0.51100000000E-03 0. -1.
        -11    1    3    3    0    0 -0.12142938421E+02  0.14193829179E+00 -0.22722329844E+02  0.25763838491E+02  0.51100000000E-03 0.  1.
        -12    1    3    3    0    0  0.68473436208E-01  0.20867352457E+01 -0.19344613894E+01  0.28462771235E+01  0.00000000000E+00 0.  1.
</event>
<event>
 7    1  0.2935819E-010  0.4778727E+02  0.7816164E-02  0.1312668E+00
        -11   -1    0    0    0    0  0.00000000000E+00  0.00000000000E+00  0.45593999997E+02  0.45594000000E+02  0.51100000000E-03 0. -1.
         11   -1    0    0    0    0 -0.00000000000E+00 -0.00000000000E+00 -0.45593999997E+02  0.45594000000E+02  0.51100000000E-03 0.  1.
    9900012    2    1    2    0    0  0.24276847344E+02 -0.28223647933E+02  0.22308817027E+02  0.47787274928E+02  0.20000017706E+02 0.  0.
        -12    1    1    2    0    0 -0.24276847344E+02  0.28223647933E+02 -0.22308817027E+02  0.43400725072E+02  0.00000000000E+00 0.  1.
         11    1    3    3    0    0  0.87070517426E+01 -0.83983216974E+01  0.17566792069E+02  0.21329246148E+02  0.51100000000E-03 0. -1.
        -11    1    3    3    0    0  0.26718361609E+01 -0.71919193586E+01 -0.40943701569E+00  0.76831016824E+01  0.51100000000E-03 0.  1.
        -12    1    3    3    0    0  0.12897959441E+02 -0.12633406877E+02  0.51514619743E+01  0.18774927098E+02  0.00000000000E+00 0.  1.
</event>
<event>
 7    1  0.2935819E-010  0.4778727E+02  0.7816164E-02  0.1312668E+00
        -11   -1    0    0    0    0  0.00000000000E+00  0.00000000000E+00  0.45593999997E+02  0.45594000000E+02  0.51100000000E-03 0. -1.
         11   -1    0    0    0    0 -0.00000000000E+00 -0.00000000000E+00 -0.45593999997E+02  0.45594000000E+02  0.51100000000E-03 0.  1.
    9900012    2    1    2    0    0  0.39859408501E+02  0.11132185791E+02 -0.13073833661E+02  0.47787272666E+02  0.20000007393E+02 0.  0.
        -12    1    1    2    0    0 -0.39859408501E+02 -0.11132185791E+02  0.13073833661E+02  0.43400727334E+02  0.00000000000E+00 0.  1.
         11    1    3    3    0    0  0.23572841405E+02  0.82339649253E+01 -0.80688038013E+01  0.26240857938E+02  0.51100000000E-03 0. -1.
        -11    1    3    3    0    0  0.22145514760E+00 -0.31465716468E+01  0.10813660993E+01  0.33345627019E+01  0.51100000000E-03 0.  1.
        -12    1    3    3    0    0  0.16065111949E+02  0.60447925122E+01 -0.60863959586E+01  0.18211852026E+02  0.00000000000E+00 0.  1.
</event>
<event>
 7    1  0.2935819E-010  0.4778727E+02  0.7816164E-02  0.1312668E+00
        -11   -1    0    0    0    0  0.00000000000E+00  0.00000000000E+00  0.45593999997E+02  0.45594000000E+02  0.51100000000E-03 0.  1.
         11   -1    0    0    0    0 -0.00000000000E+00 -0.00000000000E+00 -0.45593999997E+02  0.45594000000E+02  0.51100000000E-03 0. -1.
    9900012    2    1    2    0    0  0.63255035254E+01 -0.28600980919E+02 -0.32024915825E+02  0.47787270306E+02  0.19999996634E+02 0.  0.
        -12    1    1    2    0    0 -0.63255035254E+01  0.28600980919E+02  0.32024915825E+02  0.43400729694E+02  0.00000000000E+00 0.  1.
         11    1    3    3    0    0 -0.29542784613E+01 -0.13524451411E+02 -0.16686116871E+02  0.21680983457E+02  0.51100000000E-03 0. -1.
        -11    1    3    3    0    0  0.89272572234E+01 -0.36519428774E+01 -0.79127524937E+01  0.12475746895E+02  0.51100000000E-03 0.  1.
        -12    1    3    3    0    0  0.35252476334E+00 -0.11424586630E+02 -0.74260464606E+01  0.13630539953E+02  0.00000000000E+00 0.  1.
</event>
<event>
 7    1  0.2935819E-010  0.4778727E+02  0.7816164E-02  0.1312668E+00
        -11   -1    0    0    0    0  0.00000000000E+00  0.00000000000E+00  0.45593999997E+02  0.45594000000E+02  0.51100000000E-03 0. -1.
         11   -1    0    0    0    0 -0.00000000000E+00 -0.00000000000E+00 -0.45593999997E+02  0.45594000000E+02  0.51100000000E-03 0.  1.
    9900012    2    1    2    0    0 -0.27745567443E+02  0.32148273886E+02  0.89607586525E+01  0.47787271640E+02  0.20000002714E+02 0.  0.
        -12    1    1    2    0    0  0.27745567443E+02 -0.32148273886E+02 -0.89607586525E+01  0.43400728360E+02  0.00000000000E+00 0.  1.
         11    1    3    3    0    0 -0.78540597647E+00  0.12888528542E+02  0.60502906373E+01  0.14259629994E+02  0.51100000000E-03 0.  1.
        -11    1    3    3    0    0 -0.19496410972E+02  0.11894459350E+02  0.93637105948E+00  0.22857493193E+02  0.51100000000E-03 0. -1.
        -12    1    3    3    0    0 -0.74637504943E+01  0.73652859942E+01  0.19740969557E+01  0.10670148453E+02  0.00000000000E+00 0.  1.
</event>
<event>
 7    1  0.2935819E-010  0.4778727E+02  0.7816164E-02  0.1312668E+00
        -11   -1    0    0    0    0  0.00000000000E+00  0.00000000000E+00  0.45593999997E+02  0.45594000000E+02  0.51100000000E-03 0. -1.
         11   -1    0    0    0    0 -0.00000000000E+00 -0.00000000000E+00 -0.45593999997E+02  0.45594000000E+02  0.51100000000E-03 0.  1.
    9900012    2    1    2    0    0 -0.92635857661E+01  0.42010250648E+02 -0.57400493016E+01  0.47787270205E+02  0.19999996172E+02 0.  0.
        -12    1    1    2    0    0  0.92635857661E+01 -0.42010250648E+02  0.57400493016E+01  0.43400729795E+02  0.00000000000E+00 0.  1.
         11    1    3    3    0    0 -0.89302641534E+01  0.21555747935E+02  0.47341394037E-01  0.23332426542E+02  0.51100000000E-03 0. -1.
        -11    1    3    3    0    0  0.31829668158E+01  0.14721916995E+02 -0.83929907282E+01  0.17242633540E+02  0.51100000000E-03 0.  1.
        -12    1    3    3    0    0 -0.35162884285E+01  0.57325857182E+01  0.26056000325E+01  0.72122101230E+01  0.00000000000E+00 0.  1.
</event>
<event>
 7    1  0.2935819E-010  0.4778729E+02  0.7816164E-02  0.1312668E+00
        -11   -1    0    0    0    0  0.00000000000E+00  0.00000000000E+00  0.45593999997E+02  0.45594000000E+02  0.51100000000E-03 0.  1.
         11   -1    0    0    0    0 -0.00000000000E+00 -0.00000000000E+00 -0.45593999997E+02  0.45594000000E+02  0.51100000000E-03 0. -1.
    9900012    2    1    2    0    0 -0.29532840449E+02 -0.62057365330E+01 -0.31191695568E+02  0.47787289138E+02  0.20000082497E+02 0.  0.
        -12    1    1    2    0    0  0.29532840449E+02  0.62057365330E+01  0.31191695568E+02  0.43400710862E+02  0.00000000000E+00 0.  1.
         11    1    3    3    0    0 -0.15006201399E+01  0.17457145250E+01 -0.36394048688E+01  0.43063497381E+01  0.51100000000E-03 0. -1.
        -11    1    3    3    0    0 -0.27595684890E+01 -0.60170379952E+01 -0.86619714157E+00  0.66760963317E+01  0.51100000000E-03 0.  1.
        -12    1    3    3    0    0 -0.25272651820E+02 -0.19344130629E+01 -0.26686093558E+02  0.36804843068E+02  0.00000000000E+00 0.  1.
</event>
<event>
 7    1  0.2935819E-010  0.4778728E+02  0.7816164E-02  0.1312668E+00
        -11   -1    0    0    0    0  0.00000000000E+00  0.00000000000E+00  0.45593999997E+02  0.45594000000E+02  0.51100000000E-03 0.  1.
         11   -1    0    0    0    0 -0.00000000000E+00 -0.00000000000E+00 -0.45593999997E+02  0.45594000000E+02  0.51100000000E-03 0. -1.
    9900012    2    1    2    0    0  0.22572350098E+02 -0.57510532514E+01 -0.36620167861E+02  0.47787282303E+02  0.20000051333E+02 0.  0.
        -12    1    1    2    0    0 -0.22572350098E+02  0.57510532514E+01  0.36620167861E+02  0.43400717697E+02  0.00000000000E+00 0.  1.
         11    1    3    3    0    0  0.11453780220E+02  0.63751999012E+01 -0.16060019331E+02  0.20730568643E+02  0.51100000000E-03 0. -1.
        -11    1    3    3    0    0  0.37001598298E+01 -0.34895483923E+01 -0.24028036778E+01  0.56250863570E+01  0.51100000000E-03 0.  1.
         12    1    3    3    0    0  0.74184100481E+01 -0.86367047603E+01 -0.18157344852E+02  0.21431627303E+02  0.00000000000E+00 0. -1.
</event>
<event>
 7    1  0.2935819E-010  0.4778727E+02  0.7816164E-02  0.1312668E+00
        -11   -1    0    0    0    0  0.00000000000E+00  0.00000000000E+00  0.45593999997E+02  0.45594000000E+02  0.51100000000E-03 0.  1.
         11   -1    0    0    0    0 -0.00000000000E+00 -0.00000000000E+00 -0.45593999997E+02  0.45594000000E+02  0.51100000000E-03 0. -1.
    9900012    2    1    2    0    0 -0.33279523017E+02 -0.27766176055E+02  0.22663748504E+01  0.47787266827E+02  0.19999980772E+02 0.  0.
        -12    1    1    2    0    0  0.33279523017E+02  0.27766176055E+02 -0.22663748504E+01  0.43400733173E+02  0.00000000000E+00 0.  1.
         11    1    3    3    0    0 -0.14272180449E+02 -0.12900528631E+02 -0.49697804891E+01  0.19870014899E+02  0.51100000000E-03 0. -1.
        -11    1    3    3    0    0 -0.44449923627E+01 -0.27664905435E+01  0.73011369915E+01  0.89843212688E+01  0.51100000000E-03 0.  1.
        -12    1    3    3    0    0 -0.14562350205E+02 -0.12099156881E+02 -0.64981651970E-01  0.18932930659E+02  0.00000000000E+00 0.  1.
</event>
<event>
 7    1  0.2935819E-010  0.4778727E+02  0.7816164E-02  0.1312668E+00
        -11   -1    0    0    0    0  0.00000000000E+00  0.00000000000E+00  0.45593999997E+02  0.45594000000E+02  0.51100000000E-03 0.  1.
         11   -1    0    0    0    0 -0.00000000000E+00 -0.00000000000E+00 -0.45593999997E+02  0.45594000000E+02  0.51100000000E-03 0. -1.
    9900012    2    1    2    0    0  0.55283721415E+01  0.39034318197E+02 -0.18148898779E+02  0.47787269332E+02  0.19999992193E+02 0.  0.
        -12    1    1    2    0    0 -0.55283721415E+01 -0.39034318197E+02  0.18148898779E+02  0.43400730668E+02  0.00000000000E+00 0.  1.
         11    1    3    3    0    0  0.40832605337E+01  0.34719999396E+02 -0.16596290004E+02  0.38698684949E+02  0.51100000000E-03 0. -1.
        -11    1    3    3    0    0 -0.26251797620E+01 -0.34677200257E+00 -0.11513240773E+01  0.28874499124E+01  0.51100000000E-03 0.  1.
        -12    1    3    3    0    0  0.40702913698E+01  0.46610908031E+01 -0.40128469767E+00  0.62011344703E+01  0.00000000000E+00 0.  1.
</event>
<event>
 7    1  0.2935819E-010  0.4778727E+02  0.7816164E-02  0.1312668E+00
        -11   -1    0    0    0    0  0.00000000000E+00  0.00000000000E+00  0.45593999997E+02  0.45594000000E+02  0.51100000000E-03 0.  1.
         11   -1    0    0    0    0 -0.00000000000E+00 -0.00000000000E+00 -0.45593999997E+02  0.45594000000E+02  0.51100000000E-03 0. -1.
    9900012    2    1    2    0    0  0.11001111848E+02  0.53971349792E+01 -0.41634957400E+02  0.47787271831E+02  0.20000003587E+02 0.  0.
        -12    1    1    2    0    0 -0.11001111848E+02 -0.53971349792E+01  0.41634957400E+02  0.43400728169E+02  0.00000000000E+00 0.  1.
         11    1    3    3    0    0  0.89697083798E+01  0.38109874281E+01 -0.37604421546E+02  0.38846773529E+02  0.51100000000E-03 0. -1.
        -11    1    3    3    0    0 -0.28095299698E+01  0.12115128031E+01 -0.10089707299E+01  0.32216834292E+01  0.51100000000E-03 0.  1.
         12    1    3    3    0    0  0.48409334377E+01  0.37463474801E+00 -0.30215651247E+01  0.57188148725E+01  0.00000000000E+00 0. -1.
</event>
<event>
 7    1  0.2935819E-010  0.4778728E+02  0.7816164E-02  0.1312668E+00
        -11   -1    0    0    0    0  0.00000000000E+00  0.00000000000E+00  0.45593999997E+02  0.45594000000E+02  0.51100000000E-03 0.  1.
         11   -1    0    0    0    0 -0.00000000000E+00 -0.00000000000E+00 -0.45593999997E+02  0.45594000000E+02  0.51100000000E-03 0. -1.
    9900012    2    1    2    0    0 -0.23527633079E+02 -0.33220237582E+02 -0.15049554775E+02  0.47787276478E+02  0.20000024772E+02 0.  0.
        -12    1    1    2    0    0  0.23527633079E+02  0.33220237582E+02  0.15049554775E+02  0.43400723522E+02  0.00000000000E+00 0.  1.
         11    1    3    3    0    0  0.13076157872E+01 -0.18732978598E+01  0.25820664912E+01  0.34476327450E+01  0.51100000000E-03 0.  1.
        -11    1    3    3    0    0 -0.21946786550E+02 -0.25476390451E+02 -0.17233330579E+02  0.37784859314E+02  0.51100000000E-03 0. -1.
        -12    1    3    3    0    0 -0.28884623164E+01 -0.58705492718E+01 -0.39829068739E+00  0.65547844188E+01  0.00000000000E+00 0.  1.
</event>
<event>
 7    1  0.2935819E-010  0.4778727E+02  0.7816164E-02  0.1312668E+00
        -11   -1    0    0    0    0  0.00000000000E+00  0.00000000000E+00  0.45593999997E+02  0.45594000000E+02  0.51100000000E-03 0.  1.
         11   -1    0    0    0    0 -0.00000000000E+00 -0.00000000000E+00 -0.45593999997E+02  0.45594000000E+02  0.51100000000E-03 0. -1.
    9900012    2    1    2    0    0 -0.42655266195E+02  0.79178273495E+01 -0.12081410755E+01  0.47787270410E+02  0.19999997107E+02 0.  0.
        -12    1    1    2    0    0  0.42655266195E+02 -0.79178273495E+01  0.12081410755E+01  0.43400729590E+02  0.00000000000E+00 0.  1.
         11    1    3    3    0    0 -0.81351770261E+01  0.74910914562E+01  0.35850435549E+01  0.11625407262E+02  0.51100000000E-03 0. -1.
        -11    1    3    3    0    0 -0.15549236487E+01  0.13216218222E+01 -0.23231669959E+01  0.30921799667E+01  0.51100000000E-03 0.  1.
         12    1    3    3    0    0 -0.32965165520E+02 -0.89488592890E+00 -0.24700176345E+01  0.33069683181E+02  0.00000000000E+00 0. -1.
</event>
<event>
 7    1  0.2935819E-010  0.4778727E+02  0.7816164E-02  0.1312668E+00
        -11   -1    0    0    0    0  0.00000000000E+00  0.00000000000E+00  0.45593999997E+02  0.45594000000E+02  0.51100000000E-03 0. -1.
         11   -1    0    0    0    0 -0.00000000000E+00 -0.00000000000E+00 -0.45593999997E+02  0.45594000000E+02  0.51100000000E-03 0.  1.
    9900012    2    1    2    0    0 -0.27274574748E+02  0.33153951288E+02 -0.63668084012E+01  0.47787272322E+02  0.20000005827E+02 0.  0.
        -12    1    1    2    0    0  0.27274574748E+02 -0.33153951288E+02  0.63668084012E+01  0.43400727678E+02  0.00000000000E+00 0.  1.
         11    1    3    3    0    0 -0.26911258191E+01  0.11836371422E+02 -0.58713483833E+01  0.13483863642E+02  0.51100000000E-03 0. -1.
        -11    1    3    3    0    0 -0.89599039477E+00  0.50877300087E+01 -0.20245114016E+01  0.55485531542E+01  0.51100000000E-03 0.  1.
         12    1    3    3    0    0 -0.23687458534E+02  0.16229849858E+02  0.15290513837E+01  0.28754855526E+02  0.00000000000E+00 0. -1.
</event>
<event>
 7    1  0.2935819E-010  0.4778727E+02  0.7816164E-02  0.1312668E+00
        -11   -1    0    0    0    0  0.00000000000E+00  0.00000000000E+00  0.45593999997E+02  0.45594000000E+02  0.51100000000E-03 0.  1.
         11   -1    0    0    0    0 -0.00000000000E+00 -0.00000000000E+00 -0.45593999997E+02  0.45594000000E+02  0.51100000000E-03 0. -1.
    9900012    2    1    2    0    0 -0.84292687245E+01 -0.17198169177E+02 -0.38946034014E+02  0.47787272360E+02  0.20000005997E+02 0.  0.
        -12    1    1    2    0    0  0.84292687245E+01  0.17198169177E+02  0.38946034014E+02  0.43400727640E+02  0.00000000000E+00 0.  1.
         11    1    3    3    0    0 -0.86253751428E+01 -0.96363199818E+01 -0.31682365493E+02  0.34220287004E+02  0.51100000000E-03 0. -1.
        -11    1    3    3    0    0 -0.20807925698E+01 -0.85820652698E+01 -0.47579944759E+01  0.10030954775E+02  0.51100000000E-03 0.  1.
         12    1    3    3    0    0  0.22768989881E+01  0.10202160749E+01 -0.25056740451E+01  0.35360305799E+01  0.00000000000E+00 0. -1.
</event>
<event>
 7    1  0.2935819E-010  0.4778730E+02  0.7816164E-02  0.1312668E+00
        -11   -1    0    0    0    0  0.00000000000E+00  0.00000000000E+00  0.45593999997E+02  0.45594000000E+02  0.51100000000E-03 0.  1.
         11   -1    0    0    0    0 -0.00000000000E+00 -0.00000000000E+00 -0.45593999997E+02  0.45594000000E+02  0.51100000000E-03 0. -1.
    9900012    2    1    2    0    0 -0.41202015770E+02 -0.12601331952E+02 -0.52174218954E+01  0.47787295378E+02  0.20000110945E+02 0.  0.
        -12    1    1    2    0    0  0.41202015770E+02  0.12601331952E+02  0.52174218954E+01  0.43400704622E+02  0.00000000000E+00 0.  1.
         11    1    3    3    0    0 -0.17568893165E+02 -0.64775386452E+01 -0.51175962491E+01  0.19411705375E+02  0.51100000000E-03 0. -1.
        -11    1    3    3    0    0 -0.10528948029E+02 -0.74379199394E+01  0.55624848945E+01  0.14040036969E+02  0.51100000000E-03 0.  1.
        -12    1    3    3    0    0 -0.13104174576E+02  0.13141266326E+01 -0.56623105407E+01  0.14335553034E+02  0.00000000000E+00 0.  1.
</event>
<event>
 7    1  0.2935819E-010  0.4778727E+02  0.7816164E-02  0.1312668E+00
        -11   -1    0    0    0    0  0.00000000000E+00  0.00000000000E+00  0.45593999997E+02  0.45594000000E+02  0.51100000000E-03 0. -1.
         11   -1    0    0    0    0 -0.00000000000E+00 -0.00000000000E+00 -0.45593999997E+02  0.45594000000E+02  0.51100000000E-03 0.  1.
    9900012    2    1    2    0    0  0.36364756389E+02 -0.19550249801E+02  0.13379654695E+02  0.47787274957E+02  0.20000017841E+02 0.  0.
        -12    1    1    2    0    0 -0.36364756389E+02  0.19550249801E+02 -0.13379654695E+02  0.43400725043E+02  0.00000000000E+00 0.  1.
         11    1    3    3    0    0  0.36168531289E+01 -0.53844987561E+01  0.21413981815E+01  0.68308154597E+01  0.51100000000E-03 0. -1.
        -11    1    3    3    0    0  0.27876294050E+02 -0.15702012763E+02  0.14252480597E+02  0.35025336233E+02  0.51100000000E-03 0.  1.
        -12    1    3    3    0    0  0.48716092095E+01  0.15362617188E+01 -0.30142240835E+01  0.59311232650E+01  0.00000000000E+00 0.  1.
</event>
<event>
 7    1  0.2935819E-010  0.4778727E+02  0.7816164E-02  0.1312668E+00
        -11   -1    0    0    0    0  0.00000000000E+00  0.00000000000E+00  0.45593999997E+02  0.45594000000E+02  0.51100000000E-03 0.  1.
         11   -1    0    0    0    0 -0.00000000000E+00 -0.00000000000E+00 -0.45593999997E+02  0.45594000000E+02  0.51100000000E-03 0. -1.
    9900012    2    1    2    0    0  0.35273844590E+02 -0.21944692685E+02 -0.12562237822E+02  0.47787268804E+02  0.19999989787E+02 0.  0.
        -12    1    1    2    0    0 -0.35273844590E+02  0.21944692685E+02  0.12562237822E+02  0.43400731196E+02  0.00000000000E+00 0.  1.
         11    1    3    3    0    0 -0.19398725581E+00  0.17853868654E+01 -0.15090375790E+01  0.23457263247E+01  0.51100000000E-03 0. -1.
        -11    1    3    3    0    0  0.32012372797E+02 -0.18477739120E+02 -0.12446897708E+02  0.39001847622E+02  0.51100000000E-03 0.  1.
        -12    1    3    3    0    0  0.34554590489E+01 -0.52523404309E+01  0.13936974651E+01  0.64396948581E+01  0.00000000000E+00 0.  1.
</event>
<event>
 7    1  0.2935819E-010  0.4778727E+02  0.7816164E-02  0.1312668E+00
        -11   -1    0    0    0    0  0.00000000000E+00  0.00000000000E+00  0.45593999997E+02  0.45594000000E+02  0.51100000000E-03 0.  1.
         11   -1    0    0    0    0 -0.00000000000E+00 -0.00000000000E+00 -0.45593999997E+02  0.45594000000E+02  0.51100000000E-03 0. -1.
    9900012    2    1    2    0    0  0.37054216637E+02  0.10971736676E+02 -0.19754218299E+02  0.47787272853E+02  0.20000008245E+02 0.  0.
        -12    1    1    2    0    0 -0.37054216637E+02 -0.10971736676E+02  0.19754218299E+02  0.43400727147E+02  0.00000000000E+00 0.  1.
         11    1    3    3    0    0  0.21307505466E+02  0.35325467299E+01 -0.20079534614E+02  0.29490276129E+02  0.51100000000E-03 0. -1.
        -11    1    3    3    0    0  0.14306006223E+02  0.47579694950E+01  0.12164018034E+01  0.15125465989E+02  0.51100000000E-03 0.  1.
        -12    1    3    3    0    0  0.14407049487E+01  0.26812204511E+01 -0.89108548873E+00  0.31715307353E+01  0.00000000000E+00 0.  1.
</event>
<event>
 7    1  0.2935819E-010  0.4778727E+02  0.7816164E-02  0.1312668E+00
        -11   -1    0    0    0    0  0.00000000000E+00  0.00000000000E+00  0.45593999997E+02  0.45594000000E+02  0.51100000000E-03 0.  1.
         11   -1    0    0    0    0 -0.00000000000E+00 -0.00000000000E+00 -0.45593999997E+02  0.45594000000E+02  0.51100000000E-03 0. -1.
    9900012    2    1    2    0    0 -0.14766251387E+02 -0.33951559668E+02 -0.22646694330E+02  0.47787270191E+02  0.19999996107E+02 0.  0.
        -12    1    1    2    0    0  0.14766251387E+02  0.33951559668E+02  0.22646694330E+02  0.43400729809E+02  0.00000000000E+00 0.  1.
         11    1    3    3    0    0 -0.34752460979E+01 -0.73255743910E+01 -0.59305183346E+01  0.10045517586E+02  0.51100000000E-03 0. -1.
        -11    1    3    3    0    0  0.16831420887E+01 -0.16946683071E+02 -0.12160048834E+02  0.20925817124E+02  0.51100000000E-03 0.  1.
        -12    1    3    3    0    0 -0.12974147378E+02 -0.96793022064E+01 -0.45561271614E+01  0.16815935481E+02  0.00000000000E+00 0.  1.
</event>
<event>
 7    1  0.2935819E-010  0.4778727E+02  0.7816164E-02  0.1312668E+00
        -11   -1    0    0    0    0  0.00000000000E+00  0.00000000000E+00  0.45593999997E+02  0.45594000000E+02  0.51100000000E-03 0.  1.
         11   -1    0    0    0    0 -0.00000000000E+00 -0.00000000000E+00 -0.45593999997E+02  0.45594000000E+02  0.51100000000E-03 0. -1.
    9900012    2    1    2    0    0  0.38151048641E+02 -0.18359522193E+02  0.95419510107E+01  0.47787269630E+02  0.19999993553E+02 0.  0.
        -12    1    1    2    0    0 -0.38151048641E+02  0.18359522193E+02 -0.95419510107E+01  0.43400730370E+02  0.00000000000E+00 0.  1.
         11    1    3    3    0    0  0.52282096890E+01 -0.33109627562E+01 -0.50291715212E+00  0.62088305539E+01  0.51100000000E-03 0. -1.
        -11    1    3    3    0    0  0.25636933661E+02 -0.57712535641E+01  0.30416205081E+00  0.26280263508E+02  0.51100000000E-03 0.  1.
        -12    1    3    3    0    0  0.72859052903E+01 -0.92773058725E+01  0.97407061120E+01  0.15298175568E+02  0.00000000000E+00 0.  1.
</event>
<event>
 7    1  0.2935819E-010  0.4778727E+02  0.7816164E-02  0.1312668E+00
        -11   -1    0    0    0    0  0.00000000000E+00  0.00000000000E+00  0.45593999997E+02  0.45594000000E+02  0.51100000000E-03 0. -1.
         11   -1    0    0    0    0 -0.00000000000E+00 -0.00000000000E+00 -0.45593999997E+02  0.45594000000E+02  0.51100000000E-03 0.  1.
    9900012    2    1    2    0    0 -0.31372553061E+02 -0.27613971104E+02  0.11698500358E+02  0.47787269634E+02  0.19999993567E+02 0.  0.
        -12    1    1    2    0    0  0.31372553061E+02  0.27613971104E+02 -0.11698500358E+02  0.43400730366E+02  0.00000000000E+00 0.  1.
         11    1    3    3    0    0 -0.79618261758E+01 -0.10632613364E+02  0.13183790078E+02  0.18715113253E+02  0.51100000000E-03 0. -1.
        -11    1    3    3    0    0 -0.14940339944E+02 -0.10017418196E+02  0.12957617787E+00  0.17988307736E+02  0.51100000000E-03 0.  1.
        -12    1    3    3    0    0 -0.84703869412E+01 -0.69639395430E+01 -0.16148658973E+01  0.11083848644E+02  0.00000000000E+00 0.  1.
</event>
<event>
 7    1  0.2935819E-010  0.4778727E+02  0.7816164E-02  0.1312668E+00
        -11   -1    0    0    0    0  0.00000000000E+00  0.00000000000E+00  0.45593999997E+02  0.45594000000E+02  0.51100000000E-03 0.  1.
         11   -1    0    0    0    0 -0.00000000000E+00 -0.00000000000E+00 -0.45593999997E+02  0.45594000000E+02  0.51100000000E-03 0. -1.
    9900012    2    1    2    0    0 -0.36910267805E+02  0.13489809494E+02 -0.18419569867E+02  0.47787269779E+02  0.19999994229E+02 0.  0.
        -12    1    1    2    0    0  0.36910267805E+02 -0.13489809494E+02  0.18419569867E+02  0.43400730221E+02  0.00000000000E+00 0.  1.
         11    1    3    3    0    0 -0.83683941297E+01 -0.30476461243E+01  0.84796127455E-02  0.89060787878E+01  0.51100000000E-03 0. -1.
        -11    1    3    3    0    0 -0.13718601330E+02  0.98590621429E+01 -0.14233506452E+02  0.22090582495E+02  0.51100000000E-03 0.  1.
         12    1    3    3    0    0 -0.14823272346E+02  0.66783934753E+01 -0.41945430281E+01  0.16790608496E+02  0.00000000000E+00 0. -1.
</event>
<event>
 7    1  0.2935819E-010  0.4778727E+02  0.7816164E-02  0.1312668E+00
        -11   -1    0    0    0    0  0.00000000000E+00  0.00000000000E+00  0.45593999997E+02  0.45594000000E+02  0.51100000000E-03 0.  1.
         11   -1    0    0    0    0 -0.00000000000E+00 -0.00000000000E+00 -0.45593999997E+02  0.45594000000E+02  0.51100000000E-03 0. -1.
    9900012    2    1    2    0    0 -0.16643042612E+02 -0.23208273930E+02 -0.32680398730E+02  0.47787270658E+02  0.19999998240E+02 0.  0.
        -12    1    1    2    0    0  0.16643042612E+02  0.23208273930E+02  0.32680398730E+02  0.43400729342E+02  0.00000000000E+00 0.  1.
         11    1    3    3    0    0 -0.14983750593E+02 -0.22578206190E+02 -0.23890853091E+02  0.36125628552E+02  0.51100000000E-03 0. -1.
        -11    1    3    3    0    0  0.27272827527E+01 -0.87883073055E+00 -0.53976821173E+01  0.61110872327E+01  0.51100000000E-03 0.  1.
         12    1    3    3    0    0 -0.43865747713E+01  0.24876299071E+00 -0.33918635227E+01  0.55505548737E+01  0.00000000000E+00 0. -1.
</event>
<event>
 7    1  0.2935819E-010  0.4778728E+02  0.7816164E-02  0.1312668E+00
        -11   -1    0    0    0    0  0.00000000000E+00  0.00000000000E+00  0.45593999997E+02  0.45594000000E+02  0.51100000000E-03 0.  1.
         11   -1    0    0    0    0 -0.00000000000E+00 -0.00000000000E+00 -0.45593999997E+02  0.45594000000E+02  0.51100000000E-03 0. -1.
    9900012    2    1    2    0    0 -0.92381203158E+01  0.33627592496E+01 -0.42272586337E+02  0.47787279126E+02  0.20000036848E+02 0.  0.
        -12    1    1    2    0    0  0.92381203158E+01 -0.33627592496E+01  0.42272586337E+02  0.43400720874E+02  0.00000000000E+00 0.  1.
         11    1    3    3    0    0 -0.83733644978E+01 -0.35643488830E+00 -0.27915332002E+02  0.29146286897E+02  0.51100000000E-03 0. -1.
        -11    1    3    3    0    0  0.20956022623E+01  0.68273842754E+01 -0.11313010973E+02  0.13378674913E+02  0.51100000000E-03 0.  1.
         12    1    3    3    0    0 -0.29603580802E+01 -0.31081901374E+01 -0.30442433625E+01  0.52623173169E+01  0.00000000000E+00 0. -1.
</event>
<event>
 7    1  0.2935819E-010  0.4778727E+02  0.7816164E-02  0.1312668E+00
        -11   -1    0    0    0    0  0.00000000000E+00  0.00000000000E+00  0.45593999997E+02  0.45594000000E+02  0.51100000000E-03 0.  1.
         11   -1    0    0    0    0 -0.00000000000E+00 -0.00000000000E+00 -0.45593999997E+02  0.45594000000E+02  0.51100000000E-03 0. -1.
    9900012    2    1    2    0    0 -0.21343054214E+02  0.14715458801E+02 -0.34807363742E+02  0.47787271186E+02  0.20000000645E+02 0.  0.
        -12    1    1    2    0    0  0.21343054214E+02 -0.14715458801E+02  0.34807363742E+02  0.43400728814E+02  0.00000000000E+00 0.  1.
         11    1    3    3    0    0 -0.13148404546E+01  0.12682613824E+01 -0.65713551007E-01  0.18280073542E+01  0.51100000000E-03 0. -1.
        -11    1    3    3    0    0  0.19562809559E+01  0.68206305483E+01 -0.91008511283E+01  0.11540083525E+02  0.51100000000E-03 0.  1.
        -12    1    3    3    0    0 -0.21984494715E+02  0.66265668704E+01 -0.25640799063E+02  0.34419180306E+02  0.00000000000E+00 0.  1.
</event>
<event>
 7    1  0.2935819E-010  0.4778727E+02  0.7816164E-02  0.1312668E+00
        -11   -1    0    0    0    0  0.00000000000E+00  0.00000000000E+00  0.45593999997E+02  0.45594000000E+02  0.51100000000E-03 0. -1.
         11   -1    0    0    0    0 -0.00000000000E+00 -0.00000000000E+00 -0.45593999997E+02  0.45594000000E+02  0.51100000000E-03 0.  1.
    9900012    2    1    2    0    0  0.32276144208E+02 -0.13971068282E+02  0.25429965657E+02  0.47787269739E+02  0.19999994048E+02 0.  0.
        -12    1    1    2    0    0 -0.32276144208E+02  0.13971068282E+02 -0.25429965657E+02  0.43400730261E+02  0.00000000000E+00 0.  1.
         11    1    3    3    0    0  0.95758964327E+01 -0.52740122507E+01  0.68652255783E+01  0.12909078984E+02  0.51100000000E-03 0. -1.
        -11    1    3    3    0    0  0.13419092559E+02 -0.75799873024E+01  0.20179369390E+02  0.25391636455E+02  0.51100000000E-03 0.  1.
        -12    1    3    3    0    0  0.92811552158E+01 -0.11170687291E+01 -0.16146293108E+01  0.94865543005E+01  0.00000000000E+00 0.  1.
</event>
<event>
 7    1  0.2935819E-010  0.4778727E+02  0.7816164E-02  0.1312668E+00
        -11   -1    0    0    0    0  0.00000000000E+00  0.00000000000E+00  0.45593999997E+02  0.45594000000E+02  0.51100000000E-03 0.  1.
         11   -1    0    0    0    0 -0.00000000000E+00 -0.00000000000E+00 -0.45593999997E+02  0.45594000000E+02  0.51100000000E-03 0. -1.
    9900012    2    1    2    0    0  0.30260253668E+02  0.22385118810E+02 -0.21606636126E+02  0.47787271655E+02  0.20000002786E+02 0.  0.
        -12    1    1    2    0    0 -0.30260253668E+02 -0.22385118810E+02  0.21606636126E+02  0.43400728345E+02  0.00000000000E+00 0.  1.
         11    1    3    3    0    0  0.22946733987E+02  0.20923543191E+02 -0.14513461384E+02  0.34278095366E+02  0.51100000000E-03 0. -1.
        -11    1    3    3    0    0  0.47971880871E+01 -0.25133061935E+01 -0.54045261511E+00  0.54425922919E+01  0.51100000000E-03 0.  1.
         12    1    3    3    0    0  0.25163315934E+01  0.39748818123E+01 -0.65527221271E+01  0.80665839973E+01  0.00000000000E+00 0. -1.
</event>
<event>
 7    1  0.2935819E-010  0.4778727E+02  0.7816164E-02  0.1312668E+00
        -11   -1    0    0    0    0  0.00000000000E+00  0.00000000000E+00  0.45593999997E+02  0.45594000000E+02  0.51100000000E-03 0. -1.
         11   -1    0    0    0    0 -0.00000000000E+00 -0.00000000000E+00 -0.45593999997E+02  0.45594000000E+02  0.51100000000E-03 0.  1.
    9900012    2    1    2    0    0  0.39317186775E+02  0.54771143889E+01 -0.17543761725E+02  0.47787268055E+02  0.19999986368E+02 0.  0.
        -12    1    1    2    0    0 -0.39317186775E+02 -0.54771143889E+01  0.17543761725E+02  0.43400731945E+02  0.00000000000E+00 0.  1.
         11    1    3    3    0    0  0.63826550714E+01 -0.50104654266E+01 -0.21524326002E+01  0.83949994587E+01  0.51100000000E-03 0. -1.
        -11    1    3    3    0    0 -0.67812451479E+00 -0.55973948147E+00 -0.35740199744E+00  0.94915625351E+00  0.51100000000E-03 0.  1.
         12    1    3    3    0    0  0.33612656218E+02  0.11047319297E+02 -0.15033927127E+02  0.38443112342E+02  0.00000000000E+00 0. -1.
</event>
<event>
 7    1  0.2935819E-010  0.4778727E+02  0.7816164E-02  0.1312668E+00
        -11   -1    0    0    0    0  0.00000000000E+00  0.00000000000E+00  0.45593999997E+02  0.45594000000E+02  0.51100000000E-03 0.  1.
         11   -1    0    0    0    0 -0.00000000000E+00 -0.00000000000E+00 -0.45593999997E+02  0.45594000000E+02  0.51100000000E-03 0. -1.
    9900012    2    1    2    0    0 -0.13592063817E+01  0.38221763268E+02 -0.20515176851E+02  0.47787272927E+02  0.20000008581E+02 0.  0.
        -12    1    1    2    0    0  0.13592063817E+01 -0.38221763268E+02  0.20515176851E+02  0.43400727073E+02  0.00000000000E+00 0.  1.
         11    1    3    3    0    0 -0.21798346477E+01  0.45992726492E+00  0.11333859136E+01  0.24995551745E+01  0.51100000000E-03 0.  1.
        -11    1    3    3    0    0  0.53883206637E+01  0.22337442557E+02 -0.16871507805E+02  0.28506895928E+02  0.51100000000E-03 0. -1.
        -12    1    3    3    0    0 -0.45676923977E+01  0.15424393446E+02 -0.47770549596E+01  0.16780821824E+02  0.00000000000E+00 0.  1.
</event>
<event>
 7    1  0.2935819E-010  0.4778727E+02  0.7816164E-02  0.1312668E+00
        -11   -1    0    0    0    0  0.00000000000E+00  0.00000000000E+00  0.45593999997E+02  0.45594000000E+02  0.51100000000E-03 0.  1.
         11   -1    0    0    0    0 -0.00000000000E+00 -0.00000000000E+00 -0.45593999997E+02  0.45594000000E+02  0.51100000000E-03 0. -1.
    9900012    2    1    2    0    0 -0.38890603979E+02  0.56557760251E+01 -0.18416189976E+02  0.47787274965E+02  0.20000017878E+02 0.  0.
        -12    1    1    2    0    0  0.38890603979E+02 -0.56557760251E+01  0.18416189976E+02  0.43400725035E+02  0.00000000000E+00 0.  1.
         11    1    3    3    0    0 -0.21776549581E+02  0.81537647036E+01 -0.51827101493E+01  0.23823569742E+02  0.51100000000E-03 0.  1.
        -11    1    3    3    0    0 -0.11915477121E+02 -0.12330160916E+01 -0.14145468343E+02  0.18536267117E+02  0.51100000000E-03 0. -1.
         12    1    3    3    0    0 -0.51985772765E+01 -0.12649725869E+01  0.91198851713E+00  0.54274381065E+01  0.00000000000E+00 0. -1.
</event>
<event>
 7    1  0.2935819E-010  0.4778727E+02  0.7816164E-02  0.1312668E+00
        -11   -1    0    0    0    0  0.00000000000E+00  0.00000000000E+00  0.45593999997E+02  0.45594000000E+02  0.51100000000E-03 0. -1.
         11   -1    0    0    0    0 -0.00000000000E+00 -0.00000000000E+00 -0.45593999997E+02  0.45594000000E+02  0.51100000000E-03 0.  1.
    9900012    2    1    2    0    0  0.21810512317E+02  0.23801393220E+02  0.29007216357E+02  0.47787269966E+02  0.19999995082E+02 0.  0.
        -12    1    1    2    0    0 -0.21810512317E+02 -0.23801393220E+02 -0.29007216357E+02  0.43400730034E+02  0.00000000000E+00 0.  1.
         11    1    3    3    0    0  0.96262546424E+01  0.14440202509E+02  0.66821066963E+01  0.18596633488E+02  0.51100000000E-03 0. -1.
        -11    1    3    3    0    0  0.13479367552E+02  0.10274145797E+02  0.21579296834E+02  0.27439341712E+02  0.51100000000E-03 0.  1.
        -12    1    3    3    0    0 -0.12951098774E+01 -0.91295508597E+00  0.74581282580E+00  0.17512947652E+01  0.00000000000E+00 0.  1.
</event>
<event>
 7    1  0.2935819E-010  0.4778727E+02  0.7816164E-02  0.1312668E+00
        -11   -1    0    0    0    0  0.00000000000E+00  0.00000000000E+00  0.45593999997E+02  0.45594000000E+02  0.51100000000E-03 0.  1.
         11   -1    0    0    0    0 -0.00000000000E+00 -0.00000000000E+00 -0.45593999997E+02  0.45594000000E+02  0.51100000000E-03 0. -1.
    9900012    2    1    2    0    0  0.13899390339E+02  0.15354504221E+02 -0.38140132488E+02  0.47787267773E+02  0.19999985083E+02 0.  0.
        -12    1    1    2    0    0 -0.13899390339E+02 -0.15354504221E+02  0.38140132488E+02  0.43400732227E+02  0.00000000000E+00 0.  1.
         11    1    3    3    0    0  0.97505425977E+01  0.88563636886E+01 -0.33222695367E+02  0.35738714953E+02  0.51100000000E-03 0. -1.
        -11    1    3    3    0    0  0.13001675518E+01 -0.16496170136E+01  0.28372991272E-01  0.21005897367E+01  0.51100000000E-03 0.  1.
         12    1    3    3    0    0  0.28486801894E+01  0.81477575456E+01 -0.49458101118E+01  0.99479630833E+01  0.00000000000E+00 0. -1.
</event>
<event>
 7    1  0.2935819E-010  0.4778727E+02  0.7816164E-02  0.1312668E+00
        -11   -1    0    0    0    0  0.00000000000E+00  0.00000000000E+00  0.45593999997E+02  0.45594000000E+02  0.51100000000E-03 0. -1.
         11   -1    0    0    0    0 -0.00000000000E+00 -0.00000000000E+00 -0.45593999997E+02  0.45594000000E+02  0.51100000000E-03 0.  1.
    9900012    2    1    2    0    0  0.32000162189E+02 -0.18778688108E+02  0.22516085013E+02  0.47787267385E+02  0.19999983314E+02 0.  0.
        -12    1    1    2    0    0 -0.32000162189E+02  0.18778688108E+02 -0.22516085013E+02  0.43400732615E+02  0.00000000000E+00 0.  1.
         11    1    3    3    0    0  0.11121666944E+02  0.21321343404E+01  0.82828462631E+01  0.14030075372E+02  0.51100000000E-03 0. -1.
        -11    1    3    3    0    0  0.15178290278E+02 -0.13431946092E+02  0.56883511425E+01  0.21051247245E+02  0.51100000000E-03 0.  1.
         12    1    3    3    0    0  0.57002049673E+01 -0.74788763570E+01  0.85448876073E+01  0.12705944768E+02  0.00000000000E+00 0. -1.
</event>
<event>
 7    1  0.2935819E-010  0.4778727E+02  0.7816164E-02  0.1312668E+00
        -11   -1    0    0    0    0  0.00000000000E+00  0.00000000000E+00  0.45593999997E+02  0.45594000000E+02  0.51100000000E-03 0.  1.
         11   -1    0    0    0    0 -0.00000000000E+00 -0.00000000000E+00 -0.45593999997E+02  0.45594000000E+02  0.51100000000E-03 0. -1.
    9900012    2    1    2    0    0 -0.19809724151E+02  0.28947047369E+02 -0.25559080415E+02  0.47787270582E+02  0.19999997893E+02 0.  0.
        -12    1    1    2    0    0  0.19809724151E+02 -0.28947047369E+02  0.25559080415E+02  0.43400729418E+02  0.00000000000E+00 0.  1.
         11    1    3    3    0    0 -0.92345345562E+01  0.43056859843E+01 -0.15424018495E+02  0.18485559420E+02  0.51100000000E-03 0. -1.
        -11    1    3    3    0    0 -0.49236582182E+01  0.13547270724E+02 -0.23151531904E+01  0.14599003010E+02  0.51100000000E-03 0.  1.
         12    1    3    3    0    0 -0.56515313760E+01  0.11094090661E+02 -0.78199087298E+01  0.14702708153E+02  0.00000000000E+00 0. -1.
</event>
<event>
 7    1  0.2935819E-010  0.4778733E+02  0.7816164E-02  0.1312667E+00
        -11   -1    0    0    0    0  0.00000000000E+00  0.00000000000E+00  0.45593999997E+02  0.45594000000E+02  0.51100000000E-03 0.  1.
         11   -1    0    0    0    0 -0.00000000000E+00 -0.00000000000E+00 -0.45593999997E+02  0.45594000000E+02  0.51100000000E-03 0. -1.
    9900012    2    1    2    0    0 -0.56216713339E+01 -0.46632649383E+01 -0.42781640153E+02  0.47787332233E+02  0.20000278981E+02 0.  0.
        -12    1    1    2    0    0  0.56216713339E+01  0.46632649383E+01  0.42781640153E+02  0.43400667767E+02  0.00000000000E+00 0.  1.
         11    1    3    3    0    0 -0.70314688690E+00  0.57907999614E+01 -0.23029792408E+02  0.23757085645E+02  0.51100000000E-03 0. -1.
        -11    1    3    3    0    0  0.16710825572E+00 -0.80608138135E+01 -0.11894368810E+02  0.14369434720E+02  0.51100000000E-03 0.  1.
         12    1    3    3    0    0 -0.50856327027E+01 -0.23932510862E+01 -0.78574789342E+01  0.96608118680E+01  0.00000000000E+00 0. -1.
</event>
<event>
 7    1  0.2935819E-010  0.4778727E+02  0.7816164E-02  0.1312668E+00
        -11   -1    0    0    0    0  0.00000000000E+00  0.00000000000E+00  0.45593999997E+02  0.45594000000E+02  0.51100000000E-03 0.  1.
         11   -1    0    0    0    0 -0.00000000000E+00 -0.00000000000E+00 -0.45593999997E+02  0.45594000000E+02  0.51100000000E-03 0. -1.
    9900012    2    1    2    0    0 -0.22706141651E+02  0.36005695103E+02  0.84643009947E+01  0.47787270284E+02  0.19999996535E+02 0.  0.
        -12    1    1    2    0    0  0.22706141651E+02 -0.36005695103E+02 -0.84643009947E+01  0.43400729716E+02  0.00000000000E+00 0.  1.
         11    1    3    3    0    0 -0.12845842232E+02  0.57108576417E+01  0.10912684228E+01  0.14100369665E+02  0.51100000000E-03 0. -1.
        -11    1    3    3    0    0  0.21610299876E+00  0.89595109620E+01 -0.15083897836E-01  0.89621294885E+01  0.51100000000E-03 0.  1.
         12    1    3    3    0    0 -0.10076402418E+02  0.21335326499E+02  0.73881164698E+01  0.24724771131E+02  0.00000000000E+00 0. -1.
</event>
<event>
 7    1  0.2935819E-010  0.4778727E+02  0.7816164E-02  0.1312668E+00
        -11   -1    0    0    0    0  0.00000000000E+00  0.00000000000E+00  0.45593999997E+02  0.45594000000E+02  0.51100000000E-03 0.  1.
         11   -1    0    0    0    0 -0.00000000000E+00 -0.00000000000E+00 -0.45593999997E+02  0.45594000000E+02  0.51100000000E-03 0. -1.
    9900012    2    1    2    0    0 -0.30845795397E+02 -0.50998944039E+01 -0.30102346542E+02  0.47787270928E+02  0.19999999471E+02 0.  0.
        -12    1    1    2    0    0  0.30845795397E+02  0.50998944039E+01  0.30102346542E+02  0.43400729072E+02  0.00000000000E+00 0.  1.
         11    1    3    3    0    0 -0.24375654676E+02 -0.86318764539E+01 -0.23299418392E+02  0.34807251108E+02  0.51100000000E-03 0. -1.
        -11    1    3    3    0    0 -0.11374980297E+01  0.24153167078E+01  0.14900573479E+01  0.30574380988E+01  0.51100000000E-03 0.  1.
         12    1    3    3    0    0 -0.53326426914E+01  0.11166653422E+01 -0.82929854976E+01  0.99225817217E+01  0.00000000000E+00 0. -1.
</event>
<event>
 7    1  0.2935819E-010  0.4778727E+02  0.7816164E-02  0.1312668E+00
        -11   -1    0    0    0    0  0.00000000000E+00  0.00000000000E+00  0.45593999997E+02  0.45594000000E+02  0.51100000000E-03 0. -1.
         11   -1    0    0    0    0 -0.00000000000E+00 -0.00000000000E+00 -0.45593999997E+02  0.45594000000E+02  0.51100000000E-03 0.  1.
    9900012    2    1    2    0    0  0.26503222898E+02  0.35929078733E+01  0.34180310922E+02  0.47787268834E+02  0.19999989922E+02 0.  0.
        -12    1    1    2    0    0 -0.26503222898E+02 -0.35929078733E+01 -0.34180310922E+02  0.43400731166E+02  0.00000000000E+00 0.  1.
         11    1    3    3    0    0  0.11768904074E+02 -0.43981196484E+00  0.13772432257E+02  0.18121270050E+02  0.51100000000E-03 0. -1.
        -11    1    3    3    0    0  0.89575864449E+01 -0.23777158887E+01  0.18698209063E+02  0.20868993991E+02  0.51100000000E-03 0.  1.
        -12    1    3    3    0    0  0.57767323790E+01  0.64104357268E+01  0.17096696020E+01  0.87970047934E+01  0.00000000000E+00 0.  1.
</event>
<event>
 7    1  0.2935819E-010  0.4778727E+02  0.7816164E-02  0.1312668E+00
        -11   -1    0    0    0    0  0.00000000000E+00  0.00000000000E+00  0.45593999997E+02  0.45594000000E+02  0.51100000000E-03 0. -1.
         11   -1    0    0    0    0 -0.00000000000E+00 -0.00000000000E+00 -0.45593999997E+02  0.45594000000E+02  0.51100000000E-03 0.  1.
    9900012    2    1    2    0    0 -0.17488531201E+02 -0.39121648735E+02  0.68753798155E+01  0.47787274535E+02  0.20000015913E+02 0.  0.
        -12    1    1    2    0    0  0.17488531201E+02  0.39121648735E+02 -0.68753798155E+01  0.43400725465E+02  0.00000000000E+00 0.  1.
         11    1    3    3    0    0  0.25028633853E+01 -0.13509934275E+02 -0.18312514418E+01  0.13861317807E+02  0.51100000000E-03 0. -1.
        -11    1    3    3    0    0 -0.31661177791E+01 -0.25472567468E+01 -0.50242677963E-01  0.40639073947E+01  0.51100000000E-03 0.  1.
         12    1    3    3    0    0 -0.16825276807E+02 -0.23064457714E+02  0.87568739353E+01  0.29862049333E+02  0.00000000000E+00 0. -1.
</event>
<event>
 7    1  0.2935819E-010  0.4778729E+02  0.7816164E-02  0.1312668E+00
        -11   -1    0    0    0    0  0.00000000000E+00  0.00000000000E+00  0.45593999997E+02  0.45594000000E+02  0.51100000000E-03 0. -1.
         11   -1    0    0    0    0 -0.00000000000E+00 -0.00000000000E+00 -0.45593999997E+02  0.45594000000E+02  0.51100000000E-03 0.  1.
    9900012    2    1    2    0    0  0.30379365909E+01  0.42714508596E+02 -0.70613902481E+01  0.47787291071E+02  0.20000091307E+02 0.  0.
        -12    1    1    2    0    0 -0.30379365909E+01 -0.42714508596E+02  0.70613902481E+01  0.43400708929E+02  0.00000000000E+00 0.  1.
         11    1    3    3    0    0  0.70043779496E+01  0.16380817528E+02 -0.82588550125E+01  0.19636730373E+02  0.51100000000E-03 0. -1.
        -11    1    3    3    0    0 -0.77909514986E+00  0.78322755583E+01  0.45325016015E+01  0.90826813608E+01  0.51100000000E-03 0.  1.
         12    1    3    3    0    0 -0.31873462088E+01  0.18501415510E+02 -0.33350368371E+01  0.19067879337E+02  0.00000000000E+00 0. -1.
</event>
<event>
 7    1  0.2935819E-010  0.4778727E+02  0.7816164E-02  0.1312668E+00
        -11   -1    0    0    0    0  0.00000000000E+00  0.00000000000E+00  0.45593999997E+02  0.45594000000E+02  0.51100000000E-03 0. -1.
         11   -1    0    0    0    0 -0.00000000000E+00 -0.00000000000E+00 -0.45593999997E+02  0.45594000000E+02  0.51100000000E-03 0.  1.
    9900012    2    1    2    0    0  0.18871819065E+02  0.15177660577E+02  0.36015502558E+02  0.47787270053E+02  0.19999995481E+02 0.  0.
        -12    1    1    2    0    0 -0.18871819065E+02 -0.15177660577E+02 -0.36015502558E+02  0.43400729947E+02  0.00000000000E+00 0.  1.
         11    1    3    3    0    0  0.89459262792E+01  0.94083424254E+01  0.26474304274E+02  0.29486188144E+02  0.51100000000E-03 0. -1.
        -11    1    3    3    0    0  0.58853481727E+00 -0.15960758348E+01 -0.13524637188E+01  0.21732440437E+01  0.51100000000E-03 0.  1.
         12    1    3    3    0    0  0.93373579686E+01  0.73653939860E+01  0.10893662003E+02  0.16127837866E+02  0.00000000000E+00 0. -1.
</event>
<event>
 7    1  0.2935819E-010  0.4778728E+02  0.7816164E-02  0.1312668E+00
        -11   -1    0    0    0    0  0.00000000000E+00  0.00000000000E+00  0.45593999997E+02  0.45594000000E+02  0.51100000000E-03 0.  1.
         11   -1    0    0    0    0 -0.00000000000E+00 -0.00000000000E+00 -0.45593999997E+02  0.45594000000E+02  0.51100000000E-03 0. -1.
    9900012    2    1    2    0    0 -0.95772748296E+01 -0.25001228946E+02 -0.34158999717E+02  0.47787275310E+02  0.20000019446E+02 0.  0.
        -12    1    1    2    0    0  0.95772748296E+01  0.25001228946E+02  0.34158999717E+02  0.43400724690E+02  0.00000000000E+00 0.  1.
         11    1    3    3    0    0 -0.73208950290E+01 -0.15106671664E+02 -0.20814125506E+02  0.26740135632E+02  0.51100000000E-03 0. -1.
        -11    1    3    3    0    0  0.31924705807E+01 -0.43560861054E+00 -0.85263478258E+01  0.91148357516E+01  0.51100000000E-03 0.  1.
        -12    1    3    3    0    0 -0.54488503813E+01 -0.94589486715E+01 -0.48185263854E+01  0.11932303926E+02  0.00000000000E+00 0.  1.
</event>
<event>
 7    1  0.2935819E-010  0.4778727E+02  0.7816164E-02  0.1312668E+00
        -11   -1    0    0    0    0  0.00000000000E+00  0.00000000000E+00  0.45593999997E+02  0.45594000000E+02  0.51100000000E-03 0.  1.
         11   -1    0    0    0    0 -0.00000000000E+00 -0.00000000000E+00 -0.45593999997E+02  0.45594000000E+02  0.51100000000E-03 0. -1.
    9900012    2    1    2    0    0  0.11864394684E+02 -0.37540647854E+02 -0.18263609917E+02  0.47787267867E+02  0.19999985511E+02 0.  0.
        -12    1    1    2    0    0 -0.11864394684E+02  0.37540647854E+02  0.18263609917E+02  0.43400732133E+02  0.00000000000E+00 0.  1.
         11    1    3    3    0    0  0.43287869206E+01 -0.70595637122E+01 -0.42010277626E+01  0.92857132485E+01  0.51100000000E-03 0. -1.
        -11    1    3    3    0    0  0.12786855284E+02 -0.16767129680E+02 -0.94682850132E+01  0.23114686395E+02  0.51100000000E-03 0.  1.
        -12    1    3    3    0    0 -0.52512475213E+01 -0.13713954461E+02 -0.45942971413E+01  0.15386868223E+02  0.00000000000E+00 0.  1.
</event>
<event>
 7    1  0.2935819E-010  0.4778727E+02  0.7816164E-02  0.1312668E+00
        -11   -1    0    0    0    0  0.00000000000E+00  0.00000000000E+00  0.45593999997E+02  0.45594000000E+02  0.51100000000E-03 0. -1.
         11   -1    0    0    0    0 -0.00000000000E+00 -0.00000000000E+00 -0.45593999997E+02  0.45594000000E+02  0.51100000000E-03 0.  1.
    9900012    2    1    2    0    0 -0.44852995280E+01  0.40820976611E+02 -0.14041129905E+02  0.47787269909E+02  0.19999994825E+02 0.  0.
        -12    1    1    2    0    0  0.44852995280E+01 -0.40820976611E+02  0.14041129905E+02  0.43400730091E+02  0.00000000000E+00 0.  1.
         11    1    3    3    0    0 -0.11080379295E+02  0.21116188272E+02 -0.50847653529E+01  0.24382843383E+02  0.51100000000E-03 0. -1.
        -11    1    3    3    0    0  0.62918431539E+01  0.10524194894E+02 -0.65839119203E+01  0.13917394328E+02  0.51100000000E-03 0.  1.
        -12    1    3    3    0    0  0.30323661346E+00  0.91805934447E+01 -0.23724526321E+01  0.94870321983E+01  0.00000000000E+00 0.  1.
</event>
<event>
 7    1  0.2935819E-010  0.4778726E+02  0.7816164E-02  0.1312668E+00
        -11   -1    0    0    0    0  0.00000000000E+00  0.00000000000E+00  0.45593999997E+02  0.45594000000E+02  0.51100000000E-03 0.  1.
         11   -1    0    0    0    0 -0.00000000000E+00 -0.00000000000E+00 -0.45593999997E+02  0.45594000000E+02  0.51100000000E-03 0. -1.
    9900012    2    1    2    0    0  0.12292838757E+02 -0.15757877337E+02 -0.38525311906E+02  0.47787259910E+02  0.19999949234E+02 0.  0.
        -12    1    1    2    0    0 -0.12292838757E+02  0.15757877337E+02  0.38525311906E+02  0.43400740090E+02  0.00000000000E+00 0.  1.
         11    1    3    3    0    0  0.11727561109E+02 -0.14957307493E+02 -0.26203895621E+02  0.32371297209E+02  0.51100000000E-03 0. -1.
        -11    1    3    3    0    0  0.12687082059E+01  0.25350292397E+01 -0.11587075290E+02  0.11928801608E+02  0.51100000000E-03 0.  1.
         12    1    3    3    0    0 -0.70343055776E+00 -0.33355990830E+01 -0.73434099533E+00  0.34871610931E+01  0.00000000000E+00 0. -1.
</event>
<event>
 7    1  0.2935819E-010  0.4778728E+02  0.7816164E-02  0.1312668E+00
        -11   -1    0    0    0    0  0.00000000000E+00  0.00000000000E+00  0.45593999997E+02  0.45594000000E+02  0.51100000000E-03 0.  1.
         11   -1    0    0    0    0 -0.00000000000E+00 -0.00000000000E+00 -0.45593999997E+02  0.45594000000E+02  0.51100000000E-03 0. -1.
    9900012    2    1    2    0    0 -0.21363080965E+02 -0.36473859853E+02 -0.98437362136E+01  0.47787276233E+02  0.20000023657E+02 0.  0.
        -12    1    1    2    0    0  0.21363080965E+02  0.36473859853E+02  0.98437362136E+01  0.43400723767E+02  0.00000000000E+00 0.  1.
         11    1    3    3    0    0 -0.51351637932E+01 -0.22766085891E+02 -0.60020057693E+01  0.24097482182E+02  0.51100000000E-03 0. -1.
        -11    1    3    3    0    0 -0.77574816967E+01 -0.29717050855E+01  0.24151798520E+01  0.86511645093E+01  0.51100000000E-03 0.  1.
         12    1    3    3    0    0 -0.84704354747E+01 -0.10736068876E+02 -0.62569102963E+01  0.15038629542E+02  0.00000000000E+00 0. -1.
</event>
<event>
 7    1  0.2935819E-010  0.4778727E+02  0.7816164E-02  0.1312668E+00
        -11   -1    0    0    0    0  0.00000000000E+00  0.00000000000E+00  0.45593999997E+02  0.45594000000E+02  0.51100000000E-03 0.  1.
         11   -1    0    0    0    0 -0.00000000000E+00 -0.00000000000E+00 -0.45593999997E+02  0.45594000000E+02  0.51100000000E-03 0. -1.
    9900012    2    1    2    0    0 -0.35387686423E+02  0.57224634053E+01 -0.24466061829E+02  0.47787272826E+02  0.20000008124E+02 0.  0.
        -12    1    1    2    0    0  0.35387686423E+02 -0.57224634053E+01  0.24466061829E+02  0.43400727174E+02  0.00000000000E+00 0.  1.
         11    1    3    3    0    0 -0.11866023305E+02  0.11169596937E+02 -0.90331800544E+01  0.18632250186E+02  0.51100000000E-03 0. -1.
        -11    1    3    3    0    0 -0.11505163791E+02 -0.27284561961E+01 -0.43986266416E+01  0.12615909942E+02  0.51100000000E-03 0.  1.
         12    1    3    3    0    0 -0.12016499327E+02 -0.27186773358E+01 -0.11034255133E+02  0.16539112699E+02  0.00000000000E+00 0. -1.
</event>
<event>
 7    1  0.2935819E-010  0.4778727E+02  0.7816164E-02  0.1312668E+00
        -11   -1    0    0    0    0  0.00000000000E+00  0.00000000000E+00  0.45593999997E+02  0.45594000000E+02  0.51100000000E-03 0.  1.
         11   -1    0    0    0    0 -0.00000000000E+00 -0.00000000000E+00 -0.45593999997E+02  0.45594000000E+02  0.51100000000E-03 0. -1.
    9900012    2    1    2    0    0 -0.31497588597E+02 -0.63587055274E+01 -0.29173483528E+02  0.47787270000E+02  0.19999995238E+02 0.  0.
        -12    1    1    2    0    0  0.31497588597E+02  0.63587055274E+01  0.29173483528E+02  0.43400730000E+02  0.00000000000E+00 0.  1.
         11    1    3    3    0    0  0.19783540597E+01 -0.19739228336E+01 -0.44647288173E+01  0.52672630285E+01  0.51100000000E-03 0. -1.
        -11    1    3    3    0    0 -0.56139862971E+01  0.11534937411E+01 -0.69929199808E+01  0.90414777594E+01  0.51100000000E-03 0.  1.
         12    1    3    3    0    0 -0.27861956359E+02 -0.55382764349E+01 -0.17715834729E+02  0.33478529212E+02  0.00000000000E+00 0. -1.
</event>
<event>
 7    1  0.2935819E-010  0.4778728E+02  0.7816164E-02  0.1312668E+00
        -11   -1    0    0    0    0  0.00000000000E+00  0.00000000000E+00  0.45593999997E+02  0.45594000000E+02  0.51100000000E-03 0. -1.
         11   -1    0    0    0    0 -0.00000000000E+00 -0.00000000000E+00 -0.45593999997E+02  0.45594000000E+02  0.51100000000E-03 0.  1.
    9900012    2    1    2    0    0 -0.43786266243E+01 -0.17926136359E+02  0.39282361446E+02  0.47787278155E+02  0.20000032420E+02 0.  0.
        -12    1    1    2    0    0  0.43786266243E+01  0.17926136359E+02 -0.39282361446E+02  0.43400721845E+02  0.00000000000E+00 0.  1.
         11    1    3    3    0    0  0.26104929378E+01 -0.90444676653E+01  0.29543698732E+02  0.31007212125E+02  0.51100000000E-03 0. -1.
        -11    1    3    3    0    0 -0.46176109547E+01 -0.98745878640E+01  0.66818313772E+01  0.12785800219E+02  0.51100000000E-03 0.  1.
        -12    1    3    3    0    0 -0.23715086073E+01  0.99291917008E+00  0.30568313364E+01  0.39942658114E+01  0.00000000000E+00 0.  1.
</event>
<event>
 7    1  0.2935819E-010  0.4778727E+02  0.7816164E-02  0.1312668E+00
        -11   -1    0    0    0    0  0.00000000000E+00  0.00000000000E+00  0.45593999997E+02  0.45594000000E+02  0.51100000000E-03 0. -1.
         11   -1    0    0    0    0 -0.00000000000E+00 -0.00000000000E+00 -0.45593999997E+02  0.45594000000E+02  0.51100000000E-03 0.  1.
    9900012    2    1    2    0    0  0.32062485672E+02 -0.29132638795E+02  0.26286159624E+01  0.47787271290E+02  0.20000001121E+02 0.  0.
        -12    1    1    2    0    0 -0.32062485672E+02  0.29132638795E+02 -0.26286159624E+01  0.43400728710E+02  0.00000000000E+00 0.  1.
         11    1    3    3    0    0  0.91333239561E+01 -0.87301972434E+01 -0.14739729059E+01  0.12720320231E+02  0.51100000000E-03 0.  1.
        -11    1    3    3    0    0  0.22856625397E+02 -0.11687938034E+02  0.61157466034E+00  0.25678926065E+02  0.51100000000E-03 0. -1.
        -12    1    3    3    0    0  0.72536318553E-01 -0.87145035186E+01  0.34910142080E+01  0.93880249942E+01  0.00000000000E+00 0.  1.
</event>
<event>
 7    1  0.2935819E-010  0.4778727E+02  0.7816164E-02  0.1312668E+00
        -11   -1    0    0    0    0  0.00000000000E+00  0.00000000000E+00  0.45593999997E+02  0.45594000000E+02  0.51100000000E-03 0.  1.
         11   -1    0    0    0    0 -0.00000000000E+00 -0.00000000000E+00 -0.45593999997E+02  0.45594000000E+02  0.51100000000E-03 0. -1.
    9900012    2    1    2    0    0 -0.64880764723E+01  0.29023793653E+02 -0.31609296477E+02  0.47787270074E+02  0.19999995575E+02 0.  0.
        -12    1    1    2    0    0  0.64880764723E+01 -0.29023793653E+02  0.31609296477E+02  0.43400729926E+02  0.00000000000E+00 0.  1.
         11    1    3    3    0    0 -0.47840542954E+01  0.74268214659E+01 -0.93567789013E+01  0.12868339608E+02  0.51100000000E-03 0. -1.
        -11    1    3    3    0    0 -0.49299697685E+01  0.55016006397E+01 -0.15190846333E+00  0.73888624266E+01  0.51100000000E-03 0.  1.
        -12    1    3    3    0    0  0.32259475916E+01  0.16095371547E+02 -0.22100609113E+02  0.27530068040E+02  0.00000000000E+00 0.  1.
</event>
<event>
 7    1  0.2935819E-010  0.4778727E+02  0.7816164E-02  0.1312668E+00
        -11   -1    0    0    0    0  0.00000000000E+00  0.00000000000E+00  0.45593999997E+02  0.45594000000E+02  0.51100000000E-03 0. -1.
         11   -1    0    0    0    0 -0.00000000000E+00 -0.00000000000E+00 -0.45593999997E+02  0.45594000000E+02  0.51100000000E-03 0.  1.
    9900012    2    1    2    0    0 -0.34806623324E+02  0.37873376461E+01 -0.25647194438E+02  0.47787268022E+02  0.19999986219E+02 0.  0.
        -12    1    1    2    0    0  0.34806623324E+02 -0.37873376461E+01  0.25647194438E+02  0.43400731978E+02  0.00000000000E+00 0.  1.
         11    1    3    3    0    0 -0.36851205720E+01  0.67381571456E+01 -0.38402278126E+01  0.85866306118E+01  0.51100000000E-03 0.  1.
        -11    1    3    3    0    0 -0.31022862183E+02 -0.14353252394E+01 -0.20744678093E+02  0.37347286461E+02  0.51100000000E-03 0. -1.
         12    1    3    3    0    0 -0.98640569582E-01 -0.15154942602E+01 -0.10622885325E+01  0.18533509492E+01  0.00000000000E+00 0. -1.
</event>
<event>
 7    1  0.2935819E-010  0.4778728E+02  0.7816164E-02  0.1312668E+00
        -11   -1    0    0    0    0  0.00000000000E+00  0.00000000000E+00  0.45593999997E+02  0.45594000000E+02  0.51100000000E-03 0.  1.
         11   -1    0    0    0    0 -0.00000000000E+00 -0.00000000000E+00 -0.45593999997E+02  0.45594000000E+02  0.51100000000E-03 0. -1.
    9900012    2    1    2    0    0  0.61248215601E+00 -0.32047363014E+02 -0.29261137121E+02  0.47787277009E+02  0.20000027193E+02 0.  0.
        -12    1    1    2    0    0 -0.61248215601E+00  0.32047363014E+02  0.29261137121E+02  0.43400722991E+02  0.00000000000E+00 0.  1.
         11    1    3    3    0    0  0.39195616260E+01 -0.20391329447E+02 -0.19925596295E+02  0.28778441027E+02  0.51100000000E-03 0. -1.
        -11    1    3    3    0    0 -0.44126660898E+00 -0.12999618914E+02 -0.90186977865E+01  0.15827877879E+02  0.51100000000E-03 0.  1.
         12    1    3    3    0    0 -0.28658128610E+01  0.13435853471E+01 -0.31684303962E+00  0.31809581027E+01  0.00000000000E+00 0. -1.
</event>
<event>
 7    1  0.2935819E-010  0.4778727E+02  0.7816164E-02  0.1312668E+00
        -11   -1    0    0    0    0  0.00000000000E+00  0.00000000000E+00  0.45593999997E+02  0.45594000000E+02  0.51100000000E-03 0. -1.
         11   -1    0    0    0    0 -0.00000000000E+00 -0.00000000000E+00 -0.45593999997E+02  0.45594000000E+02  0.51100000000E-03 0.  1.
    9900012    2    1    2    0    0 -0.38335478586E+02  0.15647184920E+02  0.13006916054E+02  0.47787272131E+02  0.20000004953E+02 0.  0.
        -12    1    1    2    0    0  0.38335478586E+02 -0.15647184920E+02 -0.13006916054E+02  0.43400727869E+02  0.00000000000E+00 0.  1.
         11    1    3    3    0    0 -0.16645211670E+02  0.11416338714E+02  0.15086796273E+02  0.25199350849E+02  0.51100000000E-03 0. -1.
        -11    1    3    3    0    0 -0.67785629760E+01 -0.80671927686E-01  0.71204076942E+00  0.68163352542E+01  0.51100000000E-03 0.  1.
         12    1    3    3    0    0 -0.14911703941E+02  0.43115181334E+01 -0.27919209885E+01  0.15771586028E+02  0.00000000000E+00 0. -1.
</event>
<event>
 7    1  0.2935819E-010  0.4778727E+02  0.7816164E-02  0.1312668E+00
        -11   -1    0    0    0    0  0.00000000000E+00  0.00000000000E+00  0.45593999997E+02  0.45594000000E+02  0.51100000000E-03 0.  1.
         11   -1    0    0    0    0 -0.00000000000E+00 -0.00000000000E+00 -0.45593999997E+02  0.45594000000E+02  0.51100000000E-03 0. -1.
    9900012    2    1    2    0    0  0.31457423886E+02  0.29300249894E+02 -0.59623235879E+01  0.47787268855E+02  0.19999990017E+02 0.  0.
        -12    1    1    2    0    0 -0.31457423886E+02 -0.29300249894E+02  0.59623235879E+01  0.43400731145E+02  0.00000000000E+00 0.  1.
         11    1    3    3    0    0  0.30390204934E+01  0.54909507857E+01 -0.84301144343E+00  0.63322077228E+01  0.51100000000E-03 0. -1.
        -11    1    3    3    0    0  0.18158826778E+02  0.12164701155E+02 -0.11473271573E+02  0.24685196069E+02  0.51100000000E-03 0.  1.
        -12    1    3    3    0    0  0.10259576614E+02  0.11644597953E+02  0.63539594286E+01  0.16769865063E+02  0.00000000000E+00 0.  1.
</event>
<event>
 7    1  0.2935819E-010  0.4778728E+02  0.7816164E-02  0.1312668E+00
        -11   -1    0    0    0    0  0.00000000000E+00  0.00000000000E+00  0.45593999997E+02  0.45594000000E+02  0.51100000000E-03 0.  1.
         11   -1    0    0    0    0 -0.00000000000E+00 -0.00000000000E+00 -0.45593999997E+02  0.45594000000E+02  0.51100000000E-03 0. -1.
    9900012    2    1    2    0    0  0.24017183971E+02  0.47579797082E+01 -0.35835169165E+02  0.47787275975E+02  0.20000022480E+02 0.  0.
        -12    1    1    2    0    0 -0.24017183971E+02 -0.47579797082E+01  0.35835169165E+02  0.43400724025E+02  0.00000000000E+00 0.  1.
         11    1    3    3    0    0  0.22811132095E+02  0.10719463935E+02 -0.30566498261E+02  0.39617741868E+02  0.51100000000E-03 0.  1.
        -11    1    3    3    0    0  0.34906564194E+00 -0.36905386905E+01 -0.24199864631E+01  0.44269919122E+01  0.51100000000E-03 0. -1.
        -12    1    3    3    0    0  0.85698623382E+00 -0.22709455365E+01 -0.28486844418E+01  0.37425421953E+01  0.00000000000E+00 0.  1.
</event>
<event>
 7    1  0.2935819E-010  0.4778727E+02  0.7816164E-02  0.1312668E+00
        -11   -1    0    0    0    0  0.00000000000E+00  0.00000000000E+00  0.45593999997E+02  0.45594000000E+02  0.51100000000E-03 0. -1.
         11   -1    0    0    0    0 -0.00000000000E+00 -0.00000000000E+00 -0.45593999997E+02  0.45594000000E+02  0.51100000000E-03 0.  1.
    9900012    2    1    2    0    0 -0.37583901212E+02  0.17688980752E+01  0.21632026061E+02  0.47787272100E+02  0.20000004814E+02 0.  0.
        -12    1    1    2    0    0  0.37583901212E+02 -0.17688980752E+01 -0.21632026061E+02  0.43400727900E+02  0.00000000000E+00 0.  1.
         11    1    3    3    0    0 -0.11882906139E+02  0.11601413835E+01  0.63469189735E+01  0.13521566738E+02  0.51100000000E-03 0. -1.
        -11    1    3    3    0    0 -0.27742382534E+02 -0.14333853076E+01  0.13775169242E+02  0.31007251894E+02  0.51100000000E-03 0.  1.
        -12    1    3    3    0    0  0.20413874607E+01  0.20421419993E+01  0.15099378454E+01  0.32584534686E+01  0.00000000000E+00 0.  1.
</event>
<event>
 7    1  0.2935819E-010  0.4778727E+02  0.7816164E-02  0.1312668E+00
        -11   -1    0    0    0    0  0.00000000000E+00  0.00000000000E+00  0.45593999997E+02  0.45594000000E+02  0.51100000000E-03 0. -1.
         11   -1    0    0    0    0 -0.00000000000E+00 -0.00000000000E+00 -0.45593999997E+02  0.45594000000E+02  0.51100000000E-03 0.  1.
    9900012    2    1    2    0    0 -0.25250557513E+02 -0.37804422361E+00  0.35297168261E+02  0.47787266603E+02  0.19999979749E+02 0.  0.
        -12    1    1    2    0    0  0.25250557513E+02  0.37804422361E+00 -0.35297168261E+02  0.43400733397E+02  0.00000000000E+00 0.  1.
         11    1    3    3    0    0 -0.11441914167E+02 -0.16672958368E+01  0.30688129085E+02  0.32794184579E+02  0.51100000000E-03 0. -1.
        -11    1    3    3    0    0 -0.86221201706E+01 -0.69187846739E+00  0.21037332530E+01  0.89019855039E+01  0.51100000000E-03 0.  1.
         12    1    3    3    0    0 -0.51865231750E+01  0.19811300806E+01  0.25053059230E+01  0.60910965194E+01  0.00000000000E+00 0. -1.
</event>
<event>
 7    1  0.2935819E-010  0.4778725E+02  0.7816164E-02  0.1312668E+00
        -11   -1    0    0    0    0  0.00000000000E+00  0.00000000000E+00  0.45593999997E+02  0.45594000000E+02  0.51100000000E-03 0.  1.
         11   -1    0    0    0    0 -0.00000000000E+00 -0.00000000000E+00 -0.45593999997E+02  0.45594000000E+02  0.51100000000E-03 0. -1.
    9900012    2    1    2    0    0 -0.25849766732E+02 -0.92912873757E+01 -0.33601881637E+02  0.47787252187E+02  0.19999914020E+02 0.  0.
        -12    1    1    2    0    0  0.25849766732E+02  0.92912873757E+01  0.33601881637E+02  0.43400747813E+02  0.00000000000E+00 0.  1.
         11    1    3    3    0    0 -0.59405734789E+00 -0.79971948093E+01 -0.50298697284E+01  0.94661300803E+01  0.51100000000E-03 0. -1.
        -11    1    3    3    0    0 -0.14163859232E+02 -0.89270821562E+00 -0.13365284340E+02  0.19494682918E+02  0.51100000000E-03 0.  1.
         12    1    3    3    0    0 -0.11091850152E+02 -0.40138435079E+00 -0.15206727569E+02  0.18826439189E+02  0.00000000000E+00 0. -1.
</event>
<event>
 7    1  0.2935819E-010  0.4778727E+02  0.7816164E-02  0.1312668E+00
        -11   -1    0    0    0    0  0.00000000000E+00  0.00000000000E+00  0.45593999997E+02  0.45594000000E+02  0.51100000000E-03 0.  1.
         11   -1    0    0    0    0 -0.00000000000E+00 -0.00000000000E+00 -0.45593999997E+02  0.45594000000E+02  0.51100000000E-03 0. -1.
    9900012    2    1    2    0    0 -0.33897068931E+02 -0.22289819595E+02 -0.15419985075E+02  0.47787270980E+02  0.19999999708E+02 0.  0.
        -12    1    1    2    0    0  0.33897068931E+02  0.22289819595E+02  0.15419985075E+02  0.43400729020E+02  0.00000000000E+00 0.  1.
         11    1    3    3    0    0 -0.21057523143E+02 -0.57334655938E+01 -0.11134898828E+02  0.24500568989E+02  0.51100000000E-03 0. -1.
        -11    1    3    3    0    0 -0.13013069630E+01 -0.83225293842E+01 -0.34009429123E+01  0.90842890815E+01  0.51100000000E-03 0.  1.
        -12    1    3    3    0    0 -0.11538238825E+02 -0.82338246174E+01 -0.88414333460E+00  0.14202412910E+02  0.00000000000E+00 0.  1.
</event>
<event>
 7    1  0.2935819E-010  0.4778727E+02  0.7816164E-02  0.1312668E+00
        -11   -1    0    0    0    0  0.00000000000E+00  0.00000000000E+00  0.45593999997E+02  0.45594000000E+02  0.51100000000E-03 0. -1.
         11   -1    0    0    0    0 -0.00000000000E+00 -0.00000000000E+00 -0.45593999997E+02  0.45594000000E+02  0.51100000000E-03 0.  1.
    9900012    2    1    2    0    0  0.13288921748E+02  0.64827481927E+01  0.40804430663E+02  0.47787273888E+02  0.20000012965E+02 0.  0.
        -12    1    1    2    0    0 -0.13288921748E+02 -0.64827481927E+01 -0.40804430663E+02  0.43400726112E+02  0.00000000000E+00 0.  1.
         11    1    3    3    0    0  0.64347910786E+01  0.11147747962E+02  0.23420954848E+02  0.26724893772E+02  0.51100000000E-03 0. -1.
        -11    1    3    3    0    0 -0.34813654573E+00  0.62707282080E+00 -0.62932212394E+00  0.95418340682E+00  0.51100000000E-03 0.  1.
         12    1    3    3    0    0  0.72022672149E+01 -0.52920725903E+01  0.18012797938E+02  0.20108196709E+02  0.00000000000E+00 0. -1.
</event>
<event>
 7    1  0.2935819E-010  0.4778727E+02  0.7816164E-02  0.1312668E+00
        -11   -1    0    0    0    0  0.00000000000E+00  0.00000000000E+00  0.45593999997E+02  0.45594000000E+02  0.51100000000E-03 0.  1.
         11   -1    0    0    0    0 -0.00000000000E+00 -0.00000000000E+00 -0.45593999997E+02  0.45594000000E+02  0.51100000000E-03 0. -1.
    9900012    2    1    2    0    0 -0.25459476724E+02 -0.25154211323E+02 -0.24550027242E+02  0.47787272588E+02  0.20000007036E+02 0.  0.
        -12    1    1    2    0    0  0.25459476724E+02  0.25154211323E+02  0.24550027242E+02  0.43400727412E+02  0.00000000000E+00 0.  1.
         11    1    3    3    0    0 -0.10903544968E+02 -0.93343416683E+01 -0.38153606693E+01  0.14851740792E+02  0.51100000000E-03 0.  1.
        -11    1    3    3    0    0 -0.11711367654E+02 -0.91055770233E+01 -0.20914337964E+02  0.25641318179E+02  0.51100000000E-03 0. -1.
        -12    1    3    3    0    0 -0.28445641027E+01 -0.67142926314E+01  0.17967139143E+00  0.72942136165E+01  0.00000000000E+00 0.  1.
</event>
<event>
 7    1  0.2935819E-010  0.4778727E+02  0.7816164E-02  0.1312668E+00
        -11   -1    0    0    0    0  0.00000000000E+00  0.00000000000E+00  0.45593999997E+02  0.45594000000E+02  0.51100000000E-03 0.  1.
         11   -1    0    0    0    0 -0.00000000000E+00 -0.00000000000E+00 -0.45593999997E+02  0.45594000000E+02  0.51100000000E-03 0. -1.
    9900012    2    1    2    0    0 -0.84691301567E+01  0.32967112284E+02 -0.26927069674E+02  0.47787265684E+02  0.19999975558E+02 0.  0.
        -12    1    1    2    0    0  0.84691301567E+01 -0.32967112284E+02  0.26927069674E+02  0.43400734316E+02  0.00000000000E+00 0.  1.
         11    1    3    3    0    0 -0.11196054824E+02  0.12631498059E+02 -0.16305061257E+02  0.23468306494E+02  0.51100000000E-03 0. -1.
        -11    1    3    3    0    0  0.16154633264E+01  0.19369599091E+02 -0.74389235800E+01  0.20811743680E+02  0.51100000000E-03 0.  1.
        -12    1    3    3    0    0  0.11114613409E+01  0.96601513390E+00 -0.31830848370E+01  0.35072155096E+01  0.00000000000E+00 0.  1.
</event>
<event>
 7    1  0.2935819E-010  0.4778727E+02  0.7816164E-02  0.1312668E+00
        -11   -1    0    0    0    0  0.00000000000E+00  0.00000000000E+00  0.45593999997E+02  0.45594000000E+02  0.51100000000E-03 0. -1.
         11   -1    0    0    0    0 -0.00000000000E+00 -0.00000000000E+00 -0.45593999997E+02  0.45594000000E+02  0.51100000000E-03 0.  1.
    9900012    2    1    2    0    0 -0.84520154184E+01 -0.18436344434E+02  0.38370401270E+02  0.47787273574E+02  0.20000011533E+02 0.  0.
        -12    1    1    2    0    0  0.84520154184E+01  0.18436344434E+02 -0.38370401270E+02  0.43400726426E+02  0.00000000000E+00 0.  1.
         11    1    3    3    0    0  0.25925686428E-01 -0.12376811376E+02  0.18190253671E+02  0.22001624050E+02  0.51100000000E-03 0. -1.
        -11    1    3    3    0    0 -0.10898061930E+02 -0.64628064788E+01  0.12808688391E+02  0.18016606783E+02  0.51100000000E-03 0.  1.
         12    1    3    3    0    0  0.24201208247E+01  0.40327342147E+00  0.73714592076E+01  0.77690427408E+01  0.00000000000E+00 0. -1.
</event>
<event>
 7    1  0.2935819E-010  0.4778727E+02  0.7816164E-02  0.1312668E+00
        -11   -1    0    0    0    0  0.00000000000E+00  0.00000000000E+00  0.45593999997E+02  0.45594000000E+02  0.51100000000E-03 0. -1.
         11   -1    0    0    0    0 -0.00000000000E+00 -0.00000000000E+00 -0.45593999997E+02  0.45594000000E+02  0.51100000000E-03 0.  1.
    9900012    2    1    2    0    0  0.10693889232E+02 -0.34318841650E+02  0.24320382516E+02  0.47787272300E+02  0.20000005727E+02 0.  0.
        -12    1    1    2    0    0 -0.10693889232E+02  0.34318841650E+02 -0.24320382516E+02  0.43400727700E+02  0.00000000000E+00 0.  1.
         11    1    3    3    0    0  0.50270903336E+01 -0.26343926515E+01  0.10550824675E+02  0.11980465911E+02  0.51100000000E-03 0. -1.
        -11    1    3    3    0    0  0.29622531507E+01 -0.22139884707E+02  0.57897501138E+01  0.23075325462E+02  0.51100000000E-03 0.  1.
        -12    1    3    3    0    0  0.27045457481E+01 -0.95445642920E+01  0.79798077272E+01  0.12731480927E+02  0.00000000000E+00 0.  1.
</event>
<event>
 7    1  0.2935819E-010  0.4778727E+02  0.7816164E-02  0.1312668E+00
        -11   -1    0    0    0    0  0.00000000000E+00  0.00000000000E+00  0.45593999997E+02  0.45594000000E+02  0.51100000000E-03 0. -1.
         11   -1    0    0    0    0 -0.00000000000E+00 -0.00000000000E+00 -0.45593999997E+02  0.45594000000E+02  0.51100000000E-03 0.  1.
    9900012    2    1    2    0    0 -0.17983599418E+02 -0.25432591634E+02  0.30222456025E+02  0.47787269437E+02  0.19999992670E+02 0.  0.
        -12    1    1    2    0    0  0.17983599418E+02  0.25432591634E+02 -0.30222456025E+02  0.43400730563E+02  0.00000000000E+00 0.  1.
         11    1    3    3    0    0 -0.20999529544E+01 -0.10592060876E+01  0.57831058483E+01  0.62430788446E+01  0.51100000000E-03 0. -1.
        -11    1    3    3    0    0 -0.44689819659E+01 -0.18879051659E+02  0.20621599752E+02  0.28313261344E+02  0.51100000000E-03 0.  1.
        -12    1    3    3    0    0 -0.11414664498E+02 -0.54943338869E+01  0.38177504248E+01  0.13230929248E+02  0.00000000000E+00 0.  1.
</event>
<event>
 7    1  0.2935819E-010  0.4778727E+02  0.7816164E-02  0.1312668E+00
        -11   -1    0    0    0    0  0.00000000000E+00  0.00000000000E+00  0.45593999997E+02  0.45594000000E+02  0.51100000000E-03 0.  1.
         11   -1    0    0    0    0 -0.00000000000E+00 -0.00000000000E+00 -0.45593999997E+02  0.45594000000E+02  0.51100000000E-03 0. -1.
    9900012    2    1    2    0    0 -0.25320463101E+02  0.38821420933E+01 -0.35034645170E+02  0.47787271423E+02  0.20000001724E+02 0.  0.
        -12    1    1    2    0    0  0.25320463101E+02 -0.38821420933E+01  0.35034645170E+02  0.43400728577E+02  0.00000000000E+00 0.  1.
         11    1    3    3    0    0 -0.65674925820E+01 -0.14210810443E+01 -0.59220141617E+01  0.89566557454E+01  0.51100000000E-03 0. -1.
        -11    1    3    3    0    0 -0.23361089629E+01 -0.44985485319E+01 -0.15790989603E+01  0.53092276056E+01  0.51100000000E-03 0.  1.
        -12    1    3    3    0    0 -0.16416861556E+02  0.98017716695E+01 -0.27533532048E+02  0.33521388071E+02  0.00000000000E+00 0.  1.
</event>
<event>
 7    1  0.2935819E-010  0.4778727E+02  0.7816164E-02  0.1312668E+00
        -11   -1    0    0    0    0  0.00000000000E+00  0.00000000000E+00  0.45593999997E+02  0.45594000000E+02  0.51100000000E-03 0.  1.
         11   -1    0    0    0    0 -0.00000000000E+00 -0.00000000000E+00 -0.45593999997E+02  0.45594000000E+02  0.51100000000E-03 0. -1.
    9900012    2    1    2    0    0  0.87510832558E+01 -0.11154082584E+02 -0.41019851431E+02  0.47787271575E+02  0.20000002417E+02 0.  0.
        -12    1    1    2    0    0 -0.87510832558E+01  0.11154082584E+02  0.41019851431E+02  0.43400728425E+02  0.00000000000E+00 0.  1.
         11    1    3    3    0    0  0.78495983492E+01 -0.79172535775E+01 -0.25195284975E+02  0.27551796379E+02  0.51100000000E-03 0. -1.
        -11    1    3    3    0    0 -0.45998469062E+01 -0.47353200581E+01 -0.10681110921E+02  0.12556591033E+02  0.51100000000E-03 0.  1.
        -12    1    3    3    0    0  0.55013318128E+01  0.14984910513E+01 -0.51434555352E+01  0.76788841630E+01  0.00000000000E+00 0.  1.
</event>
<event>
 7    1  0.2935819E-010  0.4778728E+02  0.7816164E-02  0.1312668E+00
        -11   -1    0    0    0    0  0.00000000000E+00  0.00000000000E+00  0.45593999997E+02  0.45594000000E+02  0.51100000000E-03 0.  1.
         11   -1    0    0    0    0 -0.00000000000E+00 -0.00000000000E+00 -0.45593999997E+02  0.45594000000E+02  0.51100000000E-03 0. -1.
    9900012    2    1    2    0    0  0.96076730071E+00 -0.38283833594E+02 -0.20421744938E+02  0.47787278176E+02  0.20000032517E+02 0.  0.
        -12    1    1    2    0    0 -0.96076730071E+00  0.38283833594E+02  0.20421744938E+02  0.43400721824E+02  0.00000000000E+00 0.  1.
         11    1    3    3    0    0 -0.80306594154E+01 -0.11002804358E+02 -0.38485467963E+01  0.14155017029E+02  0.51100000000E-03 0. -1.
        -11    1    3    3    0    0  0.81256134609E+01 -0.26074310059E+02 -0.14071697244E+02  0.30723084200E+02  0.51100000000E-03 0.  1.
        -12    1    3    3    0    0  0.86581325521E+00 -0.12067191767E+01 -0.25015008983E+01  0.29091769469E+01  0.00000000000E+00 0.  1.
</event>
<event>
 7    1  0.2935819E-010  0.4778727E+02  0.7816164E-02  0.1312668E+00
        -11   -1    0    0    0    0  0.00000000000E+00  0.00000000000E+00  0.45593999997E+02  0.45594000000E+02  0.51100000000E-03 0.  1.
         11   -1    0    0    0    0 -0.00000000000E+00 -0.00000000000E+00 -0.45593999997E+02  0.45594000000E+02  0.51100000000E-03 0. -1.
    9900012    2    1    2    0    0  0.18773482795E+02  0.21947147032E+02 -0.32396023576E+02  0.47787271174E+02  0.20000000590E+02 0.  0.
        -12    1    1    2    0    0 -0.18773482795E+02 -0.21947147032E+02  0.32396023576E+02  0.43400728826E+02  0.00000000000E+00 0.  1.
         11    1    3    3    0    0  0.22660644461E+01  0.65898064249E+01 -0.60962282782E+00  0.69951581143E+01  0.51100000000E-03 0. -1.
        -11    1    3    3    0    0  0.10251421449E+02  0.14989445470E+01 -0.13015130578E+02  0.16635266776E+02  0.51100000000E-03 0.  1.
         12    1    3    3    0    0  0.62559968996E+01  0.13858396060E+02 -0.18771270170E+02  0.24156846284E+02  0.00000000000E+00 0. -1.
</event>
<event>
 7    1  0.2935819E-010  0.4778727E+02  0.7816164E-02  0.1312668E+00
        -11   -1    0    0    0    0  0.00000000000E+00  0.00000000000E+00  0.45593999997E+02  0.45594000000E+02  0.51100000000E-03 0.  1.
         11   -1    0    0    0    0 -0.00000000000E+00 -0.00000000000E+00 -0.45593999997E+02  0.45594000000E+02  0.51100000000E-03 0. -1.
    9900012    2    1    2    0    0  0.33491857348E+02  0.70229316281E+01 -0.26694514954E+02  0.47787271828E+02  0.20000003571E+02 0.  0.
        -12    1    1    2    0    0 -0.33491857348E+02 -0.70229316281E+01  0.26694514954E+02  0.43400728172E+02  0.00000000000E+00 0.  1.
         11    1    3    3    0    0  0.23890834371E+02  0.13318980317E+01 -0.10038619470E+02  0.25948406510E+02  0.51100000000E-03 0. -1.
        -11    1    3    3    0    0  0.32229851812E+01  0.68860875350E+01 -0.97269604316E+01  0.12345833083E+02  0.51100000000E-03 0.  1.
        -12    1    3    3    0    0  0.63780377963E+01 -0.11950539386E+01 -0.69289350523E+01  0.94930322345E+01  0.00000000000E+00 0.  1.
</event>
<event>
 7    1  0.2935819E-010  0.4778727E+02  0.7816164E-02  0.1312668E+00
        -11   -1    0    0    0    0  0.00000000000E+00  0.00000000000E+00  0.45593999997E+02  0.45594000000E+02  0.51100000000E-03 0.  1.
         11   -1    0    0    0    0 -0.00000000000E+00 -0.00000000000E+00 -0.45593999997E+02  0.45594000000E+02  0.51100000000E-03 0. -1.
    9900012    2    1    2    0    0  0.97543277266E+01  0.10655019909E+02 -0.40926120419E+02  0.47787266236E+02  0.19999978078E+02 0.  0.
        -12    1    1    2    0    0 -0.97543277266E+01 -0.10655019909E+02  0.40926120419E+02  0.43400733764E+02  0.00000000000E+00 0.  1.
         11    1    3    3    0    0  0.48176374657E+01  0.31706841704E+00 -0.32732964876E+02  0.33087114607E+02  0.51100000000E-03 0. -1.
        -11    1    3    3    0    0  0.43307131606E+01  0.42710272063E+01 -0.36160452545E+01  0.70761948405E+01  0.51100000000E-03 0.  1.
         12    1    3    3    0    0  0.60597710029E+00  0.60669242853E+01 -0.45771102884E+01  0.76239567891E+01  0.00000000000E+00 0. -1.
</event>
<event>
 7    1  0.2935819E-010  0.4778723E+02  0.7816164E-02  0.1312668E+00
        -11   -1    0    0    0    0  0.00000000000E+00  0.00000000000E+00  0.45593999997E+02  0.45594000000E+02  0.51100000000E-03 0. -1.
         11   -1    0    0    0    0 -0.00000000000E+00 -0.00000000000E+00 -0.45593999997E+02  0.45594000000E+02  0.51100000000E-03 0.  1.
    9900012    2    1    2    0    0 -0.13328822686E+00 -0.82780369933E+01  0.42603791898E+02  0.47787231040E+02  0.19999817604E+02 0.  0.
        -12    1    1    2    0    0  0.13328822686E+00  0.82780369933E+01 -0.42603791898E+02  0.43400768960E+02  0.00000000000E+00 0.  1.
         11    1    3    3    0    0  0.20048967222E+01 -0.36414574380E+01  0.39530239640E+02  0.39748203348E+02  0.51100000000E-03 0. -1.
        -11    1    3    3    0    0  0.11494683763E+01 -0.20347133913E-01 -0.58849750251E+00  0.12915189218E+01  0.51100000000E-03 0.  1.
         12    1    3    3    0    0 -0.32876533253E+01 -0.46162324213E+01  0.36620497603E+01  0.67475087701E+01  0.00000000000E+00 0. -1.
</event>
<event>
 7    1  0.2935819E-010  0.4778727E+02  0.7816164E-02  0.1312668E+00
        -11   -1    0    0    0    0  0.00000000000E+00  0.00000000000E+00  0.45593999997E+02  0.45594000000E+02  0.51100000000E-03 0. -1.
         11   -1    0    0    0    0 -0.00000000000E+00 -0.00000000000E+00 -0.45593999997E+02  0.45594000000E+02  0.51100000000E-03 0.  1.
    9900012    2    1    2    0    0 -0.15619194810E+02 -0.52802330688E+01  0.40147017270E+02  0.47787273008E+02  0.20000008951E+02 0.  0.
        -12    1    1    2    0    0  0.15619194810E+02  0.52802330688E+01 -0.40147017270E+02  0.43400726992E+02  0.00000000000E+00 0.  1.
         11    1    3    3    0    0 -0.15146667285E+02 -0.15076030554E+01  0.20286366216E+02  0.25362000144E+02  0.51100000000E-03 0. -1.
        -11    1    3    3    0    0  0.22543302959E+01  0.96310238949E-01  0.27183680932E+00  0.22727024128E+01  0.51100000000E-03 0.  1.
         12    1    3    3    0    0 -0.27268578216E+01 -0.38689402523E+01  0.19588814245E+02  0.20152570451E+02  0.00000000000E+00 0. -1.
</event>
<event>
 7    1  0.2935819E-010  0.4778727E+02  0.7816164E-02  0.1312668E+00
        -11   -1    0    0    0    0  0.00000000000E+00  0.00000000000E+00  0.45593999997E+02  0.45594000000E+02  0.51100000000E-03 0.  1.
         11   -1    0    0    0    0 -0.00000000000E+00 -0.00000000000E+00 -0.45593999997E+02  0.45594000000E+02  0.51100000000E-03 0. -1.
    9900012    2    1    2    0    0 -0.29332743561E+02  0.30295533403E+02 -0.10266169300E+02  0.47787269348E+02  0.19999992265E+02 0.  0.
        -12    1    1    2    0    0  0.29332743561E+02 -0.30295533403E+02  0.10266169300E+02  0.43400730652E+02  0.00000000000E+00 0.  1.
         11    1    3    3    0    0 -0.23620418176E+02  0.13418264329E+02 -0.76102265719E+01  0.28211513982E+02  0.51100000000E-03 0. -1.
        -11    1    3    3    0    0 -0.65355885009E+01  0.15999873930E+02 -0.40325874860E+01  0.17747440517E+02  0.51100000000E-03 0.  1.
         12    1    3    3    0    0  0.82326311536E+00  0.87739514445E+00  0.13766447580E+01  0.18283148488E+01  0.00000000000E+00 0. -1.
</event>
<event>
 7    1  0.2935819E-010  0.4778728E+02  0.7816164E-02  0.1312668E+00
        -11   -1    0    0    0    0  0.00000000000E+00  0.00000000000E+00  0.45593999997E+02  0.45594000000E+02  0.51100000000E-03 0.  1.
         11   -1    0    0    0    0 -0.00000000000E+00 -0.00000000000E+00 -0.45593999997E+02  0.45594000000E+02  0.51100000000E-03 0. -1.
    9900012    2    1    2    0    0  0.10936404213E+02 -0.35105296013E+02 -0.23057229448E+02  0.47787279095E+02  0.20000036705E+02 0.  0.
        -12    1    1    2    0    0 -0.10936404213E+02  0.35105296013E+02  0.23057229448E+02  0.43400720905E+02  0.00000000000E+00 0.  1.
         11    1    3    3    0    0  0.65424782329E+01 -0.21100649363E+02 -0.10378700690E+02  0.24408171854E+02  0.51100000000E-03 0. -1.
        -11    1    3    3    0    0  0.42204805319E+00 -0.68830877832E+01 -0.13524409486E+02  0.15181063013E+02  0.51100000000E-03 0.  1.
        -12    1    3    3    0    0  0.39718779268E+01 -0.71215588667E+01  0.84588072886E+00  0.81980442281E+01  0.00000000000E+00 0.  1.
</event>
<event>
 7    1  0.2935819E-010  0.4778726E+02  0.7816164E-02  0.1312668E+00
        -11   -1    0    0    0    0  0.00000000000E+00  0.00000000000E+00  0.45593999997E+02  0.45594000000E+02  0.51100000000E-03 0.  1.
         11   -1    0    0    0    0 -0.00000000000E+00 -0.00000000000E+00 -0.45593999997E+02  0.45594000000E+02  0.51100000000E-03 0. -1.
    9900012    2    1    2    0    0  0.20058053818E+02  0.11425068612E+02 -0.36752775673E+02  0.47787259967E+02  0.19999949492E+02 0.  0.
        -12    1    1    2    0    0 -0.20058053818E+02 -0.11425068612E+02  0.36752775673E+02  0.43400740033E+02  0.00000000000E+00 0.  1.
         11    1    3    3    0    0  0.83891008892E+01  0.31460062327E+01 -0.23221152386E+02  0.24889682348E+02  0.51100000000E-03 0. -1.
        -11    1    3    3    0    0  0.26813908755E+01  0.89388518056E+01 -0.55406425708E+01  0.10853186121E+02  0.51100000000E-03 0.  1.
         12    1    3    3    0    0  0.89875620530E+01 -0.65978942647E+00 -0.79909807161E+01  0.12044391498E+02  0.00000000000E+00 0. -1.
</event>
<event>
 7    1  0.2935819E-010  0.4778727E+02  0.7816164E-02  0.1312668E+00
        -11   -1    0    0    0    0  0.00000000000E+00  0.00000000000E+00  0.45593999997E+02  0.45594000000E+02  0.51100000000E-03 0.  1.
         11   -1    0    0    0    0 -0.00000000000E+00 -0.00000000000E+00 -0.45593999997E+02  0.45594000000E+02  0.51100000000E-03 0. -1.
    9900012    2    1    2    0    0 -0.25870328130E+02 -0.32804048703E+02  0.11757723566E+02  0.47787267837E+02  0.19999985374E+02 0.  0.
        -12    1    1    2    0    0  0.25870328130E+02  0.32804048703E+02 -0.11757723566E+02  0.43400732163E+02  0.00000000000E+00 0.  1.
         11    1    3    3    0    0 -0.71997019335E+01 -0.78969154456E+01  0.33952523618E+01  0.11212703525E+02  0.51100000000E-03 0. -1.
        -11    1    3    3    0    0 -0.19761087391E+02 -0.19126905304E+02  0.11614152368E+02  0.29853435596E+02  0.51100000000E-03 0.  1.
        -12    1    3    3    0    0  0.10904611946E+01 -0.57802279538E+01 -0.32516811642E+01  0.67211287153E+01  0.00000000000E+00 0.  1.
</event>
<event>
 7    1  0.2935819E-010  0.4778727E+02  0.7816164E-02  0.1312668E+00
        -11   -1    0    0    0    0  0.00000000000E+00  0.00000000000E+00  0.45593999997E+02  0.45594000000E+02  0.51100000000E-03 0. -1.
         11   -1    0    0    0    0 -0.00000000000E+00 -0.00000000000E+00 -0.45593999997E+02  0.45594000000E+02  0.51100000000E-03 0.  1.
    9900012    2    1    2    0    0  0.14906942488E+02 -0.18401768715E+02  0.36370055817E+02  0.47787274357E+02  0.20000015105E+02 0.  0.
        -12    1    1    2    0    0 -0.14906942488E+02  0.18401768715E+02 -0.36370055817E+02  0.43400725643E+02  0.00000000000E+00 0.  1.
         11    1    3    3    0    0  0.63662738915E+01 -0.12037460950E+02  0.30952561050E+02  0.33815542953E+02  0.51100000000E-03 0. -1.
        -11    1    3    3    0    0  0.11358569919E+01  0.10684138908E+01 -0.82412823704E+00  0.17637649957E+01  0.51100000000E-03 0.  1.
         12    1    3    3    0    0  0.74048116046E+01 -0.74327216553E+01  0.62416230039E+01  0.12207966408E+02  0.00000000000E+00 0. -1.
</event>
<event>
 7    1  0.2935819E-010  0.4778727E+02  0.7816164E-02  0.1312668E+00
        -11   -1    0    0    0    0  0.00000000000E+00  0.00000000000E+00  0.45593999997E+02  0.45594000000E+02  0.51100000000E-03 0.  1.
         11   -1    0    0    0    0 -0.00000000000E+00 -0.00000000000E+00 -0.45593999997E+02  0.45594000000E+02  0.51100000000E-03 0. -1.
    9900012    2    1    2    0    0  0.40704788704E+02  0.33382536060E+01 -0.14683302501E+02  0.47787272669E+02  0.20000007407E+02 0.  0.
        -12    1    1    2    0    0 -0.40704788704E+02 -0.33382536060E+01  0.14683302501E+02  0.43400727331E+02  0.00000000000E+00 0.  1.
         11    1    3    3    0    0  0.13816000792E+02  0.67936410248E+01 -0.20688037201E+01  0.15534329254E+02  0.51100000000E-03 0.  1.
        -11    1    3    3    0    0  0.15352445008E+02 -0.46771528588E+01 -0.12987959487E+02  0.20646075135E+02  0.51100000000E-03 0. -1.
         12    1    3    3    0    0  0.11536342903E+02  0.12217654400E+01  0.37346070651E+00  0.11606868280E+02  0.00000000000E+00 0. -1.
</event>
<event>
 7    1  0.2935819E-010  0.4778727E+02  0.7816164E-02  0.1312668E+00
        -11   -1    0    0    0    0  0.00000000000E+00  0.00000000000E+00  0.45593999997E+02  0.45594000000E+02  0.51100000000E-03 0.  1.
         11   -1    0    0    0    0 -0.00000000000E+00 -0.00000000000E+00 -0.45593999997E+02  0.45594000000E+02  0.51100000000E-03 0. -1.
    9900012    2    1    2    0    0 -0.15301696024E+02  0.12671462866E+02 -0.38586464947E+02  0.47787272477E+02  0.20000006534E+02 0.  0.
        -12    1    1    2    0    0  0.15301696024E+02 -0.12671462866E+02  0.38586464947E+02  0.43400727523E+02  0.00000000000E+00 0.  1.
         11    1    3    3    0    0  0.38794562304E+01  0.54955348378E+01 -0.15040791825E+02  0.16476544018E+02  0.51100000000E-03 0. -1.
        -11    1    3    3    0    0 -0.17432944293E+02  0.59285639137E+01 -0.21852266237E+02  0.28575810693E+02  0.51100000000E-03 0.  1.
         12    1    3    3    0    0 -0.17482079616E+01  0.12473641144E+01 -0.16934068850E+01  0.27349177665E+01  0.00000000000E+00 0. -1.
</event>
<event>
 7    1  0.2935819E-010  0.4778727E+02  0.7816164E-02  0.1312668E+00
        -11   -1    0    0    0    0  0.00000000000E+00  0.00000000000E+00  0.45593999997E+02  0.45594000000E+02  0.51100000000E-03 0. -1.
         11   -1    0    0    0    0 -0.00000000000E+00 -0.00000000000E+00 -0.45593999997E+02  0.45594000000E+02  0.51100000000E-03 0.  1.
    9900012    2    1    2    0    0  0.41826324757E+02  0.10955760397E+02 -0.37620703062E+01  0.47787270726E+02  0.19999998547E+02 0.  0.
        -12    1    1    2    0    0 -0.41826324757E+02 -0.10955760397E+02  0.37620703062E+01  0.43400729274E+02  0.00000000000E+00 0.  1.
         11    1    3    3    0    0  0.34063034564E+02  0.49226312531E+01 -0.25031932207E+00  0.34417804726E+02  0.51100000000E-03 0. -1.
        -11    1    3    3    0    0  0.33616569099E+01  0.75190523714E+01 -0.19047406928E+01  0.84536928683E+01  0.51100000000E-03 0.  1.
        -12    1    3    3    0    0  0.44016332836E+01 -0.14859232278E+01 -0.16070102914E+01  0.49157731314E+01  0.00000000000E+00 0.  1.
</event>
<event>
 7    1  0.2935819E-010  0.4778727E+02  0.7816164E-02  0.1312668E+00
        -11   -1    0    0    0    0  0.00000000000E+00  0.00000000000E+00  0.45593999997E+02  0.45594000000E+02  0.51100000000E-03 0.  1.
         11   -1    0    0    0    0 -0.00000000000E+00 -0.00000000000E+00 -0.45593999997E+02  0.45594000000E+02  0.51100000000E-03 0. -1.
    9900012    2    1    2    0    0  0.91243658477E+00  0.42932933647E+02 -0.62891857860E+01  0.47787272012E+02  0.20000004412E+02 0.  0.
        -12    1    1    2    0    0 -0.91243658477E+00 -0.42932933647E+02  0.62891857860E+01  0.43400727988E+02  0.00000000000E+00 0.  1.
         11    1    3    3    0    0  0.37074177550E+01  0.55104168244E+01 -0.62159933364E+01  0.90966044988E+01  0.51100000000E-03 0. -1.
        -11    1    3    3    0    0 -0.24594134018E-02  0.27270103810E+00  0.13810036994E+01  0.14076730386E+01  0.51100000000E-03 0.  1.
         12    1    3    3    0    0 -0.27925217568E+01  0.37149815784E+02 -0.14541961490E+01  0.37282994475E+02  0.00000000000E+00 0. -1.
</event>
<event>
 7    1  0.2935819E-010  0.4778727E+02  0.7816164E-02  0.1312668E+00
        -11   -1    0    0    0    0  0.00000000000E+00  0.00000000000E+00  0.45593999997E+02  0.45594000000E+02  0.51100000000E-03 0.  1.
         11   -1    0    0    0    0 -0.00000000000E+00 -0.00000000000E+00 -0.45593999997E+02  0.45594000000E+02  0.51100000000E-03 0. -1.
    9900012    2    1    2    0    0  0.23478414886E+02  0.26062065431E+02 -0.25556915843E+02  0.47787272270E+02  0.20000005588E+02 0.  0.
        -12    1    1    2    0    0 -0.23478414886E+02 -0.26062065431E+02  0.25556915843E+02  0.43400727730E+02  0.00000000000E+00 0.  1.
         11    1    3    3    0    0  0.16666311011E+02  0.55485811559E+01 -0.10840942246E+02  0.20641673978E+02  0.51100000000E-03 0. -1.
        -11    1    3    3    0    0 -0.45239732346E+00  0.31662474385E+01  0.10579256248E+00  0.32001528882E+01  0.51100000000E-03 0.  1.
         12    1    3    3    0    0  0.72645011983E+01  0.17347236837E+02 -0.14821766159E+02  0.23945445404E+02  0.00000000000E+00 0. -1.
</event>
<event>
 7    1  0.2935819E-010  0.4778727E+02  0.7816164E-02  0.1312668E+00
        -11   -1    0    0    0    0  0.00000000000E+00  0.00000000000E+00  0.45593999997E+02  0.45594000000E+02  0.51100000000E-03 0.  1.
         11   -1    0    0    0    0 -0.00000000000E+00 -0.00000000000E+00 -0.45593999997E+02  0.45594000000E+02  0.51100000000E-03 0. -1.
    9900012    2    1    2    0    0 -0.41651392262E+02 -0.70139996991E+01  0.99794038628E+01  0.47787272234E+02  0.20000005425E+02 0.  0.
        -12    1    1    2    0    0  0.41651392262E+02  0.70139996991E+01 -0.99794038628E+01  0.43400727766E+02  0.00000000000E+00 0.  1.
         11    1    3    3    0    0 -0.14530946698E+02  0.19045905999E+01  0.77552500908E-01  0.14655438988E+02  0.51100000000E-03 0. -1.
        -11    1    3    3    0    0 -0.20147376914E+02 -0.69884222660E+01  0.13306022614E+02  0.25135733137E+02  0.51100000000E-03 0.  1.
        -12    1    3    3    0    0 -0.69730686499E+01 -0.19301680330E+01 -0.34041712519E+01  0.79961001084E+01  0.00000000000E+00 0.  1.
</event>
<event>
 7    1  0.2935819E-010  0.4778727E+02  0.7816164E-02  0.1312668E+00
        -11   -1    0    0    0    0  0.00000000000E+00  0.00000000000E+00  0.45593999997E+02  0.45594000000E+02  0.51100000000E-03 0.  1.
         11   -1    0    0    0    0 -0.00000000000E+00 -0.00000000000E+00 -0.45593999997E+02  0.45594000000E+02  0.51100000000E-03 0. -1.
    9900012    2    1    2    0    0  0.75589333376E+01  0.25235906597E+02 -0.34491085221E+02  0.47787269422E+02  0.19999992604E+02 0.  0.
        -12    1    1    2    0    0 -0.75589333376E+01 -0.25235906597E+02  0.34491085221E+02  0.43400730578E+02  0.00000000000E+00 0.  1.
         11    1    3    3    0    0  0.78397133316E+01  0.15765231110E+02 -0.14990703169E+02  0.23124117255E+02  0.51100000000E-03 0. -1.
        -11    1    3    3    0    0 -0.37433011169E+01  0.77800879232E+01 -0.18879835470E+02  0.20760304886E+02  0.51100000000E-03 0.  1.
        -12    1    3    3    0    0  0.34625211229E+01  0.16905875635E+01 -0.62054658247E+00  0.39028472808E+01  0.00000000000E+00 0.  1.
</event>
<event>
 7    1  0.2935819E-010  0.4778728E+02  0.7816164E-02  0.1312668E+00
        -11   -1    0    0    0    0  0.00000000000E+00  0.00000000000E+00  0.45593999997E+02  0.45594000000E+02  0.51100000000E-03 0.  1.
         11   -1    0    0    0    0 -0.00000000000E+00 -0.00000000000E+00 -0.45593999997E+02  0.45594000000E+02  0.51100000000E-03 0. -1.
    9900012    2    1    2    0    0 -0.38789903080E+01 -0.18877263996E+02 -0.38887339132E+02  0.47787276428E+02  0.20000024548E+02 0.  0.
        -12    1    1    2    0    0  0.38789903080E+01  0.18877263996E+02  0.38887339132E+02  0.43400723572E+02  0.00000000000E+00 0.  1.
         11    1    3    3    0    0 -0.16618327151E+01  0.20591625888E+01 -0.69880887579E+01  0.74722970558E+01  0.51100000000E-03 0. -1.
        -11    1    3    3    0    0  0.22144080393E+01  0.17224681498E+00 -0.59471174753E+00  0.22993377858E+01  0.51100000000E-03 0.  1.
         12    1    3    3    0    0 -0.44315656321E+01 -0.21108673399E+02 -0.31304538627E+02  0.38015641587E+02  0.00000000000E+00 0. -1.
</event>
<event>
 7    1  0.2935819E-010  0.4778728E+02  0.7816164E-02  0.1312668E+00
        -11   -1    0    0    0    0  0.00000000000E+00  0.00000000000E+00  0.45593999997E+02  0.45594000000E+02  0.51100000000E-03 0.  1.
         11   -1    0    0    0    0 -0.00000000000E+00 -0.00000000000E+00 -0.45593999997E+02  0.45594000000E+02  0.51100000000E-03 0. -1.
    9900012    2    1    2    0    0 -0.53575869498E+01 -0.15539284770E+02 -0.40167764898E+02  0.47787280582E+02  0.20000043485E+02 0.  0.
        -12    1    1    2    0    0  0.53575869498E+01  0.15539284770E+02  0.40167764898E+02  0.43400719418E+02  0.00000000000E+00 0.  1.
         11    1    3    3    0    0  0.43436661411E+01 -0.10422366695E+02 -0.20590932711E+02  0.23483604350E+02  0.51100000000E-03 0. -1.
        -11    1    3    3    0    0 -0.59588187265E+01 -0.57538252063E+01 -0.60587755369E+01  0.10262689043E+02  0.51100000000E-03 0.  1.
         12    1    3    3    0    0 -0.37424343643E+01  0.63690713131E+00 -0.13518056650E+02  0.14040987189E+02  0.00000000000E+00 0. -1.
</event>
<event>
 7    1  0.2935819E-010  0.4778727E+02  0.7816164E-02  0.1312668E+00
        -11   -1    0    0    0    0  0.00000000000E+00  0.00000000000E+00  0.45593999997E+02  0.45594000000E+02  0.51100000000E-03 0.  1.
         11   -1    0    0    0    0 -0.00000000000E+00 -0.00000000000E+00 -0.45593999997E+02  0.45594000000E+02  0.51100000000E-03 0. -1.
    9900012    2    1    2    0    0 -0.19971850052E+02 -0.31948454879E+02 -0.21541695961E+02  0.47787271567E+02  0.20000002381E+02 0.  0.
        -12    1    1    2    0    0  0.19971850052E+02  0.31948454879E+02  0.21541695961E+02  0.43400728433E+02  0.00000000000E+00 0.  1.
         11    1    3    3    0    0 -0.11601520010E+02 -0.16356509082E+02 -0.35561158272E+01  0.20366065303E+02  0.51100000000E-03 0. -1.
        -11    1    3    3    0    0 -0.36815351161E+01 -0.40281784201E+01  0.88842587563E-01  0.54578214941E+01  0.51100000000E-03 0.  1.
         12    1    3    3    0    0 -0.46887949264E+01 -0.11563767377E+02 -0.18074422722E+02  0.21963384769E+02  0.00000000000E+00 0. -1.
</event>
<event>
 7    1  0.2935819E-010  0.4778727E+02  0.7816164E-02  0.1312668E+00
        -11   -1    0    0    0    0  0.00000000000E+00  0.00000000000E+00  0.45593999997E+02  0.45594000000E+02  0.51100000000E-03 0.  1.
         11   -1    0    0    0    0 -0.00000000000E+00 -0.00000000000E+00 -0.45593999997E+02  0.45594000000E+02  0.51100000000E-03 0. -1.
    9900012    2    1    2    0    0 -0.10165154140E+02  0.39060298598E+02 -0.15955753646E+02  0.47787270056E+02  0.19999995493E+02 0.  0.
        -12    1    1    2    0    0  0.10165154140E+02 -0.39060298598E+02  0.15955753646E+02  0.43400729944E+02  0.00000000000E+00 0.  1.
         11    1    3    3    0    0  0.14151898992E+01  0.73545597342E+01 -0.79168331668E+01  0.10898098870E+02  0.51100000000E-03 0. -1.
        -11    1    3    3    0    0 -0.46975103286E+01  0.22700197397E+02 -0.33366713203E+00  0.23183548028E+02  0.51100000000E-03 0.  1.
        -12    1    3    3    0    0 -0.68828337104E+01  0.90055414671E+01 -0.77052533476E+01  0.13705623158E+02  0.00000000000E+00 0.  1.
</event>
<event>
 7    1  0.2935819E-010  0.4778726E+02  0.7816164E-02  0.1312668E+00
        -11   -1    0    0    0    0  0.00000000000E+00  0.00000000000E+00  0.45593999997E+02  0.45594000000E+02  0.51100000000E-03 0. -1.
         11   -1    0    0    0    0 -0.00000000000E+00 -0.00000000000E+00 -0.45593999997E+02  0.45594000000E+02  0.51100000000E-03 0.  1.
    9900012    2    1    2    0    0 -0.25543442715E+02 -0.13148313904E+02  0.32531193539E+02  0.47787260636E+02  0.19999952543E+02 0.  0.
        -12    1    1    2    0    0  0.25543442715E+02  0.13148313904E+02 -0.32531193539E+02  0.43400739364E+02  0.00000000000E+00 0.  1.
         11    1    3    3    0    0 -0.16947676045E+02 -0.80529414627E+01  0.11340560837E+02  0.21924459170E+02  0.51100000000E-03 0.  1.
        -11    1    3    3    0    0 -0.55116834658E+01  0.25385809043E+01  0.12478428286E+02  0.13875670088E+02  0.51100000000E-03 0. -1.
        -12    1    3    3    0    0 -0.30840832049E+01 -0.76339533460E+01  0.87122044158E+01  0.11987131379E+02  0.00000000000E+00 0.  1.
</event>
<event>
 7    1  0.2935819E-010  0.4778727E+02  0.7816164E-02  0.1312668E+00
        -11   -1    0    0    0    0  0.00000000000E+00  0.00000000000E+00  0.45593999997E+02  0.45594000000E+02  0.51100000000E-03 0.  1.
         11   -1    0    0    0    0 -0.00000000000E+00 -0.00000000000E+00 -0.45593999997E+02  0.45594000000E+02  0.51100000000E-03 0. -1.
    9900012    2    1    2    0    0 -0.15169584139E+02 -0.17478029153E+02 -0.36715466344E+02  0.47787271263E+02  0.20000000999E+02 0.  0.
        -12    1    1    2    0    0  0.15169584139E+02  0.17478029153E+02  0.36715466344E+02  0.43400728737E+02  0.00000000000E+00 0.  1.
         11    1    3    3    0    0 -0.60279313985E+01 -0.39545794958E+00 -0.34988559197E+01  0.69809982769E+01  0.51100000000E-03 0. -1.
        -11    1    3    3    0    0  0.18891534170E+01 -0.42999034941E+01 -0.16069632291E+02  0.16741898128E+02  0.51100000000E-03 0.  1.
        -12    1    3    3    0    0 -0.11030806157E+02 -0.12782667709E+02 -0.17146978133E+02  0.24064374859E+02  0.00000000000E+00 0.  1.
</event>
<event>
 7    1  0.2935819E-010  0.4778728E+02  0.7816164E-02  0.1312668E+00
        -11   -1    0    0    0    0  0.00000000000E+00  0.00000000000E+00  0.45593999997E+02  0.45594000000E+02  0.51100000000E-03 0.  1.
         11   -1    0    0    0    0 -0.00000000000E+00 -0.00000000000E+00 -0.45593999997E+02  0.45594000000E+02  0.51100000000E-03 0. -1.
    9900012    2    1    2    0    0  0.36371042743E+02 -0.11634977740E+02 -0.20625154310E+02  0.47787280564E+02  0.20000043405E+02 0.  0.
        -12    1    1    2    0    0 -0.36371042743E+02  0.11634977740E+02  0.20625154310E+02  0.43400719436E+02  0.00000000000E+00 0.  1.
         11    1    3    3    0    0  0.13190983276E+02 -0.12184221763E+02 -0.93978001205E+01  0.20267608323E+02  0.51100000000E-03 0. -1.
        -11    1    3    3    0    0  0.66652562034E+01 -0.31107987644E+01 -0.68403004343E+01  0.10044521865E+02  0.51100000000E-03 0.  1.
         12    1    3    3    0    0  0.16514803264E+02  0.36600427870E+01 -0.43870537551E+01  0.17475150377E+02  0.00000000000E+00 0. -1.
</event>
<event>
 7    1  0.2935819E-010  0.4778727E+02  0.7816164E-02  0.1312668E+00
        -11   -1    0    0    0    0  0.00000000000E+00  0.00000000000E+00  0.45593999997E+02  0.45594000000E+02  0.51100000000E-03 0. -1.
         11   -1    0    0    0    0 -0.00000000000E+00 -0.00000000000E+00 -0.45593999997E+02  0.45594000000E+02  0.51100000000E-03 0.  1.
    9900012    2    1    2    0    0  0.28202486280E+02  0.30964480594E+02  0.11377344628E+02  0.47787271185E+02  0.20000000643E+02 0.  0.
        -12    1    1    2    0    0 -0.28202486280E+02 -0.30964480594E+02 -0.11377344628E+02  0.43400728815E+02  0.00000000000E+00 0.  1.
         11    1    3    3    0    0  0.57523881797E+01  0.53323746514E+00 -0.29626984862E+01  0.64924490407E+01  0.51100000000E-03 0.  1.
        -11    1    3    3    0    0  0.16194640954E+02  0.20122619558E+02  0.56744921775E+01  0.26445908478E+02  0.51100000000E-03 0. -1.
        -12    1    3    3    0    0  0.62554571462E+01  0.10308623571E+02  0.86655509365E+01  0.14848913666E+02  0.00000000000E+00 0.  1.
</event>
<event>
 7    1  0.2935819E-010  0.4778727E+02  0.7816164E-02  0.1312668E+00
        -11   -1    0    0    0    0  0.00000000000E+00  0.00000000000E+00  0.45593999997E+02  0.45594000000E+02  0.51100000000E-03 0. -1.
         11   -1    0    0    0    0 -0.00000000000E+00 -0.00000000000E+00 -0.45593999997E+02  0.45594000000E+02  0.51100000000E-03 0.  1.
    9900012    2    1    2    0    0 -0.27134824539E+02  0.32217902272E+02  0.10456170636E+02  0.47787269200E+02  0.19999991593E+02 0.  0.
        -12    1    1    2    0    0  0.27134824539E+02 -0.32217902272E+02 -0.10456170636E+02  0.43400730800E+02  0.00000000000E+00 0.  1.
         11    1    3    3    0    0 -0.13988134653E+02  0.10300888434E+02  0.94815712465E+01  0.19790816233E+02  0.51100000000E-03 0. -1.
        -11    1    3    3    0    0 -0.81930408553E+00  0.12317487346E+02  0.81260665107E+00  0.12371422050E+02  0.51100000000E-03 0.  1.
        -12    1    3    3    0    0 -0.12327385800E+02  0.95995264921E+01  0.16199273839E+00  0.15625030918E+02  0.00000000000E+00 0.  1.
</event>
<event>
 7    1  0.2935819E-010  0.4778727E+02  0.7816164E-02  0.1312668E+00
        -11   -1    0    0    0    0  0.00000000000E+00  0.00000000000E+00  0.45593999997E+02  0.45594000000E+02  0.51100000000E-03 0.  1.
         11   -1    0    0    0    0 -0.00000000000E+00 -0.00000000000E+00 -0.45593999997E+02  0.45594000000E+02  0.51100000000E-03 0. -1.
    9900012    2    1    2    0    0 -0.31874678697E+01 -0.26020257573E+02 -0.34589153148E+02  0.47787271076E+02  0.20000000145E+02 0.  0.
        -12    1    1    2    0    0  0.31874678697E+01  0.26020257573E+02  0.34589153148E+02  0.43400728924E+02  0.00000000000E+00 0.  1.
         11    1    3    3    0    0 -0.18571935041E+01 -0.12941970719E+02 -0.26329534654E+02  0.29397077561E+02  0.51100000000E-03 0. -1.
        -11    1    3    3    0    0 -0.34434839273E+01 -0.29025063771E+01  0.83449623369E+00  0.45802302400E+01  0.51100000000E-03 0.  1.
        -12    1    3    3    0    0  0.21132095616E+01 -0.10175780477E+02 -0.90941147283E+01  0.13809963275E+02  0.00000000000E+00 0.  1.
</event>
<event>
 7    1  0.2935819E-010  0.4778727E+02  0.7816164E-02  0.1312668E+00
        -11   -1    0    0    0    0  0.00000000000E+00  0.00000000000E+00  0.45593999997E+02  0.45594000000E+02  0.51100000000E-03 0. -1.
         11   -1    0    0    0    0 -0.00000000000E+00 -0.00000000000E+00 -0.45593999997E+02  0.45594000000E+02  0.51100000000E-03 0.  1.
    9900012    2    1    2    0    0  0.41460214077E+02  0.96382064937E+00 -0.12796288414E+02  0.47787270758E+02  0.19999998692E+02 0.  0.
        -12    1    1    2    0    0 -0.41460214077E+02 -0.96382064937E+00  0.12796288414E+02  0.43400729242E+02  0.00000000000E+00 0.  1.
         11    1    3    3    0    0  0.33773384785E+02 -0.46813259222E+01 -0.36758173721E+01  0.34293847347E+02  0.51100000000E-03 0.  1.
        -11    1    3    3    0    0  0.76671123463E+01  0.56877181495E+01 -0.82373919437E+01  0.12609098928E+02  0.51100000000E-03 0. -1.
        -12    1    3    3    0    0  0.19716945974E-01 -0.42571577973E-01 -0.88307909827E+00  0.88432448287E+00  0.00000000000E+00 0.  1.
</event>
<event>
 7    1  0.2935819E-010  0.4778727E+02  0.7816164E-02  0.1312668E+00
        -11   -1    0    0    0    0  0.00000000000E+00  0.00000000000E+00  0.45593999997E+02  0.45594000000E+02  0.51100000000E-03 0.  1.
         11   -1    0    0    0    0 -0.00000000000E+00 -0.00000000000E+00 -0.45593999997E+02  0.45594000000E+02  0.51100000000E-03 0. -1.
    9900012    2    1    2    0    0  0.11085332680E+02  0.40027630635E+02 -0.12590770123E+02  0.47787270661E+02  0.19999998252E+02 0.  0.
        -12    1    1    2    0    0 -0.11085332680E+02 -0.40027630635E+02  0.12590770123E+02  0.43400729339E+02  0.00000000000E+00 0.  1.
         11    1    3    3    0    0  0.11113645329E+02  0.26128033669E+02 -0.83855957732E+01  0.29605835111E+02  0.51100000000E-03 0. -1.
        -11    1    3    3    0    0 -0.40481964597E+01  0.34960805171E+01 -0.45509465338E+01  0.70229330179E+01  0.51100000000E-03 0.  1.
         12    1    3    3    0    0  0.40198838106E+01  0.10403516449E+02  0.34577218417E+00  0.11158502532E+02  0.00000000000E+00 0. -1.
</event>
<event>
 7    1  0.2935819E-010  0.4778729E+02  0.7816164E-02  0.1312668E+00
        -11   -1    0    0    0    0  0.00000000000E+00  0.00000000000E+00  0.45593999997E+02  0.45594000000E+02  0.51100000000E-03 0.  1.
         11   -1    0    0    0    0 -0.00000000000E+00 -0.00000000000E+00 -0.45593999997E+02  0.45594000000E+02  0.51100000000E-03 0. -1.
    9900012    2    1    2    0    0 -0.10724253454E+02 -0.28457956641E+02 -0.30963791116E+02  0.47787294146E+02  0.20000105328E+02 0.  0.
        -12    1    1    2    0    0  0.10724253454E+02  0.28457956641E+02  0.30963791116E+02  0.43400705854E+02  0.00000000000E+00 0.  1.
         11    1    3    3    0    0 -0.68412369408E+01 -0.27303811253E+01 -0.95062316358E+01  0.12026052725E+02  0.51100000000E-03 0. -1.
        -11    1    3    3    0    0  0.35746720589E+00 -0.19637003268E+02 -0.20307531395E+02  0.28251292214E+02  0.51100000000E-03 0.  1.
         12    1    3    3    0    0 -0.42404837195E+01 -0.60905722486E+01 -0.11500280852E+01  0.75099492067E+01  0.00000000000E+00 0. -1.
</event>
<event>
 7    1  0.2935819E-010  0.4778728E+02  0.7816164E-02  0.1312668E+00
        -11   -1    0    0    0    0  0.00000000000E+00  0.00000000000E+00  0.45593999997E+02  0.45594000000E+02  0.51100000000E-03 0.  1.
         11   -1    0    0    0    0 -0.00000000000E+00 -0.00000000000E+00 -0.45593999997E+02  0.45594000000E+02  0.51100000000E-03 0. -1.
    9900012    2    1    2    0    0  0.29510587366E+02  0.31769085062E+02 -0.18636493638E+01  0.47787277410E+02  0.20000029024E+02 0.  0.
        -12    1    1    2    0    0 -0.29510587366E+02 -0.31769085062E+02  0.18636493638E+01  0.43400722590E+02  0.00000000000E+00 0.  1.
         11    1    3    3    0    0  0.20735781481E+02  0.22912652292E+02 -0.93043019544E+01  0.32272779611E+02  0.51100000000E-03 0. -1.
        -11    1    3    3    0    0  0.81739840779E+01  0.85211342262E+01  0.47334275578E+01  0.12721205954E+02  0.51100000000E-03 0.  1.
         12    1    3    3    0    0  0.60082180720E+00  0.33529854363E+00  0.27072250329E+01  0.27932918459E+01  0.00000000000E+00 0. -1.
</event>
<event>
 7    1  0.2935819E-010  0.4778727E+02  0.7816164E-02  0.1312668E+00
        -11   -1    0    0    0    0  0.00000000000E+00  0.00000000000E+00  0.45593999997E+02  0.45594000000E+02  0.51100000000E-03 0.  1.
         11   -1    0    0    0    0 -0.00000000000E+00 -0.00000000000E+00 -0.45593999997E+02  0.45594000000E+02  0.51100000000E-03 0. -1.
    9900012    2    1    2    0    0 -0.35251124052E+00 -0.16655131376E+02 -0.40076249829E+02  0.47787268835E+02  0.19999989926E+02 0.  0.
        -12    1    1    2    0    0  0.35251124052E+00  0.16655131376E+02  0.40076249829E+02  0.43400731165E+02  0.00000000000E+00 0.  1.
         11    1    3    3    0    0 -0.35267079136E+01 -0.18302101151E+02 -0.33779802426E+02  0.38580819425E+02  0.51100000000E-03 0. -1.
        -11    1    3    3    0    0  0.41103811962E+00  0.19447154465E+01  0.33544132760E+00  0.20157856158E+01  0.51100000000E-03 0.  1.
        -12    1    3    3    0    0  0.27631585534E+01 -0.29774567054E+00 -0.66318887303E+01  0.71906637946E+01  0.00000000000E+00 0.  1.
</event>
<event>
 7    1  0.2935819E-010  0.4778727E+02  0.7816164E-02  0.1312668E+00
        -11   -1    0    0    0    0  0.00000000000E+00  0.00000000000E+00  0.45593999997E+02  0.45594000000E+02  0.51100000000E-03 0. -1.
         11   -1    0    0    0    0 -0.00000000000E+00 -0.00000000000E+00 -0.45593999997E+02  0.45594000000E+02  0.51100000000E-03 0.  1.
    9900012    2    1    2    0    0  0.27351795716E+01  0.40184521716E+02  0.16166206342E+02  0.47787271661E+02  0.20000002811E+02 0.  0.
        -12    1    1    2    0    0 -0.27351795716E+01 -0.40184521716E+02 -0.16166206342E+02  0.43400728339E+02  0.00000000000E+00 0.  1.
         11    1    3    3    0    0  0.24473816911E+01  0.20495108692E+02  0.70847207111E+01  0.21822750177E+02  0.51100000000E-03 0. -1.
        -11    1    3    3    0    0 -0.23685287809E+01  0.42654185998E+00  0.57535962317E+01  0.62366446430E+01  0.51100000000E-03 0.  1.
        -12    1    3    3    0    0  0.26563266613E+01  0.19262871164E+02  0.33278893995E+01  0.19727876841E+02  0.00000000000E+00 0.  1.
</event>
<event>
 7    1  0.2935819E-010  0.4778727E+02  0.7816164E-02  0.1312668E+00
        -11   -1    0    0    0    0  0.00000000000E+00  0.00000000000E+00  0.45593999997E+02  0.45594000000E+02  0.51100000000E-03 0.  1.
         11   -1    0    0    0    0 -0.00000000000E+00 -0.00000000000E+00 -0.45593999997E+02  0.45594000000E+02  0.51100000000E-03 0. -1.
    9900012    2    1    2    0    0  0.34899456718E+02  0.25744044440E+02 -0.17015718939E+01  0.47787271317E+02  0.20000001241E+02 0.  0.
        -12    1    1    2    0    0 -0.34899456718E+02 -0.25744044440E+02  0.17015718939E+01  0.43400728683E+02  0.00000000000E+00 0.  1.
         11    1    3    3    0    0  0.23476548098E+02  0.14634469388E+02  0.38440159910E+01  0.27930135411E+02  0.51100000000E-03 0. -1.
        -11    1    3    3    0    0  0.85027976996E+01  0.45188710350E+01 -0.77047213340E+01  0.12332092087E+02  0.51100000000E-03 0.  1.
        -12    1    3    3    0    0  0.29201109210E+01  0.65907040165E+01  0.21591334491E+01  0.75250438188E+01  0.00000000000E+00 0.  1.
</event>
<event>
 7    1  0.2935819E-010  0.4778727E+02  0.7816164E-02  0.1312668E+00
        -11   -1    0    0    0    0  0.00000000000E+00  0.00000000000E+00  0.45593999997E+02  0.45594000000E+02  0.51100000000E-03 0.  1.
         11   -1    0    0    0    0 -0.00000000000E+00 -0.00000000000E+00 -0.45593999997E+02  0.45594000000E+02  0.51100000000E-03 0. -1.
    9900012    2    1    2    0    0 -0.31476779682E+02  0.24388707167E+02 -0.17263460808E+02  0.47787265266E+02  0.19999973652E+02 0.  0.
        -12    1    1    2    0    0  0.31476779682E+02 -0.24388707167E+02  0.17263460808E+02  0.43400734734E+02  0.00000000000E+00 0.  1.
         11    1    3    3    0    0 -0.23857600026E+02  0.22827254548E+02 -0.91163153710E+01  0.34254573934E+02  0.51100000000E-03 0. -1.
        -11    1    3    3    0    0 -0.89876949269E+00 -0.27003065670E+01 -0.20409114697E+01  0.35021082287E+01  0.51100000000E-03 0.  1.
        -12    1    3    3    0    0 -0.67204101630E+01  0.42617591859E+01 -0.61062339676E+01  0.10030583103E+02  0.00000000000E+00 0.  1.
</event>
<event>
 7    1  0.2935819E-010  0.4778727E+02  0.7816164E-02  0.1312668E+00
        -11   -1    0    0    0    0  0.00000000000E+00  0.00000000000E+00  0.45593999997E+02  0.45594000000E+02  0.51100000000E-03 0.  1.
         11   -1    0    0    0    0 -0.00000000000E+00 -0.00000000000E+00 -0.45593999997E+02  0.45594000000E+02  0.51100000000E-03 0. -1.
    9900012    2    1    2    0    0 -0.18638125158E+02  0.30322522137E+02 -0.24835216175E+02  0.47787273962E+02  0.20000013301E+02 0.  0.
        -12    1    1    2    0    0  0.18638125158E+02 -0.30322522137E+02  0.24835216175E+02  0.43400726038E+02  0.00000000000E+00 0.  1.
         11    1    3    3    0    0 -0.73548846146E+01  0.59678178026E-01 -0.38806662885E+01  0.83160964570E+01  0.51100000000E-03 0. -1.
        -11    1    3    3    0    0  0.95539079087E+00  0.48703612529E+01 -0.51608567395E+01  0.71601419569E+01  0.51100000000E-03 0.  1.
         12    1    3    3    0    0 -0.12238631334E+02  0.25392482707E+02 -0.15793693147E+02  0.32311035548E+02  0.00000000000E+00 0. -1.
</event>
<event>
 7    1  0.2935819E-010  0.4778726E+02  0.7816164E-02  0.1312668E+00
        -11   -1    0    0    0    0  0.00000000000E+00  0.00000000000E+00  0.45593999997E+02  0.45594000000E+02  0.51100000000E-03 0.  1.
         11   -1    0    0    0    0 -0.00000000000E+00 -0.00000000000E+00 -0.45593999997E+02  0.45594000000E+02  0.51100000000E-03 0. -1.
    9900012    2    1    2    0    0  0.18390218683E+02 -0.16620638369E+02 -0.35625527078E+02  0.47787263341E+02  0.19999964876E+02 0.  0.
        -12    1    1    2    0    0 -0.18390218683E+02  0.16620638369E+02  0.35625527078E+02  0.43400736659E+02  0.00000000000E+00 0.  1.
         11    1    3    3    0    0  0.12008221137E+02 -0.41420387454E+00 -0.14337376868E+02  0.18706397714E+02  0.51100000000E-03 0. -1.
        -11    1    3    3    0    0  0.39973455666E+00 -0.56244038818E+01 -0.14623534509E+01  0.58251338712E+01  0.51100000000E-03 0.  1.
         12    1    3    3    0    0  0.59822629893E+01 -0.10582030612E+02 -0.19825796759E+02  0.23255731755E+02  0.00000000000E+00 0. -1.
</event>
<event>
 7    1  0.2935819E-010  0.4778728E+02  0.7816164E-02  0.1312668E+00
        -11   -1    0    0    0    0  0.00000000000E+00  0.00000000000E+00  0.45593999997E+02  0.45594000000E+02  0.51100000000E-03 0.  1.
         11   -1    0    0    0    0 -0.00000000000E+00 -0.00000000000E+00 -0.45593999997E+02  0.45594000000E+02  0.51100000000E-03 0. -1.
    9900012    2    1    2    0    0  0.32063719940E+02 -0.23519315084E+02 -0.17389146496E+02  0.47787277262E+02  0.20000028346E+02 0.  0.
        -12    1    1    2    0    0 -0.32063719940E+02  0.23519315084E+02  0.17389146496E+02  0.43400722738E+02  0.00000000000E+00 0.  1.
         11    1    3    3    0    0  0.15907657596E+02 -0.21352313867E+02 -0.11844279336E+02  0.29142097229E+02  0.51100000000E-03 0. -1.
        -11    1    3    3    0    0  0.14181505584E+02 -0.29676936697E+01 -0.21647283575E+01  0.14649517243E+02  0.51100000000E-03 0.  1.
         12    1    3    3    0    0  0.19745567598E+01  0.80069245294E+00 -0.33801388024E+01  0.39956627892E+01  0.00000000000E+00 0. -1.
</event>
<event>
 7    1  0.2935819E-010  0.4778728E+02  0.7816164E-02  0.1312668E+00
        -11   -1    0    0    0    0  0.00000000000E+00  0.00000000000E+00  0.45593999997E+02  0.45594000000E+02  0.51100000000E-03 0. -1.
         11   -1    0    0    0    0 -0.00000000000E+00 -0.00000000000E+00 -0.45593999997E+02  0.45594000000E+02  0.51100000000E-03 0.  1.
    9900012    2    1    2    0    0 -0.42676547873E+02 -0.78614428788E+01 -0.72988400816E+00  0.47787277043E+02  0.20000027349E+02 0.  0.
        -12    1    1    2    0    0  0.42676547873E+02  0.78614428788E+01  0.72988400816E+00  0.43400722957E+02  0.00000000000E+00 0.  1.
         11    1    3    3    0    0 -0.23392448918E+02 -0.69724505234E+01  0.91355039037E+01  0.26062984566E+02  0.51100000000E-03 0. -1.
        -11    1    3    3    0    0 -0.12612601013E+02 -0.10451023996E+01 -0.69898160268E+01  0.14457782392E+02  0.51100000000E-03 0.  1.
         12    1    3    3    0    0 -0.66714979425E+01  0.15611004426E+00 -0.28755718851E+01  0.72665100846E+01  0.00000000000E+00 0. -1.
</event>
<event>
 7    1  0.2935819E-010  0.4778726E+02  0.7816164E-02  0.1312668E+00
        -11   -1    0    0    0    0  0.00000000000E+00  0.00000000000E+00  0.45593999997E+02  0.45594000000E+02  0.51100000000E-03 0.  1.
         11   -1    0    0    0    0 -0.00000000000E+00 -0.00000000000E+00 -0.45593999997E+02  0.45594000000E+02  0.51100000000E-03 0. -1.
    9900012    2    1    2    0    0  0.26319584089E+02  0.30280363188E+02 -0.16553039145E+02  0.47787262605E+02  0.19999961523E+02 0.  0.
        -12    1    1    2    0    0 -0.26319584089E+02 -0.30280363188E+02  0.16553039145E+02  0.43400737395E+02  0.00000000000E+00 0.  1.
         11    1    3    3    0    0 -0.91261291373E+00 -0.17482980159E+01 -0.48344605753E+00  0.20305488505E+01  0.51100000000E-03 0.  1.
        -11    1    3    3    0    0  0.17800121559E+02  0.18381548224E+02 -0.13622244563E+02  0.28987776559E+02  0.51100000000E-03 0. -1.
        -12    1    3    3    0    0  0.94320754437E+01  0.13647112980E+02 -0.24473485244E+01  0.16768937196E+02  0.00000000000E+00 0.  1.
</event>
<event>
 7    1  0.2935819E-010  0.4778727E+02  0.7816164E-02  0.1312668E+00
        -11   -1    0    0    0    0  0.00000000000E+00  0.00000000000E+00  0.45593999997E+02  0.45594000000E+02  0.51100000000E-03 0. -1.
         11   -1    0    0    0    0 -0.00000000000E+00 -0.00000000000E+00 -0.45593999997E+02  0.45594000000E+02  0.51100000000E-03 0.  1.
    9900012    2    1    2    0    0 -0.36905915586E+02 -0.74037237693E+01 -0.21604668801E+02  0.47787269074E+02  0.19999991016E+02 0.  0.
        -12    1    1    2    0    0  0.36905915586E+02  0.74037237693E+01  0.21604668801E+02  0.43400730926E+02  0.00000000000E+00 0.  1.
         11    1    3    3    0    0 -0.41562872124E+01 -0.54676695808E+01 -0.41898490765E+01  0.80451830048E+01  0.51100000000E-03 0. -1.
        -11    1    3    3    0    0 -0.29234429357E+02  0.32963180183E+01 -0.14385431342E+02  0.32748407708E+02  0.51100000000E-03 0.  1.
        -12    1    3    3    0    0 -0.35151990172E+01 -0.52323722068E+01 -0.30293883827E+01  0.69936783608E+01  0.00000000000E+00 0.  1.
</event>
<event>
 7    1  0.2935819E-010  0.4778726E+02  0.7816164E-02  0.1312668E+00
        -11   -1    0    0    0    0  0.00000000000E+00  0.00000000000E+00  0.45593999997E+02  0.45594000000E+02  0.51100000000E-03 0. -1.
         11   -1    0    0    0    0 -0.00000000000E+00 -0.00000000000E+00 -0.45593999997E+02  0.45594000000E+02  0.51100000000E-03 0.  1.
    9900012    2    1    2    0    0  0.16182314241E+01 -0.29154631530E+02  0.32109386293E+02  0.47787263823E+02  0.19999967073E+02 0.  0.
        -12    1    1    2    0    0 -0.16182314241E+01  0.29154631530E+02 -0.32109386293E+02  0.43400736177E+02  0.00000000000E+00 0.  1.
         11    1    3    3    0    0  0.38840180911E+01 -0.19191864275E+02  0.27360759072E+02  0.33645570112E+02  0.51100000000E-03 0. -1.
        -11    1    3    3    0    0 -0.44875189691E+01 -0.99165857992E+01  0.29353101962E+01  0.11273533014E+02  0.51100000000E-03 0.  1.
         12    1    3    3    0    0  0.22217323021E+01 -0.46181456062E-01  0.18133170251E+01  0.28681606968E+01  0.00000000000E+00 0. -1.
</event>
<event>
 7    1  0.2935819E-010  0.4778725E+02  0.7816164E-02  0.1312668E+00
        -11   -1    0    0    0    0  0.00000000000E+00  0.00000000000E+00  0.45593999997E+02  0.45594000000E+02  0.51100000000E-03 0.  1.
         11   -1    0    0    0    0 -0.00000000000E+00 -0.00000000000E+00 -0.45593999997E+02  0.45594000000E+02  0.51100000000E-03 0. -1.
    9900012    2    1    2    0    0 -0.29941974071E+02 -0.25660918256E+02 -0.18127898858E+02  0.47787248232E+02  0.19999895988E+02 0.  0.
        -12    1    1    2    0    0  0.29941974071E+02  0.25660918256E+02  0.18127898858E+02  0.43400751768E+02  0.00000000000E+00 0.  1.
         11    1    3    3    0    0 -0.21000613733E+02 -0.17970098636E+02 -0.47694995513E+01  0.28048143404E+02  0.51100000000E-03 0. -1.
        -11    1    3    3    0    0 -0.13360163369E+01 -0.64235679931E+01 -0.43042712565E+01  0.78469049138E+01  0.51100000000E-03 0.  1.
         12    1    3    3    0    0 -0.76053440011E+01 -0.12672516270E+01 -0.90541280499E+01  0.11892199914E+02  0.00000000000E+00 0. -1.
</event>
<event>
 7    1  0.2935819E-010  0.4778727E+02  0.7816164E-02  0.1312668E+00
        -11   -1    0    0    0    0  0.00000000000E+00  0.00000000000E+00  0.45593999997E+02  0.45594000000E+02  0.51100000000E-03 0.  1.
         11   -1    0    0    0    0 -0.00000000000E+00 -0.00000000000E+00 -0.45593999997E+02  0.45594000000E+02  0.51100000000E-03 0. -1.
    9900012    2    1    2    0    0 -0.41456555935E+00 -0.75108554905E+01 -0.42743868111E+02  0.47787273326E+02  0.20000010401E+02 0.  0.
        -12    1    1    2    0    0  0.41456555935E+00  0.75108554905E+01  0.42743868111E+02  0.43400726674E+02  0.00000000000E+00 0.  1.
         11    1    3    3    0    0 -0.80044002833E+01 -0.33301169722E+00 -0.25426007700E+02  0.26658266795E+02  0.51100000000E-03 0. -1.
        -11    1    3    3    0    0  0.70624692505E+01 -0.78633078160E+01 -0.17288900621E+02  0.20263666171E+02  0.51100000000E-03 0.  1.
         12    1    3    3    0    0  0.52736547349E+00  0.68546402266E+00 -0.28959789157E-01  0.86534035985E+00  0.00000000000E+00 0. -1.
</event>
<event>
 7    1  0.2935819E-010  0.4778727E+02  0.7816164E-02  0.1312668E+00
        -11   -1    0    0    0    0  0.00000000000E+00  0.00000000000E+00  0.45593999997E+02  0.45594000000E+02  0.51100000000E-03 0. -1.
         11   -1    0    0    0    0 -0.00000000000E+00 -0.00000000000E+00 -0.45593999997E+02  0.45594000000E+02  0.51100000000E-03 0.  1.
    9900012    2    1    2    0    0 -0.16276938684E+02  0.24577980055E+02  0.31852901559E+02  0.47787272192E+02  0.20000005233E+02 0.  0.
        -12    1    1    2    0    0  0.16276938684E+02 -0.24577980055E+02 -0.31852901559E+02  0.43400727808E+02  0.00000000000E+00 0.  1.
         11    1    3    3    0    0  0.33823620235E+01 -0.49588419883E-01  0.14560874789E+01  0.36828009554E+01  0.51100000000E-03 0. -1.
        -11    1    3    3    0    0  0.44130370371E-01 -0.23099655333E+00  0.18963496380E+00  0.30210689806E+00  0.51100000000E-03 0.  1.
         12    1    3    3    0    0 -0.19703431078E+02  0.24858565028E+02  0.30207179116E+02  0.43802364339E+02  0.00000000000E+00 0. -1.
</event>
<event>
 7    1  0.2935819E-010  0.4778727E+02  0.7816164E-02  0.1312668E+00
        -11   -1    0    0    0    0  0.00000000000E+00  0.00000000000E+00  0.45593999997E+02  0.45594000000E+02  0.51100000000E-03 0.  1.
         11   -1    0    0    0    0 -0.00000000000E+00 -0.00000000000E+00 -0.45593999997E+02  0.45594000000E+02  0.51100000000E-03 0. -1.
    9900012    2    1    2    0    0 -0.29850689559E+02 -0.14521465472E+02 -0.27958663061E+02  0.47787268822E+02  0.19999989867E+02 0.  0.
        -12    1    1    2    0    0  0.29850689559E+02  0.14521465472E+02  0.27958663061E+02  0.43400731178E+02  0.00000000000E+00 0.  1.
         11    1    3    3    0    0 -0.23034163458E+02 -0.76969874755E+01 -0.11328294775E+02  0.26798256757E+02  0.51100000000E-03 0. -1.
        -11    1    3    3    0    0  0.61739626380E+00 -0.43044706053E+01 -0.30781883016E+01  0.53277470679E+01  0.51100000000E-03 0.  1.
         12    1    3    3    0    0 -0.74339223647E+01 -0.25200073913E+01 -0.13552179985E+02  0.15661264997E+02  0.00000000000E+00 0. -1.
</event>
<event>
 7    1  0.2952113E-010  0.4778727E+02  0.7816164E-02  0.1312668E+00
        -11   -1    0    0    0    0  0.00000000000E+00  0.00000000000E+00  0.45593999997E+02  0.45594000000E+02  0.51100000000E-03 0. -1.
         11   -1    0    0    0    0 -0.00000000000E+00 -0.00000000000E+00 -0.45593999997E+02  0.45594000000E+02  0.51100000000E-03 0.  1.
    9900012    2    1    2    0    0  0.64481872972E+01  0.21970258446E+02  0.36869393516E+02  0.47787267819E+02  0.19999985296E+02 0.  0.
        -12    1    1    2    0    0 -0.64481872972E+01 -0.21970258446E+02 -0.36869393516E+02  0.43400732181E+02  0.00000000000E+00 0.  1.
         11    1    3    3    0    0  0.60951768714E+01  0.10972826410E+02  0.23603928738E+02  0.26733865277E+02  0.51100000000E-03 0. -1.
        -11    1    3    3    0    0 -0.67210253524E+00  0.82162100854E+01  0.84810807024E+00  0.82871658331E+01  0.51100000000E-03 0.  1.
        -12    1    3    3    0    0  0.10251129610E+01  0.27812219503E+01  0.12417356707E+02  0.12766236709E+02  0.00000000000E+00 0.  1.
</event>
<event>
 7    1  0.2935819E-010  0.4778729E+02  0.7816164E-02  0.1312668E+00
        -11   -1    0    0    0    0  0.00000000000E+00  0.00000000000E+00  0.45593999997E+02  0.45594000000E+02  0.51100000000E-03 0.  1.
         11   -1    0    0    0    0 -0.00000000000E+00 -0.00000000000E+00 -0.45593999997E+02  0.45594000000E+02  0.51100000000E-03 0. -1.
    9900012    2    1    2    0    0  0.37061722224E+02  0.21860749630E+02 -0.56708383614E+01  0.47787285302E+02  0.20000065006E+02 0.  0.
        -12    1    1    2    0    0 -0.37061722224E+02 -0.21860749630E+02  0.56708383614E+01  0.43400714698E+02  0.00000000000E+00 0.  1.
         11    1    3    3    0    0  0.25863467482E+02  0.69512666142E+01 -0.18040426383E+01  0.26842012366E+02  0.51100000000E-03 0. -1.
        -11    1    3    3    0    0 -0.14110687214E+01  0.66112457092E+00 -0.25836447846E+00  0.15795420538E+01  0.51100000000E-03 0.  1.
         12    1    3    3    0    0  0.12609323463E+02  0.14248358445E+02 -0.36084312446E+01  0.19365730883E+02  0.00000000000E+00 0. -1.
</event>
<event>
 7    1  0.2935819E-010  0.4778728E+02  0.7816164E-02  0.1312668E+00
        -11   -1    0    0    0    0  0.00000000000E+00  0.00000000000E+00  0.45593999997E+02  0.45594000000E+02  0.51100000000E-03 0. -1.
         11   -1    0    0    0    0 -0.00000000000E+00 -0.00000000000E+00 -0.45593999997E+02  0.45594000000E+02  0.51100000000E-03 0.  1.
    9900012    2    1    2    0    0  0.95420174738E+01 -0.12198859511E+01  0.42321207311E+02  0.47787276418E+02  0.20000024499E+02 0.  0.
        -12    1    1    2    0    0 -0.95420174738E+01  0.12198859511E+01 -0.42321207311E+02  0.43400723582E+02  0.00000000000E+00 0.  1.
         11    1    3    3    0    0  0.67712874346E+01 -0.50585227123E+01  0.98844634512E+01  0.13005445149E+02  0.51100000000E-03 0. -1.
        -11    1    3    3    0    0  0.63376242440E+01 -0.10140446130E+01  0.19066160643E+02  0.20117461308E+02  0.51100000000E-03 0.  1.
         12    1    3    3    0    0 -0.35668942048E+01  0.48526813742E+01  0.13370583216E+02  0.14664369960E+02  0.00000000000E+00 0. -1.
</event>
<event>
 7    1  0.2935819E-010  0.4778727E+02  0.7816164E-02  0.1312668E+00
        -11   -1    0    0    0    0  0.00000000000E+00  0.00000000000E+00  0.45593999997E+02  0.45594000000E+02  0.51100000000E-03 0.  1.
         11   -1    0    0    0    0 -0.00000000000E+00 -0.00000000000E+00 -0.45593999997E+02  0.45594000000E+02  0.51100000000E-03 0. -1.
    9900012    2    1    2    0    0 -0.26066128897E+02  0.14177530511E+02  0.31672985809E+02  0.47787268703E+02  0.19999989323E+02 0.  0.
        -12    1    1    2    0    0  0.26066128897E+02 -0.14177530511E+02 -0.31672985809E+02  0.43400731297E+02  0.00000000000E+00 0.  1.
         11    1    3    3    0    0 -0.22913291788E+02  0.98355661096E+01  0.32148428710E+02  0.40685117304E+02  0.51100000000E-03 0. -1.
        -11    1    3    3    0    0 -0.13571699259E+01  0.20203413421E+01  0.20868556599E+01  0.32060343343E+01  0.51100000000E-03 0.  1.
         12    1    3    3    0    0 -0.17956671838E+01  0.23216230592E+01 -0.25622985609E+01  0.38961170643E+01  0.00000000000E+00 0. -1.
</event>
<event>
 7    1  0.2935819E-010  0.4778727E+02  0.7816164E-02  0.1312668E+00
        -11   -1    0    0    0    0  0.00000000000E+00  0.00000000000E+00  0.45593999997E+02  0.45594000000E+02  0.51100000000E-03 0. -1.
         11   -1    0    0    0    0 -0.00000000000E+00 -0.00000000000E+00 -0.45593999997E+02  0.45594000000E+02  0.51100000000E-03 0.  1.
    9900012    2    1    2    0    0  0.17719800229E+02 -0.26650927061E+02  0.29314844182E+02  0.47787270481E+02  0.19999997431E+02 0.  0.
        -12    1    1    2    0    0 -0.17719800229E+02  0.26650927061E+02 -0.29314844182E+02  0.43400729519E+02  0.00000000000E+00 0.  1.
         11    1    3    3    0    0  0.17467718116E+02 -0.17668494433E+02  0.23058380120E+02  0.33896692549E+02  0.51100000000E-03 0. -1.
        -11    1    3    3    0    0  0.21015871934E+01 -0.92252089937E+01  0.71138811993E+01  0.11837586565E+02  0.51100000000E-03 0.  1.
         12    1    3    3    0    0 -0.18495050802E+01  0.24277636499E+00 -0.85741713809E+00  0.20529913672E+01  0.00000000000E+00 0. -1.
</event>
<event>
 7    1  0.2935819E-010  0.4778727E+02  0.7816164E-02  0.1312668E+00
        -11   -1    0    0    0    0  0.00000000000E+00  0.00000000000E+00  0.45593999997E+02  0.45594000000E+02  0.51100000000E-03 0.  1.
         11   -1    0    0    0    0 -0.00000000000E+00 -0.00000000000E+00 -0.45593999997E+02  0.45594000000E+02  0.51100000000E-03 0. -1.
    9900012    2    1    2    0    0 -0.33684975400E+02  0.17531450918E+01 -0.27310660972E+02  0.47787270880E+02  0.19999999250E+02 0.  0.
        -12    1    1    2    0    0  0.33684975400E+02 -0.17531450918E+01  0.27310660972E+02  0.43400729120E+02  0.00000000000E+00 0.  1.
         11    1    3    3    0    0 -0.27117867777E+02  0.57825366830E+01 -0.18968292531E+02  0.33594830035E+02  0.51100000000E-03 0. -1.
        -11    1    3    3    0    0 -0.74692698351E+01 -0.47554374007E+01 -0.91866918049E+01  0.12759290079E+02  0.51100000000E-03 0.  1.
         12    1    3    3    0    0  0.90216221209E+00  0.72604580952E+00  0.84432336417E+00  0.14331507659E+01  0.00000000000E+00 0. -1.
</event>
<event>
 7    1  0.2935819E-010  0.4778728E+02  0.7816164E-02  0.1312668E+00
        -11   -1    0    0    0    0  0.00000000000E+00  0.00000000000E+00  0.45593999997E+02  0.45594000000E+02  0.51100000000E-03 0.  1.
         11   -1    0    0    0    0 -0.00000000000E+00 -0.00000000000E+00 -0.45593999997E+02  0.45594000000E+02  0.51100000000E-03 0. -1.
    9900012    2    1    2    0    0  0.11671969254E+02 -0.92181084711E+01 -0.40772714703E+02  0.47787278182E+02  0.20000032543E+02 0.  0.
        -12    1    1    2    0    0 -0.11671969254E+02  0.92181084711E+01  0.40772714703E+02  0.43400721818E+02  0.00000000000E+00 0.  1.
         11    1    3    3    0    0 -0.13445849516E+01 -0.84620830377E+01 -0.99405208157E+01  0.13123593730E+02  0.51100000000E-03 0. -1.
        -11    1    3    3    0    0  0.79013263434E+01 -0.16590924703E+01 -0.84513705871E+01  0.11687994305E+02  0.51100000000E-03 0.  1.
         12    1    3    3    0    0  0.51152278618E+01  0.90306703688E+00 -0.22380823301E+02  0.22975690148E+02  0.00000000000E+00 0. -1.
</event>
<event>
 7    1  0.2935819E-010  0.4778728E+02  0.7816164E-02  0.1312668E+00
        -11   -1    0    0    0    0  0.00000000000E+00  0.00000000000E+00  0.45593999997E+02  0.45594000000E+02  0.51100000000E-03 0.  1.
         11   -1    0    0    0    0 -0.00000000000E+00 -0.00000000000E+00 -0.45593999997E+02  0.45594000000E+02  0.51100000000E-03 0. -1.
    9900012    2    1    2    0    0 -0.29488013838E+02  0.61554672849E+01 -0.31244041337E+02  0.47787275851E+02  0.20000021917E+02 0.  0.
        -12    1    1    2    0    0  0.29488013838E+02 -0.61554672849E+01  0.31244041337E+02  0.43400724149E+02  0.00000000000E+00 0.  1.
         11    1    3    3    0    0 -0.15234471175E+02  0.80334122016E+01 -0.82253212186E+01  0.19086139814E+02  0.51100000000E-03 0. -1.
        -11    1    3    3    0    0 -0.35342567513E+01 -0.41581355045E+01 -0.40561885601E+01  0.67995387752E+01  0.51100000000E-03 0.  1.
         12    1    3    3    0    0 -0.10719285911E+02  0.22801905878E+01 -0.18962531558E+02  0.21901597262E+02  0.00000000000E+00 0. -1.
</event>
<event>
 7    1  0.2935819E-010  0.4778727E+02  0.7816164E-02  0.1312668E+00
        -11   -1    0    0    0    0  0.00000000000E+00  0.00000000000E+00  0.45593999997E+02  0.45594000000E+02  0.51100000000E-03 0.  1.
         11   -1    0    0    0    0 -0.00000000000E+00 -0.00000000000E+00 -0.45593999997E+02  0.45594000000E+02  0.51100000000E-03 0. -1.
    9900012    2    1    2    0    0 -0.10343810825E+02 -0.26263587662E+02 -0.32967449537E+02  0.47787272031E+02  0.20000004496E+02 0.  0.
        -12    1    1    2    0    0  0.10343810825E+02  0.26263587662E+02  0.32967449537E+02  0.43400727969E+02  0.00000000000E+00 0.  1.
         11    1    3    3    0    0 -0.11312585275E+02 -0.93323411160E+01 -0.14989876855E+02  0.20970540877E+02  0.51100000000E-03 0. -1.
        -11    1    3    3    0    0  0.55302968439E+01 -0.11692066561E+02 -0.11152747707E+02  0.17078418701E+02  0.51100000000E-03 0.  1.
        -12    1    3    3    0    0 -0.45615223940E+01 -0.52391799855E+01 -0.68248249751E+01  0.97383124520E+01  0.00000000000E+00 0.  1.
</event>
<event>
 7    1  0.2935819E-010  0.4778727E+02  0.7816164E-02  0.1312668E+00
        -11   -1    0    0    0    0  0.00000000000E+00  0.00000000000E+00  0.45593999997E+02  0.45594000000E+02  0.51100000000E-03 0.  1.
         11   -1    0    0    0    0 -0.00000000000E+00 -0.00000000000E+00 -0.45593999997E+02  0.45594000000E+02  0.51100000000E-03 0. -1.
    9900012    2    1    2    0    0 -0.32973443076E+02  0.10825171651E+02 -0.26061293849E+02  0.47787270436E+02  0.19999997226E+02 0.  0.
        -12    1    1    2    0    0  0.32973443076E+02 -0.10825171651E+02  0.26061293849E+02  0.43400729564E+02  0.00000000000E+00 0.  1.
         11    1    3    3    0    0 -0.23137303082E+02  0.49336992877E+01 -0.16461597861E+02  0.28821179486E+02  0.51100000000E-03 0. -1.
        -11    1    3    3    0    0  0.26700734704E+01  0.16283922066E+01 -0.15039742891E+01  0.34702870831E+01  0.51100000000E-03 0.  1.
        -12    1    3    3    0    0 -0.12506213465E+02  0.42630801567E+01 -0.80957216988E+01  0.15495803867E+02  0.00000000000E+00 0.  1.
</event>
<event>
 7    1  0.2935819E-010  0.4778727E+02  0.7816164E-02  0.1312668E+00
        -11   -1    0    0    0    0  0.00000000000E+00  0.00000000000E+00  0.45593999997E+02  0.45594000000E+02  0.51100000000E-03 0.  1.
         11   -1    0    0    0    0 -0.00000000000E+00 -0.00000000000E+00 -0.45593999997E+02  0.45594000000E+02  0.51100000000E-03 0. -1.
    9900012    2    1    2    0    0 -0.26831774061E+02  0.20128651326E+02 -0.27541180400E+02  0.47787270498E+02  0.19999997510E+02 0.  0.
        -12    1    1    2    0    0  0.26831774061E+02 -0.20128651326E+02  0.27541180400E+02  0.43400729502E+02  0.00000000000E+00 0.  1.
         11    1    3    3    0    0 -0.23797617102E+02  0.11279751332E+02 -0.11431733940E+02  0.28709648395E+02  0.51100000000E-03 0. -1.
        -11    1    3    3    0    0 -0.17860038712E+01  0.87756751511E+01 -0.14444878534E+02  0.16995787722E+02  0.51100000000E-03 0.  1.
         12    1    3    3    0    0 -0.12481530881E+01  0.73224842866E-01 -0.16645679259E+01  0.20818343808E+01  0.00000000000E+00 0. -1.
</event>
<event>
 7    1  0.2935819E-010  0.4778727E+02  0.7816164E-02  0.1312668E+00
        -11   -1    0    0    0    0  0.00000000000E+00  0.00000000000E+00  0.45593999997E+02  0.45594000000E+02  0.51100000000E-03 0. -1.
         11   -1    0    0    0    0 -0.00000000000E+00 -0.00000000000E+00 -0.45593999997E+02  0.45594000000E+02  0.51100000000E-03 0.  1.
    9900012    2    1    2    0    0  0.18503936600E+01 -0.38177494666E+02  0.20559139231E+02  0.47787271186E+02  0.20000000645E+02 0.  0.
        -12    1    1    2    0    0 -0.18503936600E+01  0.38177494666E+02 -0.20559139231E+02  0.43400728814E+02  0.00000000000E+00 0.  1.
         11    1    3    3    0    0 -0.16887636305E+01  0.60277551381E+00 -0.87279536627E+00  0.19942499673E+01  0.51100000000E-03 0. -1.
        -11    1    3    3    0    0  0.68348665626E+01 -0.18273397230E+02  0.12589266919E+02  0.23219002758E+02  0.51100000000E-03 0.  1.
         12    1    3    3    0    0 -0.32957092721E+01 -0.20506872950E+02  0.88426676786E+01  0.22574018461E+02  0.00000000000E+00 0. -1.
</event>
<event>
 7    1  0.2935819E-010  0.4778727E+02  0.7816164E-02  0.1312668E+00
        -11   -1    0    0    0    0  0.00000000000E+00  0.00000000000E+00  0.45593999997E+02  0.45594000000E+02  0.51100000000E-03 0.  1.
         11   -1    0    0    0    0 -0.00000000000E+00 -0.00000000000E+00 -0.45593999997E+02  0.45594000000E+02  0.51100000000E-03 0. -1.
    9900012    2    1    2    0    0  0.23166677736E+02  0.11405479073E+02 -0.34883281855E+02  0.47787271167E+02  0.20000000560E+02 0.  0.
        -12    1    1    2    0    0 -0.23166677736E+02 -0.11405479073E+02  0.34883281855E+02  0.43400728833E+02  0.00000000000E+00 0.  1.
         11    1    3    3    0    0  0.76922979851E+01  0.91152545833E+01 -0.66792779493E+01  0.13670115895E+02  0.51100000000E-03 0. -1.
        -11    1    3    3    0    0  0.17064592922E+02  0.10940906821E+01 -0.26250381716E+02  0.31328579708E+02  0.51100000000E-03 0.  1.
        -12    1    3    3    0    0 -0.15902131711E+01  0.11961338071E+01 -0.19536221903E+01  0.27885755640E+01  0.00000000000E+00 0.  1.
</event>
<event>
 7    1  0.2935819E-010  0.4778727E+02  0.7816164E-02  0.1312668E+00
        -11   -1    0    0    0    0  0.00000000000E+00  0.00000000000E+00  0.45593999997E+02  0.45594000000E+02  0.51100000000E-03 0.  1.
         11   -1    0    0    0    0 -0.00000000000E+00 -0.00000000000E+00 -0.45593999997E+02  0.45594000000E+02  0.51100000000E-03 0. -1.
    9900012    2    1    2    0    0  0.25076928816E+02  0.19121617928E+02 -0.29818358267E+02  0.47787272808E+02  0.20000008041E+02 0.  0.
        -12    1    1    2    0    0 -0.25076928816E+02 -0.19121617928E+02  0.29818358267E+02  0.43400727192E+02  0.00000000000E+00 0.  1.
         11    1    3    3    0    0  0.89039685737E+01  0.14890983641E+02 -0.77999602242E+01  0.19022655701E+02  0.51100000000E-03 0.  1.
        -11    1    3    3    0    0  0.41572371805E+01  0.74000321822E+00 -0.10572961723E+01  0.43529416715E+01  0.51100000000E-03 0. -1.
         12    1    3    3    0    0  0.12015723062E+02  0.34906310695E+01 -0.20961101870E+02  0.24411675436E+02  0.00000000000E+00 0. -1.
</event>
<event>
 7    1  0.2935819E-010  0.4778728E+02  0.7816164E-02  0.1312668E+00
        -11   -1    0    0    0    0  0.00000000000E+00  0.00000000000E+00  0.45593999997E+02  0.45594000000E+02  0.51100000000E-03 0. -1.
         11   -1    0    0    0    0 -0.00000000000E+00 -0.00000000000E+00 -0.45593999997E+02  0.45594000000E+02  0.51100000000E-03 0.  1.
    9900012    2    1    2    0    0 -0.31468936929E+01  0.43149290023E+02 -0.34436389804E+01  0.47787276287E+02  0.20000023903E+02 0.  0.
        -12    1    1    2    0    0  0.31468936929E+01 -0.43149290023E+02  0.34436389804E+01  0.43400723713E+02  0.00000000000E+00 0.  1.
         11    1    3    3    0    0  0.53601019483E+01  0.92644248751E+01 -0.48558416401E+01  0.11753274414E+02  0.51100000000E-03 0.  1.
        -11    1    3    3    0    0 -0.58480667315E+01  0.30766269483E+02  0.33591998024E+01  0.31496784693E+02  0.51100000000E-03 0. -1.
         12    1    3    3    0    0 -0.26589289097E+01  0.31185956642E+01 -0.19469971427E+01  0.45372171799E+01  0.00000000000E+00 0. -1.
</event>
<event>
 7    1  0.2935819E-010  0.4778727E+02  0.7816164E-02  0.1312668E+00
        -11   -1    0    0    0    0  0.00000000000E+00  0.00000000000E+00  0.45593999997E+02  0.45594000000E+02  0.51100000000E-03 0.  1.
         11   -1    0    0    0    0 -0.00000000000E+00 -0.00000000000E+00 -0.45593999997E+02  0.45594000000E+02  0.51100000000E-03 0. -1.
    9900012    2    1    2    0    0  0.26396673738E+02 -0.30849232893E+02 -0.15335050987E+02  0.47787270244E+02  0.19999996351E+02 0.  0.
        -12    1    1    2    0    0 -0.26396673738E+02  0.30849232893E+02  0.15335050987E+02  0.43400729756E+02  0.00000000000E+00 0.  1.
         11    1    3    3    0    0  0.23530055069E+02 -0.14556642960E+02 -0.12100192670E+02  0.30198907409E+02  0.51100000000E-03 0. -1.
        -11    1    3    3    0    0  0.12478530075E+01 -0.11658583873E+01  0.74520102521E+00  0.18632465582E+01  0.51100000000E-03 0.  1.
         12    1    3    3    0    0  0.16187656618E+01 -0.15126731546E+02 -0.39800593422E+01  0.15725116277E+02  0.00000000000E+00 0. -1.
</event>
<event>
 7    1  0.2935819E-010  0.4778728E+02  0.7816164E-02  0.1312668E+00
        -11   -1    0    0    0    0  0.00000000000E+00  0.00000000000E+00  0.45593999997E+02  0.45594000000E+02  0.51100000000E-03 0.  1.
         11   -1    0    0    0    0 -0.00000000000E+00 -0.00000000000E+00 -0.45593999997E+02  0.45594000000E+02  0.51100000000E-03 0. -1.
    9900012    2    1    2    0    0 -0.13439909927E+02  0.17347315823E+02 -0.37444118067E+02  0.47787279696E+02  0.20000039445E+02 0.  0.
        -12    1    1    2    0    0  0.13439909927E+02 -0.17347315823E+02  0.37444118067E+02  0.43400720304E+02  0.00000000000E+00 0.  1.
         11    1    3    3    0    0 -0.10242533162E+02  0.13740028547E+02 -0.11825470635E+02  0.20821614395E+02  0.51100000000E-03 0. -1.
        -11    1    3    3    0    0 -0.46505617949E+01  0.40898575585E+01 -0.23778486120E+02  0.24571753342E+02  0.51100000000E-03 0.  1.
        -12    1    3    3    0    0  0.14531850302E+01 -0.48257028249E+00 -0.18401613123E+01  0.23939119584E+01  0.00000000000E+00 0.  1.
</event>
<event>
 7    1  0.2935819E-010  0.4778728E+02  0.7816164E-02  0.1312668E+00
        -11   -1    0    0    0    0  0.00000000000E+00  0.00000000000E+00  0.45593999997E+02  0.45594000000E+02  0.51100000000E-03 0. -1.
         11   -1    0    0    0    0 -0.00000000000E+00 -0.00000000000E+00 -0.45593999997E+02  0.45594000000E+02  0.51100000000E-03 0.  1.
    9900012    2    1    2    0    0  0.25267783564E+02 -0.25008309041E+02  0.24894693030E+02  0.47787284011E+02  0.20000059119E+02 0.  0.
        -12    1    1    2    0    0 -0.25267783564E+02  0.25008309041E+02 -0.24894693030E+02  0.43400715989E+02  0.00000000000E+00 0.  1.
         11    1    3    3    0    0  0.26157792359E+01  0.11212016368E+01  0.73841783901E+01  0.79136265314E+01  0.51100000000E-03 0. -1.
        -11    1    3    3    0    0  0.17073417238E+02 -0.15890180274E+02  0.74835610128E+01  0.24494960523E+02  0.51100000000E-03 0.  1.
         12    1    3    3    0    0  0.55785870894E+01 -0.10239330404E+02  0.10026953627E+02  0.15378696957E+02  0.00000000000E+00 0. -1.
</event>
<event>
 7    1  0.2935819E-010  0.4778728E+02  0.7816164E-02  0.1312668E+00
        -11   -1    0    0    0    0  0.00000000000E+00  0.00000000000E+00  0.45593999997E+02  0.45594000000E+02  0.51100000000E-03 0. -1.
         11   -1    0    0    0    0 -0.00000000000E+00 -0.00000000000E+00 -0.45593999997E+02  0.45594000000E+02  0.51100000000E-03 0.  1.
    9900012    2    1    2    0    0  0.38823100109E+02  0.15133564378E+02  0.12139398692E+02  0.47787275658E+02  0.20000021033E+02 0.  0.
        -12    1    1    2    0    0 -0.38823100109E+02 -0.15133564378E+02 -0.12139398692E+02  0.43400724342E+02  0.00000000000E+00 0.  1.
         11    1    3    3    0    0  0.31281159856E+02  0.11180943408E+02  0.12036447332E+02  0.35332711784E+02  0.51100000000E-03 0. -1.
        -11    1    3    3    0    0 -0.47021792008E+00  0.43279003186E+01 -0.63630719565E+00  0.43996264806E+01  0.51100000000E-03 0.  1.
        -12    1    3    3    0    0  0.80121581734E+01 -0.37527934889E+00  0.73925855562E+00  0.80549373925E+01  0.00000000000E+00 0.  1.
</event>
<event>
 7    1  0.2935819E-010  0.4778727E+02  0.7816164E-02  0.1312668E+00
        -11   -1    0    0    0    0  0.00000000000E+00  0.00000000000E+00  0.45593999997E+02  0.45594000000E+02  0.51100000000E-03 0.  1.
         11   -1    0    0    0    0 -0.00000000000E+00 -0.00000000000E+00 -0.45593999997E+02  0.45594000000E+02  0.51100000000E-03 0. -1.
    9900012    2    1    2    0    0  0.81530009942E+01 -0.30002889129E+02 -0.30281660250E+02  0.47787265803E+02  0.19999976103E+02 0.  0.
        -12    1    1    2    0    0 -0.81530009942E+01  0.30002889129E+02  0.30281660250E+02  0.43400734197E+02  0.00000000000E+00 0.  1.
         11    1    3    3    0    0  0.88577119142E+00 -0.27804032046E+02 -0.20264688345E+02  0.34416658504E+02  0.51100000000E-03 0. -1.
        -11    1    3    3    0    0  0.25633345792E+01  0.66472381539E+00 -0.10522220744E+01  0.28495110933E+01  0.51100000000E-03 0.  1.
         12    1    3    3    0    0  0.47038952236E+01 -0.28635808984E+01 -0.89647498312E+01  0.10521096206E+02  0.00000000000E+00 0. -1.
</event>
<event>
 7    1  0.2935819E-010  0.4778727E+02  0.7816164E-02  0.1312668E+00
        -11   -1    0    0    0    0  0.00000000000E+00  0.00000000000E+00  0.45593999997E+02  0.45594000000E+02  0.51100000000E-03 0. -1.
         11   -1    0    0    0    0 -0.00000000000E+00 -0.00000000000E+00 -0.45593999997E+02  0.45594000000E+02  0.51100000000E-03 0.  1.
    9900012    2    1    2    0    0  0.38125429433E+01 -0.41051616570E+02  0.13559217021E+02  0.47787273359E+02  0.20000010553E+02 0.  0.
        -12    1    1    2    0    0 -0.38125429433E+01  0.41051616570E+02 -0.13559217021E+02  0.43400726641E+02  0.00000000000E+00 0.  1.
         11    1    3    3    0    0  0.45648499654E+01 -0.44330455768E+01 -0.23625193407E+01  0.67875802896E+01  0.51100000000E-03 0. -1.
        -11    1    3    3    0    0 -0.89148395364E+00  0.23784805643E+00  0.46368293509E+00  0.10326264876E+01  0.51100000000E-03 0.  1.
         12    1    3    3    0    0  0.13917693162E+00 -0.36856419050E+02  0.15458053427E+02  0.39967066582E+02  0.00000000000E+00 0. -1.
</event>
<event>
 7    1  0.2935819E-010  0.4778727E+02  0.7816164E-02  0.1312668E+00
        -11   -1    0    0    0    0  0.00000000000E+00  0.00000000000E+00  0.45593999997E+02  0.45594000000E+02  0.51100000000E-03 0. -1.
         11   -1    0    0    0    0 -0.00000000000E+00 -0.00000000000E+00 -0.45593999997E+02  0.45594000000E+02  0.51100000000E-03 0.  1.
    9900012    2    1    2    0    0 -0.33324996566E+02 -0.23299408889E+02  0.15172519060E+02  0.47787272065E+02  0.20000004651E+02 0.  0.
        -12    1    1    2    0    0  0.33324996566E+02  0.23299408889E+02 -0.15172519060E+02  0.43400727935E+02  0.00000000000E+00 0.  1.
         11    1    3    3    0    0 -0.75522854911E+01 -0.52680785905E+00 -0.15000459823E+01  0.77178158095E+01  0.51100000000E-03 0.  1.
        -11    1    3    3    0    0  0.13620373538E+00  0.22033726524E+00  0.27079732478E+01  0.27203344169E+01  0.51100000000E-03 0. -1.
         12    1    3    3    0    0 -0.25908914810E+02 -0.22992938296E+02  0.13964591794E+02  0.37349121838E+02  0.00000000000E+00 0. -1.
</event>
<event>
 7    1  0.2935819E-010  0.4778727E+02  0.7816164E-02  0.1312668E+00
        -11   -1    0    0    0    0  0.00000000000E+00  0.00000000000E+00  0.45593999997E+02  0.45594000000E+02  0.51100000000E-03 0. -1.
         11   -1    0    0    0    0 -0.00000000000E+00 -0.00000000000E+00 -0.45593999997E+02  0.45594000000E+02  0.51100000000E-03 0.  1.
    9900012    2    1    2    0    0 -0.26856662481E+02  0.31077218279E+02  0.14019611166E+02  0.47787270596E+02  0.19999997954E+02 0.  0.
        -12    1    1    2    0    0  0.26856662481E+02 -0.31077218279E+02 -0.14019611166E+02  0.43400729404E+02  0.00000000000E+00 0.  1.
         11    1    3    3    0    0 -0.71590957735E+01  0.87285650343E+01  0.11987068639E+02  0.16466035184E+02  0.51100000000E-03 0. -1.
        -11    1    3    3    0    0 -0.13601939841E+02  0.20831123287E+02  0.25990025727E+01  0.25014061635E+02  0.51100000000E-03 0.  1.
        -12    1    3    3    0    0 -0.60956268666E+01  0.15175299576E+01 -0.56646004630E+00  0.63071737769E+01  0.00000000000E+00 0.  1.
</event>
<event>
 7    1  0.2935819E-010  0.4778727E+02  0.7816164E-02  0.1312668E+00
        -11   -1    0    0    0    0  0.00000000000E+00  0.00000000000E+00  0.45593999997E+02  0.45594000000E+02  0.51100000000E-03 0. -1.
         11   -1    0    0    0    0 -0.00000000000E+00 -0.00000000000E+00 -0.45593999997E+02  0.45594000000E+02  0.51100000000E-03 0.  1.
    9900012    2    1    2    0    0  0.25734365932E+02  0.29907403087E+02  0.18080739049E+02  0.47787268740E+02  0.19999989495E+02 0.  0.
        -12    1    1    2    0    0 -0.25734365932E+02 -0.29907403087E+02 -0.18080739049E+02  0.43400731260E+02  0.00000000000E+00 0.  1.
         11    1    3    3    0    0 -0.80923840324E-01  0.10877691050E+02  0.72325168528E+01  0.13062925076E+02  0.51100000000E-03 0. -1.
        -11    1    3    3    0    0  0.75297469475E+00  0.50716617648E+00  0.22038426916E+01  0.23835081900E+01  0.51100000000E-03 0.  1.
         12    1    3    3    0    0  0.25062315077E+02  0.18522545860E+02  0.86443795046E+01  0.32340835475E+02  0.00000000000E+00 0. -1.
</event>
<event>
 7    1  0.2935819E-010  0.4778727E+02  0.7816164E-02  0.1312668E+00
        -11   -1    0    0    0    0  0.00000000000E+00  0.00000000000E+00  0.45593999997E+02  0.45594000000E+02  0.51100000000E-03 0.  1.
         11   -1    0    0    0    0 -0.00000000000E+00 -0.00000000000E+00 -0.45593999997E+02  0.45594000000E+02  0.51100000000E-03 0. -1.
    9900012    2    1    2    0    0 -0.98190980015E+01  0.17842740600E+02 -0.38325519684E+02  0.47787268016E+02  0.19999986192E+02 0.  0.
        -12    1    1    2    0    0  0.98190980015E+01 -0.17842740600E+02  0.38325519684E+02  0.43400731984E+02  0.00000000000E+00 0.  1.
         11    1    3    3    0    0  0.28060669927E+00  0.80862362352E+01 -0.20822354803E+02  0.22339122999E+02  0.51100000000E-03 0. -1.
        -11    1    3    3    0    0 -0.10083057082E+02  0.10075500070E+02 -0.88268421791E+01  0.16765944199E+02  0.51100000000E-03 0.  1.
        -12    1    3    3    0    0 -0.16647619190E-01 -0.31899570520E+00 -0.86763227023E+01  0.86822008176E+01  0.00000000000E+00 0.  1.
</event>
<event>
 7    1  0.2935819E-010  0.4778727E+02  0.7816164E-02  0.1312668E+00
        -11   -1    0    0    0    0  0.00000000000E+00  0.00000000000E+00  0.45593999997E+02  0.45594000000E+02  0.51100000000E-03 0.  1.
         11   -1    0    0    0    0 -0.00000000000E+00 -0.00000000000E+00 -0.45593999997E+02  0.45594000000E+02  0.51100000000E-03 0. -1.
    9900012    2    1    2    0    0  0.76847442716E+01  0.42607421117E+02  0.30291342478E+01  0.47787270938E+02  0.19999999516E+02 0.  0.
        -12    1    1    2    0    0 -0.76847442716E+01 -0.42607421117E+02 -0.30291342478E+01  0.43400729062E+02  0.00000000000E+00 0.  1.
         11    1    3    3    0    0 -0.20044884364E+00  0.44640461491E+01 -0.64737030580E+00  0.45151939420E+01  0.51100000000E-03 0. -1.
        -11    1    3    3    0    0  0.13538634062E+02  0.31331719847E+02  0.42822355592E+01  0.34399256133E+02  0.51100000000E-03 0.  1.
        -12    1    3    3    0    0 -0.56534409466E+01  0.68116551211E+01 -0.60573100556E+00  0.88728208635E+01  0.00000000000E+00 0.  1.
</event>
<event>
 7    1  0.2935819E-010  0.4778727E+02  0.7816164E-02  0.1312668E+00
        -11   -1    0    0    0    0  0.00000000000E+00  0.00000000000E+00  0.45593999997E+02  0.45594000000E+02  0.51100000000E-03 0. -1.
         11   -1    0    0    0    0 -0.00000000000E+00 -0.00000000000E+00 -0.45593999997E+02  0.45594000000E+02  0.51100000000E-03 0.  1.
    9900012    2    1    2    0    0  0.14483910268E+02 -0.28013891226E+02  0.29817134819E+02  0.47787270892E+02  0.19999999307E+02 0.  0.
        -12    1    1    2    0    0 -0.14483910268E+02  0.28013891226E+02 -0.29817134819E+02  0.43400729108E+02  0.00000000000E+00 0.  1.
         11    1    3    3    0    0  0.42934967671E+01 -0.75118952542E+01  0.10611234464E+02  0.13691639125E+02  0.51100000000E-03 0. -1.
        -11    1    3    3    0    0  0.12323741868E+02 -0.18961630112E+02  0.21039743093E+02  0.30888328213E+02  0.51100000000E-03 0.  1.
        -12    1    3    3    0    0 -0.21333283664E+01 -0.15403658598E+01 -0.18338427388E+01  0.32073035546E+01  0.00000000000E+00 0.  1.
</event>
<event>
 7    1  0.2935819E-010  0.4778727E+02  0.7816164E-02  0.1312668E+00
        -11   -1    0    0    0    0  0.00000000000E+00  0.00000000000E+00  0.45593999997E+02  0.45594000000E+02  0.51100000000E-03 0.  1.
         11   -1    0    0    0    0 -0.00000000000E+00 -0.00000000000E+00 -0.45593999997E+02  0.45594000000E+02  0.51100000000E-03 0. -1.
    9900012    2    1    2    0    0 -0.40576701827E+01  0.50338950194E+01 -0.42916412945E+02  0.47787270899E+02  0.19999999339E+02 0.  0.
        -12    1    1    2    0    0  0.40576701827E+01 -0.50338950194E+01  0.42916412945E+02  0.43400729101E+02  0.00000000000E+00 0.  1.
         11    1    3    3    0    0  0.24115909376E+01  0.76887813797E+01 -0.18915592003E+02  0.20560465730E+02  0.51100000000E-03 0. -1.
        -11    1    3    3    0    0 -0.82737165066E+01 -0.11707971323E+01 -0.99968639895E+01  0.13029291640E+02  0.51100000000E-03 0.  1.
        -12    1    3    3    0    0  0.18044553863E+01 -0.14840892280E+01 -0.14003956953E+02  0.14197513529E+02  0.00000000000E+00 0.  1.
</event>
<event>
 7    1  0.2935819E-010  0.4778729E+02  0.7816164E-02  0.1312668E+00
        -11   -1    0    0    0    0  0.00000000000E+00  0.00000000000E+00  0.45593999997E+02  0.45594000000E+02  0.51100000000E-03 0.  1.
         11   -1    0    0    0    0 -0.00000000000E+00 -0.00000000000E+00 -0.45593999997E+02  0.45594000000E+02  0.51100000000E-03 0. -1.
    9900012    2    1    2    0    0  0.21891212922E+01 -0.54493734645E+01 -0.43001556031E+02  0.47787288667E+02  0.20000080346E+02 0.  0.
        -12    1    1    2    0    0 -0.21891212922E+01  0.54493734645E+01  0.43001556031E+02  0.43400711333E+02  0.00000000000E+00 0.  1.
         11    1    3    3    0    0  0.69618899707E+01 -0.51103293666E+01 -0.17941203312E+02  0.19911558321E+02  0.51100000000E-03 0. -1.
        -11    1    3    3    0    0 -0.32890150657E+01  0.23948163732E+01 -0.18699801035E+01  0.44776770108E+01  0.51100000000E-03 0.  1.
        -12    1    3    3    0    0 -0.14837536128E+01 -0.27338604711E+01 -0.23190372615E+02  0.23398053335E+02  0.00000000000E+00 0.  1.
</event>
<event>
 7    1  0.2935819E-010  0.4778727E+02  0.7816164E-02  0.1312668E+00
        -11   -1    0    0    0    0  0.00000000000E+00  0.00000000000E+00  0.45593999997E+02  0.45594000000E+02  0.51100000000E-03 0. -1.
         11   -1    0    0    0    0 -0.00000000000E+00 -0.00000000000E+00 -0.45593999997E+02  0.45594000000E+02  0.51100000000E-03 0.  1.
    9900012    2    1    2    0    0  0.10540766387E+02  0.26345499373E+02  0.32839462489E+02  0.47787269709E+02  0.19999993910E+02 0.  0.
        -12    1    1    2    0    0 -0.10540766387E+02 -0.26345499373E+02 -0.32839462489E+02  0.43400730291E+02  0.00000000000E+00 0.  1.
         11    1    3    3    0    0  0.46313559087E-01  0.56631766186E+01  0.19792098134E+02  0.20586424244E+02  0.51100000000E-03 0. -1.
        -11    1    3    3    0    0 -0.52347805106E+00  0.24062370760E+01  0.76621900537E+00  0.25789722684E+01  0.51100000000E-03 0.  1.
         12    1    3    3    0    0  0.11017930879E+02  0.18276085678E+02  0.12281145350E+02  0.24621873196E+02  0.00000000000E+00 0. -1.
</event>
<event>
 7    1  0.2935819E-010  0.4778727E+02  0.7816164E-02  0.1312668E+00
        -11   -1    0    0    0    0  0.00000000000E+00  0.00000000000E+00  0.45593999997E+02  0.45594000000E+02  0.51100000000E-03 0.  1.
         11   -1    0    0    0    0 -0.00000000000E+00 -0.00000000000E+00 -0.45593999997E+02  0.45594000000E+02  0.51100000000E-03 0. -1.
    9900012    2    1    2    0    0 -0.20350038884E+02  0.16607407645E+02 -0.34549864632E+02  0.47787271696E+02  0.20000002970E+02 0.  0.
        -12    1    1    2    0    0  0.20350038884E+02 -0.16607407645E+02  0.34549864632E+02  0.43400728304E+02  0.00000000000E+00 0.  1.
         11    1    3    3    0    0 -0.19361461021E+02  0.71792612014E+01 -0.19529754785E+02  0.28422161890E+02  0.51100000000E-03 0. -1.
        -11    1    3    3    0    0 -0.16846087632E+01  0.72269212924E+01 -0.46862710343E+01  0.87765274750E+01  0.51100000000E-03 0.  1.
         12    1    3    3    0    0  0.69603090034E+00  0.22012251515E+01 -0.10333838812E+02  0.10588582331E+02  0.00000000000E+00 0. -1.
</event>
<event>
 7    1  0.2935819E-010  0.4778727E+02  0.7816164E-02  0.1312668E+00
        -11   -1    0    0    0    0  0.00000000000E+00  0.00000000000E+00  0.45593999997E+02  0.45594000000E+02  0.51100000000E-03 0.  1.
         11   -1    0    0    0    0 -0.00000000000E+00 -0.00000000000E+00 -0.45593999997E+02  0.45594000000E+02  0.51100000000E-03 0. -1.
    9900012    2    1    2    0    0 -0.12489141624E+02  0.36399338888E+02 -0.20068214151E+02  0.47787265568E+02  0.19999975033E+02 0.  0.
        -12    1    1    2    0    0  0.12489141624E+02 -0.36399338888E+02  0.20068214151E+02  0.43400734432E+02  0.00000000000E+00 0.  1.
         11    1    3    3    0    0 -0.76435927572E+01  0.96020024370E+01 -0.61170478046E+01  0.13712812809E+02  0.51100000000E-03 0. -1.
        -11    1    3    3    0    0  0.25586775866E+01  0.19440553430E+02 -0.47856778146E+01  0.20183772221E+02  0.51100000000E-03 0.  1.
        -12    1    3    3    0    0 -0.74042264532E+01  0.73567830212E+01 -0.91654885322E+01  0.13890680539E+02  0.00000000000E+00 0.  1.
</event>
<event>
 7    1  0.2935819E-010  0.4778727E+02  0.7816164E-02  0.1312668E+00
        -11   -1    0    0    0    0  0.00000000000E+00  0.00000000000E+00  0.45593999997E+02  0.45594000000E+02  0.51100000000E-03 0.  1.
         11   -1    0    0    0    0 -0.00000000000E+00 -0.00000000000E+00 -0.45593999997E+02  0.45594000000E+02  0.51100000000E-03 0. -1.
    9900012    2    1    2    0    0 -0.36029086839E+02  0.20752250381E+02 -0.12444765639E+02  0.47787272055E+02  0.20000004607E+02 0.  0.
        -12    1    1    2    0    0  0.36029086839E+02 -0.20752250381E+02  0.12444765639E+02  0.43400727945E+02  0.00000000000E+00 0.  1.
         11    1    3    3    0    0 -0.67370279486E+01  0.20654177384E+01  0.20207594455E+01  0.73305501167E+01  0.51100000000E-03 0. -1.
        -11    1    3    3    0    0 -0.17823951605E+02  0.74440358937E+01 -0.14893730806E+02  0.24391189778E+02  0.51100000000E-03 0.  1.
        -12    1    3    3    0    0 -0.11468107286E+02  0.11242796749E+02  0.42820572144E+00  0.16065532160E+02  0.00000000000E+00 0.  1.
</event>
<event>
 7    1  0.2935819E-010  0.4778728E+02  0.7816164E-02  0.1312668E+00
        -11   -1    0    0    0    0  0.00000000000E+00  0.00000000000E+00  0.45593999997E+02  0.45594000000E+02  0.51100000000E-03 0. -1.
         11   -1    0    0    0    0 -0.00000000000E+00 -0.00000000000E+00 -0.45593999997E+02  0.45594000000E+02  0.51100000000E-03 0.  1.
    9900012    2    1    2    0    0  0.39389179530E+02  0.14584727225E+02  0.10927075809E+02  0.47787277448E+02  0.20000029198E+02 0.  0.
        -12    1    1    2    0    0 -0.39389179530E+02 -0.14584727225E+02 -0.10927075809E+02  0.43400722552E+02  0.00000000000E+00 0.  1.
         11    1    3    3    0    0  0.39548292540E+01  0.19399173196E+01  0.36024115281E+01  0.56904589195E+01  0.51100000000E-03 0. -1.
        -11    1    3    3    0    0  0.23915212715E+02 -0.38843600512E+00  0.59568558060E+01  0.24648984018E+02  0.51100000000E-03 0.  1.
        -12    1    3    3    0    0  0.11519137560E+02  0.13033245911E+02  0.13678084753E+01  0.17447834511E+02  0.00000000000E+00 0.  1.
</event>
<event>
 7    1  0.2935819E-010  0.4778727E+02  0.7816164E-02  0.1312668E+00
        -11   -1    0    0    0    0  0.00000000000E+00  0.00000000000E+00  0.45593999997E+02  0.45594000000E+02  0.51100000000E-03 0.  1.
         11   -1    0    0    0    0 -0.00000000000E+00 -0.00000000000E+00 -0.45593999997E+02  0.45594000000E+02  0.51100000000E-03 0. -1.
    9900012    2    1    2    0    0 -0.22976791522E+02 -0.36736981565E+02 -0.24667441106E+01  0.47787267407E+02  0.19999983414E+02 0.  0.
        -12    1    1    2    0    0  0.22976791522E+02  0.36736981565E+02  0.24667441106E+01  0.43400732593E+02  0.00000000000E+00 0.  1.
         11    1    3    3    0    0 -0.15805777168E+02 -0.19345573705E+02  0.21614411542E+01  0.25074800936E+02  0.51100000000E-03 0. -1.
        -11    1    3    3    0    0 -0.64070067675E+00 -0.12356791690E+02 -0.68896793241E+01  0.14162220154E+02  0.51100000000E-03 0.  1.
        -12    1    3    3    0    0 -0.65303136775E+01 -0.50346161693E+01  0.22614940593E+01  0.85502463169E+01  0.00000000000E+00 0.  1.
</event>
<event>
 7    1  0.2935819E-010  0.4778727E+02  0.7816164E-02  0.1312668E+00
        -11   -1    0    0    0    0  0.00000000000E+00  0.00000000000E+00  0.45593999997E+02  0.45594000000E+02  0.51100000000E-03 0.  1.
         11   -1    0    0    0    0 -0.00000000000E+00 -0.00000000000E+00 -0.45593999997E+02  0.45594000000E+02  0.51100000000E-03 0. -1.
    9900012    2    1    2    0    0  0.37761124126E+02  0.19494086808E+02 -0.88148468760E+01  0.47787269117E+02  0.19999991213E+02 0.  0.
        -12    1    1    2    0    0 -0.37761124126E+02 -0.19494086808E+02  0.88148468760E+01  0.43400730883E+02  0.00000000000E+00 0.  1.
         11    1    3    3    0    0  0.15970694791E+02  0.43519807962E+01  0.48149323332E+01  0.17239095179E+02  0.51100000000E-03 0.  1.
        -11    1    3    3    0    0  0.95932778171E+01  0.10531528537E+02 -0.61593959609E+01  0.15520381164E+02  0.51100000000E-03 0. -1.
        -12    1    3    3    0    0  0.12197151517E+02  0.46105774741E+01 -0.74703832483E+01  0.15027792774E+02  0.00000000000E+00 0.  1.
</event>
<event>
 7    1  0.2935819E-010  0.4778727E+02  0.7816164E-02  0.1312668E+00
        -11   -1    0    0    0    0  0.00000000000E+00  0.00000000000E+00  0.45593999997E+02  0.45594000000E+02  0.51100000000E-03 0. -1.
         11   -1    0    0    0    0 -0.00000000000E+00 -0.00000000000E+00 -0.45593999997E+02  0.45594000000E+02  0.51100000000E-03 0.  1.
    9900012    2    1    2    0    0 -0.30623067164E+02  0.28749459026E+02  0.10923347619E+02  0.47787272356E+02  0.20000005981E+02 0.  0.
        -12    1    1    2    0    0  0.30623067164E+02 -0.28749459026E+02 -0.10923347619E+02  0.43400727644E+02  0.00000000000E+00 0.  1.
         11    1    3    3    0    0 -0.28920639959E+01  0.33219547230E+01  0.59252005001E+00  0.44441531937E+01  0.51100000000E-03 0. -1.
        -11    1    3    3    0    0 -0.77050171315E+01  0.13558726900E+02 -0.38785690640E+01  0.16070148176E+02  0.51100000000E-03 0.  1.
        -12    1    3    3    0    0 -0.20025986037E+02  0.11868777403E+02  0.14209396633E+02  0.27272970987E+02  0.00000000000E+00 0.  1.
</event>
<event>
 7    1  0.2935819E-010  0.4778727E+02  0.7816164E-02  0.1312668E+00
        -11   -1    0    0    0    0  0.00000000000E+00  0.00000000000E+00  0.45593999997E+02  0.45594000000E+02  0.51100000000E-03 0.  1.
         11   -1    0    0    0    0 -0.00000000000E+00 -0.00000000000E+00 -0.45593999997E+02  0.45594000000E+02  0.51100000000E-03 0. -1.
    9900012    2    1    2    0    0  0.11096457350E+02 -0.33467504455E+02 -0.25306477084E+02  0.47787274170E+02  0.20000014250E+02 0.  0.
        -12    1    1    2    0    0 -0.11096457350E+02  0.33467504455E+02  0.25306477084E+02  0.43400725830E+02  0.00000000000E+00 0.  1.
         11    1    3    3    0    0  0.22282601265E+01 -0.25822954500E+02 -0.24071537915E+02  0.35372716325E+02  0.51100000000E-03 0. -1.
        -11    1    3    3    0    0  0.48182423271E+01 -0.51325334279E+01  0.10701047627E+01  0.71206378208E+01  0.51100000000E-03 0.  1.
         12    1    3    3    0    0  0.40499548969E+01 -0.25120165269E+01 -0.23050439316E+01  0.52939200244E+01  0.00000000000E+00 0. -1.
</event>
<event>
 7    1  0.2935819E-010  0.4778726E+02  0.7816164E-02  0.1312668E+00
        -11   -1    0    0    0    0  0.00000000000E+00  0.00000000000E+00  0.45593999997E+02  0.45594000000E+02  0.51100000000E-03 0. -1.
         11   -1    0    0    0    0 -0.00000000000E+00 -0.00000000000E+00 -0.45593999997E+02  0.45594000000E+02  0.51100000000E-03 0.  1.
    9900012    2    1    2    0    0  0.28942987995E+01 -0.42446786705E+02 -0.85742255933E+01  0.47787262545E+02  0.19999961246E+02 0.  0.
        -12    1    1    2    0    0 -0.28942987995E+01  0.42446786705E+02  0.85742255933E+01  0.43400737455E+02  0.00000000000E+00 0.  1.
         11    1    3    3    0    0 -0.77710808757E+01 -0.16980130407E+02 -0.25608042790E+01  0.18848666941E+02  0.51100000000E-03 0. -1.
        -11    1    3    3    0    0  0.68388442582E+01 -0.14707038742E+02 -0.65835696255E+01  0.17504575648E+02  0.51100000000E-03 0.  1.
         12    1    3    3    0    0  0.38265354170E+01 -0.10759617556E+02  0.57014831117E+00  0.11434019956E+02  0.00000000000E+00 0. -1.
</event>
<event>
 7    1  0.2935819E-010  0.4778728E+02  0.7816164E-02  0.1312668E+00
        -11   -1    0    0    0    0  0.00000000000E+00  0.00000000000E+00  0.45593999997E+02  0.45594000000E+02  0.51100000000E-03 0. -1.
         11   -1    0    0    0    0 -0.00000000000E+00 -0.00000000000E+00 -0.45593999997E+02  0.45594000000E+02  0.51100000000E-03 0.  1.
    9900012    2    1    2    0    0  0.36702846595E+02  0.18768096402E+02  0.13575057653E+02  0.47787279027E+02  0.20000036395E+02 0.  0.
        -12    1    1    2    0    0 -0.36702846595E+02 -0.18768096402E+02 -0.13575057653E+02  0.43400720973E+02  0.00000000000E+00 0.  1.
         11    1    3    3    0    0  0.22503134341E+02  0.37193738344E+01  0.12323530449E+02  0.25924779650E+02  0.51100000000E-03 0. -1.
        -11    1    3    3    0    0  0.14219694928E+02  0.15351765643E+02  0.20330633863E+01  0.21024028615E+02  0.51100000000E-03 0.  1.
        -12    1    3    3    0    0 -0.19982674156E-01 -0.30304307586E+00 -0.78153618318E+00  0.83847076199E+00  0.00000000000E+00 0.  1.
</event>
<event>
 7    1  0.2935819E-010  0.4778727E+02  0.7816164E-02  0.1312668E+00
        -11   -1    0    0    0    0  0.00000000000E+00  0.00000000000E+00  0.45593999997E+02  0.45594000000E+02  0.51100000000E-03 0.  1.
         11   -1    0    0    0    0 -0.00000000000E+00 -0.00000000000E+00 -0.45593999997E+02  0.45594000000E+02  0.51100000000E-03 0. -1.
    9900012    2    1    2    0    0  0.32185746878E+02  0.23656054784E+02 -0.16973276427E+02  0.47787270251E+02  0.19999996384E+02 0.  0.
        -12    1    1    2    0    0 -0.32185746878E+02 -0.23656054784E+02  0.16973276427E+02  0.43400729749E+02  0.00000000000E+00 0.  1.
         11    1    3    3    0    0  0.81254141261E+00 -0.11447846745E+01 -0.12006765885E+01  0.18472628480E+01  0.51100000000E-03 0. -1.
        -11    1    3    3    0    0  0.15334053578E+02  0.22862545710E+01 -0.55596111820E+01  0.16470259132E+02  0.51100000000E-03 0.  1.
        -12    1    3    3    0    0  0.16039151887E+02  0.22514584887E+02 -0.10212988657E+02  0.29469748272E+02  0.00000000000E+00 0.  1.
</event>
<event>
 7    1  0.2935819E-010  0.4778727E+02  0.7816164E-02  0.1312668E+00
        -11   -1    0    0    0    0  0.00000000000E+00  0.00000000000E+00  0.45593999997E+02  0.45594000000E+02  0.51100000000E-03 0.  1.
         11   -1    0    0    0    0 -0.00000000000E+00 -0.00000000000E+00 -0.45593999997E+02  0.45594000000E+02  0.51100000000E-03 0. -1.
    9900012    2    1    2    0    0  0.23175265764E+02  0.27263813278E+02 -0.24560436748E+02  0.47787268313E+02  0.19999987546E+02 0.  0.
        -12    1    1    2    0    0 -0.23175265764E+02 -0.27263813278E+02  0.24560436748E+02  0.43400731687E+02  0.00000000000E+00 0.  1.
         11    1    3    3    0    0  0.18778522598E+02  0.15245840239E+02 -0.64625708572E+01  0.25036640707E+02  0.51100000000E-03 0. -1.
        -11    1    3    3    0    0  0.24592899426E+01  0.11122709515E+02 -0.13379245314E+02  0.17571766542E+02  0.51100000000E-03 0.  1.
         12    1    3    3    0    0  0.19374532240E+01  0.89526352458E+00 -0.47186205768E+01  0.51788610642E+01  0.00000000000E+00 0. -1.
</event>
<event>
 7    1  0.2935819E-010  0.4778727E+02  0.7816164E-02  0.1312668E+00
        -11   -1    0    0    0    0  0.00000000000E+00  0.00000000000E+00  0.45593999997E+02  0.45594000000E+02  0.51100000000E-03 0.  1.
         11   -1    0    0    0    0 -0.00000000000E+00 -0.00000000000E+00 -0.45593999997E+02  0.45594000000E+02  0.51100000000E-03 0. -1.
    9900012    2    1    2    0    0 -0.42513577484E+02 -0.16714453951E+01 -0.85688379279E+01  0.47787274388E+02  0.20000015245E+02 0.  0.
        -12    1    1    2    0    0  0.42513577484E+02  0.16714453951E+01  0.85688379279E+01  0.43400725612E+02  0.00000000000E+00 0.  1.
         11    1    3    3    0    0  0.19629627121E+01 -0.57041375094E-01  0.42162786179E-01  0.19642439485E+01  0.51100000000E-03 0. -1.
        -11    1    3    3    0    0 -0.20799948459E+02 -0.26947565274E+00 -0.66452155282E+00  0.20812305547E+02  0.51100000000E-03 0.  1.
         12    1    3    3    0    0 -0.23676591737E+02 -0.13449283673E+01 -0.79464791613E+01  0.25010724893E+02  0.00000000000E+00 0. -1.
</event>
<event>
 7    1  0.2935819E-010  0.4778731E+02  0.7816164E-02  0.1312668E+00
        -11   -1    0    0    0    0  0.00000000000E+00  0.00000000000E+00  0.45593999997E+02  0.45594000000E+02  0.51100000000E-03 0.  1.
         11   -1    0    0    0    0 -0.00000000000E+00 -0.00000000000E+00 -0.45593999997E+02  0.45594000000E+02  0.51100000000E-03 0. -1.
    9900012    2    1    2    0    0  0.36725680772E+02 -0.16436169066E+02  0.16269509532E+02  0.47787306202E+02  0.20000160297E+02 0.  0.
        -12    1    1    2    0    0 -0.36725680772E+02  0.16436169066E+02 -0.16269509532E+02  0.43400693798E+02  0.00000000000E+00 0.  1.
         11    1    3    3    0    0  0.32329514128E+02 -0.93388826371E+01  0.17520164841E+02  0.37939008803E+02  0.51100000000E-03 0. -1.
        -11    1    3    3    0    0  0.29468359797E+01 -0.76640084211E+01 -0.99134579777E+00  0.82706489541E+01  0.51100000000E-03 0.  1.
         12    1    3    3    0    0  0.14493306649E+01  0.56672199222E+00 -0.25930951191E+00  0.15776484449E+01  0.00000000000E+00 0. -1.
</event>
<event>
 7    1  0.2935819E-010  0.4778727E+02  0.7816164E-02  0.1312668E+00
        -11   -1    0    0    0    0  0.00000000000E+00  0.00000000000E+00  0.45593999997E+02  0.45594000000E+02  0.51100000000E-03 0. -1.
         11   -1    0    0    0    0 -0.00000000000E+00 -0.00000000000E+00 -0.45593999997E+02  0.45594000000E+02  0.51100000000E-03 0.  1.
    9900012    2    1    2    0    0 -0.25551131414E+02  0.40344964707E+00  0.35079910671E+02  0.47787271656E+02  0.20000002786E+02 0.  0.
        -12    1    1    2    0    0  0.25551131414E+02 -0.40344964707E+00 -0.35079910671E+02  0.43400728344E+02  0.00000000000E+00 0.  1.
         11    1    3    3    0    0 -0.49588732081E+01 -0.71366287478E+00  0.59043886470E+01  0.77434839542E+01  0.51100000000E-03 0. -1.
        -11    1    3    3    0    0 -0.28157276717E+01  0.63219533336E+01  0.20881156195E+01  0.72288064972E+01  0.51100000000E-03 0.  1.
        -12    1    3    3    0    0 -0.17776530534E+02 -0.52048408117E+01  0.27087406405E+02  0.32814981204E+02  0.00000000000E+00 0.  1.
</event>
<event>
 7    1  0.2935819E-010  0.4778727E+02  0.7816164E-02  0.1312668E+00
        -11   -1    0    0    0    0  0.00000000000E+00  0.00000000000E+00  0.45593999997E+02  0.45594000000E+02  0.51100000000E-03 0. -1.
         11   -1    0    0    0    0 -0.00000000000E+00 -0.00000000000E+00 -0.45593999997E+02  0.45594000000E+02  0.51100000000E-03 0.  1.
    9900012    2    1    2    0    0  0.13646492008E+02  0.14489587700E+02  0.38567448581E+02  0.47787274362E+02  0.20000015125E+02 0.  0.
        -12    1    1    2    0    0 -0.13646492008E+02 -0.14489587700E+02 -0.38567448581E+02  0.43400725638E+02  0.00000000000E+00 0.  1.
         11    1    3    3    0    0  0.62938529789E+00 -0.81756774921E+00 -0.18329970046E+01  0.21034308065E+01  0.51100000000E-03 0. -1.
        -11    1    3    3    0    0  0.23740542473E+01  0.81794228748E+01  0.16211400645E+02  0.18312525857E+02  0.51100000000E-03 0.  1.
         12    1    3    3    0    0  0.10643052463E+02  0.71277325748E+01  0.24189044941E+02  0.27371317698E+02  0.00000000000E+00 0. -1.
</event>
<event>
 7    1  0.2935819E-010  0.4778727E+02  0.7816164E-02  0.1312668E+00
        -11   -1    0    0    0    0  0.00000000000E+00  0.00000000000E+00  0.45593999997E+02  0.45594000000E+02  0.51100000000E-03 0.  1.
         11   -1    0    0    0    0 -0.00000000000E+00 -0.00000000000E+00 -0.45593999997E+02  0.45594000000E+02  0.51100000000E-03 0. -1.
    9900012    2    1    2    0    0  0.10695050837E+02  0.37283088250E+02 -0.19473330760E+02  0.47787269675E+02  0.19999993755E+02 0.  0.
        -12    1    1    2    0    0 -0.10695050837E+02 -0.37283088250E+02  0.19473330760E+02  0.43400730325E+02  0.00000000000E+00 0.  1.
         11    1    3    3    0    0  0.11769103138E+02  0.10346075378E+02 -0.51306539309E+01  0.16488683222E+02  0.51100000000E-03 0. -1.
        -11    1    3    3    0    0 -0.33314889344E+01  0.17846286058E+02 -0.11578016970E+02  0.21532283246E+02  0.51100000000E-03 0.  1.
         12    1    3    3    0    0  0.22574366334E+01  0.90907268153E+01 -0.27646598585E+01  0.97663032063E+01  0.00000000000E+00 0. -1.
</event>
<event>
 7    1  0.2935819E-010  0.4778727E+02  0.7816164E-02  0.1312668E+00
        -11   -1    0    0    0    0  0.00000000000E+00  0.00000000000E+00  0.45593999997E+02  0.45594000000E+02  0.51100000000E-03 0.  1.
         11   -1    0    0    0    0 -0.00000000000E+00 -0.00000000000E+00 -0.45593999997E+02  0.45594000000E+02  0.51100000000E-03 0. -1.
    9900012    2    1    2    0    0  0.13777779656E+01 -0.42990500214E+02 -0.57915278159E+01  0.47787272181E+02  0.20000005183E+02 0.  0.
        -12    1    1    2    0    0 -0.13777779656E+01  0.42990500214E+02  0.57915278159E+01  0.43400727819E+02  0.00000000000E+00 0.  1.
         11    1    3    3    0    0 -0.15229675409E+01 -0.20708296320E+02 -0.88654229419E+00  0.20783140381E+02  0.51100000000E-03 0. -1.
        -11    1    3    3    0    0  0.73910021336E+01 -0.17110234134E+02 -0.68932194968E+01  0.19872179044E+02  0.51100000000E-03 0.  1.
        -12    1    3    3    0    0 -0.44902566271E+01 -0.51719697597E+01  0.19882339752E+01  0.71319527559E+01  0.00000000000E+00 0.  1.
</event>
<event>
 7    1  0.2935819E-010  0.4778727E+02  0.7816164E-02  0.1312668E+00
        -11   -1    0    0    0    0  0.00000000000E+00  0.00000000000E+00  0.45593999997E+02  0.45594000000E+02  0.51100000000E-03 0.  1.
         11   -1    0    0    0    0 -0.00000000000E+00 -0.00000000000E+00 -0.45593999997E+02  0.45594000000E+02  0.51100000000E-03 0. -1.
    9900012    2    1    2    0    0  0.45143361337E+01 -0.29949024622E+02 -0.31085362018E+02  0.47787273758E+02  0.20000012372E+02 0.  0.
        -12    1    1    2    0    0 -0.45143361337E+01  0.29949024622E+02  0.31085362018E+02  0.43400726242E+02  0.00000000000E+00 0.  1.
         11    1    3    3    0    0  0.24811268432E+01 -0.20492928118E+02 -0.29461082835E+02  0.35973205241E+02  0.51100000000E-03 0. -1.
        -11    1    3    3    0    0  0.19978982796E+01 -0.25210703571E+01  0.21974329946E+01  0.38956521030E+01  0.51100000000E-03 0.  1.
        -12    1    3    3    0    0  0.35311010878E-01 -0.69350261476E+01 -0.38217121769E+01  0.79184164136E+01  0.00000000000E+00 0.  1.
</event>
<event>
 7    1  0.2935819E-010  0.4778727E+02  0.7816164E-02  0.1312668E+00
        -11   -1    0    0    0    0  0.00000000000E+00  0.00000000000E+00  0.45593999997E+02  0.45594000000E+02  0.51100000000E-03 0. -1.
         11   -1    0    0    0    0 -0.00000000000E+00 -0.00000000000E+00 -0.45593999997E+02  0.45594000000E+02  0.51100000000E-03 0.  1.
    9900012    2    1    2    0    0  0.42984431770E+02 -0.28953825837E+00 -0.59898684569E+01  0.47787265777E+02  0.19999975982E+02 0.  0.
        -12    1    1    2    0    0 -0.42984431770E+02  0.28953825837E+00  0.59898684569E+01  0.43400734223E+02  0.00000000000E+00 0.  1.
         11    1    3    3    0    0  0.21965600501E+02 -0.65186345644E+01 -0.55108380972E+01  0.23565855357E+02  0.51100000000E-03 0. -1.
        -11    1    3    3    0    0  0.61587932218E+01  0.42970293148E+01  0.40951923941E+01  0.85537007130E+01  0.51100000000E-03 0.  1.
        -12    1    3    3    0    0  0.14860038048E+02  0.19320669913E+01 -0.45742227538E+01  0.15667709706E+02  0.00000000000E+00 0.  1.
</event>
<event>
 7    1  0.2935819E-010  0.4778726E+02  0.7816164E-02  0.1312668E+00
        -11   -1    0    0    0    0  0.00000000000E+00  0.00000000000E+00  0.45593999997E+02  0.45594000000E+02  0.51100000000E-03 0.  1.
         11   -1    0    0    0    0 -0.00000000000E+00 -0.00000000000E+00 -0.45593999997E+02  0.45594000000E+02  0.51100000000E-03 0. -1.
    9900012    2    1    2    0    0  0.36221299204E+02 -0.18176500708E+02  0.15532429654E+02  0.47787261930E+02  0.19999958445E+02 0.  0.
        -12    1    1    2    0    0 -0.36221299204E+02  0.18176500708E+02 -0.15532429654E+02  0.43400738070E+02  0.00000000000E+00 0.  1.
         11    1    3    3    0    0  0.10125522398E+02 -0.11672904721E+01  0.82117953461E+01  0.13089016538E+02  0.51100000000E-03 0. -1.
        -11    1    3    3    0    0  0.21774874082E+02 -0.13835586607E+02  0.21817750744E+00  0.25799538751E+02  0.51100000000E-03 0.  1.
        -12    1    3    3    0    0  0.43209027242E+01 -0.31736236288E+01  0.71024568003E+01  0.88987066414E+01  0.00000000000E+00 0.  1.
</event>
<event>
 7    1  0.2935819E-010  0.4778727E+02  0.7816164E-02  0.1312668E+00
        -11   -1    0    0    0    0  0.00000000000E+00  0.00000000000E+00  0.45593999997E+02  0.45594000000E+02  0.51100000000E-03 0.  1.
         11   -1    0    0    0    0 -0.00000000000E+00 -0.00000000000E+00 -0.45593999997E+02  0.45594000000E+02  0.51100000000E-03 0. -1.
    9900012    2    1    2    0    0 -0.35486134256E+02  0.24943872311E+02  0.14698956527E+01  0.47787273237E+02  0.20000009998E+02 0.  0.
        -12    1    1    2    0    0  0.35486134256E+02 -0.24943872311E+02 -0.14698956527E+01  0.43400726763E+02  0.00000000000E+00 0.  1.
         11    1    3    3    0    0 -0.11396798019E+02  0.15203896548E+02  0.16717324216E+01  0.19074594750E+02  0.51100000000E-03 0. -1.
        -11    1    3    3    0    0 -0.14870491832E+02  0.22284930118E+01  0.48401707936E+01  0.15796359137E+02  0.51100000000E-03 0.  1.
        -12    1    3    3    0    0 -0.92188444049E+01  0.75114827511E+01 -0.50420075624E+01  0.12916319350E+02  0.00000000000E+00 0.  1.
</event>
<event>
 7    1  0.2935819E-010  0.4778727E+02  0.7816164E-02  0.1312668E+00
        -11   -1    0    0    0    0  0.00000000000E+00  0.00000000000E+00  0.45593999997E+02  0.45594000000E+02  0.51100000000E-03 0.  1.
         11   -1    0    0    0    0 -0.00000000000E+00 -0.00000000000E+00 -0.45593999997E+02  0.45594000000E+02  0.51100000000E-03 0. -1.
    9900012    2    1    2    0    0  0.29147966463E+02  0.35891079555E+01 -0.31955242011E+02  0.47787272623E+02  0.20000007198E+02 0.  0.
        -12    1    1    2    0    0 -0.29147966463E+02 -0.35891079555E+01  0.31955242011E+02  0.43400727377E+02  0.00000000000E+00 0.  1.
         11    1    3    3    0    0  0.19915248220E+02  0.90862322181E+01 -0.18514988021E+02  0.28670219902E+02  0.51100000000E-03 0. -1.
        -11    1    3    3    0    0  0.67690448546E+01 -0.48987786320E+01 -0.14195113032E+02  0.16471770840E+02  0.51100000000E-03 0.  1.
         12    1    3    3    0    0  0.24636733887E+01 -0.59834563063E+00  0.75485904181E+00  0.26452818816E+01  0.00000000000E+00 0. -1.
</event>
<event>
 7    1  0.2935819E-010  0.4778727E+02  0.7816164E-02  0.1312668E+00
        -11   -1    0    0    0    0  0.00000000000E+00  0.00000000000E+00  0.45593999997E+02  0.45594000000E+02  0.51100000000E-03 0.  1.
         11   -1    0    0    0    0 -0.00000000000E+00 -0.00000000000E+00 -0.45593999997E+02  0.45594000000E+02  0.51100000000E-03 0. -1.
    9900012    2    1    2    0    0 -0.59489263236E+01 -0.41345915277E+02 -0.11779159111E+02  0.47787273925E+02  0.20000013132E+02 0.  0.
        -12    1    1    2    0    0  0.59489263236E+01  0.41345915277E+02  0.11779159111E+02  0.43400726075E+02  0.00000000000E+00 0.  1.
         11    1    3    3    0    0 -0.74014101634E+01 -0.10671190423E+02 -0.91902998930E+01  0.15909644554E+02  0.51100000000E-03 0. -1.
        -11    1    3    3    0    0 -0.14422745027E+01 -0.26709394560E+02 -0.31628844221E+01  0.26934657072E+02  0.51100000000E-03 0.  1.
        -12    1    3    3    0    0  0.28947583425E+01 -0.39653302948E+01  0.57402520381E+00  0.49429722984E+01  0.00000000000E+00 0.  1.
</event>
<event>
 7    1  0.2935819E-010  0.4778727E+02  0.7816164E-02  0.1312668E+00
        -11   -1    0    0    0    0  0.00000000000E+00  0.00000000000E+00  0.45593999997E+02  0.45594000000E+02  0.51100000000E-03 0.  1.
         11   -1    0    0    0    0 -0.00000000000E+00 -0.00000000000E+00 -0.45593999997E+02  0.45594000000E+02  0.51100000000E-03 0. -1.
    9900012    2    1    2    0    0  0.35381807736E+02 -0.24982914440E+02  0.27576973137E+01  0.47787271584E+02  0.20000002459E+02 0.  0.
        -12    1    1    2    0    0 -0.35381807736E+02  0.24982914440E+02 -0.27576973137E+01  0.43400728416E+02  0.00000000000E+00 0.  1.
         11    1    3    3    0    0  0.36835618736E+02 -0.22096898693E+02  0.68195531155E+00  0.42960456269E+02  0.51100000000E-03 0. -1.
        -11    1    3    3    0    0 -0.51026180478E+00 -0.27683607908E+01  0.25191946969E+01  0.37776356043E+01  0.51100000000E-03 0.  1.
         12    1    3    3    0    0 -0.94354919545E+00 -0.11765495700E+00 -0.44345269477E+00  0.10491797108E+01  0.00000000000E+00 0. -1.
</event>
<event>
 7    1  0.2935819E-010  0.4778728E+02  0.7816164E-02  0.1312668E+00
        -11   -1    0    0    0    0  0.00000000000E+00  0.00000000000E+00  0.45593999997E+02  0.45594000000E+02  0.51100000000E-03 0. -1.
         11   -1    0    0    0    0 -0.00000000000E+00 -0.00000000000E+00 -0.45593999997E+02  0.45594000000E+02  0.51100000000E-03 0.  1.
    9900012    2    1    2    0    0  0.12963197781E+02  0.79161788090E+01  0.40656026216E+02  0.47787275913E+02  0.20000022197E+02 0.  0.
        -12    1    1    2    0    0 -0.12963197781E+02 -0.79161788090E+01 -0.40656026216E+02  0.43400724087E+02  0.00000000000E+00 0.  1.
         11    1    3    3    0    0  0.11219263881E+02  0.68245684804E+00  0.84494574290E+01  0.14061684127E+02  0.51100000000E-03 0. -1.
        -11    1    3    3    0    0  0.19196280784E+01  0.81594870464E+00  0.21675894366E+01  0.30081869082E+01  0.51100000000E-03 0.  1.
         12    1    3    3    0    0 -0.17569417854E+00  0.64177732563E+01  0.30038979350E+02  0.30717404877E+02  0.00000000000E+00 0. -1.
</event>
<event>
 7    1  0.2935819E-010  0.4778727E+02  0.7816164E-02  0.1312668E+00
        -11   -1    0    0    0    0  0.00000000000E+00  0.00000000000E+00  0.45593999997E+02  0.45594000000E+02  0.51100000000E-03 0.  1.
         11   -1    0    0    0    0 -0.00000000000E+00 -0.00000000000E+00 -0.45593999997E+02  0.45594000000E+02  0.51100000000E-03 0. -1.
    9900012    2    1    2    0    0 -0.28424746975E+02  0.22010839922E+02 -0.24314191009E+02  0.47787271906E+02  0.20000003927E+02 0.  0.
        -12    1    1    2    0    0  0.28424746975E+02 -0.22010839922E+02  0.24314191009E+02  0.43400728094E+02  0.00000000000E+00 0.  1.
         11    1    3    3    0    0  0.20795776268E+01  0.13819093438E+01  0.51939405277E+00  0.25503111543E+01  0.51100000000E-03 0. -1.
        -11    1    3    3    0    0  0.13367852580E+00  0.13932833598E+01 -0.20569915011E+01  0.24880359253E+01  0.51100000000E-03 0.  1.
         12    1    3    3    0    0 -0.30638003127E+02  0.19235647219E+02 -0.22776593561E+02  0.42748924826E+02  0.00000000000E+00 0. -1.
</event>
<event>
 7    1  0.2935819E-010  0.4778728E+02  0.7816164E-02  0.1312668E+00
        -11   -1    0    0    0    0  0.00000000000E+00  0.00000000000E+00  0.45593999997E+02  0.45594000000E+02  0.51100000000E-03 0.  1.
         11   -1    0    0    0    0 -0.00000000000E+00 -0.00000000000E+00 -0.45593999997E+02  0.45594000000E+02  0.51100000000E-03 0. -1.
    9900012    2    1    2    0    0 -0.21643809246E+02  0.12558027606E+02 -0.35460735504E+02  0.47787282281E+02  0.20000051232E+02 0.  0.
        -12    1    1    2    0    0  0.21643809246E+02 -0.12558027606E+02  0.35460735504E+02  0.43400717719E+02  0.00000000000E+00 0.  1.
         11    1    3    3    0    0 -0.48350494375E+01 -0.12943383135E+01 -0.43534878292E+00  0.50241958119E+01  0.51100000000E-03 0. -1.
        -11    1    3    3    0    0 -0.71086080741E+01  0.89728452405E+01 -0.26795489638E+02  0.29138334298E+02  0.51100000000E-03 0.  1.
         12    1    3    3    0    0 -0.97001517345E+01  0.48795206792E+01 -0.82298970835E+01  0.13624752172E+02  0.00000000000E+00 0. -1.
</event>
<event>
 7    1  0.2935819E-010  0.4778727E+02  0.7816164E-02  0.1312668E+00
        -11   -1    0    0    0    0  0.00000000000E+00  0.00000000000E+00  0.45593999997E+02  0.45594000000E+02  0.51100000000E-03 0. -1.
         11   -1    0    0    0    0 -0.00000000000E+00 -0.00000000000E+00 -0.45593999997E+02  0.45594000000E+02  0.51100000000E-03 0.  1.
    9900012    2    1    2    0    0  0.41068150628E+02 -0.27116849401E+01  0.13772338120E+02  0.47787268111E+02  0.19999986626E+02 0.  0.
        -12    1    1    2    0    0 -0.41068150628E+02  0.27116849401E+01 -0.13772338120E+02  0.43400731889E+02  0.00000000000E+00 0.  1.
         11    1    3    3    0    0  0.34923439240E+02  0.54628623106E+00  0.14208466185E+02  0.37707102097E+02  0.51100000000E-03 0. -1.
        -11    1    3    3    0    0  0.68079628933E+00 -0.23568875470E+01 -0.30850038864E+01  0.39415291115E+01  0.51100000000E-03 0.  1.
        -12    1    3    3    0    0  0.54639150986E+01 -0.90108362416E+00  0.26488758220E+01  0.61386369027E+01  0.00000000000E+00 0.  1.
</event>
<event>
 7    1  0.2935819E-010  0.4778727E+02  0.7816164E-02  0.1312668E+00
        -11   -1    0    0    0    0  0.00000000000E+00  0.00000000000E+00  0.45593999997E+02  0.45594000000E+02  0.51100000000E-03 0.  1.
         11   -1    0    0    0    0 -0.00000000000E+00 -0.00000000000E+00 -0.45593999997E+02  0.45594000000E+02  0.51100000000E-03 0. -1.
    9900012    2    1    2    0    0 -0.28711164069E+02  0.18844756891E+02 -0.26536157470E+02  0.47787268927E+02  0.19999990344E+02 0.  0.
        -12    1    1    2    0    0  0.28711164069E+02 -0.18844756891E+02  0.26536157470E+02  0.43400731073E+02  0.00000000000E+00 0.  1.
         11    1    3    3    0    0 -0.25832407753E+01  0.18492725359E+01 -0.21995715681E+01  0.38640726131E+01  0.51100000000E-03 0. -1.
        -11    1    3    3    0    0 -0.26408516616E+02  0.15501488370E+02 -0.14342904158E+02  0.33814564783E+02  0.51100000000E-03 0.  1.
        -12    1    3    3    0    0  0.28059332253E+00  0.14939959845E+01 -0.99936817438E+01  0.10108631530E+02  0.00000000000E+00 0.  1.
</event>
<event>
 7    1  0.2935819E-010  0.4778729E+02  0.7816164E-02  0.1312668E+00
        -11   -1    0    0    0    0  0.00000000000E+00  0.00000000000E+00  0.45593999997E+02  0.45594000000E+02  0.51100000000E-03 0. -1.
         11   -1    0    0    0    0 -0.00000000000E+00 -0.00000000000E+00 -0.45593999997E+02  0.45594000000E+02  0.51100000000E-03 0.  1.
    9900012    2    1    2    0    0 -0.15091961427E+02 -0.36160661113E+02  0.18661742272E+02  0.47787293364E+02  0.20000101764E+02 0.  0.
        -12    1    1    2    0    0  0.15091961427E+02  0.36160661113E+02 -0.18661742272E+02  0.43400706636E+02  0.00000000000E+00 0.  1.
         11    1    3    3    0    0 -0.72753845117E+01 -0.15468019716E+02  0.90642632607E+01  0.19348171036E+02  0.51100000000E-03 0. -1.
        -11    1    3    3    0    0 -0.43361091811E+01 -0.64248899085E+00  0.65217864472E+01  0.78580107952E+01  0.51100000000E-03 0.  1.
        -12    1    3    3    0    0 -0.34804677343E+01 -0.20050152406E+02  0.30756925644E+01  0.20581111532E+02  0.00000000000E+00 0.  1.
</event>
<event>
 7    1  0.2935819E-010  0.4778727E+02  0.7816164E-02  0.1312668E+00
        -11   -1    0    0    0    0  0.00000000000E+00  0.00000000000E+00  0.45593999997E+02  0.45594000000E+02  0.51100000000E-03 0. -1.
         11   -1    0    0    0    0 -0.00000000000E+00 -0.00000000000E+00 -0.45593999997E+02  0.45594000000E+02  0.51100000000E-03 0.  1.
    9900012    2    1    2    0    0  0.12867044247E+02 -0.16810979927E+02  0.37887379197E+02  0.47787269867E+02  0.19999994629E+02 0.  0.
        -12    1    1    2    0    0 -0.12867044247E+02  0.16810979927E+02 -0.37887379197E+02  0.43400730133E+02  0.00000000000E+00 0.  1.
         11    1    3    3    0    0  0.77766361621E+01 -0.10300888064E+02  0.92140211776E+01  0.15858201393E+02  0.51100000000E-03 0.  1.
        -11    1    3    3    0    0  0.93057043518E+00 -0.53724195354E+01  0.37076038775E+01  0.65935710941E+01  0.51100000000E-03 0. -1.
         12    1    3    3    0    0  0.41598376492E+01 -0.11376723269E+01  0.24965754141E+02  0.25335497379E+02  0.00000000000E+00 0. -1.
</event>
<event>
 7    1  0.2935819E-010  0.4778727E+02  0.7816164E-02  0.1312668E+00
        -11   -1    0    0    0    0  0.00000000000E+00  0.00000000000E+00  0.45593999997E+02  0.45594000000E+02  0.51100000000E-03 0. -1.
         11   -1    0    0    0    0 -0.00000000000E+00 -0.00000000000E+00 -0.45593999997E+02  0.45594000000E+02  0.51100000000E-03 0.  1.
    9900012    2    1    2    0    0  0.15003724620E+02 -0.40627734766E+02 -0.28104393840E+01  0.47787272423E+02  0.20000006287E+02 0.  0.
        -12    1    1    2    0    0 -0.15003724620E+02  0.40627734766E+02  0.28104393840E+01  0.43400727577E+02  0.00000000000E+00 0.  1.
         11    1    3    3    0    0 -0.29635747464E+01 -0.10519399508E+02 -0.43237107747E+01  0.11753085399E+02  0.51100000000E-03 0.  1.
        -11    1    3    3    0    0  0.90695262084E+01 -0.11995839482E+02 -0.30499826856E+01  0.15344668949E+02  0.51100000000E-03 0. -1.
         12    1    3    3    0    0  0.88977731576E+01 -0.18112495776E+02  0.45632540762E+01  0.20689518075E+02  0.00000000000E+00 0. -1.
</event>
<event>
 7    1  0.2935819E-010  0.4778727E+02  0.7816164E-02  0.1312668E+00
        -11   -1    0    0    0    0  0.00000000000E+00  0.00000000000E+00  0.45593999997E+02  0.45594000000E+02  0.51100000000E-03 0. -1.
         11   -1    0    0    0    0 -0.00000000000E+00 -0.00000000000E+00 -0.45593999997E+02  0.45594000000E+02  0.51100000000E-03 0.  1.
    9900012    2    1    2    0    0  0.34345503758E+02  0.16834391112E+02  0.20508851336E+02  0.47787270334E+02  0.19999996759E+02 0.  0.
        -12    1    1    2    0    0 -0.34345503758E+02 -0.16834391112E+02 -0.20508851336E+02  0.43400729666E+02  0.00000000000E+00 0.  1.
         11    1    3    3    0    0 -0.17981766647E+01  0.21178631578E+01 -0.19076103313E-02  0.27782706083E+01  0.51100000000E-03 0. -1.
        -11    1    3    3    0    0  0.48940801837E+01 -0.95277861358E+00  0.37608579162E+01  0.62453070748E+01  0.51100000000E-03 0.  1.
         12    1    3    3    0    0  0.31249600239E+02  0.15669306567E+02  0.16749901030E+02  0.38763692650E+02  0.00000000000E+00 0. -1.
</event>
<event>
 7    1  0.2935819E-010  0.4778727E+02  0.7816164E-02  0.1312668E+00
        -11   -1    0    0    0    0  0.00000000000E+00  0.00000000000E+00  0.45593999997E+02  0.45594000000E+02  0.51100000000E-03 0. -1.
         11   -1    0    0    0    0 -0.00000000000E+00 -0.00000000000E+00 -0.45593999997E+02  0.45594000000E+02  0.51100000000E-03 0.  1.
    9900012    2    1    2    0    0 -0.18066255423E+02  0.37441113792E+02 -0.12465810728E+02  0.47787273922E+02  0.20000013120E+02 0.  0.
        -12    1    1    2    0    0  0.18066255423E+02 -0.37441113792E+02  0.12465810728E+02  0.43400726078E+02  0.00000000000E+00 0.  1.
         11    1    3    3    0    0 -0.85695295485E+01  0.88867548654E+01  0.41040456511E+00  0.12352314799E+02  0.51100000000E-03 0. -1.
        -11    1    3    3    0    0 -0.62595909148E+01  0.20494194354E+02 -0.15401480483E+02  0.26389393361E+02  0.51100000000E-03 0.  1.
        -12    1    3    3    0    0 -0.32371349598E+01  0.80601645727E+01  0.25252651892E+01  0.90455657625E+01  0.00000000000E+00 0.  1.
</event>
<event>
 7    1  0.2935819E-010  0.4778727E+02  0.7816164E-02  0.1312668E+00
        -11   -1    0    0    0    0  0.00000000000E+00  0.00000000000E+00  0.45593999997E+02  0.45594000000E+02  0.51100000000E-03 0.  1.
         11   -1    0    0    0    0 -0.00000000000E+00 -0.00000000000E+00 -0.45593999997E+02  0.45594000000E+02  0.51100000000E-03 0. -1.
    9900012    2    1    2    0    0  0.42517621559E+02 -0.85727124312E+01 -0.15439675390E+01  0.47787269854E+02  0.19999994573E+02 0.  0.
        -12    1    1    2    0    0 -0.42517621559E+02  0.85727124312E+01  0.15439675390E+01  0.43400730146E+02  0.00000000000E+00 0.  1.
         11    1    3    3    0    0  0.19758169807E+02 -0.59448875261E+01 -0.68530918924E+01  0.21741477194E+02  0.51100000000E-03 0. -1.
        -11    1    3    3    0    0  0.62991370617E+00 -0.20505152316E+01 -0.17946868302E+01  0.27968384065E+01  0.51100000000E-03 0.  1.
        -12    1    3    3    0    0  0.22129538045E+02 -0.57730967353E+00  0.71038111836E+01  0.23248954254E+02  0.00000000000E+00 0.  1.
</event>
<event>
 7    1  0.2935819E-010  0.4778727E+02  0.7816164E-02  0.1312668E+00
        -11   -1    0    0    0    0  0.00000000000E+00  0.00000000000E+00  0.45593999997E+02  0.45594000000E+02  0.51100000000E-03 0.  1.
         11   -1    0    0    0    0 -0.00000000000E+00 -0.00000000000E+00 -0.45593999997E+02  0.45594000000E+02  0.51100000000E-03 0. -1.
    9900012    2    1    2    0    0 -0.80461662549E+01 -0.18634060897E+02 -0.38362145909E+02  0.47787271254E+02  0.20000000955E+02 0.  0.
        -12    1    1    2    0    0  0.80461662549E+01  0.18634060897E+02  0.38362145909E+02  0.43400728746E+02  0.00000000000E+00 0.  1.
         11    1    3    3    0    0 -0.13562965721E+01 -0.17828247965E+02 -0.30952005053E+02  0.35745105720E+02  0.51100000000E-03 0. -1.
        -11    1    3    3    0    0  0.19958186376E-01  0.16891637131E+01  0.67023540260E-01  0.16906107757E+01  0.51100000000E-03 0.  1.
         12    1    3    3    0    0 -0.67098278692E+01 -0.24949766456E+01 -0.74771643971E+01  0.10351554758E+02  0.00000000000E+00 0. -1.
</event>
<event>
 7    1  0.2935819E-010  0.4778727E+02  0.7816164E-02  0.1312668E+00
        -11   -1    0    0    0    0  0.00000000000E+00  0.00000000000E+00  0.45593999997E+02  0.45594000000E+02  0.51100000000E-03 0. -1.
         11   -1    0    0    0    0 -0.00000000000E+00 -0.00000000000E+00 -0.45593999997E+02  0.45594000000E+02  0.51100000000E-03 0.  1.
    9900012    2    1    2    0    0  0.28684432913E+02 -0.88504329662E+01  0.31344795600E+02  0.47787273434E+02  0.20000010894E+02 0.  0.
        -12    1    1    2    0    0 -0.28684432913E+02  0.88504329662E+01 -0.31344795600E+02  0.43400726566E+02  0.00000000000E+00 0.  1.
         11    1    3    3    0    0  0.12065882791E+02 -0.84267975840E+01  0.64830597218E+01  0.16081868942E+02  0.51100000000E-03 0. -1.
        -11    1    3    3    0    0  0.51080606863E+01  0.44266976234E+01  0.57510540744E+01  0.88748272689E+01  0.51100000000E-03 0.  1.
         12    1    3    3    0    0  0.11510489436E+02 -0.48503330057E+01  0.19110681804E+02  0.22830577223E+02  0.00000000000E+00 0. -1.
</event>
<event>
 7    1  0.2935819E-010  0.4778727E+02  0.7816164E-02  0.1312668E+00
        -11   -1    0    0    0    0  0.00000000000E+00  0.00000000000E+00  0.45593999997E+02  0.45594000000E+02  0.51100000000E-03 0. -1.
         11   -1    0    0    0    0 -0.00000000000E+00 -0.00000000000E+00 -0.45593999997E+02  0.45594000000E+02  0.51100000000E-03 0.  1.
    9900012    2    1    2    0    0  0.76530311525E+01  0.25777180939E+02  0.34067451031E+02  0.47787272325E+02  0.20000005837E+02 0.  0.
        -12    1    1    2    0    0 -0.76530311525E+01 -0.25777180939E+02 -0.34067451031E+02  0.43400727675E+02  0.00000000000E+00 0.  1.
         11    1    3    3    0    0  0.43490895691E+01  0.13467405063E+02  0.28294135732E+02  0.31636113799E+02  0.51100000000E-03 0. -1.
        -11    1    3    3    0    0  0.42098420159E+01  0.12976615089E+02  0.43132284318E+01  0.14308013445E+02  0.51100000000E-03 0.  1.
        -12    1    3    3    0    0 -0.90590043243E+00 -0.66683921328E+00  0.14600868675E+01  0.18431450812E+01  0.00000000000E+00 0.  1.
</event>
<event>
 7    1  0.2935819E-010  0.4778728E+02  0.7816164E-02  0.1312668E+00
        -11   -1    0    0    0    0  0.00000000000E+00  0.00000000000E+00  0.45593999997E+02  0.45594000000E+02  0.51100000000E-03 0.  1.
         11   -1    0    0    0    0 -0.00000000000E+00 -0.00000000000E+00 -0.45593999997E+02  0.45594000000E+02  0.51100000000E-03 0. -1.
    9900012    2    1    2    0    0  0.41045649102E+02 -0.11453906533E+02 -0.82271229242E+01  0.47787276082E+02  0.20000022966E+02 0.  0.
        -12    1    1    2    0    0 -0.41045649102E+02  0.11453906533E+02  0.82271229242E+01  0.43400723918E+02  0.00000000000E+00 0.  1.
         11    1    3    3    0    0  0.13028682928E+02  0.13872309504E+01 -0.82777634586E+01  0.15498140427E+02  0.51100000000E-03 0.  1.
        -11    1    3    3    0    0  0.10852058401E+02 -0.88751333599E+01  0.32325632274E+01  0.14386960380E+02  0.51100000000E-03 0. -1.
        -12    1    3    3    0    0  0.17164907772E+02 -0.39660041237E+01 -0.31819226930E+01  0.17902175274E+02  0.00000000000E+00 0.  1.
</event>
<event>
 7    1  0.2935819E-010  0.4778728E+02  0.7816164E-02  0.1312668E+00
        -11   -1    0    0    0    0  0.00000000000E+00  0.00000000000E+00  0.45593999997E+02  0.45594000000E+02  0.51100000000E-03 0.  1.
         11   -1    0    0    0    0 -0.00000000000E+00 -0.00000000000E+00 -0.45593999997E+02  0.45594000000E+02  0.51100000000E-03 0. -1.
    9900012    2    1    2    0    0 -0.22697961790E+02  0.27841336153E+02 -0.24357449284E+02  0.47787276459E+02  0.20000024689E+02 0.  0.
        -12    1    1    2    0    0  0.22697961790E+02 -0.27841336153E+02  0.24357449284E+02  0.43400723541E+02  0.00000000000E+00 0.  1.
         11    1    3    3    0    0 -0.75517778664E+01  0.83551128489E+01  0.13826270244E+01  0.11346758013E+02  0.51100000000E-03 0. -1.
        -11    1    3    3    0    0 -0.19014405523E+01  0.35600985832E+01 -0.97021483198E+00  0.41510354344E+01  0.51100000000E-03 0.  1.
         12    1    3    3    0    0 -0.13244743372E+02  0.15926124721E+02 -0.24769861476E+02  0.32289483012E+02  0.00000000000E+00 0. -1.
</event>
<event>
 7    1  0.2935819E-010  0.4778727E+02  0.7816164E-02  0.1312668E+00
        -11   -1    0    0    0    0  0.00000000000E+00  0.00000000000E+00  0.45593999997E+02  0.45594000000E+02  0.51100000000E-03 0.  1.
         11   -1    0    0    0    0 -0.00000000000E+00 -0.00000000000E+00 -0.45593999997E+02  0.45594000000E+02  0.51100000000E-03 0. -1.
    9900012    2    1    2    0    0 -0.11384914935E+02  0.16147902859E+01 -0.41849724759E+02  0.47787270765E+02  0.19999998727E+02 0.  0.
        -12    1    1    2    0    0  0.11384914935E+02 -0.16147902859E+01  0.41849724759E+02  0.43400729235E+02  0.00000000000E+00 0.  1.
         11    1    3    3    0    0 -0.29214165523E+01 -0.49816366867E+01 -0.27758712631E+02  0.28353086357E+02  0.51100000000E-03 0. -1.
        -11    1    3    3    0    0 -0.32864140811E+01  0.43053229495E+01 -0.14864429772E+01  0.56165680088E+01  0.51100000000E-03 0.  1.
        -12    1    3    3    0    0 -0.51770843012E+01  0.22911040231E+01 -0.12604569150E+02  0.13817616400E+02  0.00000000000E+00 0.  1.
</event>
<event>
 7    1  0.2935819E-010  0.4778727E+02  0.7816164E-02  0.1312668E+00
        -11   -1    0    0    0    0  0.00000000000E+00  0.00000000000E+00  0.45593999997E+02  0.45594000000E+02  0.51100000000E-03 0.  1.
         11   -1    0    0    0    0 -0.00000000000E+00 -0.00000000000E+00 -0.45593999997E+02  0.45594000000E+02  0.51100000000E-03 0. -1.
    9900012    2    1    2    0    0 -0.23823608118E+02 -0.27276867342E+02 -0.23917187728E+02  0.47787266544E+02  0.19999979480E+02 0.  0.
        -12    1    1    2    0    0  0.23823608118E+02  0.27276867342E+02  0.23917187728E+02  0.43400733456E+02  0.00000000000E+00 0.  1.
         11    1    3    3    0    0 -0.40073498770E+01 -0.67864678157E+01 -0.41874563495E+01  0.89246730691E+01  0.51100000000E-03 0. -1.
        -11    1    3    3    0    0 -0.11668009861E+02 -0.20767482383E+02 -0.91773003091E+01  0.25527507122E+02  0.51100000000E-03 0.  1.
        -12    1    3    3    0    0 -0.81482483796E+01  0.27708285664E+00 -0.10552431069E+02  0.13335086353E+02  0.00000000000E+00 0.  1.
</event>
<event>
 7    1  0.2935819E-010  0.4778727E+02  0.7816164E-02  0.1312668E+00
        -11   -1    0    0    0    0  0.00000000000E+00  0.00000000000E+00  0.45593999997E+02  0.45594000000E+02  0.51100000000E-03 0.  1.
         11   -1    0    0    0    0 -0.00000000000E+00 -0.00000000000E+00 -0.45593999997E+02  0.45594000000E+02  0.51100000000E-03 0. -1.
    9900012    2    1    2    0    0 -0.43888627750E+01  0.25607467657E+02 -0.34765191228E+02  0.47787273769E+02  0.20000012422E+02 0.  0.
        -12    1    1    2    0    0  0.43888627750E+01 -0.25607467657E+02  0.34765191228E+02  0.43400726231E+02  0.00000000000E+00 0.  1.
         11    1    3    3    0    0 -0.44898319975E+00  0.26887128632E+01 -0.14010797082E+02  0.14273513860E+02  0.51100000000E-03 0. -1.
        -11    1    3    3    0    0 -0.19492069436E+01 -0.10739660422E+01 -0.14674284271E+01  0.26657376500E+01  0.51100000000E-03 0.  1.
         12    1    3    3    0    0 -0.19906726316E+01  0.23992720836E+02 -0.19286965719E+02  0.30848022259E+02  0.00000000000E+00 0. -1.
</event>
<event>
 7    1  0.2935819E-010  0.4778728E+02  0.7816164E-02  0.1312668E+00
        -11   -1    0    0    0    0  0.00000000000E+00  0.00000000000E+00  0.45593999997E+02  0.45594000000E+02  0.51100000000E-03 0.  1.
         11   -1    0    0    0    0 -0.00000000000E+00 -0.00000000000E+00 -0.45593999997E+02  0.45594000000E+02  0.51100000000E-03 0. -1.
    9900012    2    1    2    0    0 -0.41483403509E+02 -0.11430408609E+01 -0.12706020480E+02  0.47787282662E+02  0.20000052967E+02 0.  0.
        -12    1    1    2    0    0  0.41483403509E+02  0.11430408609E+01  0.12706020480E+02  0.43400717338E+02  0.00000000000E+00 0.  1.
         11    1    3    3    0    0 -0.19221026040E+02  0.18892957367E+01 -0.13492041627E+02  0.23559551523E+02  0.51100000000E-03 0. -1.
        -11    1    3    3    0    0 -0.15547657373E+01 -0.31287156457E+01 -0.16972187650E+00  0.34978513213E+01  0.51100000000E-03 0.  1.
         12    1    3    3    0    0 -0.20707611731E+02  0.96379048043E-01  0.95574302370E+00  0.20729879817E+02  0.00000000000E+00 0. -1.
</event>
<event>
 7    1  0.2935819E-010  0.4778727E+02  0.7816164E-02  0.1312668E+00
        -11   -1    0    0    0    0  0.00000000000E+00  0.00000000000E+00  0.45593999997E+02  0.45594000000E+02  0.51100000000E-03 0.  1.
         11   -1    0    0    0    0 -0.00000000000E+00 -0.00000000000E+00 -0.45593999997E+02  0.45594000000E+02  0.51100000000E-03 0. -1.
    9900012    2    1    2    0    0  0.17123753792E+02 -0.39344038364E+02 -0.65151377572E+01  0.47787270528E+02  0.19999997644E+02 0.  0.
        -12    1    1    2    0    0 -0.17123753792E+02  0.39344038364E+02  0.65151377572E+01  0.43400729472E+02  0.00000000000E+00 0.  1.
         11    1    3    3    0    0  0.66674313341E+01 -0.10788040688E+02 -0.20341286161E+01  0.12844226017E+02  0.51100000000E-03 0. -1.
        -11    1    3    3    0    0  0.52876185883E+01 -0.84287029708E+01 -0.92908524468E+01  0.13613298041E+02  0.51100000000E-03 0.  1.
        -12    1    3    3    0    0  0.51687038700E+01 -0.20127294705E+02  0.48098433057E+01  0.21329746470E+02  0.00000000000E+00 0.  1.
</event>
<event>
 7    1  0.2935819E-010  0.4778728E+02  0.7816164E-02  0.1312668E+00
        -11   -1    0    0    0    0  0.00000000000E+00  0.00000000000E+00  0.45593999997E+02  0.45594000000E+02  0.51100000000E-03 0. -1.
         11   -1    0    0    0    0 -0.00000000000E+00 -0.00000000000E+00 -0.45593999997E+02  0.45594000000E+02  0.51100000000E-03 0.  1.
    9900012    2    1    2    0    0 -0.23310875554E+02  0.11032372939E+01  0.36592468670E+02  0.47787276331E+02  0.20000024105E+02 0.  0.
        -12    1    1    2    0    0  0.23310875554E+02 -0.11032372939E+01 -0.36592468670E+02  0.43400723669E+02  0.00000000000E+00 0.  1.
         11    1    3    3    0    0 -0.42396491838E+00 -0.18809628081E+01 -0.13858486867E+01  0.23745197791E+01  0.51100000000E-03 0. -1.
        -11    1    3    3    0    0 -0.91440083751E+00 -0.17781622619E+01  0.59819395277E+01  0.63072649140E+01  0.51100000000E-03 0.  1.
         12    1    3    3    0    0 -0.21972509798E+02  0.47623623639E+01  0.31996377829E+02  0.39105491638E+02  0.00000000000E+00 0. -1.
</event>
<event>
 7    1  0.2935819E-010  0.4778728E+02  0.7816164E-02  0.1312668E+00
        -11   -1    0    0    0    0  0.00000000000E+00  0.00000000000E+00  0.45593999997E+02  0.45594000000E+02  0.51100000000E-03 0. -1.
         11   -1    0    0    0    0 -0.00000000000E+00 -0.00000000000E+00 -0.45593999997E+02  0.45594000000E+02  0.51100000000E-03 0.  1.
    9900012    2    1    2    0    0 -0.30055670719E+02 -0.29375599552E+02  0.10832978017E+02  0.47787278760E+02  0.20000035179E+02 0.  0.
        -12    1    1    2    0    0  0.30055670719E+02  0.29375599552E+02 -0.10832978017E+02  0.43400721240E+02  0.00000000000E+00 0.  1.
         11    1    3    3    0    0 -0.87702241750E+01 -0.62202582602E+01  0.66200787801E+01  0.12626713279E+02  0.51100000000E-03 0. -1.
        -11    1    3    3    0    0 -0.10623567415E+02 -0.34245692682E+01 -0.30771517082E+01  0.11578286669E+02  0.51100000000E-03 0.  1.
        -12    1    3    3    0    0 -0.10661879129E+02 -0.19730772024E+02  0.72900509454E+01  0.23582278813E+02  0.00000000000E+00 0.  1.
</event>
<event>
 7    1  0.2935819E-010  0.4778727E+02  0.7816164E-02  0.1312668E+00
        -11   -1    0    0    0    0  0.00000000000E+00  0.00000000000E+00  0.45593999997E+02  0.45594000000E+02  0.51100000000E-03 0.  1.
         11   -1    0    0    0    0 -0.00000000000E+00 -0.00000000000E+00 -0.45593999997E+02  0.45594000000E+02  0.51100000000E-03 0. -1.
    9900012    2    1    2    0    0  0.10056629364E+02 -0.36200458253E+02 -0.21725897000E+02  0.47787267606E+02  0.19999984322E+02 0.  0.
        -12    1    1    2    0    0 -0.10056629364E+02  0.36200458253E+02  0.21725897000E+02  0.43400732394E+02  0.00000000000E+00 0.  1.
         11    1    3    3    0    0 -0.29439300257E+01  0.57473079747E+00 -0.22024328966E+01  0.37212565634E+01  0.51100000000E-03 0. -1.
        -11    1    3    3    0    0  0.10196400940E+02 -0.20364982497E+02 -0.12674245447E+02  0.26064067260E+02  0.51100000000E-03 0.  1.
         12    1    3    3    0    0  0.28041584501E+01 -0.16410206554E+02 -0.68492186563E+01  0.18001943783E+02  0.00000000000E+00 0. -1.
</event>
<event>
 7    1  0.2935819E-010  0.4778726E+02  0.7816164E-02  0.1312668E+00
        -11   -1    0    0    0    0  0.00000000000E+00  0.00000000000E+00  0.45593999997E+02  0.45594000000E+02  0.51100000000E-03 0.  1.
         11   -1    0    0    0    0 -0.00000000000E+00 -0.00000000000E+00 -0.45593999997E+02  0.45594000000E+02  0.51100000000E-03 0. -1.
    9900012    2    1    2    0    0  0.38236262930E+02 -0.18203602774E+02 -0.94995443003E+01  0.47787259238E+02  0.19999946169E+02 0.  0.
        -12    1    1    2    0    0 -0.38236262930E+02  0.18203602774E+02  0.94995443003E+01  0.43400740762E+02  0.00000000000E+00 0.  1.
         11    1    3    3    0    0  0.37257077824E+01 -0.87552645478E+01  0.98935017890E+00  0.95663143279E+01  0.51100000000E-03 0. -1.
        -11    1    3    3    0    0  0.13074092349E+02 -0.26668426724E+01 -0.81034071504E+01  0.15611186639E+02  0.51100000000E-03 0.  1.
         12    1    3    3    0    0  0.21436462799E+02 -0.67814955538E+01 -0.23854873288E+01  0.22609758271E+02  0.00000000000E+00 0. -1.
</event>
<event>
 7    1  0.2935819E-010  0.4778728E+02  0.7816164E-02  0.1312668E+00
        -11   -1    0    0    0    0  0.00000000000E+00  0.00000000000E+00  0.45593999997E+02  0.45594000000E+02  0.51100000000E-03 0. -1.
         11   -1    0    0    0    0 -0.00000000000E+00 -0.00000000000E+00 -0.45593999997E+02  0.45594000000E+02  0.51100000000E-03 0.  1.
    9900012    2    1    2    0    0 -0.35413736135E+02  0.24477163787E+02 -0.55098562742E+01  0.47787276847E+02  0.20000026456E+02 0.  0.
        -12    1    1    2    0    0  0.35413736135E+02 -0.24477163787E+02  0.55098562742E+01  0.43400723153E+02  0.00000000000E+00 0.  1.
         11    1    3    3    0    0 -0.90596165817E+01  0.13053013227E+01 -0.67664767718E+01  0.11382691787E+02  0.51100000000E-03 0. -1.
        -11    1    3    3    0    0  0.10084412819E+00 -0.39022175413E+00 -0.82373931301E+00  0.91705467258E+00  0.51100000000E-03 0.  1.
         12    1    3    3    0    0 -0.26454963681E+02  0.23562084218E+02  0.20803598106E+01  0.35487530387E+02  0.00000000000E+00 0. -1.
</event>
<event>
 7    1  0.2935819E-010  0.4778727E+02  0.7816164E-02  0.1312668E+00
        -11   -1    0    0    0    0  0.00000000000E+00  0.00000000000E+00  0.45593999997E+02  0.45594000000E+02  0.51100000000E-03 0. -1.
         11   -1    0    0    0    0 -0.00000000000E+00 -0.00000000000E+00 -0.45593999997E+02  0.45594000000E+02  0.51100000000E-03 0.  1.
    9900012    2    1    2    0    0  0.54298589800E+01  0.23200719620E+01  0.42997181344E+02  0.47787266066E+02  0.19999977301E+02 0.  0.
        -12    1    1    2    0    0 -0.54298589800E+01 -0.23200719620E+01 -0.42997181344E+02  0.43400733934E+02  0.00000000000E+00 0.  1.
         11    1    3    3    0    0  0.83254950123E+01 -0.48986851775E+01  0.28522846589E+02  0.30114178744E+02  0.51100000000E-03 0. -1.
        -11    1    3    3    0    0 -0.53095260943E+00  0.30079764327E+01  0.78047739463E+00  0.31526144893E+01  0.51100000000E-03 0.  1.
         12    1    3    3    0    0 -0.23646834229E+01  0.42107807067E+01  0.13693857361E+02  0.14520472832E+02  0.00000000000E+00 0. -1.
</event>
<event>
 7    1  0.2935819E-010  0.4778726E+02  0.7816164E-02  0.1312668E+00
        -11   -1    0    0    0    0  0.00000000000E+00  0.00000000000E+00  0.45593999997E+02  0.45594000000E+02  0.51100000000E-03 0.  1.
         11   -1    0    0    0    0 -0.00000000000E+00 -0.00000000000E+00 -0.45593999997E+02  0.45594000000E+02  0.51100000000E-03 0. -1.
    9900012    2    1    2    0    0  0.91902225547E+01 -0.29923275774E+02 -0.30062621358E+02  0.47787264677E+02  0.19999970969E+02 0.  0.
        -12    1    1    2    0    0 -0.91902225547E+01  0.29923275774E+02  0.30062621358E+02  0.43400735323E+02  0.00000000000E+00 0.  1.
         11    1    3    3    0    0  0.34178080254E+01 -0.62376430287E+01 -0.14084577130E+02  0.15778622102E+02  0.51100000000E-03 0. -1.
        -11    1    3    3    0    0  0.68254701699E+01 -0.15490235040E+02 -0.38935185365E+01  0.17369338257E+02  0.51100000000E-03 0.  1.
        -12    1    3    3    0    0 -0.10530556406E+01 -0.81953977060E+01 -0.12084525691E+02  0.14639304318E+02  0.00000000000E+00 0.  1.
</event>
<event>
 7    1  0.2935819E-010  0.4778726E+02  0.7816164E-02  0.1312668E+00
        -11   -1    0    0    0    0  0.00000000000E+00  0.00000000000E+00  0.45593999997E+02  0.45594000000E+02  0.51100000000E-03 0. -1.
         11   -1    0    0    0    0 -0.00000000000E+00 -0.00000000000E+00 -0.45593999997E+02  0.45594000000E+02  0.51100000000E-03 0.  1.
    9900012    2    1    2    0    0  0.39511749990E+02  0.17806905032E+02  0.23152439767E+01  0.47787255666E+02  0.19999929883E+02 0.  0.
        -12    1    1    2    0    0 -0.39511749990E+02 -0.17806905032E+02 -0.23152439767E+01  0.43400744334E+02  0.00000000000E+00 0.  1.
         11    1    3    3    0    0  0.22491270106E+02  0.63729183632E+00 -0.73701614086E+00  0.22512364712E+02  0.51100000000E-03 0. -1.
        -11    1    3    3    0    0  0.87908774205E+01  0.13358035185E+02  0.13593228860E+01  0.16048812692E+02  0.51100000000E-03 0.  1.
        -12    1    3    3    0    0  0.82296024638E+01  0.38115780098E+01  0.16929372315E+01  0.92260782625E+01  0.00000000000E+00 0.  1.
</event>
<event>
 7    1  0.2935819E-010  0.4778727E+02  0.7816164E-02  0.1312668E+00
        -11   -1    0    0    0    0  0.00000000000E+00  0.00000000000E+00  0.45593999997E+02  0.45594000000E+02  0.51100000000E-03 0.  1.
         11   -1    0    0    0    0 -0.00000000000E+00 -0.00000000000E+00 -0.45593999997E+02  0.45594000000E+02  0.51100000000E-03 0. -1.
    9900012    2    1    2    0    0  0.21408053800E+01  0.29062055148E+02 -0.32162664364E+02  0.47787273323E+02  0.20000010389E+02 0.  0.
        -12    1    1    2    0    0 -0.21408053800E+01 -0.29062055148E+02  0.32162664364E+02  0.43400726677E+02  0.00000000000E+00 0.  1.
         11    1    3    3    0    0 -0.12632039739E+01 -0.72415601451E+00 -0.95139083449E+01  0.96246838114E+01  0.51100000000E-03 0. -1.
        -11    1    3    3    0    0 -0.15152756443E+00  0.48438935414E+00  0.45292277470E+00  0.68024477224E+00  0.51100000000E-03 0.  1.
         12    1    3    3    0    0  0.35555369183E+01  0.29301821808E+02 -0.23101678794E+02  0.37482344739E+02  0.00000000000E+00 0. -1.
</event>
<event>
 7    1  0.2935819E-010  0.4778729E+02  0.7816164E-02  0.1312668E+00
        -11   -1    0    0    0    0  0.00000000000E+00  0.00000000000E+00  0.45593999997E+02  0.45594000000E+02  0.51100000000E-03 0.  1.
         11   -1    0    0    0    0 -0.00000000000E+00 -0.00000000000E+00 -0.45593999997E+02  0.45594000000E+02  0.51100000000E-03 0. -1.
    9900012    2    1    2    0    0  0.26497422350E+02  0.27482171910E+02 -0.20645546394E+02  0.47787288600E+02  0.20000080045E+02 0.  0.
        -12    1    1    2    0    0 -0.26497422350E+02 -0.27482171910E+02  0.20645546394E+02  0.43400711400E+02  0.00000000000E+00 0.  1.
         11    1    3    3    0    0  0.17074261704E+02  0.75167325059E+01 -0.13701955015E+02  0.23146819475E+02  0.51100000000E-03 0. -1.
        -11    1    3    3    0    0  0.68057411934E+01  0.16810088045E+02 -0.20415441747E+01  0.18250070579E+02  0.51100000000E-03 0.  1.
         12    1    3    3    0    0  0.26174194525E+01  0.31553513595E+01 -0.49020472046E+01  0.63903985469E+01  0.00000000000E+00 0. -1.
</event>
<event>
 7    1  0.2935819E-010  0.4778727E+02  0.7816164E-02  0.1312668E+00
        -11   -1    0    0    0    0  0.00000000000E+00  0.00000000000E+00  0.45593999997E+02  0.45594000000E+02  0.51100000000E-03 0.  1.
         11   -1    0    0    0    0 -0.00000000000E+00 -0.00000000000E+00 -0.45593999997E+02  0.45594000000E+02  0.51100000000E-03 0. -1.
    9900012    2    1    2    0    0 -0.63795191596E+01  0.17849838713E+01 -0.42892179320E+02  0.47787268682E+02  0.19999989230E+02 0.  0.
        -12    1    1    2    0    0  0.63795191596E+01 -0.17849838713E+01  0.42892179320E+02  0.43400731318E+02  0.00000000000E+00 0.  1.
         11    1    3    3    0    0  0.97378369498E+00 -0.56610161835E+01 -0.95651093248E+01  0.11157359704E+02  0.51100000000E-03 0.  1.
        -11    1    3    3    0    0 -0.96374046540E+00 -0.24778369638E+01 -0.11632651563E+02  0.11932604676E+02  0.51100000000E-03 0. -1.
         12    1    3    3    0    0 -0.63895623892E+01  0.99238370185E+01 -0.21694418431E+02  0.24697304302E+02  0.00000000000E+00 0. -1.
</event>
<event>
 7    1  0.2935819E-010  0.4778727E+02  0.7816164E-02  0.1312668E+00
        -11   -1    0    0    0    0  0.00000000000E+00  0.00000000000E+00  0.45593999997E+02  0.45594000000E+02  0.51100000000E-03 0.  1.
         11   -1    0    0    0    0 -0.00000000000E+00 -0.00000000000E+00 -0.45593999997E+02  0.45594000000E+02  0.51100000000E-03 0. -1.
    9900012    2    1    2    0    0  0.29580459021E+02  0.29304692142E+02 -0.12241536226E+02  0.47787265598E+02  0.19999975169E+02 0.  0.
        -12    1    1    2    0    0 -0.29580459021E+02 -0.29304692142E+02  0.12241536226E+02  0.43400734402E+02  0.00000000000E+00 0.  1.
         11    1    3    3    0    0  0.94445623477E+01  0.83912801737E+01  0.12660876113E-01  0.12633823707E+02  0.51100000000E-03 0. -1.
        -11    1    3    3    0    0  0.20854824750E+02  0.21260342556E+02 -0.14241871404E+02  0.33011464407E+02  0.51100000000E-03 0.  1.
        -12    1    3    3    0    0 -0.71892807620E+00 -0.34693058789E+00  0.19876743024E+01  0.21419774845E+01  0.00000000000E+00 0.  1.
</event>
<event>
 7    1  0.2935819E-010  0.4778727E+02  0.7816164E-02  0.1312668E+00
        -11   -1    0    0    0    0  0.00000000000E+00  0.00000000000E+00  0.45593999997E+02  0.45594000000E+02  0.51100000000E-03 0.  1.
         11   -1    0    0    0    0 -0.00000000000E+00 -0.00000000000E+00 -0.45593999997E+02  0.45594000000E+02  0.51100000000E-03 0. -1.
    9900012    2    1    2    0    0 -0.16447540828E+02 -0.10789887935E+02 -0.38686947345E+02  0.47787272174E+02  0.20000005150E+02 0.  0.
        -12    1    1    2    0    0  0.16447540828E+02  0.10789887935E+02  0.38686947345E+02  0.43400727826E+02  0.00000000000E+00 0.  1.
         11    1    3    3    0    0 -0.45907884310E+01 -0.42579947172E+01 -0.21287936920E+02  0.22189684900E+02  0.51100000000E-03 0. -1.
        -11    1    3    3    0    0 -0.34549271159E+01 -0.36076627599E+01  0.10602591591E+01  0.51064568647E+01  0.51100000000E-03 0.  1.
        -12    1    3    3    0    0 -0.84018252814E+01 -0.29242304574E+01 -0.18459269585E+02  0.20491130409E+02  0.00000000000E+00 0.  1.
</event>
<event>
 7    1  0.2935819E-010  0.4778727E+02  0.7816164E-02  0.1312668E+00
        -11   -1    0    0    0    0  0.00000000000E+00  0.00000000000E+00  0.45593999997E+02  0.45594000000E+02  0.51100000000E-03 0. -1.
         11   -1    0    0    0    0 -0.00000000000E+00 -0.00000000000E+00 -0.45593999997E+02  0.45594000000E+02  0.51100000000E-03 0.  1.
    9900012    2    1    2    0    0  0.28263520638E+02  0.32859866550E+02 -0.22418802636E+01  0.47787268951E+02  0.19999990454E+02 0.  0.
        -12    1    1    2    0    0 -0.28263520638E+02 -0.32859866550E+02  0.22418802636E+01  0.43400731049E+02  0.00000000000E+00 0.  1.
         11    1    3    3    0    0  0.20769597526E+02  0.28635842744E+02  0.20082630825E+01  0.35431917700E+02  0.51100000000E-03 0. -1.
        -11    1    3    3    0    0 -0.72639503057E+00  0.26222383457E+01 -0.27094129589E+01  0.38398831395E+01  0.51100000000E-03 0.  1.
         12    1    3    3    0    0  0.82203181426E+01  0.16017854596E+01 -0.15407303872E+01  0.85154681110E+01  0.00000000000E+00 0. -1.
</event>
<event>
 7    1  0.2935819E-010  0.4778731E+02  0.7816164E-02  0.1312668E+00
        -11   -1    0    0    0    0  0.00000000000E+00  0.00000000000E+00  0.45593999997E+02  0.45594000000E+02  0.51100000000E-03 0.  1.
         11   -1    0    0    0    0 -0.00000000000E+00 -0.00000000000E+00 -0.45593999997E+02  0.45594000000E+02  0.51100000000E-03 0. -1.
    9900012    2    1    2    0    0 -0.16657744345E+02 -0.30480952267E+02 -0.26020211342E+02  0.47787305351E+02  0.20000156415E+02 0.  0.
        -12    1    1    2    0    0  0.16657744345E+02  0.30480952267E+02  0.26020211342E+02  0.43400694649E+02  0.00000000000E+00 0.  1.
         11    1    3    3    0    0 -0.29678136375E+01 -0.46904510499E+01 -0.11148902153E+02  0.12454166705E+02  0.51100000000E-03 0. -1.
        -11    1    3    3    0    0 -0.14912393820E+02 -0.18262567486E+02 -0.75388660321E+01  0.24753491914E+02  0.51100000000E-03 0.  1.
        -12    1    3    3    0    0  0.12224631121E+01 -0.75279337317E+01 -0.73324431567E+01  0.10579646732E+02  0.00000000000E+00 0.  1.
</event>
<event>
 7    1  0.2935819E-010  0.4778727E+02  0.7816164E-02  0.1312668E+00
        -11   -1    0    0    0    0  0.00000000000E+00  0.00000000000E+00  0.45593999997E+02  0.45594000000E+02  0.51100000000E-03 0. -1.
         11   -1    0    0    0    0 -0.00000000000E+00 -0.00000000000E+00 -0.45593999997E+02  0.45594000000E+02  0.51100000000E-03 0.  1.
    9900012    2    1    2    0    0 -0.10643406563E+02  0.41271402754E+02  0.81861191509E+01  0.47787270336E+02  0.19999996772E+02 0.  0.
        -12    1    1    2    0    0  0.10643406563E+02 -0.41271402754E+02 -0.81861191509E+01  0.43400729664E+02  0.00000000000E+00 0.  1.
         11    1    3    3    0    0 -0.91806411847E+01  0.67470422103E+01  0.26822921866E+01  0.11704761543E+02  0.51100000000E-03 0. -1.
        -11    1    3    3    0    0  0.16904301432E+01  0.17589022342E+01 -0.80028849472E+00  0.25674409583E+01  0.51100000000E-03 0.  1.
         12    1    3    3    0    0 -0.31531955219E+01  0.32765458310E+02  0.63041154590E+01  0.33515067835E+02  0.00000000000E+00 0. -1.
</event>
<event>
 7    1  0.2935819E-010  0.4778727E+02  0.7816164E-02  0.1312668E+00
        -11   -1    0    0    0    0  0.00000000000E+00  0.00000000000E+00  0.45593999997E+02  0.45594000000E+02  0.51100000000E-03 0. -1.
         11   -1    0    0    0    0 -0.00000000000E+00 -0.00000000000E+00 -0.45593999997E+02  0.45594000000E+02  0.51100000000E-03 0.  1.
    9900012    2    1    2    0    0  0.38464463822E+02 -0.21948389746E+01  0.19982261593E+02  0.47787273351E+02  0.20000010518E+02 0.  0.
        -12    1    1    2    0    0 -0.38464463822E+02  0.21948389746E+01 -0.19982261593E+02  0.43400726649E+02  0.00000000000E+00 0.  1.
         11    1    3    3    0    0  0.12652935402E+01  0.90448236882E+00  0.26777261853E+01  0.30966552735E+01  0.51100000000E-03 0. -1.
        -11    1    3    3    0    0  0.23647425094E+02  0.60633546477E+01  0.13495754706E+02  0.27894450675E+02  0.51100000000E-03 0.  1.
        -12    1    3    3    0    0  0.13551745188E+02 -0.91626759912E+01  0.38087807025E+01  0.16796167402E+02  0.00000000000E+00 0.  1.
</event>
<event>
 7    1  0.2935819E-010  0.4778727E+02  0.7816164E-02  0.1312668E+00
        -11   -1    0    0    0    0  0.00000000000E+00  0.00000000000E+00  0.45593999997E+02  0.45594000000E+02  0.51100000000E-03 0.  1.
         11   -1    0    0    0    0 -0.00000000000E+00 -0.00000000000E+00 -0.45593999997E+02  0.45594000000E+02  0.51100000000E-03 0. -1.
    9900012    2    1    2    0    0  0.17281863624E+02  0.25911285316E+02 -0.30225252142E+02  0.47787269775E+02  0.19999994211E+02 0.  0.
        -12    1    1    2    0    0 -0.17281863624E+02 -0.25911285316E+02  0.30225252142E+02  0.43400730225E+02  0.00000000000E+00 0.  1.
         11    1    3    3    0    0  0.27039216277E+01  0.20222228991E+02 -0.20466387182E+02  0.28898490308E+02  0.51100000000E-03 0. -1.
        -11    1    3    3    0    0  0.69529368965E+01  0.79490324553E+00 -0.31525227134E+01  0.76755196812E+01  0.51100000000E-03 0.  1.
        -12    1    3    3    0    0  0.76250051002E+01  0.48941530789E+01 -0.66063422460E+01  0.11213259785E+02  0.00000000000E+00 0.  1.
</event>
<event>
 7    1  0.2935819E-010  0.4778727E+02  0.7816164E-02  0.1312668E+00
        -11   -1    0    0    0    0  0.00000000000E+00  0.00000000000E+00  0.45593999997E+02  0.45594000000E+02  0.51100000000E-03 0. -1.
         11   -1    0    0    0    0 -0.00000000000E+00 -0.00000000000E+00 -0.45593999997E+02  0.45594000000E+02  0.51100000000E-03 0.  1.
    9900012    2    1    2    0    0 -0.36163568581E+02  0.13202001358E+02  0.20038131180E+02  0.47787271508E+02  0.20000002115E+02 0.  0.
        -12    1    1    2    0    0  0.36163568581E+02 -0.13202001358E+02 -0.20038131180E+02  0.43400728492E+02  0.00000000000E+00 0.  1.
         11    1    3    3    0    0 -0.26466646313E+02  0.20913863550E+01  0.78892887636E+01  0.27696536632E+02  0.51100000000E-03 0. -1.
        -11    1    3    3    0    0 -0.87870638657E+01  0.10620265829E+02  0.82658755133E+01  0.16072561585E+02  0.51100000000E-03 0.  1.
         12    1    3    3    0    0 -0.90985840296E+00  0.49034917484E+00  0.38829669036E+01  0.40181732916E+01  0.00000000000E+00 0. -1.
</event>
<event>
 7    1  0.2935819E-010  0.4778725E+02  0.7816164E-02  0.1312668E+00
        -11   -1    0    0    0    0  0.00000000000E+00  0.00000000000E+00  0.45593999997E+02  0.45594000000E+02  0.51100000000E-03 0. -1.
         11   -1    0    0    0    0 -0.00000000000E+00 -0.00000000000E+00 -0.45593999997E+02  0.45594000000E+02  0.51100000000E-03 0.  1.
    9900012    2    1    2    0    0 -0.23885039860E+02  0.16726504176E+02  0.32145823798E+02  0.47787250482E+02  0.19999906248E+02 0.  0.
        -12    1    1    2    0    0  0.23885039860E+02 -0.16726504176E+02 -0.32145823798E+02  0.43400749518E+02  0.00000000000E+00 0.  1.
         11    1    3    3    0    0 -0.25042403893E+02  0.14499746038E+02  0.29336296043E+02  0.41206587989E+02  0.51100000000E-03 0. -1.
        -11    1    3    3    0    0  0.17203055977E+01  0.36276933808E-01  0.37541188134E+01  0.41296701675E+01  0.51100000000E-03 0.  1.
         12    1    3    3    0    0 -0.56294156466E+00  0.21904812042E+01 -0.94459105886E+00  0.24509923255E+01  0.00000000000E+00 0. -1.
</event>
<event>
 7    1  0.2935819E-010  0.4778727E+02  0.7816164E-02  0.1312668E+00
        -11   -1    0    0    0    0  0.00000000000E+00  0.00000000000E+00  0.45593999997E+02  0.45594000000E+02  0.51100000000E-03 0.  1.
         11   -1    0    0    0    0 -0.00000000000E+00 -0.00000000000E+00 -0.45593999997E+02  0.45594000000E+02  0.51100000000E-03 0. -1.
    9900012    2    1    2    0    0 -0.79074193980E+01 -0.41708786185E+02 -0.90262422806E+01  0.47787272169E+02  0.20000005128E+02 0.  0.
        -12    1    1    2    0    0  0.79074193980E+01  0.41708786185E+02  0.90262422806E+01  0.43400727831E+02  0.00000000000E+00 0.  1.
         11    1    3    3    0    0 -0.93781566518E+01 -0.30244840077E+02 -0.98408034785E+01  0.33159336345E+02  0.51100000000E-03 0. -1.
        -11    1    3    3    0    0  0.25462868834E+00 -0.57871017711E+01  0.48521164380E+01  0.75563494405E+01  0.51100000000E-03 0.  1.
         12    1    3    3    0    0  0.12161085654E+01 -0.56768443371E+01 -0.40375552401E+01  0.70715863840E+01  0.00000000000E+00 0. -1.
</event>
<event>
 7    1  0.2935819E-010  0.4778727E+02  0.7816164E-02  0.1312668E+00
        -11   -1    0    0    0    0  0.00000000000E+00  0.00000000000E+00  0.45593999997E+02  0.45594000000E+02  0.51100000000E-03 0.  1.
         11   -1    0    0    0    0 -0.00000000000E+00 -0.00000000000E+00 -0.45593999997E+02  0.45594000000E+02  0.51100000000E-03 0. -1.
    9900012    2    1    2    0    0 -0.33140367339E+02  0.27676599099E+02 -0.43983318957E+01  0.47787269493E+02  0.19999992925E+02 0.  0.
        -12    1    1    2    0    0  0.33140367339E+02 -0.27676599099E+02  0.43983318957E+01  0.43400730507E+02  0.00000000000E+00 0.  1.
         11    1    3    3    0    0 -0.16774128025E+02  0.16560482104E+02  0.31940927493E+01  0.23787037799E+02  0.51100000000E-03 0. -1.
        -11    1    3    3    0    0 -0.47749899288E+01  0.85026795722E+01 -0.71818033656E+01  0.12110920220E+02  0.51100000000E-03 0.  1.
         12    1    3    3    0    0 -0.11591249385E+02  0.26134374235E+01 -0.41062127936E+00  0.11889311473E+02  0.00000000000E+00 0. -1.
</event>
<event>
 7    1  0.2935819E-010  0.4778726E+02  0.7816164E-02  0.1312668E+00
        -11   -1    0    0    0    0  0.00000000000E+00  0.00000000000E+00  0.45593999997E+02  0.45594000000E+02  0.51100000000E-03 0.  1.
         11   -1    0    0    0    0 -0.00000000000E+00 -0.00000000000E+00 -0.45593999997E+02  0.45594000000E+02  0.51100000000E-03 0. -1.
    9900012    2    1    2    0    0  0.62320785318E+01  0.37395947968E+02 -0.21126486794E+02  0.47787260703E+02  0.19999952851E+02 0.  0.
        -12    1    1    2    0    0 -0.62320785318E+01 -0.37395947968E+02  0.21126486794E+02  0.43400739297E+02  0.00000000000E+00 0.  1.
         11    1    3    3    0    0 -0.50587905908E+00  0.77415597431E+00 -0.86094993636E+00  0.12635134147E+01  0.51100000000E-03 0. -1.
        -11    1    3    3    0    0  0.85667431568E+01  0.37699516656E+02 -0.21324278992E+02  0.44151642316E+02  0.51100000000E-03 0.  1.
        -12    1    3    3    0    0 -0.18287855659E+01 -0.10777246626E+01  0.10587421344E+01  0.23721049727E+01  0.00000000000E+00 0.  1.
</event>
<event>
 7    1  0.2935819E-010  0.4778727E+02  0.7816164E-02  0.1312668E+00
        -11   -1    0    0    0    0  0.00000000000E+00  0.00000000000E+00  0.45593999997E+02  0.45594000000E+02  0.51100000000E-03 0. -1.
         11   -1    0    0    0    0 -0.00000000000E+00 -0.00000000000E+00 -0.45593999997E+02  0.45594000000E+02  0.51100000000E-03 0.  1.
    9900012    2    1    2    0    0  0.18702440128E+01 -0.41011660875E+02  0.14077249072E+02  0.47787273257E+02  0.20000010088E+02 0.  0.
        -12    1    1    2    0    0 -0.18702440128E+01  0.41011660875E+02 -0.14077249072E+02  0.43400726743E+02  0.00000000000E+00 0.  1.
         11    1    3    3    0    0  0.34882145703E+01 -0.14849669182E+02  0.98590114787E+01  0.18162610586E+02  0.51100000000E-03 0. -1.
        -11    1    3    3    0    0 -0.60905452133E+01 -0.19364829261E+02 -0.33073337013E+00  0.20302727357E+02  0.51100000000E-03 0.  1.
        -12    1    3    3    0    0  0.44725746558E+01 -0.67971624319E+01  0.45489709629E+01  0.93219353140E+01  0.00000000000E+00 0.  1.
</event>
<event>
 7    1  0.2935819E-010  0.4778727E+02  0.7816164E-02  0.1312668E+00
        -11   -1    0    0    0    0  0.00000000000E+00  0.00000000000E+00  0.45593999997E+02  0.45594000000E+02  0.51100000000E-03 0.  1.
         11   -1    0    0    0    0 -0.00000000000E+00 -0.00000000000E+00 -0.45593999997E+02  0.45594000000E+02  0.51100000000E-03 0. -1.
    9900012    2    1    2    0    0 -0.11838976553E+02  0.35334954027E+02 -0.22246414012E+02  0.47787270993E+02  0.19999999765E+02 0.  0.
        -12    1    1    2    0    0  0.11838976553E+02 -0.35334954027E+02  0.22246414012E+02  0.43400729007E+02  0.00000000000E+00 0.  1.
         11    1    3    3    0    0 -0.91073280789E+01  0.90114524542E+01 -0.12840572641E+02  0.18139184273E+02  0.51100000000E-03 0. -1.
        -11    1    3    3    0    0 -0.17533897669E+01  0.62557158233E+01  0.16670301608E+01  0.67072606893E+01  0.51100000000E-03 0.  1.
         12    1    3    3    0    0 -0.97825870751E+00  0.20067785750E+02 -0.11072871532E+02  0.22940826031E+02  0.00000000000E+00 0. -1.
</event>
<event>
 7    1  0.2935819E-010  0.4778727E+02  0.7816164E-02  0.1312668E+00
        -11   -1    0    0    0    0  0.00000000000E+00  0.00000000000E+00  0.45593999997E+02  0.45594000000E+02  0.51100000000E-03 0.  1.
         11   -1    0    0    0    0 -0.00000000000E+00 -0.00000000000E+00 -0.45593999997E+02  0.45594000000E+02  0.51100000000E-03 0. -1.
    9900012    2    1    2    0    0 -0.25514236944E+02 -0.95025023923E+01 -0.33798662070E+02  0.47787269635E+02  0.19999993572E+02 0.  0.
        -12    1    1    2    0    0  0.25514236944E+02  0.95025023923E+01  0.33798662070E+02  0.43400730365E+02  0.00000000000E+00 0.  1.
         11    1    3    3    0    0 -0.47057854476E+01  0.63212561660E+00 -0.73356631997E+01  0.87381894185E+01  0.51100000000E-03 0. -1.
        -11    1    3    3    0    0 -0.15163787401E+02 -0.10829487516E+02 -0.27548980674E+02  0.33259052672E+02  0.51100000000E-03 0.  1.
        -12    1    3    3    0    0 -0.56446640954E+01  0.69485950690E+00  0.10859818040E+01  0.57900275443E+01  0.00000000000E+00 0.  1.
</event>
<event>
 7    1  0.2935819E-010  0.4778726E+02  0.7816164E-02  0.1312668E+00
        -11   -1    0    0    0    0  0.00000000000E+00  0.00000000000E+00  0.45593999997E+02  0.45594000000E+02  0.51100000000E-03 0.  1.
         11   -1    0    0    0    0 -0.00000000000E+00 -0.00000000000E+00 -0.45593999997E+02  0.45594000000E+02  0.51100000000E-03 0. -1.
    9900012    2    1    2    0    0  0.17084638526E+02  0.17602574385E+02 -0.35803475328E+02  0.47787258714E+02  0.19999943781E+02 0.  0.
        -12    1    1    2    0    0 -0.17084638526E+02 -0.17602574385E+02  0.35803475328E+02  0.43400741286E+02  0.00000000000E+00 0.  1.
         11    1    3    3    0    0  0.14346580130E+02  0.10633501759E+02 -0.28492107456E+02  0.33625822051E+02  0.51100000000E-03 0. -1.
        -11    1    3    3    0    0  0.24870793009E+01  0.10956477329E+01  0.18417773262E+01  0.32830095010E+01  0.51100000000E-03 0.  1.
        -12    1    3    3    0    0  0.25097909575E+00  0.58734248938E+01 -0.91531451990E+01  0.10878427162E+02  0.00000000000E+00 0.  1.
</event>
<event>
 7    1  0.2935819E-010  0.4778727E+02  0.7816164E-02  0.1312668E+00
        -11   -1    0    0    0    0  0.00000000000E+00  0.00000000000E+00  0.45593999997E+02  0.45594000000E+02  0.51100000000E-03 0.  1.
         11   -1    0    0    0    0 -0.00000000000E+00 -0.00000000000E+00 -0.45593999997E+02  0.45594000000E+02  0.51100000000E-03 0. -1.
    9900012    2    1    2    0    0 -0.78162778195E+00  0.42953318136E+02 -0.61664238499E+01  0.47787271158E+02  0.20000000518E+02 0.  0.
        -12    1    1    2    0    0  0.78162778195E+00 -0.42953318136E+02  0.61664238499E+01  0.43400728842E+02  0.00000000000E+00 0.  1.
         11    1    3    3    0    0  0.19575288524E+01  0.18164012965E+02 -0.79942359266E+01  0.19941692369E+02  0.51100000000E-03 0. -1.
        -11    1    3    3    0    0 -0.74064556738E+01  0.16447667014E+02  0.27331305173E+01  0.18244213837E+02  0.51100000000E-03 0.  1.
        -12    1    3    3    0    0  0.46672990395E+01  0.83416381574E+01 -0.90531844059E+00  0.96013649525E+01  0.00000000000E+00 0.  1.
</event>
<event>
 7    1  0.2935819E-010  0.4778727E+02  0.7816164E-02  0.1312668E+00
        -11   -1    0    0    0    0  0.00000000000E+00  0.00000000000E+00  0.45593999997E+02  0.45594000000E+02  0.51100000000E-03 0. -1.
         11   -1    0    0    0    0 -0.00000000000E+00 -0.00000000000E+00 -0.45593999997E+02  0.45594000000E+02  0.51100000000E-03 0.  1.
    9900012    2    1    2    0    0  0.28630091393E+02 -0.29561401480E+02  0.13786397625E+02  0.47787270166E+02  0.19999995994E+02 0.  0.
        -12    1    1    2    0    0 -0.28630091393E+02  0.29561401480E+02 -0.13786397625E+02  0.43400729834E+02  0.00000000000E+00 0.  1.
         11    1    3    3    0    0  0.12040780511E+02 -0.79427237877E+01  0.81115551933E+01  0.16548854474E+02  0.51100000000E-03 0. -1.
        -11    1    3    3    0    0  0.63319268376E+01 -0.69491268003E+01 -0.47404605344E+01  0.10528799889E+02  0.51100000000E-03 0.  1.
        -12    1    3    3    0    0  0.10257384045E+02 -0.14669550892E+02  0.10415302967E+02  0.20709615803E+02  0.00000000000E+00 0.  1.
</event>
<event>
 7    1  0.2935819E-010  0.4778727E+02  0.7816164E-02  0.1312668E+00
        -11   -1    0    0    0    0  0.00000000000E+00  0.00000000000E+00  0.45593999997E+02  0.45594000000E+02  0.51100000000E-03 0.  1.
         11   -1    0    0    0    0 -0.00000000000E+00 -0.00000000000E+00 -0.45593999997E+02  0.45594000000E+02  0.51100000000E-03 0. -1.
    9900012    2    1    2    0    0 -0.18905364069E+02 -0.15003681498E+02 -0.36070767118E+02  0.47787268560E+02  0.19999988672E+02 0.  0.
        -12    1    1    2    0    0  0.18905364069E+02  0.15003681498E+02  0.36070767118E+02  0.43400731440E+02  0.00000000000E+00 0.  1.
         11    1    3    3    0    0 -0.39206907761E+01  0.26461026106E+01 -0.13115056377E+02  0.13941964682E+02  0.51100000000E-03 0. -1.
        -11    1    3    3    0    0 -0.14103394372E+01 -0.25411283101E+01  0.35434463239E+00  0.29277894043E+01  0.51100000000E-03 0.  1.
         12    1    3    3    0    0 -0.13574333856E+02 -0.15108655799E+02 -0.23310055373E+02  0.30917514473E+02  0.00000000000E+00 0. -1.
</event>
<event>
 7    1  0.2935819E-010  0.4778727E+02  0.7816164E-02  0.1312668E+00
        -11   -1    0    0    0    0  0.00000000000E+00  0.00000000000E+00  0.45593999997E+02  0.45594000000E+02  0.51100000000E-03 0.  1.
         11   -1    0    0    0    0 -0.00000000000E+00 -0.00000000000E+00 -0.45593999997E+02  0.45594000000E+02  0.51100000000E-03 0. -1.
    9900012    2    1    2    0    0  0.43048898739E+02  0.48532505408E+01 -0.26194520366E+01  0.47787271292E+02  0.20000001127E+02 0.  0.
        -12    1    1    2    0    0 -0.43048898739E+02 -0.48532505408E+01  0.26194520366E+01  0.43400728708E+02  0.00000000000E+00 0.  1.
         11    1    3    3    0    0  0.12950345496E+02  0.38958448361E+01 -0.16019376393E+01  0.13618195913E+02  0.51100000000E-03 0. -1.
        -11    1    3    3    0    0  0.21168510166E+02 -0.39347452575E+01 -0.66475784612E+01  0.22533937573E+02  0.51100000000E-03 0.  1.
        -12    1    3    3    0    0  0.89300430767E+01  0.48921509622E+01  0.56300640639E+01  0.11635137805E+02  0.00000000000E+00 0.  1.
</event>
<event>
 7    1  0.2935819E-010  0.4778727E+02  0.7816164E-02  0.1312668E+00
        -11   -1    0    0    0    0  0.00000000000E+00  0.00000000000E+00  0.45593999997E+02  0.45594000000E+02  0.51100000000E-03 0.  1.
         11   -1    0    0    0    0 -0.00000000000E+00 -0.00000000000E+00 -0.45593999997E+02  0.45594000000E+02  0.51100000000E-03 0. -1.
    9900012    2    1    2    0    0  0.23012247339E+02 -0.28003774372E+02 -0.23871507315E+02  0.47787265350E+02  0.19999974037E+02 0.  0.
        -12    1    1    2    0    0 -0.23012247339E+02  0.28003774372E+02  0.23871507315E+02  0.43400734650E+02  0.00000000000E+00 0.  1.
         11    1    3    3    0    0  0.22652679376E+01 -0.13026210791E+02 -0.45550445474E+01  0.13984349734E+02  0.51100000000E-03 0.  1.
        -11    1    3    3    0    0  0.17480091160E+02 -0.16562520054E+02 -0.16253255144E+02  0.29052348623E+02  0.51100000000E-03 0. -1.
         12    1    3    3    0    0  0.32668882415E+01  0.15849564733E+01 -0.30632076239E+01  0.47505669927E+01  0.00000000000E+00 0. -1.
</event>
<event>
 7    1  0.2935819E-010  0.4778727E+02  0.7816164E-02  0.1312668E+00
        -11   -1    0    0    0    0  0.00000000000E+00  0.00000000000E+00  0.45593999997E+02  0.45594000000E+02  0.51100000000E-03 0.  1.
         11   -1    0    0    0    0 -0.00000000000E+00 -0.00000000000E+00 -0.45593999997E+02  0.45594000000E+02  0.51100000000E-03 0. -1.
    9900012    2    1    2    0    0  0.35146992317E+02  0.16641338945E+02  0.19271172849E+02  0.47787270354E+02  0.19999996852E+02 0.  0.
        -12    1    1    2    0    0 -0.35146992317E+02 -0.16641338945E+02 -0.19271172849E+02  0.43400729646E+02  0.00000000000E+00 0.  1.
         11    1    3    3    0    0  0.99139896258E+01  0.12744659286E+01  0.28189252311E+01  0.10385460675E+02  0.51100000000E-03 0. -1.
        -11    1    3    3    0    0  0.27204302368E+02  0.15610277975E+02  0.16447039957E+02  0.35415532883E+02  0.51100000000E-03 0.  1.
        -12    1    3    3    0    0 -0.19712996772E+01 -0.24340495779E+00  0.52076607881E-02  0.19862767961E+01  0.00000000000E+00 0.  1.
</event>
<event>
 7    1  0.2935819E-010  0.4778727E+02  0.7816164E-02  0.1312668E+00
        -11   -1    0    0    0    0  0.00000000000E+00  0.00000000000E+00  0.45593999997E+02  0.45594000000E+02  0.51100000000E-03 0. -1.
         11   -1    0    0    0    0 -0.00000000000E+00 -0.00000000000E+00 -0.45593999997E+02  0.45594000000E+02  0.51100000000E-03 0.  1.
    9900012    2    1    2    0    0 -0.24830334830E+02 -0.11848604184E+02  0.33566179820E+02  0.47787269861E+02  0.19999994604E+02 0.  0.
        -12    1    1    2    0    0  0.24830334830E+02  0.11848604184E+02 -0.33566179820E+02  0.43400730139E+02  0.00000000000E+00 0.  1.
         11    1    3    3    0    0 -0.19506828688E+02 -0.67705239513E+01  0.31389934269E+02  0.37572387917E+02  0.51100000000E-03 0. -1.
        -11    1    3    3    0    0 -0.37275364154E+01 -0.13672735985E+01 -0.19648032176E+01  0.44299454586E+01  0.51100000000E-03 0.  1.
         12    1    3    3    0    0 -0.15959697267E+01 -0.37108066342E+01  0.41410487681E+01  0.57849364858E+01  0.00000000000E+00 0. -1.
</event>
<event>
 7    1  0.2935819E-010  0.4778727E+02  0.7816164E-02  0.1312668E+00
        -11   -1    0    0    0    0  0.00000000000E+00  0.00000000000E+00  0.45593999997E+02  0.45594000000E+02  0.51100000000E-03 0.  1.
         11   -1    0    0    0    0 -0.00000000000E+00 -0.00000000000E+00 -0.45593999997E+02  0.45594000000E+02  0.51100000000E-03 0. -1.
    9900012    2    1    2    0    0 -0.22771412156E+02  0.24181240360E+02 -0.27934812847E+02  0.47787269986E+02  0.19999995176E+02 0.  0.
        -12    1    1    2    0    0  0.22771412156E+02 -0.24181240360E+02  0.27934812847E+02  0.43400730014E+02  0.00000000000E+00 0.  1.
         11    1    3    3    0    0 -0.76984015724E+01  0.16828859876E+01 -0.46315176160E+01  0.91404839973E+01  0.51100000000E-03 0. -1.
        -11    1    3    3    0    0 -0.13076969245E+02  0.24082454672E+02 -0.18067680112E+02  0.32823967045E+02  0.51100000000E-03 0.  1.
        -12    1    3    3    0    0 -0.19960413383E+01 -0.15841002993E+01 -0.52356151191E+01  0.58228189443E+01  0.00000000000E+00 0.  1.
</event>
<event>
 7    1  0.2935819E-010  0.4778727E+02  0.7816164E-02  0.1312668E+00
        -11   -1    0    0    0    0  0.00000000000E+00  0.00000000000E+00  0.45593999997E+02  0.45594000000E+02  0.51100000000E-03 0. -1.
         11   -1    0    0    0    0 -0.00000000000E+00 -0.00000000000E+00 -0.45593999997E+02  0.45594000000E+02  0.51100000000E-03 0.  1.
    9900012    2    1    2    0    0  0.17568132908E+01 -0.42981535471E+02  0.57553644688E+01  0.47787274147E+02  0.20000014146E+02 0.  0.
        -12    1    1    2    0    0 -0.17568132908E+01  0.42981535471E+02 -0.57553644688E+01  0.43400725853E+02  0.00000000000E+00 0.  1.
         11    1    3    3    0    0  0.22481754759E+01 -0.14737620991E+02  0.81235087450E+01  0.16977725408E+02  0.51100000000E-03 0. -1.
        -11    1    3    3    0    0 -0.20017051589E+01 -0.28452216280E+02 -0.67418584248E+00  0.28530509312E+02  0.51100000000E-03 0.  1.
        -12    1    3    3    0    0  0.15103429737E+01  0.20830179899E+00 -0.16939584337E+01  0.22790394276E+01  0.00000000000E+00 0.  1.
</event>
<event>
 7    1  0.2935819E-010  0.4778727E+02  0.7816164E-02  0.1312668E+00
        -11   -1    0    0    0    0  0.00000000000E+00  0.00000000000E+00  0.45593999997E+02  0.45594000000E+02  0.51100000000E-03 0.  1.
         11   -1    0    0    0    0 -0.00000000000E+00 -0.00000000000E+00 -0.45593999997E+02  0.45594000000E+02  0.51100000000E-03 0. -1.
    9900012    2    1    2    0    0  0.39388005313E+02  0.15116583385E+02 -0.10183187904E+02  0.47787269918E+02  0.19999994864E+02 0.  0.
        -12    1    1    2    0    0 -0.39388005313E+02 -0.15116583385E+02  0.10183187904E+02  0.43400730082E+02  0.00000000000E+00 0.  1.
         11    1    3    3    0    0  0.20696570124E+02  0.14953011261E+02 -0.63735272424E+01  0.26316580524E+02  0.51100000000E-03 0. -1.
        -11    1    3    3    0    0  0.44828252623E+01  0.38443279416E+01 -0.33421749146E+01  0.67856254742E+01  0.51100000000E-03 0.  1.
         12    1    3    3    0    0  0.14208609926E+02 -0.36807558172E+01 -0.46748574658E+00  0.14685063920E+02  0.00000000000E+00 0. -1.
</event>
<event>
 7    1  0.2935819E-010  0.4778726E+02  0.7816164E-02  0.1312668E+00
        -11   -1    0    0    0    0  0.00000000000E+00  0.00000000000E+00  0.45593999997E+02  0.45594000000E+02  0.51100000000E-03 0.  1.
         11   -1    0    0    0    0 -0.00000000000E+00 -0.00000000000E+00 -0.45593999997E+02  0.45594000000E+02  0.51100000000E-03 0. -1.
    9900012    2    1    2    0    0 -0.15784628054E+02  0.10683581683E+02 -0.38991419558E+02  0.47787260381E+02  0.19999951379E+02 0.  0.
        -12    1    1    2    0    0  0.15784628054E+02 -0.10683581683E+02  0.38991419558E+02  0.43400739619E+02  0.00000000000E+00 0.  1.
         11    1    3    3    0    0  0.20038224087E+01  0.65974840630E+01 -0.14121762335E+02  0.15715160576E+02  0.51100000000E-03 0.  1.
        -11    1    3    3    0    0 -0.52784537030E+01  0.54770970051E+01 -0.82129029724E+01  0.11194303935E+02  0.51100000000E-03 0. -1.
         12    1    3    3    0    0 -0.12509996759E+02 -0.13909993856E+01 -0.16656754250E+02  0.20877795869E+02  0.00000000000E+00 0. -1.
</event>
<event>
 7    1  0.2935819E-010  0.4778727E+02  0.7816164E-02  0.1312668E+00
        -11   -1    0    0    0    0  0.00000000000E+00  0.00000000000E+00  0.45593999997E+02  0.45594000000E+02  0.51100000000E-03 0.  1.
         11   -1    0    0    0    0 -0.00000000000E+00 -0.00000000000E+00 -0.45593999997E+02  0.45594000000E+02  0.51100000000E-03 0. -1.
    9900012    2    1    2    0    0 -0.33050360761E+02 -0.25499056858E+02 -0.11878345857E+02  0.47787270197E+02  0.19999996138E+02 0.  0.
        -12    1    1    2    0    0  0.33050360761E+02  0.25499056858E+02  0.11878345857E+02  0.43400729803E+02  0.00000000000E+00 0.  1.
         11    1    3    3    0    0 -0.55561837848E+01  0.22975044978E+00 -0.66357897145E+01  0.86578097066E+01  0.51100000000E-03 0.  1.
        -11    1    3    3    0    0 -0.23039306285E+02 -0.18776633056E+02 -0.73311458383E+01  0.30612371398E+02  0.51100000000E-03 0. -1.
         12    1    3    3    0    0 -0.44548706915E+01 -0.69521742517E+01  0.20885896958E+01  0.85170890932E+01  0.00000000000E+00 0. -1.
</event>
<event>
 7    1  0.2935819E-010  0.4778727E+02  0.7816164E-02  0.1312668E+00
        -11   -1    0    0    0    0  0.00000000000E+00  0.00000000000E+00  0.45593999997E+02  0.45594000000E+02  0.51100000000E-03 0.  1.
         11   -1    0    0    0    0 -0.00000000000E+00 -0.00000000000E+00 -0.45593999997E+02  0.45594000000E+02  0.51100000000E-03 0. -1.
    9900012    2    1    2    0    0 -0.10892900613E+02 -0.56305721928E+01 -0.41632496382E+02  0.47787269799E+02  0.19999994321E+02 0.  0.
        -12    1    1    2    0    0  0.10892900613E+02  0.56305721928E+01  0.41632496382E+02  0.43400730201E+02  0.00000000000E+00 0.  1.
         11    1    3    3    0    0 -0.68462675721E+01  0.45927465049E+01 -0.20834368052E+02  0.22406150774E+02  0.51100000000E-03 0. -1.
        -11    1    3    3    0    0  0.18680732934E+01 -0.18988114615E+01 -0.57363689702E+00  0.27247462903E+01  0.51100000000E-03 0.  1.
         12    1    3    3    0    0 -0.59147063342E+01 -0.83245072362E+01 -0.20224491434E+02  0.22656372735E+02  0.00000000000E+00 0. -1.
</event>
<event>
 7    1  0.2935819E-010  0.4778728E+02  0.7816164E-02  0.1312668E+00
        -11   -1    0    0    0    0  0.00000000000E+00  0.00000000000E+00  0.45593999997E+02  0.45594000000E+02  0.51100000000E-03 0.  1.
         11   -1    0    0    0    0 -0.00000000000E+00 -0.00000000000E+00 -0.45593999997E+02  0.45594000000E+02  0.51100000000E-03 0. -1.
    9900012    2    1    2    0    0  0.85762959335E+01  0.11106890541E+02 -0.41069537627E+02  0.47787276615E+02  0.20000025401E+02 0.  0.
        -12    1    1    2    0    0 -0.85762959335E+01 -0.11106890541E+02  0.41069537627E+02  0.43400723385E+02  0.00000000000E+00 0.  1.
         11    1    3    3    0    0  0.52873866168E+00  0.70300527356E+00 -0.79308295077E+00  0.11843824614E+01  0.51100000000E-03 0. -1.
        -11    1    3    3    0    0  0.11249573234E+02  0.71160008445E+01 -0.39825663060E+02  0.41991353925E+02  0.51100000000E-03 0.  1.
        -12    1    3    3    0    0 -0.32020159626E+01  0.32878844232E+01 -0.45079161538E+00  0.46115402292E+01  0.00000000000E+00 0.  1.
</event>
<event>
 7    1  0.2935819E-010  0.4778727E+02  0.7816164E-02  0.1312668E+00
        -11   -1    0    0    0    0  0.00000000000E+00  0.00000000000E+00  0.45593999997E+02  0.45594000000E+02  0.51100000000E-03 0.  1.
         11   -1    0    0    0    0 -0.00000000000E+00 -0.00000000000E+00 -0.45593999997E+02  0.45594000000E+02  0.51100000000E-03 0. -1.
    9900012    2    1    2    0    0 -0.25530291880E+02  0.18786271313E+02 -0.29646305826E+02  0.47787271406E+02  0.20000001649E+02 0.  0.
        -12    1    1    2    0    0  0.25530291880E+02 -0.18786271313E+02  0.29646305826E+02  0.43400728594E+02  0.00000000000E+00 0.  1.
         11    1    3    3    0    0 -0.71076370227E+01  0.18322132120E+01 -0.16355157604E+02  0.17926703261E+02  0.51100000000E-03 0. -1.
        -11    1    3    3    0    0  0.85291722377E+00 -0.14054086023E+00  0.12914772159E-01  0.86451522627E+00  0.51100000000E-03 0.  1.
         12    1    3    3    0    0 -0.19275572082E+02  0.17094598961E+02 -0.13304062994E+02  0.28996052919E+02  0.00000000000E+00 0. -1.
</event>
<event>
 7    1  0.2935819E-010  0.4778727E+02  0.7816164E-02  0.1312668E+00
        -11   -1    0    0    0    0  0.00000000000E+00  0.00000000000E+00  0.45593999997E+02  0.45594000000E+02  0.51100000000E-03 0. -1.
         11   -1    0    0    0    0 -0.00000000000E+00 -0.00000000000E+00 -0.45593999997E+02  0.45594000000E+02  0.51100000000E-03 0.  1.
    9900012    2    1    2    0    0 -0.23980074021E+02 -0.12435911597E+02  0.33969507955E+02  0.47787270536E+02  0.19999997680E+02 0.  0.
        -12    1    1    2    0    0  0.23980074021E+02  0.12435911597E+02 -0.33969507955E+02  0.43400729464E+02  0.00000000000E+00 0.  1.
         11    1    3    3    0    0 -0.52675096255E+00 -0.38018827346E+00  0.97349249021E+01  0.97565758753E+01  0.51100000000E-03 0. -1.
        -11    1    3    3    0    0 -0.21357061964E+02 -0.50273651292E+01  0.18941936154E+02  0.28986124981E+02  0.51100000000E-03 0.  1.
        -12    1    3    3    0    0 -0.20962610947E+01 -0.70283581944E+01  0.52926468998E+01  0.90445696797E+01  0.00000000000E+00 0.  1.
</event>
<event>
 7    1  0.2935819E-010  0.4778727E+02  0.7816164E-02  0.1312668E+00
        -11   -1    0    0    0    0  0.00000000000E+00  0.00000000000E+00  0.45593999997E+02  0.45594000000E+02  0.51100000000E-03 0.  1.
         11   -1    0    0    0    0 -0.00000000000E+00 -0.00000000000E+00 -0.45593999997E+02  0.45594000000E+02  0.51100000000E-03 0. -1.
    9900012    2    1    2    0    0  0.16812291307E+02  0.37391651447E+02 -0.14241999640E+02  0.47787270851E+02  0.19999999117E+02 0.  0.
        -12    1    1    2    0    0 -0.16812291307E+02 -0.37391651447E+02  0.14241999640E+02  0.43400729149E+02  0.00000000000E+00 0.  1.
         11    1    3    3    0    0  0.87519642679E+01  0.67071307074E+01 -0.12032521551E+01  0.11091902311E+02  0.51100000000E-03 0. -1.
        -11    1    3    3    0    0 -0.25105237195E+01  0.16031271440E+02 -0.65082892672E+01  0.17483198299E+02  0.51100000000E-03 0.  1.
        -12    1    3    3    0    0  0.10570850758E+02  0.14653249300E+02 -0.65304582181E+01  0.19212170240E+02  0.00000000000E+00 0.  1.
</event>
<event>
 7    1  0.2935819E-010  0.4778727E+02  0.7816164E-02  0.1312668E+00
        -11   -1    0    0    0    0  0.00000000000E+00  0.00000000000E+00  0.45593999997E+02  0.45594000000E+02  0.51100000000E-03 0.  1.
         11   -1    0    0    0    0 -0.00000000000E+00 -0.00000000000E+00 -0.45593999997E+02  0.45594000000E+02  0.51100000000E-03 0. -1.
    9900012    2    1    2    0    0 -0.18511243774E+02  0.36672080092E+02 -0.14004136360E+02  0.47787269136E+02  0.19999991300E+02 0.  0.
        -12    1    1    2    0    0  0.18511243774E+02 -0.36672080092E+02  0.14004136360E+02  0.43400730864E+02  0.00000000000E+00 0.  1.
         11    1    3    3    0    0 -0.54127575791E+01  0.15338900553E+02 -0.11299411387E+02  0.19805466739E+02  0.51100000000E-03 0. -1.
        -11    1    3    3    0    0 -0.67084224254E+01  0.46875262251E+01 -0.56024397165E+01  0.99178205562E+01  0.51100000000E-03 0.  1.
         12    1    3    3    0    0 -0.63900637700E+01  0.16645653314E+02  0.28977147442E+01  0.18063981841E+02  0.00000000000E+00 0. -1.
</event>
<event>
 7    1  0.2935819E-010  0.4778727E+02  0.7816164E-02  0.1312668E+00
        -11   -1    0    0    0    0  0.00000000000E+00  0.00000000000E+00  0.45593999997E+02  0.45594000000E+02  0.51100000000E-03 0.  1.
         11   -1    0    0    0    0 -0.00000000000E+00 -0.00000000000E+00 -0.45593999997E+02  0.45594000000E+02  0.51100000000E-03 0. -1.
    9900012    2    1    2    0    0  0.41024037490E+02 -0.12258057209E+02 -0.70987044098E+01  0.47787271632E+02  0.20000002680E+02 0.  0.
        -12    1    1    2    0    0 -0.41024037490E+02  0.12258057209E+02  0.70987044098E+01  0.43400728368E+02  0.00000000000E+00 0.  1.
         11    1    3    3    0    0  0.10875812258E+02 -0.48943025480E+01 -0.45343413086E+01  0.12759221805E+02  0.51100000000E-03 0. -1.
        -11    1    3    3    0    0  0.43584915945E+01 -0.94120779385E-01  0.55259503547E+01  0.70385677011E+01  0.51100000000E-03 0.  1.
        -12    1    3    3    0    0  0.25789733638E+02 -0.72696338819E+01 -0.80903134559E+01  0.27989482127E+02  0.00000000000E+00 0.  1.
</event>
<event>
 7    1  0.2935819E-010  0.4778728E+02  0.7816164E-02  0.1312668E+00
        -11   -1    0    0    0    0  0.00000000000E+00  0.00000000000E+00  0.45593999997E+02  0.45594000000E+02  0.51100000000E-03 0.  1.
         11   -1    0    0    0    0 -0.00000000000E+00 -0.00000000000E+00 -0.45593999997E+02  0.45594000000E+02  0.51100000000E-03 0. -1.
    9900012    2    1    2    0    0  0.21266994533E+02  0.43803129579E+01 -0.37578590420E+02  0.47787278162E+02  0.20000032452E+02 0.  0.
        -12    1    1    2    0    0 -0.21266994533E+02 -0.43803129579E+01  0.37578590420E+02  0.43400721838E+02  0.00000000000E+00 0.  1.
         11    1    3    3    0    0  0.10651140792E+02 -0.15963146080E+01 -0.31748806092E+02  0.33525836441E+02  0.51100000000E-03 0. -1.
        -11    1    3    3    0    0  0.37748819056E+01  0.40213298735E+01 -0.85873167538E+00  0.55819573363E+01  0.51100000000E-03 0.  1.
         12    1    3    3    0    0  0.68409718351E+01  0.19552976924E+01 -0.49710526528E+01  0.86794843851E+01  0.00000000000E+00 0. -1.
</event>
<event>
 7    1  0.2935819E-010  0.4778727E+02  0.7816164E-02  0.1312668E+00
        -11   -1    0    0    0    0  0.00000000000E+00  0.00000000000E+00  0.45593999997E+02  0.45594000000E+02  0.51100000000E-03 0.  1.
         11   -1    0    0    0    0 -0.00000000000E+00 -0.00000000000E+00 -0.45593999997E+02  0.45594000000E+02  0.51100000000E-03 0. -1.
    9900012    2    1    2    0    0 -0.38841006535E+02 -0.15678067505E+02  0.11366526854E+02  0.47787268185E+02  0.19999986963E+02 0.  0.
        -12    1    1    2    0    0  0.38841006535E+02  0.15678067505E+02 -0.11366526854E+02  0.43400731815E+02  0.00000000000E+00 0.  1.
         11    1    3    3    0    0 -0.26269970293E+02 -0.60315414655E+01  0.60098750673E+01  0.27615383941E+02  0.51100000000E-03 0. -1.
        -11    1    3    3    0    0 -0.13247811860E+02 -0.54429039553E+01  0.65514863718E+01  0.15749657028E+02  0.51100000000E-03 0.  1.
         12    1    3    3    0    0  0.67677561814E+00 -0.42036220843E+01 -0.11948345851E+01  0.44222272161E+01  0.00000000000E+00 0. -1.
</event>
<event>
 7    1  0.2935819E-010  0.4778727E+02  0.7816164E-02  0.1312668E+00
        -11   -1    0    0    0    0  0.00000000000E+00  0.00000000000E+00  0.45593999997E+02  0.45594000000E+02  0.51100000000E-03 0. -1.
         11   -1    0    0    0    0 -0.00000000000E+00 -0.00000000000E+00 -0.45593999997E+02  0.45594000000E+02  0.51100000000E-03 0.  1.
    9900012    2    1    2    0    0 -0.23301436659E+01  0.24287305446E+02  0.35893181595E+02  0.47787271200E+02  0.20000000710E+02 0.  0.
        -12    1    1    2    0    0  0.23301436659E+01 -0.24287305446E+02 -0.35893181595E+02  0.43400728800E+02  0.00000000000E+00 0.  1.
         11    1    3    3    0    0  0.29905300917E+01  0.18951478654E+02  0.21503647371E+02  0.28818547220E+02  0.51100000000E-03 0. -1.
        -11    1    3    3    0    0 -0.69343289667E+01  0.26527918770E+00  0.93160389805E+01  0.11616534501E+02  0.51100000000E-03 0.  1.
        -12    1    3    3    0    0  0.16136552091E+01  0.50705476039E+01  0.50734952443E+01  0.73521894788E+01  0.00000000000E+00 0.  1.
</event>
<event>
 7    1  0.2935819E-010  0.4778727E+02  0.7816164E-02  0.1312668E+00
        -11   -1    0    0    0    0  0.00000000000E+00  0.00000000000E+00  0.45593999997E+02  0.45594000000E+02  0.51100000000E-03 0.  1.
         11   -1    0    0    0    0 -0.00000000000E+00 -0.00000000000E+00 -0.45593999997E+02  0.45594000000E+02  0.51100000000E-03 0. -1.
    9900012    2    1    2    0    0 -0.26319970092E+02 -0.99443336765E+01 -0.33045311612E+02  0.47787271695E+02  0.20000002965E+02 0.  0.
        -12    1    1    2    0    0  0.26319970092E+02  0.99443336765E+01  0.33045311612E+02  0.43400728305E+02  0.00000000000E+00 0.  1.
         11    1    3    3    0    0 -0.23071392623E-01 -0.61991647111E+01 -0.38611148938E+01  0.73033132131E+01  0.51100000000E-03 0. -1.
        -11    1    3    3    0    0 -0.43697773328E+01 -0.38148403634E+01 -0.37715240318E+01  0.69189850932E+01  0.51100000000E-03 0.  1.
         12    1    3    3    0    0 -0.21927121367E+02  0.69671397947E-01 -0.25412672686E+02  0.33564973389E+02  0.00000000000E+00 0. -1.
</event>
<event>
 7    1  0.2935819E-010  0.4778727E+02  0.7816164E-02  0.1312668E+00
        -11   -1    0    0    0    0  0.00000000000E+00  0.00000000000E+00  0.45593999997E+02  0.45594000000E+02  0.51100000000E-03 0. -1.
         11   -1    0    0    0    0 -0.00000000000E+00 -0.00000000000E+00 -0.45593999997E+02  0.45594000000E+02  0.51100000000E-03 0.  1.
    9900012    2    1    2    0    0 -0.38186632696E+02 -0.12038568338E+02  0.16747463742E+02  0.47787267447E+02  0.19999983600E+02 0.  0.
        -12    1    1    2    0    0  0.38186632696E+02  0.12038568338E+02 -0.16747463742E+02  0.43400732553E+02  0.00000000000E+00 0.  1.
         11    1    3    3    0    0 -0.13968265033E+02 -0.10554922649E+01  0.92027777548E+01  0.16760596965E+02  0.51100000000E-03 0. -1.
        -11    1    3    3    0    0 -0.13195890675E+02 -0.59024812145E+01 -0.32126865971E+01  0.14808516827E+02  0.51100000000E-03 0.  1.
        -12    1    3    3    0    0 -0.11022476989E+02 -0.50805948587E+01  0.10757372584E+02  0.16218153655E+02  0.00000000000E+00 0.  1.
</event>
<event>
 7    1  0.2935819E-010  0.4778728E+02  0.7816164E-02  0.1312668E+00
        -11   -1    0    0    0    0  0.00000000000E+00  0.00000000000E+00  0.45593999997E+02  0.45594000000E+02  0.51100000000E-03 0. -1.
         11   -1    0    0    0    0 -0.00000000000E+00 -0.00000000000E+00 -0.45593999997E+02  0.45594000000E+02  0.51100000000E-03 0.  1.
    9900012    2    1    2    0    0 -0.30311107284E+02  0.27913752981E+02 -0.13626499535E+02  0.47787282036E+02  0.20000050115E+02 0.  0.
        -12    1    1    2    0    0  0.30311107284E+02 -0.27913752981E+02  0.13626499535E+02  0.43400717964E+02  0.00000000000E+00 0.  1.
         11    1    3    3    0    0 -0.27886765694E+02  0.21517877304E+02 -0.87143286086E+01  0.36285400203E+02  0.51100000000E-03 0. -1.
        -11    1    3    3    0    0  0.13586742146E+01 -0.59814231579E+00  0.82340862152E+00  0.16975782370E+01  0.51100000000E-03 0.  1.
        -12    1    3    3    0    0 -0.37830158045E+01  0.69940179921E+01 -0.57355795476E+01  0.98043035957E+01  0.00000000000E+00 0.  1.
</event>
<event>
 7    1  0.2935819E-010  0.4778727E+02  0.7816164E-02  0.1312668E+00
        -11   -1    0    0    0    0  0.00000000000E+00  0.00000000000E+00  0.45593999997E+02  0.45594000000E+02  0.51100000000E-03 0.  1.
         11   -1    0    0    0    0 -0.00000000000E+00 -0.00000000000E+00 -0.45593999997E+02  0.45594000000E+02  0.51100000000E-03 0. -1.
    9900012    2    1    2    0    0 -0.15855170283E+01 -0.42043231432E+02 -0.10652515600E+02  0.47787271181E+02  0.20000000621E+02 0.  0.
        -12    1    1    2    0    0  0.15855170283E+01  0.42043231432E+02  0.10652515600E+02  0.43400728819E+02  0.00000000000E+00 0.  1.
         11    1    3    3    0    0  0.43017806471E+01 -0.15945875547E+02  0.15466806954E+01  0.16588203192E+02  0.51100000000E-03 0. -1.
        -11    1    3    3    0    0 -0.80160802861E+01 -0.13782902789E+02 -0.46920948707E+01  0.16620520659E+02  0.51100000000E-03 0.  1.
        -12    1    3    3    0    0  0.21287826107E+01 -0.12314453095E+02 -0.75071014244E+01  0.14578547329E+02  0.00000000000E+00 0.  1.
</event>
<event>
 7    1  0.2935819E-010  0.4778728E+02  0.7816164E-02  0.1312668E+00
        -11   -1    0    0    0    0  0.00000000000E+00  0.00000000000E+00  0.45593999997E+02  0.45594000000E+02  0.51100000000E-03 0. -1.
         11   -1    0    0    0    0 -0.00000000000E+00 -0.00000000000E+00 -0.45593999997E+02  0.45594000000E+02  0.51100000000E-03 0.  1.
    9900012    2    1    2    0    0  0.24850037082E+02 -0.35581398929E+02  0.25010995423E+00  0.47787275954E+02  0.20000022384E+02 0.  0.
        -12    1    1    2    0    0 -0.24850037082E+02  0.35581398929E+02 -0.25010995423E+00  0.43400724046E+02  0.00000000000E+00 0.  1.
         11    1    3    3    0    0  0.12883939127E+02 -0.28396546721E+02  0.68889744479E+01  0.31934585050E+02  0.51100000000E-03 0. -1.
        -11    1    3    3    0    0  0.10309777392E+02 -0.67680398564E+01 -0.45288567650E+01  0.13138052262E+02  0.51100000000E-03 0.  1.
         12    1    3    3    0    0  0.16563205623E+01 -0.41681235205E+00 -0.21100077286E+01  0.27146386420E+01  0.00000000000E+00 0. -1.
</event>
<event>
 7    1  0.2935819E-010  0.4778727E+02  0.7816164E-02  0.1312668E+00
        -11   -1    0    0    0    0  0.00000000000E+00  0.00000000000E+00  0.45593999997E+02  0.45594000000E+02  0.51100000000E-03 0.  1.
         11   -1    0    0    0    0 -0.00000000000E+00 -0.00000000000E+00 -0.45593999997E+02  0.45594000000E+02  0.51100000000E-03 0. -1.
    9900012    2    1    2    0    0 -0.80636327081E+01  0.28704290110E+02 -0.31538305341E+02  0.47787272507E+02  0.20000006667E+02 0.  0.
        -12    1    1    2    0    0  0.80636327081E+01 -0.28704290110E+02  0.31538305341E+02  0.43400727493E+02  0.00000000000E+00 0.  1.
         11    1    3    3    0    0  0.54786400182E+01  0.96078002742E+01 -0.12725075072E+02  0.16859800070E+02  0.51100000000E-03 0. -1.
        -11    1    3    3    0    0 -0.91429175410E+01  0.12748181614E+02 -0.79194856084E+01  0.17573483667E+02  0.51100000000E-03 0.  1.
         12    1    3    3    0    0 -0.43993551853E+01  0.63483082213E+01 -0.10893744661E+02  0.13353988769E+02  0.00000000000E+00 0. -1.
</event>
<event>
 7    1  0.2935819E-010  0.4778727E+02  0.7816164E-02  0.1312668E+00
        -11   -1    0    0    0    0  0.00000000000E+00  0.00000000000E+00  0.45593999997E+02  0.45594000000E+02  0.51100000000E-03 0.  1.
         11   -1    0    0    0    0 -0.00000000000E+00 -0.00000000000E+00 -0.45593999997E+02  0.45594000000E+02  0.51100000000E-03 0. -1.
    9900012    2    1    2    0    0 -0.10453741074E+02  0.36117719547E+02 -0.21676101318E+02  0.47787265720E+02  0.19999975722E+02 0.  0.
        -12    1    1    2    0    0  0.10453741074E+02 -0.36117719547E+02  0.21676101318E+02  0.43400734280E+02  0.00000000000E+00 0.  1.
         11    1    3    3    0    0 -0.10222610831E+02  0.14356721957E+02 -0.58974649366E+01  0.18584868321E+02  0.51100000000E-03 0. -1.
        -11    1    3    3    0    0 -0.17545690000E+01  0.17991453437E+02 -0.17143907970E+02  0.24913540292E+02  0.51100000000E-03 0.  1.
        -12    1    3    3    0    0  0.15234387569E+01  0.37695441536E+01  0.13652715889E+01  0.42888571069E+01  0.00000000000E+00 0.  1.
</event>
<event>
 7    1  0.2935819E-010  0.4778730E+02  0.7816164E-02  0.1312668E+00
        -11   -1    0    0    0    0  0.00000000000E+00  0.00000000000E+00  0.45593999997E+02  0.45594000000E+02  0.51100000000E-03 0.  1.
         11   -1    0    0    0    0 -0.00000000000E+00 -0.00000000000E+00 -0.45593999997E+02  0.45594000000E+02  0.51100000000E-03 0. -1.
    9900012    2    1    2    0    0  0.78466667063E+01  0.18048419180E+01 -0.42647307009E+02  0.47787303832E+02  0.20000149493E+02 0.  0.
        -12    1    1    2    0    0 -0.78466667063E+01 -0.18048419180E+01  0.42647307009E+02  0.43400696168E+02  0.00000000000E+00 0.  1.
         11    1    3    3    0    0 -0.25965474281E+01  0.57489695075E+01 -0.19708628011E+02  0.20693543130E+02  0.51100000000E-03 0. -1.
        -11    1    3    3    0    0  0.28978193295E+01 -0.16267101411E+01 -0.16714636188E+02  0.17041789986E+02  0.51100000000E-03 0.  1.
         12    1    3    3    0    0  0.75453948049E+01 -0.23174174484E+01 -0.62240428090E+01  0.10051970716E+02  0.00000000000E+00 0. -1.
</event>
<event>
 7    1  0.2935819E-010  0.4778727E+02  0.7816164E-02  0.1312668E+00
        -11   -1    0    0    0    0  0.00000000000E+00  0.00000000000E+00  0.45593999997E+02  0.45594000000E+02  0.51100000000E-03 0. -1.
         11   -1    0    0    0    0 -0.00000000000E+00 -0.00000000000E+00 -0.45593999997E+02  0.45594000000E+02  0.51100000000E-03 0.  1.
    9900012    2    1    2    0    0 -0.40071842504E+02  0.16254789928E+02  0.36949139509E+01  0.47787272513E+02  0.20000006695E+02 0.  0.
        -12    1    1    2    0    0  0.40071842504E+02 -0.16254789928E+02 -0.36949139509E+01  0.43400727487E+02  0.00000000000E+00 0.  1.
         11    1    3    3    0    0 -0.98509482512E+01  0.47829398899E+01  0.10006961975E+02  0.14834317769E+02  0.51100000000E-03 0. -1.
        -11    1    3    3    0    0 -0.22977075451E+02  0.88826367547E+01 -0.52477807133E+01  0.25187029096E+02  0.51100000000E-03 0.  1.
         12    1    3    3    0    0 -0.72438188019E+01  0.25892132837E+01 -0.10642673104E+01  0.77659256480E+01  0.00000000000E+00 0. -1.
</event>
<event>
 7    1  0.2935819E-010  0.4778727E+02  0.7816164E-02  0.1312668E+00
        -11   -1    0    0    0    0  0.00000000000E+00  0.00000000000E+00  0.45593999997E+02  0.45594000000E+02  0.51100000000E-03 0. -1.
         11   -1    0    0    0    0 -0.00000000000E+00 -0.00000000000E+00 -0.45593999997E+02  0.45594000000E+02  0.51100000000E-03 0.  1.
    9900012    2    1    2    0    0  0.23779827564E+02 -0.20234462236E+02  0.30144806016E+02  0.47787274307E+02  0.20000014874E+02 0.  0.
        -12    1    1    2    0    0 -0.23779827564E+02  0.20234462236E+02 -0.30144806016E+02  0.43400725693E+02  0.00000000000E+00 0.  1.
         11    1    3    3    0    0 -0.10616780531E+00 -0.12746640860E+00  0.10729074725E+02  0.10730357124E+02  0.51100000000E-03 0.  1.
        -11    1    3    3    0    0  0.21141343340E+02 -0.17960494267E+02  0.18819918322E+02  0.33522008867E+02  0.51100000000E-03 0. -1.
        -12    1    3    3    0    0  0.27446520301E+01 -0.21465015598E+01  0.59581296855E+00  0.35349083165E+01  0.00000000000E+00 0.  1.
</event>
<event>
 7    1  0.2935819E-010  0.4778727E+02  0.7816164E-02  0.1312668E+00
        -11   -1    0    0    0    0  0.00000000000E+00  0.00000000000E+00  0.45593999997E+02  0.45594000000E+02  0.51100000000E-03 0. -1.
         11   -1    0    0    0    0 -0.00000000000E+00 -0.00000000000E+00 -0.45593999997E+02  0.45594000000E+02  0.51100000000E-03 0.  1.
    9900012    2    1    2    0    0 -0.53471063905E+00  0.41086518673E+02 -0.13972661653E+02  0.47787271828E+02  0.20000003575E+02 0.  0.
        -12    1    1    2    0    0  0.53471063905E+00 -0.41086518673E+02  0.13972661653E+02  0.43400728172E+02  0.00000000000E+00 0.  1.
         11    1    3    3    0    0  0.80317920800E+00  0.37134198001E+01  0.93387030271E+00  0.39123774684E+01  0.51100000000E-03 0. -1.
        -11    1    3    3    0    0 -0.33600557052E+01  0.94935521942E+01  0.32039643900E+01  0.10568012854E+02  0.51100000000E-03 0.  1.
        -12    1    3    3    0    0  0.20221658581E+01  0.27879546679E+02 -0.18110496346E+02  0.33306881506E+02  0.00000000000E+00 0.  1.
</event>
<event>
 7    1  0.2935819E-010  0.4778727E+02  0.7816164E-02  0.1312668E+00
        -11   -1    0    0    0    0  0.00000000000E+00  0.00000000000E+00  0.45593999997E+02  0.45594000000E+02  0.51100000000E-03 0.  1.
         11   -1    0    0    0    0 -0.00000000000E+00 -0.00000000000E+00 -0.45593999997E+02  0.45594000000E+02  0.51100000000E-03 0. -1.
    9900012    2    1    2    0    0  0.48061823411E+01  0.26587061715E+02 -0.33965451566E+02  0.47787272593E+02  0.20000007060E+02 0.  0.
        -12    1    1    2    0    0 -0.48061823411E+01 -0.26587061715E+02  0.33965451566E+02  0.43400727407E+02  0.00000000000E+00 0.  1.
         11    1    3    3    0    0  0.80319232530E+01  0.21658208201E+02 -0.24484423481E+02  0.33661205668E+02  0.51100000000E-03 0. -1.
        -11    1    3    3    0    0 -0.58610185677E+01  0.35862168614E+01 -0.41432004420E+01  0.80236276204E+01  0.51100000000E-03 0.  1.
         12    1    3    3    0    0  0.26352776558E+01  0.13426366532E+01 -0.53378276439E+01  0.61024393042E+01  0.00000000000E+00 0. -1.
</event>
<event>
 7    1  0.2935819E-010  0.4778727E+02  0.7816164E-02  0.1312668E+00
        -11   -1    0    0    0    0  0.00000000000E+00  0.00000000000E+00  0.45593999997E+02  0.45594000000E+02  0.51100000000E-03 0.  1.
         11   -1    0    0    0    0 -0.00000000000E+00 -0.00000000000E+00 -0.45593999997E+02  0.45594000000E+02  0.51100000000E-03 0. -1.
    9900012    2    1    2    0    0 -0.33987608101E+00  0.28574921704E+01 -0.43305227424E+02  0.47787268445E+02  0.19999988148E+02 0.  0.
        -12    1    1    2    0    0  0.33987608101E+00 -0.28574921704E+01  0.43305227424E+02  0.43400731555E+02  0.00000000000E+00 0.  1.
         11    1    3    3    0    0 -0.56218786263E+01  0.63826365190E+01 -0.12877036682E+02  0.15432486585E+02  0.51100000000E-03 0. -1.
        -11    1    3    3    0    0  0.14800977674E+01  0.90352778556E+00 -0.42000145532E+00  0.17842234568E+01  0.51100000000E-03 0.  1.
         12    1    3    3    0    0  0.38019047780E+01 -0.44286721342E+01 -0.30008189287E+02  0.30570558403E+02  0.00000000000E+00 0. -1.
</event>
<event>
 7    1  0.2935819E-010  0.4778728E+02  0.7816164E-02  0.1312668E+00
        -11   -1    0    0    0    0  0.00000000000E+00  0.00000000000E+00  0.45593999997E+02  0.45594000000E+02  0.51100000000E-03 0.  1.
         11   -1    0    0    0    0 -0.00000000000E+00 -0.00000000000E+00 -0.45593999997E+02  0.45594000000E+02  0.51100000000E-03 0. -1.
    9900012    2    1    2    0    0  0.12277326833E+01 -0.12910531655E+02 -0.41417788734E+02  0.47787281356E+02  0.20000047015E+02 0.  0.
        -12    1    1    2    0    0 -0.12277326833E+01  0.12910531655E+02  0.41417788734E+02  0.43400718644E+02  0.00000000000E+00 0.  1.
         11    1    3    3    0    0 -0.39005853004E+01 -0.49118908259E+01 -0.13670602980E+02  0.15040831867E+02  0.51100000000E-03 0. -1.
        -11    1    3    3    0    0  0.56521254392E+01 -0.11003640961E+02 -0.14076757553E+02  0.18739843645E+02  0.51100000000E-03 0.  1.
        -12    1    3    3    0    0 -0.52380745554E+00  0.30050001321E+01 -0.13670428202E+02  0.14006605844E+02  0.00000000000E+00 0.  1.
</event>
<event>
 7    1  0.2935819E-010  0.4778728E+02  0.7816164E-02  0.1312668E+00
        -11   -1    0    0    0    0  0.00000000000E+00  0.00000000000E+00  0.45593999997E+02  0.45594000000E+02  0.51100000000E-03 0.  1.
         11   -1    0    0    0    0 -0.00000000000E+00 -0.00000000000E+00 -0.45593999997E+02  0.45594000000E+02  0.51100000000E-03 0. -1.
    9900012    2    1    2    0    0  0.61929188208E+01  0.35940284329E+02 -0.23527993533E+02  0.47787276954E+02  0.20000026945E+02 0.  0.
        -12    1    1    2    0    0 -0.61929188208E+01 -0.35940284329E+02  0.23527993533E+02  0.43400723046E+02  0.00000000000E+00 0.  1.
         11    1    3    3    0    0  0.14448726365E+01 -0.14921892464E+01 -0.52365888828E+00  0.21420794978E+01  0.51100000000E-03 0.  1.
        -11    1    3    3    0    0  0.51057001844E+01  0.37914940460E+02 -0.21189021821E+02  0.43733117090E+02  0.51100000000E-03 0. -1.
         12    1    3    3    0    0 -0.35765400013E+00 -0.48246688411E+00 -0.18153128238E+01  0.19120803660E+01  0.00000000000E+00 0. -1.
</event>
<event>
 7    1  0.2935819E-010  0.4778727E+02  0.7816164E-02  0.1312668E+00
        -11   -1    0    0    0    0  0.00000000000E+00  0.00000000000E+00  0.45593999997E+02  0.45594000000E+02  0.51100000000E-03 0. -1.
         11   -1    0    0    0    0 -0.00000000000E+00 -0.00000000000E+00 -0.45593999997E+02  0.45594000000E+02  0.51100000000E-03 0.  1.
    9900012    2    1    2    0    0 -0.36754553141E+02 -0.11011179255E+02  0.20284974194E+02  0.47787269324E+02  0.19999992157E+02 0.  0.
        -12    1    1    2    0    0  0.36754553141E+02  0.11011179255E+02 -0.20284974194E+02  0.43400730676E+02  0.00000000000E+00 0.  1.
         11    1    3    3    0    0 -0.17199473008E+02  0.59916332886E+00  0.14169127468E+02  0.22292264172E+02  0.51100000000E-03 0. -1.
        -11    1    3    3    0    0 -0.20278633529E+02 -0.10476155182E+02  0.70130640762E+01  0.23877936955E+02  0.51100000000E-03 0.  1.
        -12    1    3    3    0    0  0.72355339672E+00 -0.11341874019E+01 -0.89721735074E+00  0.16170681974E+01  0.00000000000E+00 0.  1.
</event>
<event>
 7    1  0.2935819E-010  0.4778729E+02  0.7816164E-02  0.1312668E+00
        -11   -1    0    0    0    0  0.00000000000E+00  0.00000000000E+00  0.45593999997E+02  0.45594000000E+02  0.51100000000E-03 0.  1.
         11   -1    0    0    0    0 -0.00000000000E+00 -0.00000000000E+00 -0.45593999997E+02  0.45594000000E+02  0.51100000000E-03 0. -1.
    9900012    2    1    2    0    0  0.53607677879E+01  0.21805093038E+02 -0.37140568624E+02  0.47787288584E+02  0.20000079971E+02 0.  0.
        -12    1    1    2    0    0 -0.53607677879E+01 -0.21805093038E+02  0.37140568624E+02  0.43400711416E+02  0.00000000000E+00 0.  1.
         11    1    3    3    0    0  0.60109994804E+01  0.11956131946E+02 -0.29357625939E+02  0.32263778559E+02  0.51100000000E-03 0. -1.
        -11    1    3    3    0    0  0.11170729627E+01  0.89103335555E+00  0.17926699363E+01  0.22924786163E+01  0.51100000000E-03 0.  1.
        -12    1    3    3    0    0 -0.17673046551E+01  0.89579277361E+01 -0.95756126212E+01  0.13231031409E+02  0.00000000000E+00 0.  1.
</event>
<event>
 7    1  0.2935819E-010  0.4778728E+02  0.7816164E-02  0.1312668E+00
        -11   -1    0    0    0    0  0.00000000000E+00  0.00000000000E+00  0.45593999997E+02  0.45594000000E+02  0.51100000000E-03 0. -1.
         11   -1    0    0    0    0 -0.00000000000E+00 -0.00000000000E+00 -0.45593999997E+02  0.45594000000E+02  0.51100000000E-03 0.  1.
    9900012    2    1    2    0    0 -0.14672904316E+02  0.65175090756E+01  0.40321840873E+02  0.47787275386E+02  0.20000019796E+02 0.  0.
        -12    1    1    2    0    0  0.14672904316E+02 -0.65175090756E+01 -0.40321840873E+02  0.43400724614E+02  0.00000000000E+00 0.  1.
         11    1    3    3    0    0  0.46409147436E+00 -0.20498546595E+01  0.16169329740E+02  0.16305352174E+02  0.51100000000E-03 0. -1.
        -11    1    3    3    0    0 -0.62062363551E+00 -0.16491620187E+01  0.36221222572E+00  0.17989182912E+01  0.51100000000E-03 0.  1.
         12    1    3    3    0    0 -0.14516372155E+02  0.10216525754E+02  0.23790298907E+02  0.29683004920E+02  0.00000000000E+00 0. -1.
</event>
<event>
 7    1  0.2935819E-010  0.4778727E+02  0.7816164E-02  0.1312668E+00
        -11   -1    0    0    0    0  0.00000000000E+00  0.00000000000E+00  0.45593999997E+02  0.45594000000E+02  0.51100000000E-03 0.  1.
         11   -1    0    0    0    0 -0.00000000000E+00 -0.00000000000E+00 -0.45593999997E+02  0.45594000000E+02  0.51100000000E-03 0. -1.
    9900012    2    1    2    0    0 -0.36493054467E+02 -0.55491916140E+00 -0.23485578083E+02  0.47787270311E+02  0.19999996656E+02 0.  0.
        -12    1    1    2    0    0  0.36493054467E+02  0.55491916140E+00  0.23485578083E+02  0.43400729689E+02  0.00000000000E+00 0.  1.
         11    1    3    3    0    0 -0.22709196296E+02  0.48324473919E+01 -0.10023830476E+02  0.25289075149E+02  0.51100000000E-03 0. -1.
        -11    1    3    3    0    0  0.11258168519E+01 -0.25641066888E+01 -0.15064867098E+01  0.31798756522E+01  0.51100000000E-03 0.  1.
         12    1    3    3    0    0 -0.14909675023E+02 -0.28232598646E+01 -0.11955260898E+02  0.19318319510E+02  0.00000000000E+00 0. -1.
</event>
<event>
 7    1  0.2935819E-010  0.4778728E+02  0.7816164E-02  0.1312668E+00
        -11   -1    0    0    0    0  0.00000000000E+00  0.00000000000E+00  0.45593999997E+02  0.45594000000E+02  0.51100000000E-03 0.  1.
         11   -1    0    0    0    0 -0.00000000000E+00 -0.00000000000E+00 -0.45593999997E+02  0.45594000000E+02  0.51100000000E-03 0. -1.
    9900012    2    1    2    0    0 -0.42325430942E+02 -0.29277517413E+01  0.91437834482E+01  0.47787278687E+02  0.20000034847E+02 0.  0.
        -12    1    1    2    0    0  0.42325430942E+02  0.29277517413E+01 -0.91437834482E+01  0.43400721313E+02  0.00000000000E+00 0.  1.
         11    1    3    3    0    0 -0.15014550733E+02  0.24993005863E+01 -0.56492834748E+01  0.16235690351E+02  0.51100000000E-03 0. -1.
        -11    1    3    3    0    0 -0.21600044022E+02 -0.47527429064E+01  0.11872811648E+02  0.25102074089E+02  0.51100000000E-03 0.  1.
         12    1    3    3    0    0 -0.57108361878E+01 -0.67430942122E+00  0.29202552751E+01  0.64495142477E+01  0.00000000000E+00 0. -1.
</event>
<event>
 7    1  0.2935819E-010  0.4778727E+02  0.7816164E-02  0.1312668E+00
        -11   -1    0    0    0    0  0.00000000000E+00  0.00000000000E+00  0.45593999997E+02  0.45594000000E+02  0.51100000000E-03 0.  1.
         11   -1    0    0    0    0 -0.00000000000E+00 -0.00000000000E+00 -0.45593999997E+02  0.45594000000E+02  0.51100000000E-03 0. -1.
    9900012    2    1    2    0    0 -0.41564004036E+02  0.49957526413E+01 -0.11449864011E+02  0.47787270031E+02  0.19999995379E+02 0.  0.
        -12    1    1    2    0    0  0.41564004036E+02 -0.49957526413E+01  0.11449864011E+02  0.43400729969E+02  0.00000000000E+00 0.  1.
         11    1    3    3    0    0 -0.13379879574E+02  0.94044160343E+01 -0.82041499761E+01  0.18296783746E+02  0.51100000000E-03 0. -1.
        -11    1    3    3    0    0 -0.19182891579E+02 -0.33211226528E+01 -0.53353336815E+01  0.20186108361E+02  0.51100000000E-03 0.  1.
        -12    1    3    3    0    0 -0.90012328837E+01 -0.10875407402E+01  0.20896196466E+01  0.93043779242E+01  0.00000000000E+00 0.  1.
</event>
<event>
 7    1  0.2935819E-010  0.4778727E+02  0.7816164E-02  0.1312668E+00
        -11   -1    0    0    0    0  0.00000000000E+00  0.00000000000E+00  0.45593999997E+02  0.45594000000E+02  0.51100000000E-03 0.  1.
         11   -1    0    0    0    0 -0.00000000000E+00 -0.00000000000E+00 -0.45593999997E+02  0.45594000000E+02  0.51100000000E-03 0. -1.
    9900012    2    1    2    0    0  0.73370650776E+01 -0.33872359247E+02 -0.26123823453E+02  0.47787269629E+02  0.19999993546E+02 0.  0.
        -12    1    1    2    0    0 -0.73370650776E+01  0.33872359247E+02  0.26123823453E+02  0.43400730371E+02  0.00000000000E+00 0.  1.
         11    1    3    3    0    0  0.71218366804E+01 -0.41919373741E+01 -0.24574672275E+01  0.86216032201E+01  0.51100000000E-03 0. -1.
        -11    1    3    3    0    0 -0.15325707821E+01 -0.93169606699E+00 -0.37247737574E+01  0.41340985194E+01  0.51100000000E-03 0.  1.
         12    1    3    3    0    0  0.17477991793E+01 -0.28748725806E+02 -0.19941582469E+02  0.35031567889E+02  0.00000000000E+00 0. -1.
</event>
<event>
 7    1  0.2935819E-010  0.4778727E+02  0.7816164E-02  0.1312668E+00
        -11   -1    0    0    0    0  0.00000000000E+00  0.00000000000E+00  0.45593999997E+02  0.45594000000E+02  0.51100000000E-03 0. -1.
         11   -1    0    0    0    0 -0.00000000000E+00 -0.00000000000E+00 -0.45593999997E+02  0.45594000000E+02  0.51100000000E-03 0.  1.
    9900012    2    1    2    0    0 -0.19356830322E+02  0.38698717710E+02  0.33682970988E+01  0.47787273533E+02  0.20000011347E+02 0.  0.
        -12    1    1    2    0    0  0.19356830322E+02 -0.38698717710E+02 -0.33682970988E+01  0.43400726467E+02  0.00000000000E+00 0.  1.
         11    1    3    3    0    0  0.19926989431E+01  0.18480648462E+01  0.23837080606E+01  0.36150044444E+01  0.51100000000E-03 0. -1.
        -11    1    3    3    0    0 -0.20212029156E+02  0.30123053189E+02 -0.27755280535E+01  0.36381698864E+02  0.51100000000E-03 0.  1.
        -12    1    3    3    0    0 -0.11375001094E+01  0.67275996745E+01  0.37601170917E+01  0.77905702245E+01  0.00000000000E+00 0.  1.
</event>
<event>
 7    1  0.2935819E-010  0.4778728E+02  0.7816164E-02  0.1312668E+00
        -11   -1    0    0    0    0  0.00000000000E+00  0.00000000000E+00  0.45593999997E+02  0.45594000000E+02  0.51100000000E-03 0. -1.
         11   -1    0    0    0    0 -0.00000000000E+00 -0.00000000000E+00 -0.45593999997E+02  0.45594000000E+02  0.51100000000E-03 0.  1.
    9900012    2    1    2    0    0 -0.82787819407E+01 -0.41804083945E+02  0.82160361166E+01  0.47787275186E+02  0.20000018885E+02 0.  0.
        -12    1    1    2    0    0  0.82787819407E+01  0.41804083945E+02 -0.82160361166E+01  0.43400724814E+02  0.00000000000E+00 0.  1.
         11    1    3    3    0    0 -0.12018443969E+01 -0.35381785592E+02  0.26711300635E+01  0.35502818447E+02  0.51100000000E-03 0. -1.
        -11    1    3    3    0    0 -0.36932576251E+01 -0.42633853122E+01  0.60117486403E+01  0.82436477472E+01  0.51100000000E-03 0.  1.
         12    1    3    3    0    0 -0.33836799187E+01 -0.21589130408E+01 -0.46684258721E+00  0.40408089922E+01  0.00000000000E+00 0. -1.
</event>
<event>
 7    1  0.2935819E-010  0.4778727E+02  0.7816164E-02  0.1312668E+00
        -11   -1    0    0    0    0  0.00000000000E+00  0.00000000000E+00  0.45593999997E+02  0.45594000000E+02  0.51100000000E-03 0. -1.
         11   -1    0    0    0    0 -0.00000000000E+00 -0.00000000000E+00 -0.45593999997E+02  0.45594000000E+02  0.51100000000E-03 0.  1.
    9900012    2    1    2    0    0 -0.15249382417E+02  0.34236702618E+02  0.21884418007E+02  0.47787271644E+02  0.20000002736E+02 0.  0.
        -12    1    1    2    0    0  0.15249382417E+02 -0.34236702618E+02 -0.21884418007E+02  0.43400728356E+02  0.00000000000E+00 0.  1.
         11    1    3    3    0    0 -0.11895825027E+02  0.26651755893E+02  0.93593049388E+01  0.30650013612E+02  0.51100000000E-03 0. -1.
        -11    1    3    3    0    0  0.35705171950E+00  0.78946366156E+01  0.93625206766E+01  0.12251920948E+02  0.51100000000E-03 0.  1.
         12    1    3    3    0    0 -0.37106091096E+01 -0.30968989006E+00  0.31625923920E+01  0.48853370846E+01  0.00000000000E+00 0. -1.
</event>
<event>
 7    1  0.2935819E-010  0.4778727E+02  0.7816164E-02  0.1312668E+00
        -11   -1    0    0    0    0  0.00000000000E+00  0.00000000000E+00  0.45593999997E+02  0.45594000000E+02  0.51100000000E-03 0.  1.
         11   -1    0    0    0    0 -0.00000000000E+00 -0.00000000000E+00 -0.45593999997E+02  0.45594000000E+02  0.51100000000E-03 0. -1.
    9900012    2    1    2    0    0  0.54729105287E+01 -0.34836637233E+02 -0.25299785474E+02  0.47787272029E+02  0.20000004488E+02 0.  0.
        -12    1    1    2    0    0 -0.54729105287E+01  0.34836637233E+02  0.25299785474E+02  0.43400727971E+02  0.00000000000E+00 0.  1.
         11    1    3    3    0    0  0.12710792978E+01 -0.31743910211E+02 -0.21423762797E+02  0.38317999565E+02  0.51100000000E-03 0. -1.
        -11    1    3    3    0    0 -0.12997881826E+01  0.28737284645E-01  0.86736179795E+00  0.15628793622E+01  0.51100000000E-03 0.  1.
         12    1    3    3    0    0  0.55016194135E+01 -0.31214643075E+01 -0.47433844748E+01  0.79063931012E+01  0.00000000000E+00 0. -1.
</event>
<event>
 7    1  0.2935819E-010  0.4778727E+02  0.7816164E-02  0.1312668E+00
        -11   -1    0    0    0    0  0.00000000000E+00  0.00000000000E+00  0.45593999997E+02  0.45594000000E+02  0.51100000000E-03 0.  1.
         11   -1    0    0    0    0 -0.00000000000E+00 -0.00000000000E+00 -0.45593999997E+02  0.45594000000E+02  0.51100000000E-03 0. -1.
    9900012    2    1    2    0    0 -0.29687786741E+02  0.21884541374E+02 -0.22876313401E+02  0.47787267892E+02  0.19999985626E+02 0.  0.
        -12    1    1    2    0    0  0.29687786741E+02 -0.21884541374E+02  0.22876313401E+02  0.43400732108E+02  0.00000000000E+00 0.  1.
         11    1    3    3    0    0 -0.17765008141E+02  0.13907294192E+02 -0.19500302158E+02  0.29820632630E+02  0.51100000000E-03 0. -1.
        -11    1    3    3    0    0 -0.40305929882E+01 -0.28238849187E+00 -0.49992163308E+01  0.64278757984E+01  0.51100000000E-03 0.  1.
         12    1    3    3    0    0 -0.78921856117E+01  0.82596356737E+01  0.16232050869E+01  0.11538759463E+02  0.00000000000E+00 0. -1.
</event>
<event>
 7    1  0.2935819E-010  0.4778727E+02  0.7816164E-02  0.1312668E+00
        -11   -1    0    0    0    0  0.00000000000E+00  0.00000000000E+00  0.45593999997E+02  0.45594000000E+02  0.51100000000E-03 0.  1.
         11   -1    0    0    0    0 -0.00000000000E+00 -0.00000000000E+00 -0.45593999997E+02  0.45594000000E+02  0.51100000000E-03 0. -1.
    9900012    2    1    2    0    0 -0.17860649043E+02 -0.27706434030E+02 -0.28230734485E+02  0.47787266821E+02  0.19999980744E+02 0.  0.
        -12    1    1    2    0    0  0.17860649043E+02  0.27706434030E+02  0.28230734485E+02  0.43400733179E+02  0.00000000000E+00 0.  1.
         11    1    3    3    0    0  0.16769548250E+01  0.76388334447E+00 -0.18217076312E+01  0.25911993755E+01  0.51100000000E-03 0.  1.
        -11    1    3    3    0    0 -0.13641766031E+02 -0.25936808436E+02 -0.17227095204E+02  0.33993949781E+02  0.51100000000E-03 0. -1.
        -12    1    3    3    0    0 -0.58958378373E+01 -0.25335089387E+01 -0.91819316504E+01  0.11202117665E+02  0.00000000000E+00 0.  1.
</event>
<event>
 7    1  0.2935819E-010  0.4778727E+02  0.7816164E-02  0.1312668E+00
        -11   -1    0    0    0    0  0.00000000000E+00  0.00000000000E+00  0.45593999997E+02  0.45594000000E+02  0.51100000000E-03 0.  1.
         11   -1    0    0    0    0 -0.00000000000E+00 -0.00000000000E+00 -0.45593999997E+02  0.45594000000E+02  0.51100000000E-03 0. -1.
    9900012    2    1    2    0    0 -0.39737527925E+02  0.34094308862E+01 -0.17115133358E+02  0.47787272651E+02  0.20000007324E+02 0.  0.
        -12    1    1    2    0    0  0.39737527925E+02 -0.34094308862E+01  0.17115133358E+02  0.43400727349E+02  0.00000000000E+00 0.  1.
         11    1    3    3    0    0 -0.20207561444E+02 -0.56021356522E+01 -0.97409071552E+01  0.23121737302E+02  0.51100000000E-03 0. -1.
        -11    1    3    3    0    0 -0.44445578468E+01  0.69132242035E+01 -0.36103034882E+01  0.89766950978E+01  0.51100000000E-03 0.  1.
        -12    1    3    3    0    0 -0.15085408635E+02  0.20983423349E+01 -0.37639227144E+01  0.15688840251E+02  0.00000000000E+00 0.  1.
</event>
<event>
 7    1  0.2935819E-010  0.4778727E+02  0.7816164E-02  0.1312668E+00
        -11   -1    0    0    0    0  0.00000000000E+00  0.00000000000E+00  0.45593999997E+02  0.45594000000E+02  0.51100000000E-03 0.  1.
         11   -1    0    0    0    0 -0.00000000000E+00 -0.00000000000E+00 -0.45593999997E+02  0.45594000000E+02  0.51100000000E-03 0. -1.
    9900012    2    1    2    0    0  0.90991062175E+01 -0.91101992708E+01 -0.41446760246E+02  0.47787269596E+02  0.19999993396E+02 0.  0.
        -12    1    1    2    0    0 -0.90991062175E+01  0.91101992708E+01  0.41446760246E+02  0.43400730404E+02  0.00000000000E+00 0.  1.
         11    1    3    3    0    0  0.30142261763E+01 -0.76868113462E+00 -0.10090041342E+02  0.10558663016E+02  0.51100000000E-03 0.  1.
        -11    1    3    3    0    0  0.59710638042E+01 -0.27359976277E+01 -0.30914499372E+02  0.31604517995E+02  0.51100000000E-03 0. -1.
        -12    1    3    3    0    0  0.11381623690E+00 -0.56055205085E+01 -0.44221953135E+00  0.56240885858E+01  0.00000000000E+00 0.  1.
</event>
<event>
 7    1  0.2935819E-010  0.4778727E+02  0.7816164E-02  0.1312668E+00
        -11   -1    0    0    0    0  0.00000000000E+00  0.00000000000E+00  0.45593999997E+02  0.45594000000E+02  0.51100000000E-03 0.  1.
         11   -1    0    0    0    0 -0.00000000000E+00 -0.00000000000E+00 -0.45593999997E+02  0.45594000000E+02  0.51100000000E-03 0. -1.
    9900012    2    1    2    0    0  0.11340493327E+02 -0.37331220989E+02 -0.19010433338E+02  0.47787269302E+02  0.19999992055E+02 0.  0.
        -12    1    1    2    0    0 -0.11340493327E+02  0.37331220989E+02  0.19010433338E+02  0.43400730698E+02  0.00000000000E+00 0.  1.
         11    1    3    3    0    0  0.51334562406E+01 -0.14524649716E+02 -0.11441363502E+02  0.19189127687E+02  0.51100000000E-03 0. -1.
        -11    1    3    3    0    0 -0.32912176871E+01 -0.64777740094E+00 -0.18083179442E+01  0.38107405414E+01  0.51100000000E-03 0.  1.
        -12    1    3    3    0    0  0.94982547736E+01 -0.22158793872E+02 -0.57607518920E+01  0.24787401073E+02  0.00000000000E+00 0.  1.
</event>
<event>
 7    1  0.2935819E-010  0.4778727E+02  0.7816164E-02  0.1312668E+00
        -11   -1    0    0    0    0  0.00000000000E+00  0.00000000000E+00  0.45593999997E+02  0.45594000000E+02  0.51100000000E-03 0.  1.
         11   -1    0    0    0    0 -0.00000000000E+00 -0.00000000000E+00 -0.45593999997E+02  0.45594000000E+02  0.51100000000E-03 0. -1.
    9900012    2    1    2    0    0 -0.17199257881E+02  0.11572713122E+02 -0.38129792955E+02  0.47787271072E+02  0.20000000127E+02 0.  0.
        -12    1    1    2    0    0  0.17199257881E+02 -0.11572713122E+02  0.38129792955E+02  0.43400728928E+02  0.00000000000E+00 0.  1.
         11    1    3    3    0    0 -0.11490297173E+02  0.56235239159E+01 -0.37218267724E+02  0.39355436765E+02  0.51100000000E-03 0. -1.
        -11    1    3    3    0    0 -0.40851078199E+01  0.50449443975E+01 -0.10147135224E+01  0.65703282770E+01  0.51100000000E-03 0.  1.
         12    1    3    3    0    0 -0.16238528887E+01  0.90424480865E+00  0.10318829121E+00  0.18615060305E+01  0.00000000000E+00 0. -1.
</event>
<event>
 7    1  0.2935819E-010  0.4778727E+02  0.7816164E-02  0.1312668E+00
        -11   -1    0    0    0    0  0.00000000000E+00  0.00000000000E+00  0.45593999997E+02  0.45594000000E+02  0.51100000000E-03 0. -1.
         11   -1    0    0    0    0 -0.00000000000E+00 -0.00000000000E+00 -0.45593999997E+02  0.45594000000E+02  0.51100000000E-03 0.  1.
    9900012    2    1    2    0    0 -0.39525586455E+02  0.17102504369E+02 -0.53717536190E+01  0.47787269854E+02  0.19999994571E+02 0.  0.
        -12    1    1    2    0    0  0.39525586455E+02 -0.17102504369E+02  0.53717536190E+01  0.43400730146E+02  0.00000000000E+00 0.  1.
         11    1    3    3    0    0 -0.24569337463E+02  0.82908941224E+01 -0.10776118197E+02  0.28080526925E+02  0.51100000000E-03 0. -1.
        -11    1    3    3    0    0 -0.66189621432E+01  0.63834930003E+01  0.60367294673E+01  0.11000079348E+02  0.51100000000E-03 0.  1.
        -12    1    3    3    0    0 -0.83372868488E+01  0.24281172460E+01 -0.63236488885E+00  0.87066635809E+01  0.00000000000E+00 0.  1.
</event>
<event>
 7    1  0.2935819E-010  0.4778727E+02  0.7816164E-02  0.1312668E+00
        -11   -1    0    0    0    0  0.00000000000E+00  0.00000000000E+00  0.45593999997E+02  0.45594000000E+02  0.51100000000E-03 0.  1.
         11   -1    0    0    0    0 -0.00000000000E+00 -0.00000000000E+00 -0.45593999997E+02  0.45594000000E+02  0.51100000000E-03 0. -1.
    9900012    2    1    2    0    0  0.15352675608E+02  0.37971745139E+02  0.14354974318E+02  0.47787269996E+02  0.19999995219E+02 0.  0.
        -12    1    1    2    0    0 -0.15352675608E+02 -0.37971745139E+02 -0.14354974318E+02  0.43400730004E+02  0.00000000000E+00 0.  1.
         11    1    3    3    0    0 -0.11704083089E+01  0.55533492209E-01  0.42287219412E+01  0.43880552749E+01  0.51100000000E-03 0. -1.
        -11    1    3    3    0    0  0.90294560820E+00  0.49866455671E+01 -0.12479817164E+01  0.52191381864E+01  0.51100000000E-03 0.  1.
         12    1    3    3    0    0  0.15620138308E+02  0.32929566080E+02  0.11374234093E+02  0.38180076535E+02  0.00000000000E+00 0. -1.
</event>
<event>
 7    1  0.2935819E-010  0.4778727E+02  0.7816164E-02  0.1312668E+00
        -11   -1    0    0    0    0  0.00000000000E+00  0.00000000000E+00  0.45593999997E+02  0.45594000000E+02  0.51100000000E-03 0.  1.
         11   -1    0    0    0    0 -0.00000000000E+00 -0.00000000000E+00 -0.45593999997E+02  0.45594000000E+02  0.51100000000E-03 0. -1.
    9900012    2    1    2    0    0 -0.41692245658E+02 -0.40448244584E+01 -0.11358662743E+02  0.47787272215E+02  0.20000005339E+02 0.  0.
        -12    1    1    2    0    0  0.41692245658E+02  0.40448244584E+01  0.11358662743E+02  0.43400727785E+02  0.00000000000E+00 0.  1.
         11    1    3    3    0    0 -0.36363430590E+00  0.32558204199E+01  0.11726086451E+01  0.34795988002E+01  0.51100000000E-03 0. -1.
        -11    1    3    3    0    0 -0.22560618134E+01  0.29006169849E+00  0.67212729989E+00  0.23718570916E+01  0.51100000000E-03 0.  1.
         12    1    3    3    0    0 -0.39072549539E+02 -0.75907065768E+01 -0.13203398688E+02  0.41935816324E+02  0.00000000000E+00 0. -1.
</event>
<event>
 7    1  0.2935819E-010  0.4778727E+02  0.7816164E-02  0.1312668E+00
        -11   -1    0    0    0    0  0.00000000000E+00  0.00000000000E+00  0.45593999997E+02  0.45594000000E+02  0.51100000000E-03 0.  1.
         11   -1    0    0    0    0 -0.00000000000E+00 -0.00000000000E+00 -0.45593999997E+02  0.45594000000E+02  0.51100000000E-03 0. -1.
    9900012    2    1    2    0    0  0.40170217202E+02  0.12608145786E+02  0.10536215341E+02  0.47787268163E+02  0.19999986863E+02 0.  0.
        -12    1    1    2    0    0 -0.40170217202E+02 -0.12608145786E+02 -0.10536215341E+02  0.43400731837E+02  0.00000000000E+00 0.  1.
         11    1    3    3    0    0 -0.15811363251E+01  0.28856115236E+00  0.82132602427E+00  0.18049477323E+01  0.51100000000E-03 0. -1.
        -11    1    3    3    0    0  0.23748663186E+02  0.12129535375E+02  0.33019186980E+01  0.26870565660E+02  0.51100000000E-03 0.  1.
        -12    1    3    3    0    0  0.18002690342E+02  0.19004925803E+00  0.64129706192E+01  0.19111754771E+02  0.00000000000E+00 0.  1.
</event>
<event>
 7    1  0.2935819E-010  0.4778727E+02  0.7816164E-02  0.1312668E+00
        -11   -1    0    0    0    0  0.00000000000E+00  0.00000000000E+00  0.45593999997E+02  0.45594000000E+02  0.51100000000E-03 0. -1.
         11   -1    0    0    0    0 -0.00000000000E+00 -0.00000000000E+00 -0.45593999997E+02  0.45594000000E+02  0.51100000000E-03 0.  1.
    9900012    2    1    2    0    0 -0.42668662256E+01 -0.33940483689E+02  0.26710693410E+02  0.47787265872E+02  0.19999976416E+02 0.  0.
        -12    1    1    2    0    0  0.42668662256E+01  0.33940483689E+02 -0.26710693410E+02  0.43400734128E+02  0.00000000000E+00 0.  1.
         11    1    3    3    0    0 -0.40725248839E+01 -0.93209767907E+01  0.18291972064E+02  0.20929938115E+02  0.51100000000E-03 0. -1.
        -11    1    3    3    0    0 -0.17436414750E+01 -0.23757627979E+01  0.22918631491E+01  0.37332521239E+01  0.51100000000E-03 0.  1.
         12    1    3    3    0    0  0.15493001333E+01 -0.22243744100E+02  0.61268581975E+01  0.23124075633E+02  0.00000000000E+00 0. -1.
</event>
<event>
 7    1  0.2935819E-010  0.4778727E+02  0.7816164E-02  0.1312668E+00
        -11   -1    0    0    0    0  0.00000000000E+00  0.00000000000E+00  0.45593999997E+02  0.45594000000E+02  0.51100000000E-03 0.  1.
         11   -1    0    0    0    0 -0.00000000000E+00 -0.00000000000E+00 -0.45593999997E+02  0.45594000000E+02  0.51100000000E-03 0. -1.
    9900012    2    1    2    0    0  0.26328485604E+02 -0.19230437623E+02 -0.28646549482E+02  0.47787266336E+02  0.19999978531E+02 0.  0.
        -12    1    1    2    0    0 -0.26328485604E+02  0.19230437623E+02  0.28646549482E+02  0.43400733664E+02  0.00000000000E+00 0.  1.
         11    1    3    3    0    0  0.11284082033E+02 -0.17294841721E+02 -0.12790048732E+02  0.24290479705E+02  0.51100000000E-03 0.  1.
        -11    1    3    3    0    0  0.15723103113E+02 -0.12400949758E+01 -0.16053918662E+02  0.22505157447E+02  0.51100000000E-03 0. -1.
        -12    1    3    3    0    0 -0.67869954142E+00 -0.69550092619E+00  0.19741791232E+00  0.99162918370E+00  0.00000000000E+00 0.  1.
</event>
<event>
 7    1  0.2935819E-010  0.4778727E+02  0.7816164E-02  0.1312668E+00
        -11   -1    0    0    0    0  0.00000000000E+00  0.00000000000E+00  0.45593999997E+02  0.45594000000E+02  0.51100000000E-03 0.  1.
         11   -1    0    0    0    0 -0.00000000000E+00 -0.00000000000E+00 -0.45593999997E+02  0.45594000000E+02  0.51100000000E-03 0. -1.
    9900012    2    1    2    0    0 -0.32083741373E+02  0.28501571787E+02  0.64743618828E+01  0.47787269400E+02  0.19999992503E+02 0.  0.
        -12    1    1    2    0    0  0.32083741373E+02 -0.28501571787E+02 -0.64743618828E+01  0.43400730600E+02  0.00000000000E+00 0.  1.
         11    1    3    3    0    0 -0.16917183844E+02  0.18542825518E+02  0.94317418915E+01  0.26813900178E+02  0.51100000000E-03 0. -1.
        -11    1    3    3    0    0 -0.66136977126E+01  0.62190619311E+01 -0.63088168042E+01  0.11055265644E+02  0.51100000000E-03 0.  1.
        -12    1    3    3    0    0 -0.85528598159E+01  0.37396843384E+01  0.33514367955E+01  0.99181035776E+01  0.00000000000E+00 0.  1.
</event>
<event>
 7    1  0.2935819E-010  0.4778727E+02  0.7816164E-02  0.1312668E+00
        -11   -1    0    0    0    0  0.00000000000E+00  0.00000000000E+00  0.45593999997E+02  0.45594000000E+02  0.51100000000E-03 0. -1.
         11   -1    0    0    0    0 -0.00000000000E+00 -0.00000000000E+00 -0.45593999997E+02  0.45594000000E+02  0.51100000000E-03 0.  1.
    9900012    2    1    2    0    0  0.14457626551E+02 -0.98018815973E+01  0.39730635631E+02  0.47787271250E+02  0.20000000938E+02 0.  0.
        -12    1    1    2    0    0 -0.14457626551E+02  0.98018815973E+01 -0.39730635631E+02  0.43400728750E+02  0.00000000000E+00 0.  1.
         11    1    3    3    0    0 -0.20144967360E+01 -0.41285254808E+01  0.18848492424E+02  0.19400221305E+02  0.51100000000E-03 0. -1.
        -11    1    3    3    0    0  0.14849854688E+02 -0.18931043799E+01  0.17729624942E+02  0.23204345052E+02  0.51100000000E-03 0.  1.
         12    1    3    3    0    0  0.16222685990E+01 -0.37802517366E+01  0.31525182649E+01  0.51827048932E+01  0.00000000000E+00 0. -1.
</event>
<event>
 7    1  0.2935819E-010  0.4778728E+02  0.7816164E-02  0.1312668E+00
        -11   -1    0    0    0    0  0.00000000000E+00  0.00000000000E+00  0.45593999997E+02  0.45594000000E+02  0.51100000000E-03 0. -1.
         11   -1    0    0    0    0 -0.00000000000E+00 -0.00000000000E+00 -0.45593999997E+02  0.45594000000E+02  0.51100000000E-03 0.  1.
    9900012    2    1    2    0    0 -0.31027210971E+02 -0.30138881420E+02  0.35472349493E+01  0.47787275701E+02  0.20000021230E+02 0.  0.
        -12    1    1    2    0    0  0.31027210971E+02  0.30138881420E+02 -0.35472349493E+01  0.43400724299E+02  0.00000000000E+00 0.  1.
         11    1    3    3    0    0 -0.29116536657E+02 -0.17206451734E+02  0.61936955411E+01  0.34383085272E+02  0.51100000000E-03 0. -1.
        -11    1    3    3    0    0 -0.89932444230E+00 -0.82356428761E+01 -0.22428371154E+01  0.85828268434E+01  0.51100000000E-03 0.  1.
         12    1    3    3    0    0 -0.10113498721E+01 -0.46967868107E+01 -0.40362347636E+00  0.48213635850E+01  0.00000000000E+00 0. -1.
</event>
<event>
 7    1  0.2935819E-010  0.4778727E+02  0.7816164E-02  0.1312668E+00
        -11   -1    0    0    0    0  0.00000000000E+00  0.00000000000E+00  0.45593999997E+02  0.45594000000E+02  0.51100000000E-03 0.  1.
         11   -1    0    0    0    0 -0.00000000000E+00 -0.00000000000E+00 -0.45593999997E+02  0.45594000000E+02  0.51100000000E-03 0. -1.
    9900012    2    1    2    0    0 -0.31657209429E+02 -0.20012209892E+01 -0.29621606588E+02  0.47787269924E+02  0.19999994890E+02 0.  0.
        -12    1    1    2    0    0  0.31657209429E+02  0.20012209892E+01  0.29621606588E+02  0.43400730076E+02  0.00000000000E+00 0.  1.
         11    1    3    3    0    0 -0.63587111857E+01 -0.29444800208E+01 -0.38018788089E+01  0.79722928493E+01  0.51100000000E-03 0. -1.
        -11    1    3    3    0    0 -0.15047530947E+02 -0.27419844427E+01 -0.24444281211E+02  0.28835213724E+02  0.51100000000E-03 0.  1.
        -12    1    3    3    0    0 -0.10250967297E+02  0.36852434743E+01 -0.13754465677E+01  0.10979763351E+02  0.00000000000E+00 0.  1.
</event>
<event>
 7    1  0.2935819E-010  0.4778727E+02  0.7816164E-02  0.1312668E+00
        -11   -1    0    0    0    0  0.00000000000E+00  0.00000000000E+00  0.45593999997E+02  0.45594000000E+02  0.51100000000E-03 0.  1.
         11   -1    0    0    0    0 -0.00000000000E+00 -0.00000000000E+00 -0.45593999997E+02  0.45594000000E+02  0.51100000000E-03 0. -1.
    9900012    2    1    2    0    0  0.41729564327E+02  0.10959604214E+02 -0.47067920934E+01  0.47787270107E+02  0.19999995725E+02 0.  0.
        -12    1    1    2    0    0 -0.41729564327E+02 -0.10959604214E+02  0.47067920934E+01  0.43400729893E+02  0.00000000000E+00 0.  1.
         11    1    3    3    0    0  0.81332575267E+01  0.93550845523E+01 -0.52023046206E+01  0.13443640080E+02  0.51100000000E-03 0. -1.
        -11    1    3    3    0    0  0.23294103348E+02 -0.19844046883E+01 -0.54381144189E+00  0.23384799419E+02  0.51100000000E-03 0.  1.
        -12    1    3    3    0    0  0.10302203453E+02  0.35889243494E+01  0.10393239691E+01  0.10958830607E+02  0.00000000000E+00 0.  1.
</event>
<event>
 7    1  0.2935819E-010  0.4778727E+02  0.7816164E-02  0.1312668E+00
        -11   -1    0    0    0    0  0.00000000000E+00  0.00000000000E+00  0.45593999997E+02  0.45594000000E+02  0.51100000000E-03 0.  1.
         11   -1    0    0    0    0 -0.00000000000E+00 -0.00000000000E+00 -0.45593999997E+02  0.45594000000E+02  0.51100000000E-03 0. -1.
    9900012    2    1    2    0    0  0.34934300897E+02 -0.25686489281E+02  0.18499538090E+01  0.47787269133E+02  0.19999991283E+02 0.  0.
        -12    1    1    2    0    0 -0.34934300897E+02  0.25686489281E+02 -0.18499538090E+01  0.43400730867E+02  0.00000000000E+00 0.  1.
         11    1    3    3    0    0  0.96295431303E+01 -0.13787777018E+02  0.19599325475E+01  0.16931397811E+02  0.51100000000E-03 0. -1.
        -11    1    3    3    0    0  0.18496516208E+02 -0.37317783107E+01  0.42869147877E+01  0.19350062528E+02  0.51100000000E-03 0.  1.
        -12    1    3    3    0    0  0.68082415586E+01 -0.81669339525E+01 -0.43968935262E+01  0.11505808793E+02  0.00000000000E+00 0.  1.
</event>
<event>
 7    1  0.2935819E-010  0.4778727E+02  0.7816164E-02  0.1312668E+00
        -11   -1    0    0    0    0  0.00000000000E+00  0.00000000000E+00  0.45593999997E+02  0.45594000000E+02  0.51100000000E-03 0.  1.
         11   -1    0    0    0    0 -0.00000000000E+00 -0.00000000000E+00 -0.45593999997E+02  0.45594000000E+02  0.51100000000E-03 0. -1.
    9900012    2    1    2    0    0 -0.18652388822E+02  0.84048795619E+01 -0.38276224951E+02  0.47787274133E+02  0.20000014084E+02 0.  0.
        -12    1    1    2    0    0  0.18652388822E+02 -0.84048795619E+01  0.38276224951E+02  0.43400725867E+02  0.00000000000E+00 0.  1.
         11    1    3    3    0    0 -0.17322817876E+02 -0.11338820942E+01 -0.21956544108E+02  0.27990275761E+02  0.51100000000E-03 0.  1.
        -11    1    3    3    0    0 -0.92683966981E+00  0.72754579546E+01 -0.67927649442E+01  0.99966482418E+01  0.51100000000E-03 0. -1.
        -12    1    3    3    0    0 -0.40273127667E+00  0.22633037015E+01 -0.95269158993E+01  0.98003501304E+01  0.00000000000E+00 0.  1.
</event>
<event>
 7    1  0.2935819E-010  0.4778727E+02  0.7816164E-02  0.1312668E+00
        -11   -1    0    0    0    0  0.00000000000E+00  0.00000000000E+00  0.45593999997E+02  0.45594000000E+02  0.51100000000E-03 0. -1.
         11   -1    0    0    0    0 -0.00000000000E+00 -0.00000000000E+00 -0.45593999997E+02  0.45594000000E+02  0.51100000000E-03 0.  1.
    9900012    2    1    2    0    0  0.23507342916E+02  0.42030289397E+01  0.36240343352E+02  0.47787272938E+02  0.20000008634E+02 0.  0.
        -12    1    1    2    0    0 -0.23507342916E+02 -0.42030289397E+01 -0.36240343352E+02  0.43400727062E+02  0.00000000000E+00 0.  1.
         11    1    3    3    0    0  0.11857037368E+02 -0.54289282251E+01  0.24241580007E+02  0.27526656141E+02  0.51100000000E-03 0. -1.
        -11    1    3    3    0    0  0.72393839556E+01  0.65434825235E+01  0.38434305935E+01  0.10487983723E+02  0.51100000000E-03 0.  1.
         12    1    3    3    0    0  0.44109215919E+01  0.30884746413E+01  0.81553327520E+01  0.97726330738E+01  0.00000000000E+00 0. -1.
</event>
<event>
 7    1  0.2935819E-010  0.4778728E+02  0.7816164E-02  0.1312668E+00
        -11   -1    0    0    0    0  0.00000000000E+00  0.00000000000E+00  0.45593999997E+02  0.45594000000E+02  0.51100000000E-03 0.  1.
         11   -1    0    0    0    0 -0.00000000000E+00 -0.00000000000E+00 -0.45593999997E+02  0.45594000000E+02  0.51100000000E-03 0. -1.
    9900012    2    1    2    0    0 -0.62082816171E+01  0.21795893347E+02 -0.37013766815E+02  0.47787278102E+02  0.20000032177E+02 0.  0.
        -12    1    1    2    0    0  0.62082816171E+01 -0.21795893347E+02  0.37013766815E+02  0.43400721898E+02  0.00000000000E+00 0.  1.
         11    1    3    3    0    0  0.44892731376E+00  0.57689856678E+00 -0.41353269718E+00  0.83985548885E+00  0.51100000000E-03 0. -1.
        -11    1    3    3    0    0 -0.54740814425E+01  0.18038382277E+02 -0.12520833004E+02  0.22630069867E+02  0.51100000000E-03 0.  1.
        -12    1    3    3    0    0 -0.11831274884E+01  0.31806125029E+01 -0.24079401114E+02  0.24317352746E+02  0.00000000000E+00 0.  1.
</event>
<event>
 7    1  0.2935819E-010  0.4778727E+02  0.7816164E-02  0.1312668E+00
        -11   -1    0    0    0    0  0.00000000000E+00  0.00000000000E+00  0.45593999997E+02  0.45594000000E+02  0.51100000000E-03 0.  1.
         11   -1    0    0    0    0 -0.00000000000E+00 -0.00000000000E+00 -0.45593999997E+02  0.45594000000E+02  0.51100000000E-03 0. -1.
    9900012    2    1    2    0    0 -0.22685116902E+02 -0.35992241591E+02  0.85771259356E+01  0.47787273360E+02  0.20000010556E+02 0.  0.
        -12    1    1    2    0    0  0.22685116902E+02  0.35992241591E+02 -0.85771259356E+01  0.43400726640E+02  0.00000000000E+00 0.  1.
         11    1    3    3    0    0 -0.19975571480E+02 -0.20467104940E+02  0.87705965427E+01  0.29914030229E+02  0.51100000000E-03 0. -1.
        -11    1    3    3    0    0  0.14904648119E+01  0.21472449225E+00 -0.47884689214E+00  0.15801539704E+01  0.51100000000E-03 0.  1.
         12    1    3    3    0    0 -0.42000102346E+01 -0.15739861142E+02  0.28537628508E+00  0.16293089160E+02  0.00000000000E+00 0. -1.
</event>
<event>
 7    1  0.2935819E-010  0.4778727E+02  0.7816164E-02  0.1312668E+00
        -11   -1    0    0    0    0  0.00000000000E+00  0.00000000000E+00  0.45593999997E+02  0.45594000000E+02  0.51100000000E-03 0. -1.
         11   -1    0    0    0    0 -0.00000000000E+00 -0.00000000000E+00 -0.45593999997E+02  0.45594000000E+02  0.51100000000E-03 0.  1.
    9900012    2    1    2    0    0 -0.11256647282E+02 -0.16968434733E+02  0.38327318777E+02  0.47787271320E+02  0.20000001256E+02 0.  0.
        -12    1    1    2    0    0  0.11256647282E+02  0.16968434733E+02 -0.38327318777E+02  0.43400728680E+02  0.00000000000E+00 0.  1.
         11    1    3    3    0    0 -0.10497394203E+01 -0.27068707264E-03  0.87601992973E+01  0.88228705597E+01  0.51100000000E-03 0. -1.
        -11    1    3    3    0    0 -0.29689145641E+01  0.24863714639E+01  0.17331220522E+01  0.42426653244E+01  0.51100000000E-03 0.  1.
        -12    1    3    3    0    0 -0.72379932980E+01 -0.19454535510E+02  0.27833997427E+02  0.34721735436E+02  0.00000000000E+00 0.  1.
</event>
<event>
 7    1  0.2935819E-010  0.4778727E+02  0.7816164E-02  0.1312668E+00
        -11   -1    0    0    0    0  0.00000000000E+00  0.00000000000E+00  0.45593999997E+02  0.45594000000E+02  0.51100000000E-03 0. -1.
         11   -1    0    0    0    0 -0.00000000000E+00 -0.00000000000E+00 -0.45593999997E+02  0.45594000000E+02  0.51100000000E-03 0.  1.
    9900012    2    1    2    0    0 -0.10998285000E+02  0.27239349520E+02  0.31948065868E+02  0.47787270191E+02  0.19999996110E+02 0.  0.
        -12    1    1    2    0    0  0.10998285000E+02 -0.27239349520E+02 -0.31948065868E+02  0.43400729809E+02  0.00000000000E+00 0.  1.
         11    1    3    3    0    0  0.39525826064E+01  0.22477516959E+01  0.15280816832E+01  0.47969084668E+01  0.51100000000E-03 0. -1.
        -11    1    3    3    0    0 -0.99046689381E+01  0.16311168735E+02  0.25385817487E+02  0.31758407108E+02  0.51100000000E-03 0.  1.
        -12    1    3    3    0    0 -0.50461986686E+01  0.86804290889E+01  0.50341666981E+01  0.11231954617E+02  0.00000000000E+00 0.  1.
</event>
<event>
 7    1  0.2935819E-010  0.4778727E+02  0.7816164E-02  0.1312668E+00
        -11   -1    0    0    0    0  0.00000000000E+00  0.00000000000E+00  0.45593999997E+02  0.45594000000E+02  0.51100000000E-03 0.  1.
         11   -1    0    0    0    0 -0.00000000000E+00 -0.00000000000E+00 -0.45593999997E+02  0.45594000000E+02  0.51100000000E-03 0. -1.
    9900012    2    1    2    0    0  0.29503572178E+02  0.24959117048E+02 -0.19753609936E+02  0.47787269585E+02  0.19999993345E+02 0.  0.
        -12    1    1    2    0    0 -0.29503572178E+02 -0.24959117048E+02  0.19753609936E+02  0.43400730415E+02  0.00000000000E+00 0.  1.
         11    1    3    3    0    0  0.20609729790E+02  0.17265367653E+02 -0.14813949097E+02  0.30697018916E+02  0.51100000000E-03 0. -1.
        -11    1    3    3    0    0 -0.19709043930E+01  0.71796698120E+00  0.15800573503E+01  0.26261230367E+01  0.51100000000E-03 0.  1.
        -12    1    3    3    0    0  0.10864746781E+02  0.69757824132E+01 -0.65197181897E+01  0.14464127632E+02  0.00000000000E+00 0.  1.
</event>
<event>
 7    1  0.2935819E-010  0.4778727E+02  0.7816164E-02  0.1312668E+00
        -11   -1    0    0    0    0  0.00000000000E+00  0.00000000000E+00  0.45593999997E+02  0.45594000000E+02  0.51100000000E-03 0.  1.
         11   -1    0    0    0    0 -0.00000000000E+00 -0.00000000000E+00 -0.45593999997E+02  0.45594000000E+02  0.51100000000E-03 0. -1.
    9900012    2    1    2    0    0  0.20213831176E+01 -0.14027627945E+02 -0.41021494210E+02  0.47787270482E+02  0.19999997434E+02 0.  0.
        -12    1    1    2    0    0 -0.20213831176E+01  0.14027627945E+02  0.41021494210E+02  0.43400729518E+02  0.00000000000E+00 0.  1.
         11    1    3    3    0    0  0.11679928460E+01  0.89591281593E+00 -0.13575367746E+02  0.13654943309E+02  0.51100000000E-03 0. -1.
        -11    1    3    3    0    0 -0.19242750885E+01 -0.11140077708E+02 -0.73242663333E+01  0.13470302281E+02  0.51100000000E-03 0.  1.
        -12    1    3    3    0    0  0.27776653601E+01 -0.37834630532E+01 -0.20121860131E+02  0.20662024892E+02  0.00000000000E+00 0.  1.
</event>
<event>
 7    1  0.2935819E-010  0.4778726E+02  0.7816164E-02  0.1312668E+00
        -11   -1    0    0    0    0  0.00000000000E+00  0.00000000000E+00  0.45593999997E+02  0.45594000000E+02  0.51100000000E-03 0.  1.
         11   -1    0    0    0    0 -0.00000000000E+00 -0.00000000000E+00 -0.45593999997E+02  0.45594000000E+02  0.51100000000E-03 0. -1.
    9900012    2    1    2    0    0 -0.15199062116E+02  0.21594517681E+02 -0.34442548936E+02  0.47787264289E+02  0.19999969200E+02 0.  0.
        -12    1    1    2    0    0  0.15199062116E+02 -0.21594517681E+02  0.34442548936E+02  0.43400735711E+02  0.00000000000E+00 0.  1.
         11    1    3    3    0    0 -0.35237602598E+00  0.28087140374E+01  0.22305029775E+01  0.36039127627E+01  0.51100000000E-03 0.  1.
        -11    1    3    3    0    0 -0.66813590466E+01  0.55436836059E+01 -0.17128109798E+02  0.19202737621E+02  0.51100000000E-03 0. -1.
        -12    1    3    3    0    0 -0.81653270435E+01  0.13242120037E+02 -0.19544942115E+02  0.24980613905E+02  0.00000000000E+00 0.  1.
</event>
<event>
 7    1  0.2935819E-010  0.4778723E+02  0.7816164E-02  0.1312668E+00
        -11   -1    0    0    0    0  0.00000000000E+00  0.00000000000E+00  0.45593999997E+02  0.45594000000E+02  0.51100000000E-03 0. -1.
         11   -1    0    0    0    0 -0.00000000000E+00 -0.00000000000E+00 -0.45593999997E+02  0.45594000000E+02  0.51100000000E-03 0.  1.
    9900012    2    1    2    0    0 -0.14385458875E+02  0.40946450869E+02 -0.27136745218E+00  0.47787229200E+02  0.19999809211E+02 0.  0.
        -12    1    1    2    0    0  0.14385458875E+02 -0.40946450869E+02  0.27136745218E+00  0.43400770800E+02  0.00000000000E+00 0.  1.
         11    1    3    3    0    0 -0.42259168466E+01  0.16625680447E+02  0.54465715050E+01  0.17998243385E+02  0.51100000000E-03 0. -1.
        -11    1    3    3    0    0 -0.13032994481E+02  0.21867237116E+02 -0.50047264419E+01  0.25943829541E+02  0.51100000000E-03 0.  1.
        -12    1    3    3    0    0  0.28734524522E+01  0.24535333049E+01 -0.71321251536E+00  0.38451562733E+01  0.00000000000E+00 0.  1.
</event>
<event>
 7    1  0.2935819E-010  0.4778727E+02  0.7816164E-02  0.1312668E+00
        -11   -1    0    0    0    0  0.00000000000E+00  0.00000000000E+00  0.45593999997E+02  0.45594000000E+02  0.51100000000E-03 0.  1.
         11   -1    0    0    0    0 -0.00000000000E+00 -0.00000000000E+00 -0.45593999997E+02  0.45594000000E+02  0.51100000000E-03 0. -1.
    9900012    2    1    2    0    0  0.94474600100E+01  0.15795784008E+02 -0.39304730268E+02  0.47787272880E+02  0.20000008370E+02 0.  0.
        -12    1    1    2    0    0 -0.94474600100E+01 -0.15795784008E+02  0.39304730268E+02  0.43400727120E+02  0.00000000000E+00 0.  1.
         11    1    3    3    0    0  0.62014236476E+01 -0.19611376566E+01 -0.17985780133E+02  0.19125689620E+02  0.51100000000E-03 0. -1.
        -11    1    3    3    0    0  0.34255039798E+01  0.15781765641E+02 -0.21232834925E+02  0.26676421864E+02  0.51100000000E-03 0.  1.
         12    1    3    3    0    0 -0.17946761734E+00  0.19751560230E+01 -0.86115210695E-01  0.19851613966E+01  0.00000000000E+00 0. -1.
</event>
<event>
 7    1  0.2935819E-010  0.4778727E+02  0.7816164E-02  0.1312668E+00
        -11   -1    0    0    0    0  0.00000000000E+00  0.00000000000E+00  0.45593999997E+02  0.45594000000E+02  0.51100000000E-03 0.  1.
         11   -1    0    0    0    0 -0.00000000000E+00 -0.00000000000E+00 -0.45593999997E+02  0.45594000000E+02  0.51100000000E-03 0. -1.
    9900012    2    1    2    0    0  0.40835012793E+02  0.13153387172E+02  0.65660848170E+01  0.47787270355E+02  0.19999996857E+02 0.  0.
        -12    1    1    2    0    0 -0.40835012793E+02 -0.13153387172E+02 -0.65660848170E+01  0.43400729645E+02  0.00000000000E+00 0.  1.
         11    1    3    3    0    0  0.32978634154E+02  0.13841477427E+02  0.30126121074E+01  0.35892236486E+02  0.51100000000E-03 0. -1.
        -11    1    3    3    0    0  0.44736114993E+01 -0.33090021029E+01  0.48943130639E+01  0.74106002046E+01  0.51100000000E-03 0.  1.
        -12    1    3    3    0    0  0.33827671398E+01  0.26209118475E+01 -0.13408403543E+01  0.44844336644E+01  0.00000000000E+00 0.  1.
</event>
<event>
 7    1  0.2935819E-010  0.4778728E+02  0.7816164E-02  0.1312668E+00
        -11   -1    0    0    0    0  0.00000000000E+00  0.00000000000E+00  0.45593999997E+02  0.45594000000E+02  0.51100000000E-03 0.  1.
         11   -1    0    0    0    0 -0.00000000000E+00 -0.00000000000E+00 -0.45593999997E+02  0.45594000000E+02  0.51100000000E-03 0. -1.
    9900012    2    1    2    0    0 -0.19963990400E+02 -0.30969518015E+02 -0.22933620870E+02  0.47787275064E+02  0.20000018326E+02 0.  0.
        -12    1    1    2    0    0  0.19963990400E+02  0.30969518015E+02  0.22933620870E+02  0.43400724936E+02  0.00000000000E+00 0.  1.
         11    1    3    3    0    0  0.45433890657E+00 -0.10968186651E+02 -0.13054084152E+02  0.17056279066E+02  0.51100000000E-03 0. -1.
        -11    1    3    3    0    0 -0.13125563236E+02 -0.15979311455E+02 -0.59220628922E+01  0.21510221617E+02  0.51100000000E-03 0.  1.
         12    1    3    3    0    0 -0.72927660708E+01 -0.40220199095E+01 -0.39574738254E+01  0.92207743815E+01  0.00000000000E+00 0. -1.
</event>
<event>
 7    1  0.2935819E-010  0.4778727E+02  0.7816164E-02  0.1312668E+00
        -11   -1    0    0    0    0  0.00000000000E+00  0.00000000000E+00  0.45593999997E+02  0.45594000000E+02  0.51100000000E-03 0.  1.
         11   -1    0    0    0    0 -0.00000000000E+00 -0.00000000000E+00 -0.45593999997E+02  0.45594000000E+02  0.51100000000E-03 0. -1.
    9900012    2    1    2    0    0  0.28614684730E+02 -0.11634617540E+02 -0.30487028326E+02  0.47787269550E+02  0.19999993184E+02 0.  0.
        -12    1    1    2    0    0 -0.28614684730E+02  0.11634617540E+02  0.30487028326E+02  0.43400730450E+02  0.00000000000E+00 0.  1.
         11    1    3    3    0    0  0.13468534504E+02 -0.66370905621E+01 -0.27252032895E+02  0.31114718221E+02  0.51100000000E-03 0. -1.
        -11    1    3    3    0    0  0.83410249362E+01 -0.14156745164E+01 -0.30075116164E+01  0.89789730875E+01  0.51100000000E-03 0.  1.
         12    1    3    3    0    0  0.68051252894E+01 -0.35818524614E+01 -0.22748381447E+00  0.76935782407E+01  0.00000000000E+00 0. -1.
</event>
<event>
 7    1  0.2935819E-010  0.4778726E+02  0.7816164E-02  0.1312668E+00
        -11   -1    0    0    0    0  0.00000000000E+00  0.00000000000E+00  0.45593999997E+02  0.45594000000E+02  0.51100000000E-03 0. -1.
         11   -1    0    0    0    0 -0.00000000000E+00 -0.00000000000E+00 -0.45593999997E+02  0.45594000000E+02  0.51100000000E-03 0.  1.
    9900012    2    1    2    0    0  0.20341909645E+01  0.42541393166E+02 -0.83496001891E+01  0.47787263962E+02  0.19999967707E+02 0.  0.
        -12    1    1    2    0    0 -0.20341909645E+01 -0.42541393166E+02  0.83496001891E+01  0.43400736038E+02  0.00000000000E+00 0.  1.
         11    1    3    3    0    0 -0.52022898342E+01  0.28461374876E+02  0.22532111905E+00  0.28933794242E+02  0.51100000000E-03 0. -1.
        -11    1    3    3    0    0  0.62275301406E+01  0.13061152118E+02 -0.55349672599E+01  0.15492310646E+02  0.51100000000E-03 0.  1.
        -12    1    3    3    0    0  0.10089506581E+01  0.10188661708E+01 -0.30399540483E+01  0.33611590739E+01  0.00000000000E+00 0.  1.
</event>
<event>
 7    1  0.2935819E-010  0.4778727E+02  0.7816164E-02  0.1312668E+00
        -11   -1    0    0    0    0  0.00000000000E+00  0.00000000000E+00  0.45593999997E+02  0.45594000000E+02  0.51100000000E-03 0.  1.
         11   -1    0    0    0    0 -0.00000000000E+00 -0.00000000000E+00 -0.45593999997E+02  0.45594000000E+02  0.51100000000E-03 0. -1.
    9900012    2    1    2    0    0  0.28565726226E+02  0.29904841868E+02 -0.13165227760E+02  0.47787268395E+02  0.19999987918E+02 0.  0.
        -12    1    1    2    0    0 -0.28565726226E+02 -0.29904841868E+02  0.13165227760E+02  0.43400731605E+02  0.00000000000E+00 0.  1.
         11    1    3    3    0    0  0.42562714721E+01  0.94281549190E+01  0.15428240960E+01  0.10458788576E+02  0.51100000000E-03 0. -1.
        -11    1    3    3    0    0  0.10717377601E+02  0.17703807468E+01 -0.71377496582E+01  0.12997842170E+02  0.51100000000E-03 0.  1.
        -12    1    3    3    0    0  0.13592077152E+02  0.18706306202E+02 -0.75703021974E+01  0.24330637649E+02  0.00000000000E+00 0.  1.
</event>
<event>
 7    1  0.2935819E-010  0.4778726E+02  0.7816164E-02  0.1312668E+00
        -11   -1    0    0    0    0  0.00000000000E+00  0.00000000000E+00  0.45593999997E+02  0.45594000000E+02  0.51100000000E-03 0.  1.
         11   -1    0    0    0    0 -0.00000000000E+00 -0.00000000000E+00 -0.45593999997E+02  0.45594000000E+02  0.51100000000E-03 0. -1.
    9900012    2    1    2    0    0  0.22685349769E+02 -0.11686708553E+02 -0.35105842277E+02  0.47787257922E+02  0.19999940170E+02 0.  0.
        -12    1    1    2    0    0 -0.22685349769E+02  0.11686708553E+02  0.35105842277E+02  0.43400742078E+02  0.00000000000E+00 0.  1.
         11    1    3    3    0    0  0.18172974309E+02 -0.10222815092E+02 -0.14968707574E+02  0.25667589492E+02  0.51100000000E-03 0. -1.
        -11    1    3    3    0    0 -0.17686314589E+01 -0.21616513434E+01 -0.71623890259E+01  0.76876921496E+01  0.51100000000E-03 0.  1.
         12    1    3    3    0    0  0.62810069191E+01  0.69775788247E+00 -0.12974745677E+02  0.14431976281E+02  0.00000000000E+00 0. -1.
</event>
<event>
 7    1  0.2935819E-010  0.4778727E+02  0.7816164E-02  0.1312668E+00
        -11   -1    0    0    0    0  0.00000000000E+00  0.00000000000E+00  0.45593999997E+02  0.45594000000E+02  0.51100000000E-03 0.  1.
         11   -1    0    0    0    0 -0.00000000000E+00 -0.00000000000E+00 -0.45593999997E+02  0.45594000000E+02  0.51100000000E-03 0. -1.
    9900012    2    1    2    0    0 -0.70635054706E+01  0.10651669347E+02 -0.41476162484E+02  0.47787271621E+02  0.20000002629E+02 0.  0.
        -12    1    1    2    0    0  0.70635054706E+01 -0.10651669347E+02  0.41476162484E+02  0.43400728379E+02  0.00000000000E+00 0.  1.
         11    1    3    3    0    0 -0.40257512385E+01  0.15721905533E+02 -0.31664646567E+02  0.35581383182E+02  0.51100000000E-03 0. -1.
        -11    1    3    3    0    0 -0.46943897365E-01 -0.36649899193E+01 -0.34316245179E+01  0.50209961094E+01  0.51100000000E-03 0.  1.
         12    1    3    3    0    0 -0.29908103348E+01 -0.14052462667E+01 -0.63798913991E+01  0.71848923300E+01  0.00000000000E+00 0. -1.
</event>
<event>
 7    1  0.2935819E-010  0.4778727E+02  0.7816164E-02  0.1312668E+00
        -11   -1    0    0    0    0  0.00000000000E+00  0.00000000000E+00  0.45593999997E+02  0.45594000000E+02  0.51100000000E-03 0.  1.
         11   -1    0    0    0    0 -0.00000000000E+00 -0.00000000000E+00 -0.45593999997E+02  0.45594000000E+02  0.51100000000E-03 0. -1.
    9900012    2    1    2    0    0 -0.36325202138E+02 -0.17086532202E+02 -0.16497072854E+02  0.47787270677E+02  0.19999998323E+02 0.  0.
        -12    1    1    2    0    0  0.36325202138E+02  0.17086532202E+02  0.16497072854E+02  0.43400729323E+02  0.00000000000E+00 0.  1.
         11    1    3    3    0    0 -0.28780207716E+02 -0.10006821143E+02 -0.18982514795E+02  0.35899480411E+02  0.51100000000E-03 0. -1.
        -11    1    3    3    0    0 -0.99963409673E-01 -0.20301253506E+01  0.20416368499E+01  0.28809170260E+01  0.51100000000E-03 0.  1.
        -12    1    3    3    0    0 -0.74450310127E+01 -0.50495857084E+01  0.44380509129E+00  0.90068732402E+01  0.00000000000E+00 0.  1.
</event>
<event>
 7    1  0.2935819E-010  0.4778727E+02  0.7816164E-02  0.1312668E+00
        -11   -1    0    0    0    0  0.00000000000E+00  0.00000000000E+00  0.45593999997E+02  0.45594000000E+02  0.51100000000E-03 0.  1.
         11   -1    0    0    0    0 -0.00000000000E+00 -0.00000000000E+00 -0.45593999997E+02  0.45594000000E+02  0.51100000000E-03 0. -1.
    9900012    2    1    2    0    0 -0.63464754867E+01 -0.20790588052E+02 -0.37564566501E+02  0.47787274672E+02  0.20000016538E+02 0.  0.
        -12    1    1    2    0    0  0.63464754867E+01  0.20790588052E+02  0.37564566501E+02  0.43400725328E+02  0.00000000000E+00 0.  1.
         11    1    3    3    0    0 -0.17299995422E+01 -0.52011394979E+01 -0.63038828467E+01  0.83536632503E+01  0.51100000000E-03 0. -1.
        -11    1    3    3    0    0  0.21932883071E+01 -0.13171430957E+02 -0.91890478042E+01  0.16209124186E+02  0.51100000000E-03 0.  1.
        -12    1    3    3    0    0 -0.68097642516E+01 -0.24180175964E+01 -0.22071635850E+02  0.23224487236E+02  0.00000000000E+00 0.  1.
</event>
<event>
 7    1  0.2935819E-010  0.4778727E+02  0.7816164E-02  0.1312668E+00
        -11   -1    0    0    0    0  0.00000000000E+00  0.00000000000E+00  0.45593999997E+02  0.45594000000E+02  0.51100000000E-03 0.  1.
         11   -1    0    0    0    0 -0.00000000000E+00 -0.00000000000E+00 -0.45593999997E+02  0.45594000000E+02  0.51100000000E-03 0. -1.
    9900012    2    1    2    0    0 -0.19324472882E+02 -0.16681649720E+02 -0.35098589535E+02  0.47787266401E+02  0.19999978829E+02 0.  0.
        -12    1    1    2    0    0  0.19324472882E+02  0.16681649720E+02  0.35098589535E+02  0.43400733599E+02  0.00000000000E+00 0.  1.
         11    1    3    3    0    0 -0.13789937657E+02 -0.64619966669E+01 -0.31845076122E+02  0.35299131080E+02  0.51100000000E-03 0. -1.
        -11    1    3    3    0    0 -0.14698831856E+01 -0.46225260807E+01 -0.15867939489E-01  0.48506242896E+01  0.51100000000E-03 0.  1.
         12    1    3    3    0    0 -0.40646520391E+01 -0.55971269727E+01 -0.32376454739E+01  0.76375110319E+01  0.00000000000E+00 0. -1.
</event>
<event>
 7    1  0.2935819E-010  0.4778727E+02  0.7816164E-02  0.1312668E+00
        -11   -1    0    0    0    0  0.00000000000E+00  0.00000000000E+00  0.45593999997E+02  0.45594000000E+02  0.51100000000E-03 0. -1.
         11   -1    0    0    0    0 -0.00000000000E+00 -0.00000000000E+00 -0.45593999997E+02  0.45594000000E+02  0.51100000000E-03 0.  1.
    9900012    2    1    2    0    0  0.11858204761E+02  0.41509688574E+02 -0.44667868505E+01  0.47787269011E+02  0.19999990728E+02 0.  0.
        -12    1    1    2    0    0 -0.11858204761E+02 -0.41509688574E+02  0.44667868505E+01  0.43400730989E+02  0.00000000000E+00 0.  1.
         11    1    3    3    0    0  0.12180427320E+02  0.33473352209E+02 -0.67643750993E+00  0.35627035883E+02  0.51100000000E-03 0. -1.
        -11    1    3    3    0    0 -0.34419042853E+01  0.71366533182E+01 -0.40587123483E+01  0.89023408090E+01  0.51100000000E-03 0.  1.
        -12    1    3    3    0    0  0.31196817267E+01  0.89968304618E+00  0.26836300767E+00  0.32578923192E+01  0.00000000000E+00 0.  1.
</event>
<event>
 7    1  0.2935819E-010  0.4778727E+02  0.7816164E-02  0.1312668E+00
        -11   -1    0    0    0    0  0.00000000000E+00  0.00000000000E+00  0.45593999997E+02  0.45594000000E+02  0.51100000000E-03 0.  1.
         11   -1    0    0    0    0 -0.00000000000E+00 -0.00000000000E+00 -0.45593999997E+02  0.45594000000E+02  0.51100000000E-03 0. -1.
    9900012    2    1    2    0    0 -0.70729527604E+01  0.15776861332E+02 -0.39808127774E+02  0.47787273611E+02  0.20000011700E+02 0.  0.
        -12    1    1    2    0    0  0.70729527604E+01 -0.15776861332E+02  0.39808127774E+02  0.43400726389E+02  0.00000000000E+00 0.  1.
         11    1    3    3    0    0 -0.61486069586E+01  0.93457098948E+01 -0.23915861160E+02  0.26402955824E+02  0.51100000000E-03 0. -1.
        -11    1    3    3    0    0  0.46631449999E+01  0.69807136243E+00 -0.11085465080E+02  0.12046566366E+02  0.51100000000E-03 0.  1.
        -12    1    3    3    0    0 -0.55874908017E+01  0.57330800743E+01 -0.48068015348E+01  0.93377514206E+01  0.00000000000E+00 0.  1.
</event>
<event>
 7    1  0.2935819E-010  0.4778730E+02  0.7816164E-02  0.1312668E+00
        -11   -1    0    0    0    0  0.00000000000E+00  0.00000000000E+00  0.45593999997E+02  0.45594000000E+02  0.51100000000E-03 0. -1.
         11   -1    0    0    0    0 -0.00000000000E+00 -0.00000000000E+00 -0.45593999997E+02  0.45594000000E+02  0.51100000000E-03 0.  1.
    9900012    2    1    2    0    0  0.33825285826E+02  0.19317202390E+02 -0.19139395316E+02  0.47787300438E+02  0.20000134017E+02 0.  0.
        -12    1    1    2    0    0 -0.33825285826E+02 -0.19317202390E+02  0.19139395316E+02  0.43400699562E+02  0.00000000000E+00 0.  1.
         11    1    3    3    0    0  0.30000184588E+02  0.20314339763E+02 -0.16359477430E+02  0.39753188267E+02  0.51100000000E-03 0. -1.
        -11    1    3    3    0    0  0.65929628788E+00 -0.20493459880E+01  0.14880428248E+01  0.26170140014E+01  0.51100000000E-03 0.  1.
         12    1    3    3    0    0  0.31658049498E+01  0.10522086145E+01 -0.42679607110E+01  0.54170981696E+01  0.00000000000E+00 0. -1.
</event>
<event>
 7    1  0.2935819E-010  0.4778727E+02  0.7816164E-02  0.1312668E+00
        -11   -1    0    0    0    0  0.00000000000E+00  0.00000000000E+00  0.45593999997E+02  0.45594000000E+02  0.51100000000E-03 0.  1.
         11   -1    0    0    0    0 -0.00000000000E+00 -0.00000000000E+00 -0.45593999997E+02  0.45594000000E+02  0.51100000000E-03 0. -1.
    9900012    2    1    2    0    0  0.34749525955E+02 -0.56540253822E+01 -0.25379632086E+02  0.47787270951E+02  0.19999999575E+02 0.  0.
        -12    1    1    2    0    0 -0.34749525955E+02  0.56540253822E+01  0.25379632086E+02  0.43400729049E+02  0.00000000000E+00 0.  1.
         11    1    3    3    0    0  0.15623511555E+00 -0.21864559593E+01 -0.57303894198E+01  0.61353371738E+01  0.51100000000E-03 0. -1.
        -11    1    3    3    0    0  0.13631326536E+02  0.16944196981E+01 -0.22377908001E+01  0.13917321193E+02  0.51100000000E-03 0.  1.
        -12    1    3    3    0    0  0.20961964303E+02 -0.51619891210E+01 -0.17411451867E+02  0.27734612585E+02  0.00000000000E+00 0.  1.
</event>
<event>
 7    1  0.2935819E-010  0.4778727E+02  0.7816164E-02  0.1312668E+00
        -11   -1    0    0    0    0  0.00000000000E+00  0.00000000000E+00  0.45593999997E+02  0.45594000000E+02  0.51100000000E-03 0. -1.
         11   -1    0    0    0    0 -0.00000000000E+00 -0.00000000000E+00 -0.45593999997E+02  0.45594000000E+02  0.51100000000E-03 0.  1.
    9900012    2    1    2    0    0 -0.36503290556E+02 -0.22379769705E+02  0.70907723585E+01  0.47787269982E+02  0.19999995155E+02 0.  0.
        -12    1    1    2    0    0  0.36503290556E+02  0.22379769705E+02 -0.70907723585E+01  0.43400730018E+02  0.00000000000E+00 0.  1.
         11    1    3    3    0    0 -0.29264544237E+02 -0.22091230092E+02  0.23095853245E+01  0.36739218568E+02  0.51100000000E-03 0. -1.
        -11    1    3    3    0    0 -0.21773202516E+01  0.13957144178E+01  0.50852113001E+01  0.57050956558E+01  0.51100000000E-03 0.  1.
         12    1    3    3    0    0 -0.50614260670E+01 -0.16842540312E+01 -0.30402426615E+00  0.53429557576E+01  0.00000000000E+00 0. -1.
</event>
<event>
 7    1  0.2935819E-010  0.4778724E+02  0.7816164E-02  0.1312668E+00
        -11   -1    0    0    0    0  0.00000000000E+00  0.00000000000E+00  0.45593999997E+02  0.45594000000E+02  0.51100000000E-03 0.  1.
         11   -1    0    0    0    0 -0.00000000000E+00 -0.00000000000E+00 -0.45593999997E+02  0.45594000000E+02  0.51100000000E-03 0. -1.
    9900012    2    1    2    0    0 -0.23090488530E+02 -0.19859932153E+02 -0.30919866882E+02  0.47787242706E+02  0.19999870795E+02 0.  0.
        -12    1    1    2    0    0  0.23090488530E+02  0.19859932153E+02  0.30919866882E+02  0.43400757294E+02  0.00000000000E+00 0.  1.
         11    1    3    3    0    0  0.57992532433E+00 -0.88585130623E+01 -0.78399730543E+01  0.11843763963E+02  0.51100000000E-03 0. -1.
        -11    1    3    3    0    0 -0.12232122093E+02 -0.21846058979E+01 -0.67395182235E+01  0.14135714343E+02  0.51100000000E-03 0.  1.
         12    1    3    3    0    0 -0.11438291761E+02 -0.88168131923E+01 -0.16340375604E+02  0.21807764401E+02  0.00000000000E+00 0. -1.
</event>
<event>
 7    1  0.2935819E-010  0.4778727E+02  0.7816164E-02  0.1312668E+00
        -11   -1    0    0    0    0  0.00000000000E+00  0.00000000000E+00  0.45593999997E+02  0.45594000000E+02  0.51100000000E-03 0.  1.
         11   -1    0    0    0    0 -0.00000000000E+00 -0.00000000000E+00 -0.45593999997E+02  0.45594000000E+02  0.51100000000E-03 0. -1.
    9900012    2    1    2    0    0 -0.21551813656E+02 -0.10864158786E+02 -0.36070946274E+02  0.47787265178E+02  0.19999973252E+02 0.  0.
        -12    1    1    2    0    0  0.21551813656E+02  0.10864158786E+02  0.36070946274E+02  0.43400734822E+02  0.00000000000E+00 0.  1.
         11    1    3    3    0    0  0.17706891078E+01 -0.27811945671E+01 -0.32518055130E+01  0.46308338874E+01  0.51100000000E-03 0. -1.
        -11    1    3    3    0    0 -0.21428832630E+02 -0.94661988362E+01 -0.33346476874E+02  0.40752807369E+02  0.51100000000E-03 0.  1.
        -12    1    3    3    0    0 -0.18936701334E+01  0.13832346169E+01  0.52733611289E+00  0.24036239214E+01  0.00000000000E+00 0.  1.
</event>
<event>
 7    1  0.2935819E-010  0.4778728E+02  0.7816164E-02  0.1312668E+00
        -11   -1    0    0    0    0  0.00000000000E+00  0.00000000000E+00  0.45593999997E+02  0.45594000000E+02  0.51100000000E-03 0.  1.
         11   -1    0    0    0    0 -0.00000000000E+00 -0.00000000000E+00 -0.45593999997E+02  0.45594000000E+02  0.51100000000E-03 0. -1.
    9900012    2    1    2    0    0  0.23501705567E+02  0.92114686566E+00 -0.36475247702E+02  0.47787281445E+02  0.20000047422E+02 0.  0.
        -12    1    1    2    0    0 -0.23501705567E+02 -0.92114686566E+00  0.36475247702E+02  0.43400718555E+02  0.00000000000E+00 0.  1.
         11    1    3    3    0    0  0.10509209916E+02  0.63186646621E+01 -0.25811518383E+02  0.28576275084E+02  0.51100000000E-03 0. -1.
        -11    1    3    3    0    0  0.13378824508E+02 -0.50213601106E+01 -0.77669209585E+01  0.16264441706E+02  0.51100000000E-03 0.  1.
        -12    1    3    3    0    0 -0.38632885677E+00 -0.37615768575E+00 -0.28968083612E+01  0.29465646560E+01  0.00000000000E+00 0.  1.
</event>
<event>
 7    1  0.2935819E-010  0.4778727E+02  0.7816164E-02  0.1312668E+00
        -11   -1    0    0    0    0  0.00000000000E+00  0.00000000000E+00  0.45593999997E+02  0.45594000000E+02  0.51100000000E-03 0.  1.
         11   -1    0    0    0    0 -0.00000000000E+00 -0.00000000000E+00 -0.45593999997E+02  0.45594000000E+02  0.51100000000E-03 0. -1.
    9900012    2    1    2    0    0  0.27698361022E+02 -0.16895453920E+01 -0.33370186118E+02  0.47787273180E+02  0.20000009739E+02 0.  0.
        -12    1    1    2    0    0 -0.27698361022E+02  0.16895453920E+01  0.33370186118E+02  0.43400726820E+02  0.00000000000E+00 0.  1.
         11    1    3    3    0    0  0.44194319688E+01 -0.51835887949E+01 -0.11934794478E+02  0.13741917305E+02  0.51100000000E-03 0. -1.
        -11    1    3    3    0    0  0.20816737207E+02  0.71141459249E+01 -0.18782148395E+02  0.28926056053E+02  0.51100000000E-03 0.  1.
        -12    1    3    3    0    0  0.24621918461E+01 -0.36201025220E+01 -0.26532432452E+01  0.51192998227E+01  0.00000000000E+00 0.  1.
</event>
<event>
 7    1  0.2935819E-010  0.4778727E+02  0.7816164E-02  0.1312668E+00
        -11   -1    0    0    0    0  0.00000000000E+00  0.00000000000E+00  0.45593999997E+02  0.45594000000E+02  0.51100000000E-03 0.  1.
         11   -1    0    0    0    0 -0.00000000000E+00 -0.00000000000E+00 -0.45593999997E+02  0.45594000000E+02  0.51100000000E-03 0. -1.
    9900012    2    1    2    0    0  0.14834895012E+02  0.36768788704E+02  0.17652351519E+02  0.47787269051E+02  0.19999990910E+02 0.  0.
        -12    1    1    2    0    0 -0.14834895012E+02 -0.36768788704E+02 -0.17652351519E+02  0.43400730949E+02  0.00000000000E+00 0.  1.
         11    1    3    3    0    0 -0.32994501033E+00  0.80028531139E+01 -0.31532659372E+01  0.86079967475E+01  0.51100000000E-03 0. -1.
        -11    1    3    3    0    0  0.11328587593E+02  0.15235081095E+02  0.13771204097E+02  0.23454011498E+02  0.51100000000E-03 0.  1.
         12    1    3    3    0    0  0.38362524293E+01  0.13530854495E+02  0.70344133597E+01  0.15725260805E+02  0.00000000000E+00 0. -1.
</event>
<event>
 7    1  0.2935819E-010  0.4778727E+02  0.7816164E-02  0.1312668E+00
        -11   -1    0    0    0    0  0.00000000000E+00  0.00000000000E+00  0.45593999997E+02  0.45594000000E+02  0.51100000000E-03 0. -1.
         11   -1    0    0    0    0 -0.00000000000E+00 -0.00000000000E+00 -0.45593999997E+02  0.45594000000E+02  0.51100000000E-03 0.  1.
    9900012    2    1    2    0    0 -0.27869654128E+02 -0.79492933850E+00  0.33260696072E+02  0.47787269165E+02  0.19999991429E+02 0.  0.
        -12    1    1    2    0    0  0.27869654128E+02  0.79492933850E+00 -0.33260696072E+02  0.43400730835E+02  0.00000000000E+00 0.  1.
         11    1    3    3    0    0 -0.71152592354E+00  0.46499343110E+01  0.56188573639E+01  0.73280090457E+01  0.51100000000E-03 0. -1.
        -11    1    3    3    0    0 -0.20111844196E+01  0.20195879784E+01  0.52352468714E+01  0.59608227987E+01  0.51100000000E-03 0.  1.
         12    1    3    3    0    0 -0.25146943784E+02 -0.74644516279E+01  0.22406591837E+02  0.34498437320E+02  0.00000000000E+00 0. -1.
</event>
<event>
 7    1  0.2935819E-010  0.4778727E+02  0.7816164E-02  0.1312668E+00
        -11   -1    0    0    0    0  0.00000000000E+00  0.00000000000E+00  0.45593999997E+02  0.45594000000E+02  0.51100000000E-03 0. -1.
         11   -1    0    0    0    0 -0.00000000000E+00 -0.00000000000E+00 -0.45593999997E+02  0.45594000000E+02  0.51100000000E-03 0.  1.
    9900012    2    1    2    0    0 -0.35224034250E+02  0.21696964569E+02  0.13119923142E+02  0.47787271393E+02  0.20000001588E+02 0.  0.
        -12    1    1    2    0    0  0.35224034250E+02 -0.21696964569E+02 -0.13119923142E+02  0.43400728607E+02  0.00000000000E+00 0.  1.
         11    1    3    3    0    0 -0.32245294799E+02  0.15658637234E+02  0.67568333345E+01  0.36477482831E+02  0.51100000000E-03 0. -1.
        -11    1    3    3    0    0  0.20545223342E+01  0.22732497031E+01  0.21226880971E+01  0.37275368882E+01  0.51100000000E-03 0.  1.
         12    1    3    3    0    0 -0.50332617851E+01  0.37650776319E+01  0.42404017106E+01  0.75822516734E+01  0.00000000000E+00 0. -1.
</event>
<event>
 7    1  0.2935819E-010  0.4778727E+02  0.7816164E-02  0.1312668E+00
        -11   -1    0    0    0    0  0.00000000000E+00  0.00000000000E+00  0.45593999997E+02  0.45594000000E+02  0.51100000000E-03 0. -1.
         11   -1    0    0    0    0 -0.00000000000E+00 -0.00000000000E+00 -0.45593999997E+02  0.45594000000E+02  0.51100000000E-03 0.  1.
    9900012    2    1    2    0    0  0.81275052689E+01 -0.28884410167E+02  0.31356939253E+02  0.47787272680E+02  0.20000007459E+02 0.  0.
        -12    1    1    2    0    0 -0.81275052689E+01  0.28884410167E+02 -0.31356939253E+02  0.43400727320E+02  0.00000000000E+00 0.  1.
         11    1    3    3    0    0  0.65296365980E+01 -0.17156737620E+02  0.98904607928E+01  0.20852122550E+02  0.51100000000E-03 0. -1.
        -11    1    3    3    0    0 -0.17707085413E+01 -0.11735953284E+02  0.20010014074E+02  0.23265181532E+02  0.51100000000E-03 0.  1.
        -12    1    3    3    0    0  0.33685772123E+01  0.82807374467E-02  0.14564643856E+01  0.36699685983E+01  0.00000000000E+00 0.  1.
</event>
<event>
 7    1  0.2935819E-010  0.4778728E+02  0.7816164E-02  0.1312668E+00
        -11   -1    0    0    0    0  0.00000000000E+00  0.00000000000E+00  0.45593999997E+02  0.45594000000E+02  0.51100000000E-03 0.  1.
         11   -1    0    0    0    0 -0.00000000000E+00 -0.00000000000E+00 -0.45593999997E+02  0.45594000000E+02  0.51100000000E-03 0. -1.
    9900012    2    1    2    0    0 -0.79814662260E+01  0.42489570543E+02  0.38151579803E+01  0.47787276060E+02  0.20000022870E+02 0.  0.
        -12    1    1    2    0    0  0.79814662260E+01 -0.42489570543E+02 -0.38151579803E+01  0.43400723940E+02  0.00000000000E+00 0.  1.
         11    1    3    3    0    0 -0.69034731796E+01  0.14384519443E+02  0.32698906885E+01  0.16286943449E+02  0.51100000000E-03 0.  1.
        -11    1    3    3    0    0 -0.28098108516E+01  0.24723713967E+02 -0.43952308725E+01  0.25268065301E+02  0.51100000000E-03 0. -1.
        -12    1    3    3    0    0  0.17318178051E+01  0.33813371333E+01  0.49404981643E+01  0.62322673106E+01  0.00000000000E+00 0.  1.
</event>
<event>
 7    1  0.2935819E-010  0.4778729E+02  0.7816164E-02  0.1312668E+00
        -11   -1    0    0    0    0  0.00000000000E+00  0.00000000000E+00  0.45593999997E+02  0.45594000000E+02  0.51100000000E-03 0. -1.
         11   -1    0    0    0    0 -0.00000000000E+00 -0.00000000000E+00 -0.45593999997E+02  0.45594000000E+02  0.51100000000E-03 0.  1.
    9900012    2    1    2    0    0  0.13448234892E+02 -0.27927386756E+02  0.30378075346E+02  0.47787292466E+02  0.20000097668E+02 0.  0.
        -12    1    1    2    0    0 -0.13448234892E+02  0.27927386756E+02 -0.30378075346E+02  0.43400707534E+02  0.00000000000E+00 0.  1.
         11    1    3    3    0    0 -0.20384489948E+01 -0.93559045004E+01  0.15868160118E+02  0.18533394970E+02  0.51100000000E-03 0. -1.
        -11    1    3    3    0    0 -0.11021505112E+00 -0.38241396508E+01  0.12558588280E+01  0.40265833015E+01  0.51100000000E-03 0.  1.
         12    1    3    3    0    0  0.15596898938E+02 -0.14747342605E+02  0.13254056400E+02  0.25227314194E+02  0.00000000000E+00 0. -1.
</event>
<event>
 7    1  0.2935819E-010  0.4778727E+02  0.7816164E-02  0.1312668E+00
        -11   -1    0    0    0    0  0.00000000000E+00  0.00000000000E+00  0.45593999997E+02  0.45594000000E+02  0.51100000000E-03 0. -1.
         11   -1    0    0    0    0 -0.00000000000E+00 -0.00000000000E+00 -0.45593999997E+02  0.45594000000E+02  0.51100000000E-03 0.  1.
    9900012    2    1    2    0    0 -0.29605697371E+01  0.43214025220E+01  0.43083447502E+02  0.47787274873E+02  0.20000017456E+02 0.  0.
        -12    1    1    2    0    0  0.29605697371E+01 -0.43214025220E+01 -0.43083447502E+02  0.43400725127E+02  0.00000000000E+00 0.  1.
         11    1    3    3    0    0 -0.64786431760E+01  0.56349482245E-02  0.17668091920E+02  0.18818456937E+02  0.51100000000E-03 0. -1.
        -11    1    3    3    0    0  0.38536172852E+01  0.32559715043E+00  0.69876300138E+00  0.39299681523E+01  0.51100000000E-03 0.  1.
        -12    1    3    3    0    0 -0.33554384623E+00  0.39901704233E+01  0.24716592581E+02  0.25038849783E+02  0.00000000000E+00 0.  1.
</event>
<event>
 7    1  0.2935819E-010  0.4778726E+02  0.7816164E-02  0.1312668E+00
        -11   -1    0    0    0    0  0.00000000000E+00  0.00000000000E+00  0.45593999997E+02  0.45594000000E+02  0.51100000000E-03 0. -1.
         11   -1    0    0    0    0 -0.00000000000E+00 -0.00000000000E+00 -0.45593999997E+02  0.45594000000E+02  0.51100000000E-03 0.  1.
    9900012    2    1    2    0    0 -0.42102921628E+02 -0.12445399648E+01 -0.10460375737E+02  0.47787258648E+02  0.19999943478E+02 0.  0.
        -12    1    1    2    0    0  0.42102921628E+02  0.12445399648E+01  0.10460375737E+02  0.43400741352E+02  0.00000000000E+00 0.  1.
         11    1    3    3    0    0  0.14193936428E+01  0.10852553981E+01  0.18541748156E+00  0.17963400279E+01  0.51100000000E-03 0. -1.
        -11    1    3    3    0    0 -0.26069537674E+01  0.33791704314E+00 -0.34894823731E+01  0.43688537818E+01  0.51100000000E-03 0.  1.
         12    1    3    3    0    0 -0.40915361504E+02 -0.26677124060E+01 -0.71563108460E+01  0.41622064838E+02  0.00000000000E+00 0. -1.
</event>
<event>
 7    1  0.2935819E-010  0.4778727E+02  0.7816164E-02  0.1312668E+00
        -11   -1    0    0    0    0  0.00000000000E+00  0.00000000000E+00  0.45593999997E+02  0.45594000000E+02  0.51100000000E-03 0. -1.
         11   -1    0    0    0    0 -0.00000000000E+00 -0.00000000000E+00 -0.45593999997E+02  0.45594000000E+02  0.51100000000E-03 0.  1.
    9900012    2    1    2    0    0 -0.17480939019E+02  0.89878925602E+01  0.38694417171E+02  0.47787270031E+02  0.19999995379E+02 0.  0.
        -12    1    1    2    0    0  0.17480939019E+02 -0.89878925602E+01 -0.38694417171E+02  0.43400729969E+02  0.00000000000E+00 0.  1.
         11    1    3    3    0    0 -0.15854416033E+01  0.33935256204E+01  0.21436303696E+02  0.21761083558E+02  0.51100000000E-03 0. -1.
        -11    1    3    3    0    0 -0.75176017651E+01 -0.10619416046E+01  0.29175399975E+01  0.81335168389E+01  0.51100000000E-03 0.  1.
        -12    1    3    3    0    0 -0.83778956508E+01  0.66563085444E+01  0.14340573477E+02  0.17892669634E+02  0.00000000000E+00 0.  1.
</event>
<event>
 7    1  0.2935819E-010  0.4778727E+02  0.7816164E-02  0.1312668E+00
        -11   -1    0    0    0    0  0.00000000000E+00  0.00000000000E+00  0.45593999997E+02  0.45594000000E+02  0.51100000000E-03 0. -1.
         11   -1    0    0    0    0 -0.00000000000E+00 -0.00000000000E+00 -0.45593999997E+02  0.45594000000E+02  0.51100000000E-03 0.  1.
    9900012    2    1    2    0    0  0.17300546864E+02 -0.36289698251E+02  0.16351526103E+02  0.47787268130E+02  0.19999986712E+02 0.  0.
        -12    1    1    2    0    0 -0.17300546864E+02  0.36289698251E+02 -0.16351526103E+02  0.43400731870E+02  0.00000000000E+00 0.  1.
         11    1    3    3    0    0  0.61067893575E+01 -0.94274877494E+01  0.50116860873E+01  0.12299894277E+02  0.51100000000E-03 0. -1.
        -11    1    3    3    0    0  0.74507202237E+01 -0.38477507307E+01  0.85975038526E+01  0.12009808087E+02  0.51100000000E-03 0.  1.
        -12    1    3    3    0    0  0.37430372826E+01 -0.23014459771E+02  0.27423361630E+01  0.23477565766E+02  0.00000000000E+00 0.  1.
</event>
<event>
 7    1  0.2935819E-010  0.4778727E+02  0.7816164E-02  0.1312668E+00
        -11   -1    0    0    0    0  0.00000000000E+00  0.00000000000E+00  0.45593999997E+02  0.45594000000E+02  0.51100000000E-03 0.  1.
         11   -1    0    0    0    0 -0.00000000000E+00 -0.00000000000E+00 -0.45593999997E+02  0.45594000000E+02  0.51100000000E-03 0. -1.
    9900012    2    1    2    0    0  0.84175006344E+01  0.26176590926E+02 -0.33579084939E+02  0.47787272186E+02  0.20000005207E+02 0.  0.
        -12    1    1    2    0    0 -0.84175006344E+01 -0.26176590926E+02  0.33579084939E+02  0.43400727814E+02  0.00000000000E+00 0.  1.
         11    1    3    3    0    0  0.12343115679E+02  0.15737497186E+02 -0.22947817556E+02  0.30440493642E+02  0.51100000000E-03 0. -1.
        -11    1    3    3    0    0 -0.63482106888E+01  0.84302811742E+01 -0.84178485105E+01  0.13499244180E+02  0.51100000000E-03 0.  1.
        -12    1    3    3    0    0  0.24225956440E+01  0.20088125657E+01 -0.22134188727E+01  0.38475343643E+01  0.00000000000E+00 0.  1.
</event>
<event>
 7    1  0.2935819E-010  0.4778727E+02  0.7816164E-02  0.1312668E+00
        -11   -1    0    0    0    0  0.00000000000E+00  0.00000000000E+00  0.45593999997E+02  0.45594000000E+02  0.51100000000E-03 0. -1.
         11   -1    0    0    0    0 -0.00000000000E+00 -0.00000000000E+00 -0.45593999997E+02  0.45594000000E+02  0.51100000000E-03 0.  1.
    9900012    2    1    2    0    0  0.19785703572E+02  0.35370837245E+02 -0.15525880421E+02  0.47787272401E+02  0.20000006184E+02 0.  0.
        -12    1    1    2    0    0 -0.19785703572E+02 -0.35370837245E+02  0.15525880421E+02  0.43400727599E+02  0.00000000000E+00 0.  1.
         11    1    3    3    0    0  0.15731173003E+02  0.22229623058E+02 -0.53153982187E+01  0.27746700773E+02  0.51100000000E-03 0. -1.
        -11    1    3    3    0    0  0.12302009601E+01  0.12828411773E+02 -0.11156642340E+02  0.17045592145E+02  0.51100000000E-03 0.  1.
         12    1    3    3    0    0  0.28243296094E+01  0.31280241486E+00  0.94616013732E+00  0.29949794822E+01  0.00000000000E+00 0. -1.
</event>
<event>
 7    1  0.2935819E-010  0.4778727E+02  0.7816164E-02  0.1312668E+00
        -11   -1    0    0    0    0  0.00000000000E+00  0.00000000000E+00  0.45593999997E+02  0.45594000000E+02  0.51100000000E-03 0.  1.
         11   -1    0    0    0    0 -0.00000000000E+00 -0.00000000000E+00 -0.45593999997E+02  0.45594000000E+02  0.51100000000E-03 0. -1.
    9900012    2    1    2    0    0 -0.35804708232E+02  0.66274158065E+01 -0.23616170841E+02  0.47787270777E+02  0.19999998783E+02 0.  0.
        -12    1    1    2    0    0  0.35804708232E+02 -0.66274158065E+01  0.23616170841E+02  0.43400729223E+02  0.00000000000E+00 0.  1.
         11    1    3    3    0    0 -0.97086538772E+01  0.64357408640E+01 -0.74732824596E+01  0.13839316152E+02  0.51100000000E-03 0. -1.
        -11    1    3    3    0    0 -0.60355550052E+01 -0.53447063968E+01 -0.86634118087E+01  0.11834209527E+02  0.51100000000E-03 0.  1.
        -12    1    3    3    0    0 -0.20060499350E+02  0.55363813394E+01 -0.74794765725E+01  0.22113745099E+02  0.00000000000E+00 0.  1.
</event>
<event>
 7    1  0.2935819E-010  0.4778727E+02  0.7816164E-02  0.1312668E+00
        -11   -1    0    0    0    0  0.00000000000E+00  0.00000000000E+00  0.45593999997E+02  0.45594000000E+02  0.51100000000E-03 0.  1.
         11   -1    0    0    0    0 -0.00000000000E+00 -0.00000000000E+00 -0.45593999997E+02  0.45594000000E+02  0.51100000000E-03 0. -1.
    9900012    2    1    2    0    0  0.19080189480E+01  0.14558740213E+02 -0.40841472138E+02  0.47787270752E+02  0.19999998665E+02 0.  0.
        -12    1    1    2    0    0 -0.19080189480E+01 -0.14558740213E+02  0.40841472138E+02  0.43400729248E+02  0.00000000000E+00 0.  1.
         11    1    3    3    0    0  0.44475380885E+01  0.70754429938E-01 -0.23054236107E+02  0.23479425120E+02  0.51100000000E-03 0. -1.
        -11    1    3    3    0    0 -0.28185853039E+01  0.14831898631E+02 -0.14306917515E+02  0.20799459828E+02  0.51100000000E-03 0.  1.
        -12    1    3    3    0    0  0.27906616341E+00 -0.34391284778E+00 -0.34803185160E+01  0.35083858031E+01  0.00000000000E+00 0.  1.
</event>
<event>
 7    1  0.2935819E-010  0.4778728E+02  0.7816164E-02  0.1312668E+00
        -11   -1    0    0    0    0  0.00000000000E+00  0.00000000000E+00  0.45593999997E+02  0.45594000000E+02  0.51100000000E-03 0.  1.
         11   -1    0    0    0    0 -0.00000000000E+00 -0.00000000000E+00 -0.45593999997E+02  0.45594000000E+02  0.51100000000E-03 0. -1.
    9900012    2    1    2    0    0 -0.16168580245E+02 -0.23706689174E+02 -0.32560593020E+02  0.47787282073E+02  0.20000050285E+02 0.  0.
        -12    1    1    2    0    0  0.16168580245E+02  0.23706689174E+02  0.32560593020E+02  0.43400717927E+02  0.00000000000E+00 0.  1.
         11    1    3    3    0    0 -0.99347567820E+01 -0.64238728951E+01 -0.24253187525E+02  0.26984859471E+02  0.51100000000E-03 0. -1.
        -11    1    3    3    0    0 -0.32393647027E+01 -0.62644685019E+01 -0.71069692798E+00  0.70881689930E+01  0.51100000000E-03 0.  1.
        -12    1    3    3    0    0 -0.29944587599E+01 -0.11018347777E+02 -0.75967085673E+01  0.13714253609E+02  0.00000000000E+00 0.  1.
</event>
<event>
 7    1  0.2935819E-010  0.4778727E+02  0.7816164E-02  0.1312668E+00
        -11   -1    0    0    0    0  0.00000000000E+00  0.00000000000E+00  0.45593999997E+02  0.45594000000E+02  0.51100000000E-03 0.  1.
         11   -1    0    0    0    0 -0.00000000000E+00 -0.00000000000E+00 -0.45593999997E+02  0.45594000000E+02  0.51100000000E-03 0. -1.
    9900012    2    1    2    0    0  0.22275152123E+02 -0.34213343007E+02  0.14727115318E+02  0.47787272271E+02  0.20000005592E+02 0.  0.
        -12    1    1    2    0    0 -0.22275152123E+02  0.34213343007E+02 -0.14727115318E+02  0.43400727729E+02  0.00000000000E+00 0.  1.
         11    1    3    3    0    0  0.15303477030E+02 -0.22273650867E+02  0.16349008646E+02  0.31584838390E+02  0.51100000000E-03 0. -1.
        -11    1    3    3    0    0  0.48850532814E+01 -0.10048717473E+01 -0.60700601044E+00  0.50241386673E+01  0.51100000000E-03 0.  1.
         12    1    3    3    0    0  0.20866218115E+01 -0.10934820393E+02 -0.10148873173E+01  0.11178295214E+02  0.00000000000E+00 0. -1.
</event>
<event>
 7    1  0.2935819E-010  0.4778727E+02  0.7816164E-02  0.1312668E+00
        -11   -1    0    0    0    0  0.00000000000E+00  0.00000000000E+00  0.45593999997E+02  0.45594000000E+02  0.51100000000E-03 0. -1.
         11   -1    0    0    0    0 -0.00000000000E+00 -0.00000000000E+00 -0.45593999997E+02  0.45594000000E+02  0.51100000000E-03 0.  1.
    9900012    2    1    2    0    0 -0.39449553048E+02 -0.17915922293E+02  0.25250293249E+01  0.47787270970E+02  0.19999999660E+02 0.  0.
        -12    1    1    2    0    0  0.39449553048E+02  0.17915922293E+02 -0.25250293249E+01  0.43400729030E+02  0.00000000000E+00 0.  1.
         11    1    3    3    0    0 -0.29297297426E+02 -0.17071850339E+02  0.56471036717E+01  0.34375419861E+02  0.51100000000E-03 0. -1.
        -11    1    3    3    0    0  0.12926487613E+01  0.64304319372E+00 -0.75969588867E+00  0.16314360157E+01  0.51100000000E-03 0.  1.
         12    1    3    3    0    0 -0.11444904383E+02 -0.14871151473E+01 -0.23623784582E+01  0.11780415093E+02  0.00000000000E+00 0. -1.
</event>
<event>
 7    1  0.2935819E-010  0.4778728E+02  0.7816164E-02  0.1312668E+00
        -11   -1    0    0    0    0  0.00000000000E+00  0.00000000000E+00  0.45593999997E+02  0.45594000000E+02  0.51100000000E-03 0.  1.
         11   -1    0    0    0    0 -0.00000000000E+00 -0.00000000000E+00 -0.45593999997E+02  0.45594000000E+02  0.51100000000E-03 0. -1.
    9900012    2    1    2    0    0  0.69668437441E+01 -0.42047774032E+02  0.81896553327E+01  0.47787278033E+02  0.20000031862E+02 0.  0.
        -12    1    1    2    0    0 -0.69668437441E+01  0.42047774032E+02 -0.81896553327E+01  0.43400721967E+02  0.00000000000E+00 0.  1.
         11    1    3    3    0    0 -0.61640125839E+00 -0.34802877270E+02  0.61590091810E+00  0.34813783923E+02  0.51100000000E-03 0. -1.
        -11    1    3    3    0    0  0.48846717834E+01 -0.47706716672E+01  0.43539032671E+01  0.80978886451E+01  0.51100000000E-03 0.  1.
         12    1    3    3    0    0  0.26985732191E+01 -0.24742250946E+01  0.32198511475E+01  0.48756054649E+01  0.00000000000E+00 0. -1.
</event>
<event>
 7    1  0.2935819E-010  0.4778727E+02  0.7816164E-02  0.1312668E+00
        -11   -1    0    0    0    0  0.00000000000E+00  0.00000000000E+00  0.45593999997E+02  0.45594000000E+02  0.51100000000E-03 0.  1.
         11   -1    0    0    0    0 -0.00000000000E+00 -0.00000000000E+00 -0.45593999997E+02  0.45594000000E+02  0.51100000000E-03 0. -1.
    9900012    2    1    2    0    0  0.23935587006E+02 -0.22088487267E+02 -0.28684664366E+02  0.47787267692E+02  0.19999984716E+02 0.  0.
        -12    1    1    2    0    0 -0.23935587006E+02  0.22088487267E+02  0.28684664366E+02  0.43400732308E+02  0.00000000000E+00 0.  1.
         11    1    3    3    0    0  0.12885735384E+01 -0.20071339941E+01 -0.17499886658E+01  0.29582882256E+01  0.51100000000E-03 0. -1.
        -11    1    3    3    0    0  0.45124023565E+01  0.31638689589E+01 -0.10800681888E+01  0.56159050357E+01  0.51100000000E-03 0.  1.
        -12    1    3    3    0    0  0.18134611111E+02 -0.23245222232E+02 -0.25854607511E+02  0.39213074431E+02  0.00000000000E+00 0.  1.
</event>
<event>
 7    1  0.2935819E-010  0.4778727E+02  0.7816164E-02  0.1312668E+00
        -11   -1    0    0    0    0  0.00000000000E+00  0.00000000000E+00  0.45593999997E+02  0.45594000000E+02  0.51100000000E-03 0.  1.
         11   -1    0    0    0    0 -0.00000000000E+00 -0.00000000000E+00 -0.45593999997E+02  0.45594000000E+02  0.51100000000E-03 0. -1.
    9900012    2    1    2    0    0 -0.39499327918E+02 -0.53764715734E+01 -0.17161584002E+02  0.47787270536E+02  0.19999997683E+02 0.  0.
        -12    1    1    2    0    0  0.39499327918E+02  0.53764715734E+01  0.17161584002E+02  0.43400729464E+02  0.00000000000E+00 0.  1.
         11    1    3    3    0    0 -0.87903663297E+01 -0.89034337453E+01 -0.69018290892E+01  0.14289048873E+02  0.51100000000E-03 0.  1.
        -11    1    3    3    0    0 -0.97834275727E+01  0.38898621265E+01 -0.88404751605E+00  0.10565416353E+02  0.51100000000E-03 0. -1.
         12    1    3    3    0    0 -0.20925534016E+02 -0.36289995463E+00 -0.93757073963E+01  0.22932805310E+02  0.00000000000E+00 0. -1.
</event>
<event>
 7    1  0.2935819E-010  0.4778726E+02  0.7816164E-02  0.1312668E+00
        -11   -1    0    0    0    0  0.00000000000E+00  0.00000000000E+00  0.45593999997E+02  0.45594000000E+02  0.51100000000E-03 0.  1.
         11   -1    0    0    0    0 -0.00000000000E+00 -0.00000000000E+00 -0.45593999997E+02  0.45594000000E+02  0.51100000000E-03 0. -1.
    9900012    2    1    2    0    0  0.10412705571E+01 -0.30245624623E+02 -0.31108557107E+02  0.47787258319E+02  0.19999941979E+02 0.  0.
        -12    1    1    2    0    0 -0.10412705571E+01  0.30245624623E+02  0.31108557107E+02  0.43400741681E+02  0.00000000000E+00 0.  1.
         11    1    3    3    0    0  0.51722010398E+01 -0.72201233177E+00 -0.53802131419E+01  0.74979770016E+01  0.51100000000E-03 0. -1.
        -11    1    3    3    0    0 -0.76359525799E+00 -0.40506903712E+01 -0.28967702425E+00  0.41322007745E+01  0.51100000000E-03 0.  1.
         12    1    3    3    0    0 -0.33673352247E+01 -0.25472921920E+02 -0.25438666941E+02  0.36157080543E+02  0.00000000000E+00 0. -1.
</event>
<event>
 7    1  0.2935819E-010  0.4778728E+02  0.7816164E-02  0.1312668E+00
        -11   -1    0    0    0    0  0.00000000000E+00  0.00000000000E+00  0.45593999997E+02  0.45594000000E+02  0.51100000000E-03 0.  1.
         11   -1    0    0    0    0 -0.00000000000E+00 -0.00000000000E+00 -0.45593999997E+02  0.45594000000E+02  0.51100000000E-03 0. -1.
    9900012    2    1    2    0    0 -0.24754414119E+02 -0.33855732147E+02 -0.11163811037E+02  0.47787282328E+02  0.20000051446E+02 0.  0.
        -12    1    1    2    0    0  0.24754414119E+02  0.33855732147E+02  0.11163811037E+02  0.43400717672E+02  0.00000000000E+00 0.  1.
         11    1    3    3    0    0 -0.86712805168E+01 -0.63686190556E+01  0.39276571701E+01  0.11453248691E+02  0.51100000000E-03 0. -1.
        -11    1    3    3    0    0 -0.25892669204E+01 -0.36995639072E+01 -0.60097799956E+01  0.75172157176E+01  0.51100000000E-03 0.  1.
         12    1    3    3    0    0 -0.13493866682E+02 -0.23787549184E+02 -0.90816882121E+01  0.28816817919E+02  0.00000000000E+00 0. -1.
</event>
<event>
 7    1  0.2935819E-010  0.4778725E+02  0.7816164E-02  0.1312668E+00
        -11   -1    0    0    0    0  0.00000000000E+00  0.00000000000E+00  0.45593999997E+02  0.45594000000E+02  0.51100000000E-03 0.  1.
         11   -1    0    0    0    0 -0.00000000000E+00 -0.00000000000E+00 -0.45593999997E+02  0.45594000000E+02  0.51100000000E-03 0. -1.
    9900012    2    1    2    0    0 -0.25399436031E+02  0.14547120964E+02 -0.32044888621E+02  0.47787251553E+02  0.19999911130E+02 0.  0.
        -12    1    1    2    0    0  0.25399436031E+02 -0.14547120964E+02  0.32044888621E+02  0.43400748447E+02  0.00000000000E+00 0.  1.
         11    1    3    3    0    0 -0.12979159996E+02  0.15497496730E+02 -0.22062804883E+02  0.29923207693E+02  0.51100000000E-03 0. -1.
        -11    1    3    3    0    0 -0.27922233065E+00 -0.15751633161E+01  0.63726943569E+00  0.17219805972E+01  0.51100000000E-03 0.  1.
         12    1    3    3    0    0 -0.12141053704E+02  0.62478755031E+00 -0.10619353174E+02  0.16142063263E+02  0.00000000000E+00 0. -1.
</event>
<event>
 7    1  0.2935819E-010  0.4778729E+02  0.7816164E-02  0.1312668E+00
        -11   -1    0    0    0    0  0.00000000000E+00  0.00000000000E+00  0.45593999997E+02  0.45594000000E+02  0.51100000000E-03 0.  1.
         11   -1    0    0    0    0 -0.00000000000E+00 -0.00000000000E+00 -0.45593999997E+02  0.45594000000E+02  0.51100000000E-03 0. -1.
    9900012    2    1    2    0    0  0.88985842858E+01 -0.40393624091E+02 -0.13145042244E+02  0.47787287966E+02  0.20000077151E+02 0.  0.
        -12    1    1    2    0    0 -0.88985842858E+01  0.40393624091E+02  0.13145042244E+02  0.43400712034E+02  0.00000000000E+00 0.  1.
         11    1    3    3    0    0  0.36393215337E+01 -0.19758624818E+02 -0.59712140091E+01  0.20959563758E+02  0.51100000000E-03 0. -1.
        -11    1    3    3    0    0 -0.45741192659E+01 -0.24980137423E+01 -0.17128912796E+01  0.54860401486E+01  0.51100000000E-03 0.  1.
        -12    1    3    3    0    0  0.98333820180E+01 -0.18136985530E+02 -0.54609369547E+01  0.21341684059E+02  0.00000000000E+00 0.  1.
</event>
<event>
 7    1  0.2935819E-010  0.4778723E+02  0.7816164E-02  0.1312668E+00
        -11   -1    0    0    0    0  0.00000000000E+00  0.00000000000E+00  0.45593999997E+02  0.45594000000E+02  0.51100000000E-03 0.  1.
         11   -1    0    0    0    0 -0.00000000000E+00 -0.00000000000E+00 -0.45593999997E+02  0.45594000000E+02  0.51100000000E-03 0. -1.
    9900012    2    1    2    0    0  0.31738413601E+02  0.44390776951E+01 -0.29267631044E+02  0.47787233467E+02  0.19999828670E+02 0.  0.
        -12    1    1    2    0    0 -0.31738413601E+02 -0.44390776951E+01  0.29267631044E+02  0.43400766533E+02  0.00000000000E+00 0.  1.
         11    1    3    3    0    0  0.17751845128E+02  0.59660602155E+01 -0.21015351208E+02  0.28149011823E+02  0.51100000000E-03 0. -1.
        -11    1    3    3    0    0 -0.16493706515E+01  0.75610646856E+00 -0.65300176682E-02  0.18144319883E+01  0.51100000000E-03 0.  1.
        -12    1    3    3    0    0  0.15635939125E+02 -0.22830889889E+01 -0.82457498186E+01  0.17823789656E+02  0.00000000000E+00 0.  1.
</event>
<event>
 7    1  0.2935819E-010  0.4778727E+02  0.7816164E-02  0.1312668E+00
        -11   -1    0    0    0    0  0.00000000000E+00  0.00000000000E+00  0.45593999997E+02  0.45594000000E+02  0.51100000000E-03 0.  1.
         11   -1    0    0    0    0 -0.00000000000E+00 -0.00000000000E+00 -0.45593999997E+02  0.45594000000E+02  0.51100000000E-03 0. -1.
    9900012    2    1    2    0    0  0.25937148440E+02 -0.31629409466E+02  0.14507530858E+02  0.47787266550E+02  0.19999979509E+02 0.  0.
        -12    1    1    2    0    0 -0.25937148440E+02  0.31629409466E+02 -0.14507530858E+02  0.43400733450E+02  0.00000000000E+00 0.  1.
         11    1    3    3    0    0  0.24327200771E+02 -0.31301640605E+02  0.15545046837E+02  0.42582318905E+02  0.51100000000E-03 0. -1.
        -11    1    3    3    0    0  0.61516660300E+00 -0.79170010439E+00 -0.28859642389E+01  0.30551610194E+01  0.51100000000E-03 0.  1.
        -12    1    3    3    0    0  0.99478106592E+00  0.46393124286E+00  0.18484482596E+01  0.21497866256E+01  0.00000000000E+00 0.  1.
</event>
<event>
 7    1  0.2935819E-010  0.4778727E+02  0.7816164E-02  0.1312668E+00
        -11   -1    0    0    0    0  0.00000000000E+00  0.00000000000E+00  0.45593999997E+02  0.45594000000E+02  0.51100000000E-03 0.  1.
         11   -1    0    0    0    0 -0.00000000000E+00 -0.00000000000E+00 -0.45593999997E+02  0.45594000000E+02  0.51100000000E-03 0. -1.
    9900012    2    1    2    0    0 -0.36683431140E+01  0.39672956848E+02 -0.17211126397E+02  0.47787272839E+02  0.20000008183E+02 0.  0.
        -12    1    1    2    0    0  0.36683431140E+01 -0.39672956848E+02  0.17211126397E+02  0.43400727161E+02  0.00000000000E+00 0.  1.
         11    1    3    3    0    0  0.51458208794E+01  0.26332227376E+02 -0.49822344502E+01  0.27288978206E+02  0.51100000000E-03 0. -1.
        -11    1    3    3    0    0 -0.63446219668E+01  0.81682235086E+01 -0.56967048215E+01  0.11807901984E+02  0.51100000000E-03 0.  1.
         12    1    3    3    0    0 -0.24695420267E+01  0.51725059624E+01 -0.65321871257E+01  0.86903926492E+01  0.00000000000E+00 0. -1.
</event>
<event>
 7    1  0.2935819E-010  0.4778727E+02  0.7816164E-02  0.1312668E+00
        -11   -1    0    0    0    0  0.00000000000E+00  0.00000000000E+00  0.45593999997E+02  0.45594000000E+02  0.51100000000E-03 0.  1.
         11   -1    0    0    0    0 -0.00000000000E+00 -0.00000000000E+00 -0.45593999997E+02  0.45594000000E+02  0.51100000000E-03 0. -1.
    9900012    2    1    2    0    0 -0.26941672027E+02  0.13929160518E+02 -0.31044289298E+02  0.47787273020E+02  0.20000009007E+02 0.  0.
        -12    1    1    2    0    0  0.26941672027E+02 -0.13929160518E+02  0.31044289298E+02  0.43400726980E+02  0.00000000000E+00 0.  1.
         11    1    3    3    0    0 -0.15022528105E+02 -0.46500049060E+00 -0.13301782295E+02  0.20070625018E+02  0.51100000000E-03 0. -1.
        -11    1    3    3    0    0 -0.11593251270E+02  0.12660283196E+02 -0.10194763335E+02  0.19965456301E+02  0.51100000000E-03 0.  1.
         12    1    3    3    0    0 -0.32589265184E+00  0.17338778132E+01 -0.75477436685E+01  0.77511917004E+01  0.00000000000E+00 0. -1.
</event>
<event>
 7    1  0.2935819E-010  0.4778728E+02  0.7816164E-02  0.1312668E+00
        -11   -1    0    0    0    0  0.00000000000E+00  0.00000000000E+00  0.45593999997E+02  0.45594000000E+02  0.51100000000E-03 0. -1.
         11   -1    0    0    0    0 -0.00000000000E+00 -0.00000000000E+00 -0.45593999997E+02  0.45594000000E+02  0.51100000000E-03 0.  1.
    9900012    2    1    2    0    0 -0.37852577333E+01 -0.14139875796E+02  0.40857784344E+02  0.47787276445E+02  0.20000024622E+02 0.  0.
        -12    1    1    2    0    0  0.37852577333E+01  0.14139875796E+02 -0.40857784344E+02  0.43400723555E+02  0.00000000000E+00 0.  1.
         11    1    3    3    0    0 -0.41010564039E+01 -0.66032384312E+01  0.27594243005E+02  0.28668164725E+02  0.51100000000E-03 0. -1.
        -11    1    3    3    0    0 -0.44792884055E+01 -0.48142549284E+01  0.25179930770E+01  0.70414035911E+01  0.51100000000E-03 0.  1.
        -12    1    3    3    0    0  0.47950870761E+01 -0.27223824361E+01  0.10745548262E+02  0.12077708129E+02  0.00000000000E+00 0.  1.
</event>
<event>
 7    1  0.2935819E-010  0.4778727E+02  0.7816164E-02  0.1312668E+00
        -11   -1    0    0    0    0  0.00000000000E+00  0.00000000000E+00  0.45593999997E+02  0.45594000000E+02  0.51100000000E-03 0. -1.
         11   -1    0    0    0    0 -0.00000000000E+00 -0.00000000000E+00 -0.45593999997E+02  0.45594000000E+02  0.51100000000E-03 0.  1.
    9900012    2    1    2    0    0 -0.31991951933E+02 -0.14567928151E+02 -0.25454146773E+02  0.47787272966E+02  0.20000008762E+02 0.  0.
        -12    1    1    2    0    0  0.31991951933E+02  0.14567928151E+02  0.25454146773E+02  0.43400727034E+02  0.00000000000E+00 0.  1.
         11    1    3    3    0    0 -0.11079554699E+02 -0.91924251458E+01 -0.59204028115E+01  0.15566257806E+02  0.51100000000E-03 0. -1.
        -11    1    3    3    0    0 -0.90917398835E+01 -0.47348376143E-01 -0.16600766805E+02  0.18927425465E+02  0.51100000000E-03 0.  1.
        -12    1    3    3    0    0 -0.11820657351E+02 -0.53281546295E+01 -0.29329771570E+01  0.13293589695E+02  0.00000000000E+00 0.  1.
</event>
<event>
 7    1  0.2935819E-010  0.4778726E+02  0.7816164E-02  0.1312668E+00
        -11   -1    0    0    0    0  0.00000000000E+00  0.00000000000E+00  0.45593999997E+02  0.45594000000E+02  0.51100000000E-03 0.  1.
         11   -1    0    0    0    0 -0.00000000000E+00 -0.00000000000E+00 -0.45593999997E+02  0.45594000000E+02  0.51100000000E-03 0. -1.
    9900012    2    1    2    0    0  0.25483700998E+02 -0.13320002916E+02 -0.32508200817E+02  0.47787255599E+02  0.19999929576E+02 0.  0.
        -12    1    1    2    0    0 -0.25483700998E+02  0.13320002916E+02  0.32508200817E+02  0.43400744401E+02  0.00000000000E+00 0.  1.
         11    1    3    3    0    0  0.17760236311E+01  0.47352113846E+00  0.19685233685E+01  0.26932446454E+01  0.51100000000E-03 0. -1.
        -11    1    3    3    0    0  0.28452273562E+01 -0.56085484898E+01 -0.48283879614E+01  0.79287114614E+01  0.51100000000E-03 0.  1.
         12    1    3    3    0    0  0.20862450010E+02 -0.81849755642E+01 -0.29648336225E+02  0.37165299492E+02  0.00000000000E+00 0. -1.
</event>
<event>
 7    1  0.2935819E-010  0.4778728E+02  0.7816164E-02  0.1312668E+00
        -11   -1    0    0    0    0  0.00000000000E+00  0.00000000000E+00  0.45593999997E+02  0.45594000000E+02  0.51100000000E-03 0. -1.
         11   -1    0    0    0    0 -0.00000000000E+00 -0.00000000000E+00 -0.45593999997E+02  0.45594000000E+02  0.51100000000E-03 0.  1.
    9900012    2    1    2    0    0  0.38345972218E+02 -0.10117940066E+02  0.17630558520E+02  0.47787275464E+02  0.20000020149E+02 0.  0.
        -12    1    1    2    0    0 -0.38345972218E+02  0.10117940066E+02 -0.17630558520E+02  0.43400724536E+02  0.00000000000E+00 0.  1.
         11    1    3    3    0    0  0.23551521222E+02 -0.26154468559E+01  0.74301906273E+01  0.24833897140E+02  0.51100000000E-03 0. -1.
        -11    1    3    3    0    0  0.73246118598E+01 -0.22400075566E+01  0.11403520536E+02  0.13737097715E+02  0.51100000000E-03 0.  1.
        -12    1    3    3    0    0  0.74698391365E+01 -0.52624856535E+01 -0.12031526433E+01  0.92162806089E+01  0.00000000000E+00 0.  1.
</event>
<event>
 7    1  0.2935819E-010  0.4778727E+02  0.7816164E-02  0.1312668E+00
        -11   -1    0    0    0    0  0.00000000000E+00  0.00000000000E+00  0.45593999997E+02  0.45594000000E+02  0.51100000000E-03 0.  1.
         11   -1    0    0    0    0 -0.00000000000E+00 -0.00000000000E+00 -0.45593999997E+02  0.45594000000E+02  0.51100000000E-03 0. -1.
    9900012    2    1    2    0    0  0.22829489145E+02 -0.20941027652E+01 -0.36851766116E+02  0.47787268360E+02  0.19999987761E+02 0.  0.
        -12    1    1    2    0    0 -0.22829489145E+02  0.20941027652E+01  0.36851766116E+02  0.43400731640E+02  0.00000000000E+00 0.  1.
         11    1    3    3    0    0  0.40797821475E+01 -0.51809931788E+01 -0.19518276112E+02  0.20602194430E+02  0.51100000000E-03 0. -1.
        -11    1    3    3    0    0  0.12454623075E+02  0.18178381491E+01 -0.55301300066E+01  0.13747891098E+02  0.51100000000E-03 0.  1.
         12    1    3    3    0    0  0.62950839223E+01  0.12690522644E+01 -0.11803359998E+02  0.13437182833E+02  0.00000000000E+00 0. -1.
</event>
<event>
 7    1  0.2935819E-010  0.4778727E+02  0.7816164E-02  0.1312668E+00
        -11   -1    0    0    0    0  0.00000000000E+00  0.00000000000E+00  0.45593999997E+02  0.45594000000E+02  0.51100000000E-03 0.  1.
         11   -1    0    0    0    0 -0.00000000000E+00 -0.00000000000E+00 -0.45593999997E+02  0.45594000000E+02  0.51100000000E-03 0. -1.
    9900012    2    1    2    0    0 -0.20194609467E+02  0.30822132461E+02  0.22930268865E+02  0.47787270384E+02  0.19999996990E+02 0.  0.
        -12    1    1    2    0    0  0.20194609467E+02 -0.30822132461E+02 -0.22930268865E+02  0.43400729616E+02  0.00000000000E+00 0.  1.
         11    1    3    3    0    0  0.51233327475E+00  0.13105404003E+02  0.17508369621E+01  0.13231762158E+02  0.51100000000E-03 0. -1.
        -11    1    3    3    0    0 -0.20337416902E+02  0.17630701541E+02  0.20983011702E+02  0.34128271909E+02  0.51100000000E-03 0.  1.
         12    1    3    3    0    0 -0.36952583917E+00  0.86026916223E-01  0.19642020044E+00  0.42723631782E+00  0.00000000000E+00 0. -1.
</event>
<event>
 7    1  0.2935819E-010  0.4778727E+02  0.7816164E-02  0.1312668E+00
        -11   -1    0    0    0    0  0.00000000000E+00  0.00000000000E+00  0.45593999997E+02  0.45594000000E+02  0.51100000000E-03 0.  1.
         11   -1    0    0    0    0 -0.00000000000E+00 -0.00000000000E+00 -0.45593999997E+02  0.45594000000E+02  0.51100000000E-03 0. -1.
    9900012    2    1    2    0    0  0.20599340467E+02 -0.21523882685E+02 -0.31559670975E+02  0.47787272062E+02  0.20000004638E+02 0.  0.
        -12    1    1    2    0    0 -0.20599340467E+02  0.21523882685E+02  0.31559670975E+02  0.43400727938E+02  0.00000000000E+00 0.  1.
         11    1    3    3    0    0 -0.47769497613E+00 -0.11108744285E+02 -0.78486435899E+01  0.13610055053E+02  0.51100000000E-03 0. -1.
        -11    1    3    3    0    0  0.14554948724E+02 -0.39159119715E+01 -0.11915566344E+02  0.19213579065E+02  0.51100000000E-03 0.  1.
        -12    1    3    3    0    0  0.65220867195E+01 -0.64992264280E+01 -0.11795461042E+02  0.14963637944E+02  0.00000000000E+00 0.  1.
</event>
<event>
 7    1  0.2935819E-010  0.4778727E+02  0.7816164E-02  0.1312668E+00
        -11   -1    0    0    0    0  0.00000000000E+00  0.00000000000E+00  0.45593999997E+02  0.45594000000E+02  0.51100000000E-03 0. -1.
         11   -1    0    0    0    0 -0.00000000000E+00 -0.00000000000E+00 -0.45593999997E+02  0.45594000000E+02  0.51100000000E-03 0.  1.
    9900012    2    1    2    0    0  0.27884513771E+02 -0.71824484285E+01  0.32472905910E+02  0.47787270837E+02  0.19999999052E+02 0.  0.
        -12    1    1    2    0    0 -0.27884513771E+02  0.71824484285E+01 -0.32472905910E+02  0.43400729163E+02  0.00000000000E+00 0.  1.
         11    1    3    3    0    0  0.45682221689E+01  0.15695142236E+01  0.16590267447E+02  0.17279149369E+02  0.51100000000E-03 0. -1.
        -11    1    3    3    0    0  0.17347193253E+02 -0.27649969355E+01  0.11371628948E+02  0.20925684385E+02  0.51100000000E-03 0.  1.
         12    1    3    3    0    0  0.59690983496E+01 -0.59869657167E+01  0.45110095147E+01  0.95824370826E+01  0.00000000000E+00 0. -1.
</event>
<event>
 7    1  0.2935819E-010  0.4778727E+02  0.7816164E-02  0.1312668E+00
        -11   -1    0    0    0    0  0.00000000000E+00  0.00000000000E+00  0.45593999997E+02  0.45594000000E+02  0.51100000000E-03 0.  1.
         11   -1    0    0    0    0 -0.00000000000E+00 -0.00000000000E+00 -0.45593999997E+02  0.45594000000E+02  0.51100000000E-03 0. -1.
    9900012    2    1    2    0    0  0.23870920842E+02  0.81572724454E+01 -0.35316585632E+02  0.47787272169E+02  0.20000005127E+02 0.  0.
        -12    1    1    2    0    0 -0.23870920842E+02 -0.81572724454E+01  0.35316585632E+02  0.43400727831E+02  0.00000000000E+00 0.  1.
         11    1    3    3    0    0  0.19140600649E+01 -0.15673107784E+01 -0.24941496846E+01  0.35129577166E+01  0.51100000000E-03 0. -1.
        -11    1    3    3    0    0  0.14524074901E+01 -0.35019129632E+01 -0.10650464851E+02  0.11305099899E+02  0.51100000000E-03 0.  1.
        -12    1    3    3    0    0  0.20504453287E+02  0.13226496187E+02 -0.22171971096E+02  0.32969214554E+02  0.00000000000E+00 0.  1.
</event>
<event>
 7    1  0.2935819E-010  0.4778728E+02  0.7816164E-02  0.1312668E+00
        -11   -1    0    0    0    0  0.00000000000E+00  0.00000000000E+00  0.45593999997E+02  0.45594000000E+02  0.51100000000E-03 0.  1.
         11   -1    0    0    0    0 -0.00000000000E+00 -0.00000000000E+00 -0.45593999997E+02  0.45594000000E+02  0.51100000000E-03 0. -1.
    9900012    2    1    2    0    0 -0.23238503915E+02  0.31228592934E+02 -0.19192958226E+02  0.47787277352E+02  0.20000028759E+02 0.  0.
        -12    1    1    2    0    0  0.23238503915E+02 -0.31228592934E+02  0.19192958226E+02  0.43400722648E+02  0.00000000000E+00 0.  1.
         11    1    3    3    0    0 -0.20272975924E+02  0.16862613692E+02 -0.95824312074E+01  0.28056448126E+02  0.51100000000E-03 0. -1.
        -11    1    3    3    0    0  0.19563863798E+01  0.95445347182E+01 -0.30300408840E+01  0.10203270979E+02  0.51100000000E-03 0.  1.
        -12    1    3    3    0    0 -0.49219143714E+01  0.48214445236E+01 -0.65804861351E+01  0.95275582469E+01  0.00000000000E+00 0.  1.
</event>
<event>
 7    1  0.2935819E-010  0.4778727E+02  0.7816164E-02  0.1312668E+00
        -11   -1    0    0    0    0  0.00000000000E+00  0.00000000000E+00  0.45593999997E+02  0.45594000000E+02  0.51100000000E-03 0.  1.
         11   -1    0    0    0    0 -0.00000000000E+00 -0.00000000000E+00 -0.45593999997E+02  0.45594000000E+02  0.51100000000E-03 0. -1.
    9900012    2    1    2    0    0 -0.38350128666E+01 -0.20200217902E+02 -0.38221288133E+02  0.47787274274E+02  0.20000014725E+02 0.  0.
        -12    1    1    2    0    0  0.38350128666E+01  0.20200217902E+02  0.38221288133E+02  0.43400725726E+02  0.00000000000E+00 0.  1.
         11    1    3    3    0    0  0.12924166593E+01 -0.85999264546E+01 -0.19356383009E+02  0.21220241264E+02  0.51100000000E-03 0. -1.
        -11    1    3    3    0    0 -0.25182361221E+00 -0.11788333837E+02 -0.69382555310E+01  0.13680921747E+02  0.51100000000E-03 0.  1.
        -12    1    3    3    0    0 -0.48756059137E+01  0.18804238937E+00 -0.11926649594E+02  0.12886111263E+02  0.00000000000E+00 0.  1.
</event>
<event>
 7    1  0.2935819E-010  0.4778727E+02  0.7816164E-02  0.1312668E+00
        -11   -1    0    0    0    0  0.00000000000E+00  0.00000000000E+00  0.45593999997E+02  0.45594000000E+02  0.51100000000E-03 0.  1.
         11   -1    0    0    0    0 -0.00000000000E+00 -0.00000000000E+00 -0.45593999997E+02  0.45594000000E+02  0.51100000000E-03 0. -1.
    9900012    2    1    2    0    0 -0.26175853785E+02  0.12334202043E+02 -0.32346794532E+02  0.47787274454E+02  0.20000015547E+02 0.  0.
        -12    1    1    2    0    0  0.26175853785E+02 -0.12334202043E+02  0.32346794532E+02  0.43400725546E+02  0.00000000000E+00 0.  1.
         11    1    3    3    0    0 -0.12950259245E+01 -0.32943870565E+01 -0.39132023752E+01  0.52766685810E+01  0.51100000000E-03 0. -1.
        -11    1    3    3    0    0 -0.21316210150E+02  0.74287748362E+01 -0.21756483722E+02  0.31351428914E+02  0.51100000000E-03 0.  1.
        -12    1    3    3    0    0 -0.35646177106E+01  0.81998142630E+01 -0.66771084348E+01  0.11159176960E+02  0.00000000000E+00 0.  1.
</event>
<event>
 7    1  0.2935819E-010  0.4778726E+02  0.7816164E-02  0.1312668E+00
        -11   -1    0    0    0    0  0.00000000000E+00  0.00000000000E+00  0.45593999997E+02  0.45594000000E+02  0.51100000000E-03 0. -1.
         11   -1    0    0    0    0 -0.00000000000E+00 -0.00000000000E+00 -0.45593999997E+02  0.45594000000E+02  0.51100000000E-03 0.  1.
    9900012    2    1    2    0    0  0.36694791304E+02 -0.71336845993E+01  0.22050552800E+02  0.47787262177E+02  0.19999959569E+02 0.  0.
        -12    1    1    2    0    0 -0.36694791304E+02  0.71336845993E+01 -0.22050552800E+02  0.43400737823E+02  0.00000000000E+00 0.  1.
         11    1    3    3    0    0  0.16372839095E+02 -0.68666596286E+01  0.17851837283E+02  0.25177548910E+02  0.51100000000E-03 0. -1.
        -11    1    3    3    0    0  0.14364934634E+02 -0.12068132558E+01 -0.12664780600E+01  0.14471064654E+02  0.51100000000E-03 0.  1.
        -12    1    3    3    0    0  0.59570175753E+01  0.93978828520E+00  0.54651935764E+01  0.81386486127E+01  0.00000000000E+00 0.  1.
</event>
<event>
 7    1  0.2935819E-010  0.4778727E+02  0.7816164E-02  0.1312668E+00
        -11   -1    0    0    0    0  0.00000000000E+00  0.00000000000E+00  0.45593999997E+02  0.45594000000E+02  0.51100000000E-03 0. -1.
         11   -1    0    0    0    0 -0.00000000000E+00 -0.00000000000E+00 -0.45593999997E+02  0.45594000000E+02  0.51100000000E-03 0.  1.
    9900012    2    1    2    0    0  0.35256139397E+02  0.23324099270E+02  0.98292584142E+01  0.47787270825E+02  0.19999999001E+02 0.  0.
        -12    1    1    2    0    0 -0.35256139397E+02 -0.23324099270E+02 -0.98292584142E+01  0.43400729175E+02  0.00000000000E+00 0.  1.
         11    1    3    3    0    0  0.44831019238E+01  0.19917787072E+00  0.34557358897E+01  0.56639196219E+01  0.51100000000E-03 0. -1.
        -11    1    3    3    0    0  0.14480413775E+02  0.89482287068E+01  0.10688337026E+02  0.20099595238E+02  0.51100000000E-03 0.  1.
        -12    1    3    3    0    0  0.16292623698E+02  0.14176692693E+02 -0.43148145012E+01  0.22023755966E+02  0.00000000000E+00 0.  1.
</event>
<event>
 7    1  0.2935819E-010  0.4778728E+02  0.7816164E-02  0.1312668E+00
        -11   -1    0    0    0    0  0.00000000000E+00  0.00000000000E+00  0.45593999997E+02  0.45594000000E+02  0.51100000000E-03 0. -1.
         11   -1    0    0    0    0 -0.00000000000E+00 -0.00000000000E+00 -0.45593999997E+02  0.45594000000E+02  0.51100000000E-03 0.  1.
    9900012    2    1    2    0    0 -0.71228682568E+01  0.40466122665E+02 -0.13977843956E+02  0.47787280450E+02  0.20000042885E+02 0.  0.
        -12    1    1    2    0    0  0.71228682568E+01 -0.40466122665E+02  0.13977843956E+02  0.43400719550E+02  0.00000000000E+00 0.  1.
         11    1    3    3    0    0 -0.71531787163E+01  0.11248450822E+02 -0.88087914337E+01  0.15977810189E+02  0.51100000000E-03 0.  1.
        -11    1    3    3    0    0  0.19697978223E+00  0.16773845197E+02  0.28348939877E+01  0.17012857136E+02  0.51100000000E-03 0. -1.
        -12    1    3    3    0    0 -0.16666932273E+00  0.12443826645E+02 -0.80039465101E+01  0.14796613125E+02  0.00000000000E+00 0.  1.
</event>
<event>
 7    1  0.2935819E-010  0.4778726E+02  0.7816164E-02  0.1312668E+00
        -11   -1    0    0    0    0  0.00000000000E+00  0.00000000000E+00  0.45593999997E+02  0.45594000000E+02  0.51100000000E-03 0. -1.
         11   -1    0    0    0    0 -0.00000000000E+00 -0.00000000000E+00 -0.45593999997E+02  0.45594000000E+02  0.51100000000E-03 0.  1.
    9900012    2    1    2    0    0  0.27395442263E+02  0.33513140604E+02  0.31596801165E+01  0.47787257744E+02  0.19999939358E+02 0.  0.
        -12    1    1    2    0    0 -0.27395442263E+02 -0.33513140604E+02 -0.31596801165E+01  0.43400742256E+02  0.00000000000E+00 0.  1.
         11    1    3    3    0    0  0.77506386282E+01  0.18049314534E+02  0.81367017123E+01  0.21261610224E+02  0.51100000000E-03 0. -1.
        -11    1    3    3    0    0  0.18414266987E+02  0.15293294613E+02 -0.62578950859E+01  0.24741288163E+02  0.51100000000E-03 0.  1.
         12    1    3    3    0    0  0.12305366478E+01  0.17053145764E+00  0.12808734901E+01  0.17843593576E+01  0.00000000000E+00 0. -1.
</event>
<event>
 7    1  0.2935819E-010  0.4778727E+02  0.7816164E-02  0.1312668E+00
        -11   -1    0    0    0    0  0.00000000000E+00  0.00000000000E+00  0.45593999997E+02  0.45594000000E+02  0.51100000000E-03 0.  1.
         11   -1    0    0    0    0 -0.00000000000E+00 -0.00000000000E+00 -0.45593999997E+02  0.45594000000E+02  0.51100000000E-03 0. -1.
    9900012    2    1    2    0    0 -0.36525446652E+02  0.14089713335E+02 -0.18734860239E+02  0.47787271168E+02  0.20000000563E+02 0.  0.
        -12    1    1    2    0    0  0.36525446652E+02 -0.14089713335E+02  0.18734860239E+02  0.43400728832E+02  0.00000000000E+00 0.  1.
         11    1    3    3    0    0 -0.26755239203E+02  0.81297126687E+01 -0.17041141208E+02  0.32746534883E+02  0.51100000000E-03 0. -1.
        -11    1    3    3    0    0 -0.29901353747E+01  0.64853302006E+01  0.18432831456E+01  0.73755074663E+01  0.51100000000E-03 0.  1.
        -12    1    3    3    0    0 -0.67800720739E+01 -0.52532953466E+00 -0.35370021769E+01  0.76652288189E+01  0.00000000000E+00 0.  1.
</event>
<event>
 7    1  0.2935819E-010  0.4778726E+02  0.7816164E-02  0.1312668E+00
        -11   -1    0    0    0    0  0.00000000000E+00  0.00000000000E+00  0.45593999997E+02  0.45594000000E+02  0.51100000000E-03 0.  1.
         11   -1    0    0    0    0 -0.00000000000E+00 -0.00000000000E+00 -0.45593999997E+02  0.45594000000E+02  0.51100000000E-03 0. -1.
    9900012    2    1    2    0    0  0.28663466199E+02  0.27999068000E+02 -0.16675784083E+02  0.47787264082E+02  0.19999968255E+02 0.  0.
        -12    1    1    2    0    0 -0.28663466199E+02 -0.27999068000E+02  0.16675784083E+02  0.43400735918E+02  0.00000000000E+00 0.  1.
         11    1    3    3    0    0  0.19221541770E+02  0.16291908117E+02 -0.20892065460E+01  0.25283566251E+02  0.51100000000E-03 0. -1.
        -11    1    3    3    0    0  0.27258560405E+01  0.46205695163E+01 -0.10748525065E+02  0.12012940737E+02  0.51100000000E-03 0.  1.
         12    1    3    3    0    0  0.67160683891E+01  0.70865903669E+01 -0.38380524723E+01  0.10490757094E+02  0.00000000000E+00 0. -1.
</event>
<event>
 7    1  0.2935819E-010  0.4778729E+02  0.7816164E-02  0.1312668E+00
        -11   -1    0    0    0    0  0.00000000000E+00  0.00000000000E+00  0.45593999997E+02  0.45594000000E+02  0.51100000000E-03 0.  1.
         11   -1    0    0    0    0 -0.00000000000E+00 -0.00000000000E+00 -0.45593999997E+02  0.45594000000E+02  0.51100000000E-03 0. -1.
    9900012    2    1    2    0    0  0.25365832250E+01  0.88391260076E+01 -0.42415295018E+02  0.47787289700E+02  0.20000085059E+02 0.  0.
        -12    1    1    2    0    0 -0.25365832250E+01 -0.88391260076E+01  0.42415295018E+02  0.43400710300E+02  0.00000000000E+00 0.  1.
         11    1    3    3    0    0  0.39940467197E+01  0.69256354643E+01 -0.36679475522E+02  0.37540654771E+02  0.51100000000E-03 0. -1.
        -11    1    3    3    0    0 -0.34592124402E+01  0.12598181628E+01  0.45312079578E+00  0.37092601993E+01  0.51100000000E-03 0.  1.
        -12    1    3    3    0    0  0.20017489455E+01  0.65367238046E+00 -0.61889402923E+01  0.65373747302E+01  0.00000000000E+00 0.  1.
</event>
<event>
 7    1  0.2935819E-010  0.4778726E+02  0.7816164E-02  0.1312668E+00
        -11   -1    0    0    0    0  0.00000000000E+00  0.00000000000E+00  0.45593999997E+02  0.45594000000E+02  0.51100000000E-03 0. -1.
         11   -1    0    0    0    0 -0.00000000000E+00 -0.00000000000E+00 -0.45593999997E+02  0.45594000000E+02  0.51100000000E-03 0.  1.
    9900012    2    1    2    0    0 -0.49512568502E+01  0.28238531219E+02  0.32583661369E+02  0.47787256020E+02  0.19999931498E+02 0.  0.
        -12    1    1    2    0    0  0.49512568502E+01 -0.28238531219E+02 -0.32583661369E+02  0.43400743980E+02  0.00000000000E+00 0.  1.
         11    1    3    3    0    0  0.39677725912E+01  0.18631367848E+02  0.11186247608E+02  0.22090794984E+02  0.51100000000E-03 0. -1.
        -11    1    3    3    0    0  0.65592567856E+00  0.75592421609E+00  0.28784711168E+01  0.30474999833E+01  0.51100000000E-03 0.  1.
         12    1    3    3    0    0 -0.95749551200E+01  0.88512391552E+01  0.18518942644E+02  0.22648961053E+02  0.00000000000E+00 0. -1.
</event>
<event>
 7    1  0.2935819E-010  0.4778727E+02  0.7816164E-02  0.1312668E+00
        -11   -1    0    0    0    0  0.00000000000E+00  0.00000000000E+00  0.45593999997E+02  0.45594000000E+02  0.51100000000E-03 0.  1.
         11   -1    0    0    0    0 -0.00000000000E+00 -0.00000000000E+00 -0.45593999997E+02  0.45594000000E+02  0.51100000000E-03 0. -1.
    9900012    2    1    2    0    0 -0.32428877141E+02  0.27460825778E+02  0.88257677148E+01  0.47787271886E+02  0.20000003839E+02 0.  0.
        -12    1    1    2    0    0  0.32428877141E+02 -0.27460825778E+02 -0.88257677148E+01  0.43400728114E+02  0.00000000000E+00 0.  1.
         11    1    3    3    0    0 -0.28736992367E+01 -0.69648730599E+00 -0.25206452478E+01  0.38854722489E+01  0.51100000000E-03 0.  1.
        -11    1    3    3    0    0 -0.28747573844E+02  0.22234825005E+02  0.87289779393E+01  0.37376536772E+02  0.51100000000E-03 0. -1.
         12    1    3    3    0    0 -0.80760405993E+00  0.59224880788E+01  0.26174350233E+01  0.65252628654E+01  0.00000000000E+00 0. -1.
</event>
<event>
 7    1  0.2935819E-010  0.4778726E+02  0.7816164E-02  0.1312668E+00
        -11   -1    0    0    0    0  0.00000000000E+00  0.00000000000E+00  0.45593999997E+02  0.45594000000E+02  0.51100000000E-03 0. -1.
         11   -1    0    0    0    0 -0.00000000000E+00 -0.00000000000E+00 -0.45593999997E+02  0.45594000000E+02  0.51100000000E-03 0.  1.
    9900012    2    1    2    0    0 -0.90419461480E-01  0.34137635533E+02  0.26799957035E+02  0.47787262304E+02  0.19999960151E+02 0.  0.
        -12    1    1    2    0    0  0.90419461480E-01 -0.34137635533E+02 -0.26799957035E+02  0.43400737696E+02  0.00000000000E+00 0.  1.
         11    1    3    3    0    0  0.32863445755E+01  0.38786046309E+01  0.85432529772E+01  0.99413684292E+01  0.51100000000E-03 0. -1.
        -11    1    3    3    0    0 -0.63427820024E+01  0.97404175237E+01  0.27177932741E+01  0.11937043923E+02  0.51100000000E-03 0.  1.
        -12    1    3    3    0    0  0.29660179654E+01  0.20518613378E+02  0.15538910784E+02  0.25908849953E+02  0.00000000000E+00 0.  1.
</event>
<event>
 7    1  0.2935819E-010  0.4778726E+02  0.7816164E-02  0.1312668E+00
        -11   -1    0    0    0    0  0.00000000000E+00  0.00000000000E+00  0.45593999997E+02  0.45594000000E+02  0.51100000000E-03 0.  1.
         11   -1    0    0    0    0 -0.00000000000E+00 -0.00000000000E+00 -0.45593999997E+02  0.45594000000E+02  0.51100000000E-03 0. -1.
    9900012    2    1    2    0    0 -0.34592525286E+02  0.20592818655E+02 -0.16214725833E+02  0.47787258997E+02  0.19999945069E+02 0.  0.
        -12    1    1    2    0    0  0.34592525286E+02 -0.20592818655E+02  0.16214725833E+02  0.43400741003E+02  0.00000000000E+00 0.  1.
         11    1    3    3    0    0 -0.12692849320E+02  0.96205779197E+01  0.11202553558E+01  0.15966180373E+02  0.51100000000E-03 0. -1.
        -11    1    3    3    0    0 -0.21754322953E+02  0.12495627326E+02 -0.15771323956E+02  0.29633189653E+02  0.51100000000E-03 0.  1.
        -12    1    3    3    0    0 -0.14535301261E+00 -0.15233865916E+01 -0.15636572323E+01  0.21878889702E+01  0.00000000000E+00 0.  1.
</event>
<event>
 7    1  0.2935819E-010  0.4778728E+02  0.7816164E-02  0.1312668E+00
        -11   -1    0    0    0    0  0.00000000000E+00  0.00000000000E+00  0.45593999997E+02  0.45594000000E+02  0.51100000000E-03 0.  1.
         11   -1    0    0    0    0 -0.00000000000E+00 -0.00000000000E+00 -0.45593999997E+02  0.45594000000E+02  0.51100000000E-03 0. -1.
    9900012    2    1    2    0    0 -0.38400873576E+02  0.14615351650E+02 -0.13978099931E+02  0.47787275663E+02  0.20000021058E+02 0.  0.
        -12    1    1    2    0    0  0.38400873576E+02 -0.14615351650E+02  0.13978099931E+02  0.43400724337E+02  0.00000000000E+00 0.  1.
         11    1    3    3    0    0 -0.11870635041E+02 -0.19179001622E+01  0.25298081637E+01  0.12287808874E+02  0.51100000000E-03 0. -1.
        -11    1    3    3    0    0 -0.24470253447E+02  0.15279768712E+02 -0.14171332004E+02  0.32141737456E+02  0.51100000000E-03 0.  1.
         12    1    3    3    0    0 -0.20599850884E+01  0.12534831002E+01 -0.23365760915E+01  0.33577293337E+01  0.00000000000E+00 0. -1.
</event>
<event>
 7    1  0.2935819E-010  0.4778726E+02  0.7816164E-02  0.1312668E+00
        -11   -1    0    0    0    0  0.00000000000E+00  0.00000000000E+00  0.45593999997E+02  0.45594000000E+02  0.51100000000E-03 0. -1.
         11   -1    0    0    0    0 -0.00000000000E+00 -0.00000000000E+00 -0.45593999997E+02  0.45594000000E+02  0.51100000000E-03 0.  1.
    9900012    2    1    2    0    0  0.59561965039E+01  0.29850602977E+02  0.30936860765E+02  0.47787261194E+02  0.19999955089E+02 0.  0.
        -12    1    1    2    0    0 -0.59561965039E+01 -0.29850602977E+02 -0.30936860765E+02  0.43400738806E+02  0.00000000000E+00 0.  1.
         11    1    3    3    0    0  0.40300676492E+00  0.10099423900E+02  0.26902399147E+00  0.10111041080E+02  0.51100000000E-03 0. -1.
        -11    1    3    3    0    0  0.70092990097E+01  0.12177735828E+02  0.21656026562E+02  0.25814937715E+02  0.51100000000E-03 0.  1.
        -12    1    3    3    0    0 -0.14561092707E+01  0.75734432500E+01  0.90118102113E+01  0.11861282399E+02  0.00000000000E+00 0.  1.
</event>
<event>
 7    1  0.2935819E-010  0.4778727E+02  0.7816164E-02  0.1312668E+00
        -11   -1    0    0    0    0  0.00000000000E+00  0.00000000000E+00  0.45593999997E+02  0.45594000000E+02  0.51100000000E-03 0. -1.
         11   -1    0    0    0    0 -0.00000000000E+00 -0.00000000000E+00 -0.45593999997E+02  0.45594000000E+02  0.51100000000E-03 0.  1.
    9900012    2    1    2    0    0 -0.37313734855E+02 -0.21854793491E+02 -0.36982096268E+01  0.47787267727E+02  0.19999984874E+02 0.  0.
        -12    1    1    2    0    0  0.37313734855E+02  0.21854793491E+02  0.36982096268E+01  0.43400732273E+02  0.00000000000E+00 0.  1.
         11    1    3    3    0    0 -0.22298103612E+01 -0.50878800335E+01 -0.25401361434E+01  0.61082623855E+01  0.51100000000E-03 0. -1.
        -11    1    3    3    0    0 -0.31436524860E+02 -0.13452591302E+02  0.41393622300E+01  0.34443600682E+02  0.51100000000E-03 0.  1.
        -12    1    3    3    0    0 -0.36473996340E+01 -0.33143221553E+01 -0.52974357135E+01  0.72354046588E+01  0.00000000000E+00 0.  1.
</event>
<event>
 7    1  0.2935819E-010  0.4778727E+02  0.7816164E-02  0.1312668E+00
        -11   -1    0    0    0    0  0.00000000000E+00  0.00000000000E+00  0.45593999997E+02  0.45594000000E+02  0.51100000000E-03 0.  1.
         11   -1    0    0    0    0 -0.00000000000E+00 -0.00000000000E+00 -0.45593999997E+02  0.45594000000E+02  0.51100000000E-03 0. -1.
    9900012    2    1    2    0    0 -0.32240981514E+02 -0.11211058424E+02 -0.26803999734E+02  0.47787272797E+02  0.20000007992E+02 0.  0.
        -12    1    1    2    0    0  0.32240981514E+02  0.11211058424E+02  0.26803999734E+02  0.43400727203E+02  0.00000000000E+00 0.  1.
         11    1    3    3    0    0 -0.19635996544E+01 -0.49282700443E+01 -0.47722994366E+01  0.71357137980E+01  0.51100000000E-03 0. -1.
        -11    1    3    3    0    0 -0.18652392333E+02  0.34075749418E+01 -0.13524284761E+02  0.23290117760E+02  0.51100000000E-03 0.  1.
        -12    1    3    3    0    0 -0.11624989527E+02 -0.96903633213E+01 -0.85074155364E+01  0.17361441240E+02  0.00000000000E+00 0.  1.
</event>
<event>
 7    1  0.2935819E-010  0.4778727E+02  0.7816164E-02  0.1312668E+00
        -11   -1    0    0    0    0  0.00000000000E+00  0.00000000000E+00  0.45593999997E+02  0.45594000000E+02  0.51100000000E-03 0. -1.
         11   -1    0    0    0    0 -0.00000000000E+00 -0.00000000000E+00 -0.45593999997E+02  0.45594000000E+02  0.51100000000E-03 0.  1.
    9900012    2    1    2    0    0 -0.26178783815E+01  0.33239339606E+02  0.27783384111E+02  0.47787269392E+02  0.19999992465E+02 0.  0.
        -12    1    1    2    0    0  0.26178783815E+01 -0.33239339606E+02 -0.27783384111E+02  0.43400730608E+02  0.00000000000E+00 0.  1.
         11    1    3    3    0    0 -0.93433127279E+01  0.15675320176E+02  0.11016007081E+02  0.21315852496E+02  0.51100000000E-03 0.  1.
        -11    1    3    3    0    0  0.67612709936E+01  0.18098205988E+02  0.14538333154E+02  0.24178977989E+02  0.51100000000E-03 0. -1.
         12    1    3    3    0    0 -0.35836647217E-01 -0.53418655765E+00  0.22290438756E+01  0.22924389072E+01  0.00000000000E+00 0. -1.
</event>
<event>
 7    1  0.2935819E-010  0.4778728E+02  0.7816164E-02  0.1312668E+00
        -11   -1    0    0    0    0  0.00000000000E+00  0.00000000000E+00  0.45593999997E+02  0.45594000000E+02  0.51100000000E-03 0. -1.
         11   -1    0    0    0    0 -0.00000000000E+00 -0.00000000000E+00 -0.45593999997E+02  0.45594000000E+02  0.51100000000E-03 0.  1.
    9900012    2    1    2    0    0  0.19375725065E+02  0.33429690696E+02  0.19765107858E+02  0.47787280761E+02  0.20000044303E+02 0.  0.
        -12    1    1    2    0    0 -0.19375725065E+02 -0.33429690696E+02 -0.19765107858E+02  0.43400719239E+02  0.00000000000E+00 0.  1.
         11    1    3    3    0    0  0.66539509076E+01  0.64276687030E+01  0.96272419996E+01  0.13351920327E+02  0.51100000000E-03 0. -1.
        -11    1    3    3    0    0  0.11287272802E+02  0.27172478524E+02  0.59684784682E+01  0.30022805531E+02  0.51100000000E-03 0.  1.
        -12    1    3    3    0    0  0.14345013557E+01 -0.17045653176E+00  0.41693873899E+01  0.44125549034E+01  0.00000000000E+00 0.  1.
</event>
<event>
 7    1  0.2935819E-010  0.4778727E+02  0.7816164E-02  0.1312668E+00
        -11   -1    0    0    0    0  0.00000000000E+00  0.00000000000E+00  0.45593999997E+02  0.45594000000E+02  0.51100000000E-03 0.  1.
         11   -1    0    0    0    0 -0.00000000000E+00 -0.00000000000E+00 -0.45593999997E+02  0.45594000000E+02  0.51100000000E-03 0. -1.
    9900012    2    1    2    0    0  0.36675481290E+02 -0.23127767930E+02  0.19075047270E+01  0.47787272453E+02  0.20000006423E+02 0.  0.
        -12    1    1    2    0    0 -0.36675481290E+02  0.23127767930E+02 -0.19075047270E+01  0.43400727547E+02  0.00000000000E+00 0.  1.
         11    1    3    3    0    0  0.21124284538E+02 -0.12360520147E+02 -0.35201817332E+01  0.24726696812E+02  0.51100000000E-03 0. -1.
        -11    1    3    3    0    0  0.85789958903E+00 -0.67919347833E+01  0.35852856652E+01  0.77279132608E+01  0.51100000000E-03 0.  1.
        -12    1    3    3    0    0  0.14693297163E+02 -0.39753130003E+01  0.18424007950E+01  0.15332662380E+02  0.00000000000E+00 0.  1.
</event>
<event>
 7    1  0.2935819E-010  0.4778727E+02  0.7816164E-02  0.1312668E+00
        -11   -1    0    0    0    0  0.00000000000E+00  0.00000000000E+00  0.45593999997E+02  0.45594000000E+02  0.51100000000E-03 0. -1.
         11   -1    0    0    0    0 -0.00000000000E+00 -0.00000000000E+00 -0.45593999997E+02  0.45594000000E+02  0.51100000000E-03 0.  1.
    9900012    2    1    2    0    0  0.26829378143E+02  0.19728897529E+02  0.27831252081E+02  0.47787268190E+02  0.19999986986E+02 0.  0.
        -12    1    1    2    0    0 -0.26829378143E+02 -0.19728897529E+02 -0.27831252081E+02  0.43400731810E+02  0.00000000000E+00 0.  1.
         11    1    3    3    0    0  0.24098739153E+01  0.83194060305E+01  0.52739757837E+01  0.10140750949E+02  0.51100000000E-03 0. -1.
        -11    1    3    3    0    0  0.21547695353E+02  0.10781930743E+02  0.12451363216E+02  0.27121756059E+02  0.51100000000E-03 0.  1.
        -12    1    3    3    0    0  0.28718088754E+01  0.62756075489E+00  0.10105913081E+02  0.10524761181E+02  0.00000000000E+00 0.  1.
</event>
<event>
 7    1  0.2935819E-010  0.4778727E+02  0.7816164E-02  0.1312668E+00
        -11   -1    0    0    0    0  0.00000000000E+00  0.00000000000E+00  0.45593999997E+02  0.45594000000E+02  0.51100000000E-03 0. -1.
         11   -1    0    0    0    0 -0.00000000000E+00 -0.00000000000E+00 -0.45593999997E+02  0.45594000000E+02  0.51100000000E-03 0.  1.
    9900012    2    1    2    0    0  0.22917457030E+02 -0.38641832601E+00  0.36854635915E+02  0.47787270234E+02  0.19999996303E+02 0.  0.
        -12    1    1    2    0    0 -0.22917457030E+02  0.38641832601E+00 -0.36854635915E+02  0.43400729766E+02  0.00000000000E+00 0.  1.
         11    1    3    3    0    0  0.58661286207E+01 -0.24512356681E+01  0.21796100368E+02  0.22704405141E+02  0.51100000000E-03 0. -1.
        -11    1    3    3    0    0  0.57929994576E+01  0.37072893067E+01  0.92617499651E+00  0.69397865316E+01  0.51100000000E-03 0.  1.
         12    1    3    3    0    0  0.11258328952E+02 -0.16424719646E+01  0.14132360550E+02  0.18143078561E+02  0.00000000000E+00 0. -1.
</event>
<event>
 7    1  0.2935819E-010  0.4778727E+02  0.7816164E-02  0.1312668E+00
        -11   -1    0    0    0    0  0.00000000000E+00  0.00000000000E+00  0.45593999997E+02  0.45594000000E+02  0.51100000000E-03 0.  1.
         11   -1    0    0    0    0 -0.00000000000E+00 -0.00000000000E+00 -0.45593999997E+02  0.45594000000E+02  0.51100000000E-03 0. -1.
    9900012    2    1    2    0    0  0.22995422219E+02 -0.34103979812E+02  0.13847481834E+02  0.47787266882E+02  0.19999981021E+02 0.  0.
        -12    1    1    2    0    0 -0.22995422219E+02  0.34103979812E+02 -0.13847481834E+02  0.43400733118E+02  0.00000000000E+00 0.  1.
         11    1    3    3    0    0  0.16104589354E+02 -0.24971335778E+02  0.64957123277E+01  0.30415780241E+02  0.51100000000E-03 0. -1.
        -11    1    3    3    0    0 -0.14049763745E+01 -0.12653167213E+01  0.54661912831E+01  0.57839633835E+01  0.51100000000E-03 0.  1.
        -12    1    3    3    0    0  0.82958092398E+01 -0.78673273131E+01  0.18855782231E+01  0.11587523257E+02  0.00000000000E+00 0.  1.
</event>
<event>
 7    1  0.2935819E-010  0.4778727E+02  0.7816164E-02  0.1312668E+00
        -11   -1    0    0    0    0  0.00000000000E+00  0.00000000000E+00  0.45593999997E+02  0.45594000000E+02  0.51100000000E-03 0.  1.
         11   -1    0    0    0    0 -0.00000000000E+00 -0.00000000000E+00 -0.45593999997E+02  0.45594000000E+02  0.51100000000E-03 0. -1.
    9900012    2    1    2    0    0 -0.22779700158E+02 -0.29349137658E+02 -0.22435163067E+02  0.47787272328E+02  0.20000005854E+02 0.  0.
        -12    1    1    2    0    0  0.22779700158E+02  0.29349137658E+02  0.22435163067E+02  0.43400727672E+02  0.00000000000E+00 0.  1.
         11    1    3    3    0    0 -0.40107490663E+01 -0.66765332069E+01  0.24431850147E+01  0.81628032570E+01  0.51100000000E-03 0. -1.
        -11    1    3    3    0    0 -0.98835863614E+01 -0.99118803757E+01 -0.61680028438E+01  0.15296238469E+02  0.51100000000E-03 0.  1.
         12    1    3    3    0    0 -0.88853647300E+01 -0.12760724076E+02 -0.18710345238E+02  0.24328230603E+02  0.00000000000E+00 0. -1.
</event>
<event>
 7    1  0.2935819E-010  0.4778727E+02  0.7816164E-02  0.1312668E+00
        -11   -1    0    0    0    0  0.00000000000E+00  0.00000000000E+00  0.45593999997E+02  0.45594000000E+02  0.51100000000E-03 0.  1.
         11   -1    0    0    0    0 -0.00000000000E+00 -0.00000000000E+00 -0.45593999997E+02  0.45594000000E+02  0.51100000000E-03 0. -1.
    9900012    2    1    2    0    0 -0.82376786591E+01 -0.39200657899E+01 -0.42431089043E+02  0.47787267485E+02  0.19999983771E+02 0.  0.
        -12    1    1    2    0    0  0.82376786591E+01  0.39200657899E+01  0.42431089043E+02  0.43400732515E+02  0.00000000000E+00 0.  1.
         11    1    3    3    0    0 -0.62614649466E+00 -0.47124447474E+00 -0.18300766339E+02  0.18317537488E+02  0.51100000000E-03 0. -1.
        -11    1    3    3    0    0 -0.11000454733E+02 -0.57761144463E+01 -0.15151008372E+02  0.19594043926E+02  0.51100000000E-03 0.  1.
        -12    1    3    3    0    0  0.33889225686E+01  0.23272931311E+01 -0.89793143317E+01  0.98756860704E+01  0.00000000000E+00 0.  1.
</event>
<event>
 7    1  0.2935819E-010  0.4778727E+02  0.7816164E-02  0.1312668E+00
        -11   -1    0    0    0    0  0.00000000000E+00  0.00000000000E+00  0.45593999997E+02  0.45594000000E+02  0.51100000000E-03 0.  1.
         11   -1    0    0    0    0 -0.00000000000E+00 -0.00000000000E+00 -0.45593999997E+02  0.45594000000E+02  0.51100000000E-03 0. -1.
    9900012    2    1    2    0    0 -0.40995446104E+02 -0.13649349658E+02 -0.40855887252E+01  0.47787269792E+02  0.19999994289E+02 0.  0.
        -12    1    1    2    0    0  0.40995446104E+02  0.13649349658E+02  0.40855887252E+01  0.43400730208E+02  0.00000000000E+00 0.  1.
         11    1    3    3    0    0 -0.24944501159E+02 -0.80310973705E+01 -0.63870000807E+01  0.26972586701E+02  0.51100000000E-03 0. -1.
        -11    1    3    3    0    0 -0.12865446728E+02 -0.51809819445E+01  0.66703225609E+01  0.15390110355E+02  0.51100000000E-03 0.  1.
        -12    1    3    3    0    0 -0.31854982166E+01 -0.43727034347E+00 -0.43689112054E+01  0.54245727354E+01  0.00000000000E+00 0.  1.
</event>
<event>
 7    1  0.2935819E-010  0.4778727E+02  0.7816164E-02  0.1312668E+00
        -11   -1    0    0    0    0  0.00000000000E+00  0.00000000000E+00  0.45593999997E+02  0.45594000000E+02  0.51100000000E-03 0.  1.
         11   -1    0    0    0    0 -0.00000000000E+00 -0.00000000000E+00 -0.45593999997E+02  0.45594000000E+02  0.51100000000E-03 0. -1.
    9900012    2    1    2    0    0 -0.46609879846E+01 -0.27960211340E+02 -0.32865254938E+02  0.47787271788E+02  0.20000003390E+02 0.  0.
        -12    1    1    2    0    0  0.46609879846E+01  0.27960211340E+02  0.32865254938E+02  0.43400728212E+02  0.00000000000E+00 0.  1.
         11    1    3    3    0    0 -0.14927925568E+01 -0.52507878269E+01 -0.56624895830E+01  0.78653029795E+01  0.51100000000E-03 0. -1.
        -11    1    3    3    0    0 -0.91553706280E+00 -0.16340608605E+02 -0.28666802371E+02  0.33009684278E+02  0.51100000000E-03 0.  1.
        -12    1    3    3    0    0 -0.22526583650E+01 -0.63688149083E+01  0.14640370159E+01  0.69122845305E+01  0.00000000000E+00 0.  1.
</event>
<event>
 7    1  0.2935819E-010  0.4778728E+02  0.7816164E-02  0.1312668E+00
        -11   -1    0    0    0    0  0.00000000000E+00  0.00000000000E+00  0.45593999997E+02  0.45594000000E+02  0.51100000000E-03 0.  1.
         11   -1    0    0    0    0 -0.00000000000E+00 -0.00000000000E+00 -0.45593999997E+02  0.45594000000E+02  0.51100000000E-03 0. -1.
    9900012    2    1    2    0    0 -0.10342747769E+02  0.33412261022E+02 -0.25695742232E+02  0.47787276655E+02  0.20000025579E+02 0.  0.
        -12    1    1    2    0    0  0.10342747769E+02 -0.33412261022E+02  0.25695742232E+02  0.43400723345E+02  0.00000000000E+00 0.  1.
         11    1    3    3    0    0 -0.30904285218E+01  0.24822864300E+02 -0.11515706284E+02  0.27537916261E+02  0.51100000000E-03 0. -1.
        -11    1    3    3    0    0 -0.73976354133E+01  0.72221410885E+01 -0.15307188242E+02  0.18471446715E+02  0.51100000000E-03 0.  1.
         12    1    3    3    0    0  0.14531616616E+00  0.13672556338E+01  0.11271522938E+01  0.17779136789E+01  0.00000000000E+00 0. -1.
</event>
<event>
 7    1  0.2935819E-010  0.4778728E+02  0.7816164E-02  0.1312668E+00
        -11   -1    0    0    0    0  0.00000000000E+00  0.00000000000E+00  0.45593999997E+02  0.45594000000E+02  0.51100000000E-03 0.  1.
         11   -1    0    0    0    0 -0.00000000000E+00 -0.00000000000E+00 -0.45593999997E+02  0.45594000000E+02  0.51100000000E-03 0. -1.
    9900012    2    1    2    0    0  0.29131990407E+02 -0.27198486694E+02 -0.17181160977E+02  0.47787276088E+02  0.20000022996E+02 0.  0.
        -12    1    1    2    0    0 -0.29131990407E+02  0.27198486694E+02  0.17181160977E+02  0.43400723912E+02  0.00000000000E+00 0.  1.
         11    1    3    3    0    0  0.60366279338E+01 -0.19096135730E+01 -0.48133180703E+01  0.79533346413E+01  0.51100000000E-03 0. -1.
        -11    1    3    3    0    0  0.61622470593E+01  0.57799971611E+00 -0.52326906945E+01  0.81048395825E+01  0.51100000000E-03 0.  1.
        -12    1    3    3    0    0  0.16933115414E+02 -0.25866872837E+02 -0.71351522126E+01  0.31729101864E+02  0.00000000000E+00 0.  1.
</event>
<event>
 7    1  0.2935819E-010  0.4778727E+02  0.7816164E-02  0.1312668E+00
        -11   -1    0    0    0    0  0.00000000000E+00  0.00000000000E+00  0.45593999997E+02  0.45594000000E+02  0.51100000000E-03 0.  1.
         11   -1    0    0    0    0 -0.00000000000E+00 -0.00000000000E+00 -0.45593999997E+02  0.45594000000E+02  0.51100000000E-03 0. -1.
    9900012    2    1    2    0    0 -0.29334977544E+01 -0.33526661228E+02 -0.27404030504E+02  0.47787270628E+02  0.19999998103E+02 0.  0.
        -12    1    1    2    0    0  0.29334977544E+01  0.33526661228E+02  0.27404030504E+02  0.43400729372E+02  0.00000000000E+00 0.  1.
         11    1    3    3    0    0 -0.34584909945E+01 -0.22574302319E+01  0.12916537045E+01  0.43272994771E+01  0.51100000000E-03 0. -1.
        -11    1    3    3    0    0 -0.75814110105E+00 -0.14546927394E+01  0.49648167913E+00  0.17138854145E+01  0.51100000000E-03 0.  1.
         12    1    3    3    0    0  0.12831343411E+01 -0.29814538256E+02 -0.29192165887E+02  0.41746085737E+02  0.00000000000E+00 0. -1.
</event>
<event>
 7    1  0.2935819E-010  0.4778728E+02  0.7816164E-02  0.1312668E+00
        -11   -1    0    0    0    0  0.00000000000E+00  0.00000000000E+00  0.45593999997E+02  0.45594000000E+02  0.51100000000E-03 0.  1.
         11   -1    0    0    0    0 -0.00000000000E+00 -0.00000000000E+00 -0.45593999997E+02  0.45594000000E+02  0.51100000000E-03 0. -1.
    9900012    2    1    2    0    0  0.42051211367E+02 -0.21945905420E+01 -0.10512003607E+02  0.47787276217E+02  0.20000023583E+02 0.  0.
        -12    1    1    2    0    0 -0.42051211367E+02  0.21945905420E+01  0.10512003607E+02  0.43400723783E+02  0.00000000000E+00 0.  1.
         11    1    3    3    0    0  0.26230511698E+02 -0.41557265496E+00 -0.57071413999E+01  0.26847419015E+02  0.51100000000E-03 0. -1.
        -11    1    3    3    0    0  0.54810088233E+01 -0.48551977539E+00  0.43928686630E+01  0.70409148926E+01  0.51100000000E-03 0.  1.
        -12    1    3    3    0    0  0.10339690846E+02 -0.12934981116E+01 -0.91977308699E+01  0.13898942309E+02  0.00000000000E+00 0.  1.
</event>
<event>
 7    1  0.2935819E-010  0.4778727E+02  0.7816164E-02  0.1312668E+00
        -11   -1    0    0    0    0  0.00000000000E+00  0.00000000000E+00  0.45593999997E+02  0.45594000000E+02  0.51100000000E-03 0.  1.
         11   -1    0    0    0    0 -0.00000000000E+00 -0.00000000000E+00 -0.45593999997E+02  0.45594000000E+02  0.51100000000E-03 0. -1.
    9900012    2    1    2    0    0 -0.36747538772E+02  0.12972244579E+02 -0.19103994187E+02  0.47787270408E+02  0.19999997097E+02 0.  0.
        -12    1    1    2    0    0  0.36747538772E+02 -0.12972244579E+02  0.19103994187E+02  0.43400729592E+02  0.00000000000E+00 0.  1.
         11    1    3    3    0    0 -0.24225114410E+02  0.65028743941E+01 -0.17780615743E+02  0.30745631235E+02  0.51100000000E-03 0. -1.
        -11    1    3    3    0    0 -0.29434934532E+00  0.43939805902E+01  0.74804214172E+00  0.44669088048E+01  0.51100000000E-03 0.  1.
        -12    1    3    3    0    0 -0.12228075017E+02  0.20753895952E+01 -0.20714205856E+01  0.12574730368E+02  0.00000000000E+00 0.  1.
</event>
<event>
 7    1  0.2935819E-010  0.4778725E+02  0.7816164E-02  0.1312668E+00
        -11   -1    0    0    0    0  0.00000000000E+00  0.00000000000E+00  0.45593999997E+02  0.45594000000E+02  0.51100000000E-03 0. -1.
         11   -1    0    0    0    0 -0.00000000000E+00 -0.00000000000E+00 -0.45593999997E+02  0.45594000000E+02  0.51100000000E-03 0.  1.
    9900012    2    1    2    0    0  0.10094061067E+02 -0.83882899078E+01  0.41368724509E+02  0.47787252956E+02  0.19999917530E+02 0.  0.
        -12    1    1    2    0    0 -0.10094061067E+02  0.83882899078E+01 -0.41368724509E+02  0.43400747044E+02  0.00000000000E+00 0.  1.
         11    1    3    3    0    0  0.15973203775E+01 -0.89575890054E+01  0.23766814128E+02  0.25448993835E+02  0.51100000000E-03 0.  1.
        -11    1    3    3    0    0  0.67735402299E+01 -0.10360633171E+01  0.28863137144E+01  0.74353938404E+01  0.51100000000E-03 0. -1.
        -12    1    3    3    0    0  0.17232004597E+01  0.16053624147E+01  0.14715596667E+02  0.14902865281E+02  0.00000000000E+00 0.  1.
</event>
<event>
 7    1  0.2935819E-010  0.4778727E+02  0.7816164E-02  0.1312668E+00
        -11   -1    0    0    0    0  0.00000000000E+00  0.00000000000E+00  0.45593999997E+02  0.45594000000E+02  0.51100000000E-03 0. -1.
         11   -1    0    0    0    0 -0.00000000000E+00 -0.00000000000E+00 -0.45593999997E+02  0.45594000000E+02  0.51100000000E-03 0.  1.
    9900012    2    1    2    0    0 -0.15707380357E+02  0.39322082758E+02  0.95223579121E+01  0.47787270856E+02  0.19999999139E+02 0.  0.
        -12    1    1    2    0    0  0.15707380357E+02 -0.39322082758E+02 -0.95223579121E+01  0.43400729144E+02  0.00000000000E+00 0.  1.
         11    1    3    3    0    0 -0.18449445589E+02  0.28476453487E+02  0.11367427874E+02  0.35784198502E+02  0.51100000000E-03 0. -1.
        -11    1    3    3    0    0  0.74527212816E+00  0.46880840989E+01 -0.27199727545E+01  0.54709976338E+01  0.51100000000E-03 0.  1.
         12    1    3    3    0    0  0.19967931037E+01  0.61575451717E+01  0.87490279234E+00  0.65320747192E+01  0.00000000000E+00 0. -1.
</event>
<event>
 7    1  0.2935819E-010  0.4778727E+02  0.7816164E-02  0.1312668E+00
        -11   -1    0    0    0    0  0.00000000000E+00  0.00000000000E+00  0.45593999997E+02  0.45594000000E+02  0.51100000000E-03 0.  1.
         11   -1    0    0    0    0 -0.00000000000E+00 -0.00000000000E+00 -0.45593999997E+02  0.45594000000E+02  0.51100000000E-03 0. -1.
    9900012    2    1    2    0    0  0.42200769409E+02 -0.69989708458E+01 -0.73302645665E+01  0.47787270626E+02  0.19999998091E+02 0.  0.
        -12    1    1    2    0    0 -0.42200769409E+02  0.69989708458E+01  0.73302645665E+01  0.43400729374E+02  0.00000000000E+00 0.  1.
         11    1    3    3    0    0  0.27436619870E+02 -0.10539531491E+01  0.14264493897E+01  0.27493884507E+02  0.51100000000E-03 0. -1.
        -11    1    3    3    0    0  0.54492876891E+01 -0.68567406797E+01 -0.27822909207E+01  0.91897101203E+01  0.51100000000E-03 0.  1.
        -12    1    3    3    0    0  0.93148618496E+01  0.91172298305E+00 -0.59744230355E+01  0.11103675999E+02  0.00000000000E+00 0.  1.
</event>
<event>
 7    1  0.2935819E-010  0.4778727E+02  0.7816164E-02  0.1312668E+00
        -11   -1    0    0    0    0  0.00000000000E+00  0.00000000000E+00  0.45593999997E+02  0.45594000000E+02  0.51100000000E-03 0.  1.
         11   -1    0    0    0    0 -0.00000000000E+00 -0.00000000000E+00 -0.45593999997E+02  0.45594000000E+02  0.51100000000E-03 0. -1.
    9900012    2    1    2    0    0  0.17976953671E+02  0.57426886391E+01 -0.39082914207E+02  0.47787268221E+02  0.19999987125E+02 0.  0.
        -12    1    1    2    0    0 -0.17976953671E+02 -0.57426886391E+01  0.39082914207E+02  0.43400731779E+02  0.00000000000E+00 0.  1.
         11    1    3    3    0    0  0.17247547744E+02  0.71703862513E+01 -0.17292035830E+02  0.25454014332E+02  0.51100000000E-03 0. -1.
        -11    1    3    3    0    0 -0.19697735607E+01 -0.67352627763E+00 -0.86724260542E+01  0.89187790338E+01  0.51100000000E-03 0.  1.
         12    1    3    3    0    0  0.26991794881E+01 -0.75417133463E+00 -0.13118452322E+02  0.13414474855E+02  0.00000000000E+00 0. -1.
</event>
<event>
 7    1  0.2935819E-010  0.4778727E+02  0.7816164E-02  0.1312668E+00
        -11   -1    0    0    0    0  0.00000000000E+00  0.00000000000E+00  0.45593999997E+02  0.45594000000E+02  0.51100000000E-03 0.  1.
         11   -1    0    0    0    0 -0.00000000000E+00 -0.00000000000E+00 -0.45593999997E+02  0.45594000000E+02  0.51100000000E-03 0. -1.
    9900012    2    1    2    0    0  0.10826628445E+02  0.39597865668E+02 -0.14086036382E+02  0.47787271090E+02  0.20000000208E+02 0.  0.
        -12    1    1    2    0    0 -0.10826628445E+02 -0.39597865668E+02  0.14086036382E+02  0.43400728910E+02  0.00000000000E+00 0.  1.
         11    1    3    3    0    0  0.71265898462E+01  0.29097245173E+02 -0.13286715705E+02  0.32771554341E+02  0.51100000000E-03 0. -1.
        -11    1    3    3    0    0  0.27275109032E+01 -0.12183468379E+01  0.93296916979E+00  0.31295553162E+01  0.51100000000E-03 0.  1.
        -12    1    3    3    0    0  0.97252769570E+00  0.11718967334E+02 -0.17322898466E+01  0.11886161432E+02  0.00000000000E+00 0.  1.
</event>
<event>
 7    1  0.2935819E-010  0.4778727E+02  0.7816164E-02  0.1312668E+00
        -11   -1    0    0    0    0  0.00000000000E+00  0.00000000000E+00  0.45593999997E+02  0.45594000000E+02  0.51100000000E-03 0.  1.
         11   -1    0    0    0    0 -0.00000000000E+00 -0.00000000000E+00 -0.45593999997E+02  0.45594000000E+02  0.51100000000E-03 0. -1.
    9900012    2    1    2    0    0 -0.38599936045E+02  0.19554299813E+02 -0.33611998595E+01  0.47787269956E+02  0.19999995038E+02 0.  0.
        -12    1    1    2    0    0  0.38599936045E+02 -0.19554299813E+02  0.33611998595E+01  0.43400730044E+02  0.00000000000E+00 0.  1.
         11    1    3    3    0    0 -0.14619810232E+02  0.69140665099E+01  0.37165435717E+01  0.16593850165E+02  0.51100000000E-03 0. -1.
        -11    1    3    3    0    0 -0.98507002088E+01  0.11068725583E+02 -0.81958756843E+01  0.16932966637E+02  0.51100000000E-03 0.  1.
        -12    1    3    3    0    0 -0.14129425604E+02  0.15715077200E+01  0.11181322531E+01  0.14260453154E+02  0.00000000000E+00 0.  1.
</event>
<event>
 7    1  0.2935819E-010  0.4778727E+02  0.7816164E-02  0.1312668E+00
        -11   -1    0    0    0    0  0.00000000000E+00  0.00000000000E+00  0.45593999997E+02  0.45594000000E+02  0.51100000000E-03 0.  1.
         11   -1    0    0    0    0 -0.00000000000E+00 -0.00000000000E+00 -0.45593999997E+02  0.45594000000E+02  0.51100000000E-03 0. -1.
    9900012    2    1    2    0    0  0.31211589588E+02 -0.16816672101E+02 -0.25033167327E+02  0.47787271301E+02  0.20000001169E+02 0.  0.
        -12    1    1    2    0    0 -0.31211589588E+02  0.16816672101E+02  0.25033167327E+02  0.43400728699E+02  0.00000000000E+00 0.  1.
         11    1    3    3    0    0  0.26493741333E+02 -0.80815043000E+01 -0.16811622778E+02  0.32401538579E+02  0.51100000000E-03 0. -1.
        -11    1    3    3    0    0  0.38068958079E+01 -0.65903991215E+01 -0.85422956507E+00  0.76586894887E+01  0.51100000000E-03 0.  1.
         12    1    3    3    0    0  0.91095244718E+00 -0.21447686790E+01 -0.73673149847E+01  0.77270432335E+01  0.00000000000E+00 0. -1.
</event>
<event>
 7    1  0.2935819E-010  0.4778727E+02  0.7816164E-02  0.1312668E+00
        -11   -1    0    0    0    0  0.00000000000E+00  0.00000000000E+00  0.45593999997E+02  0.45594000000E+02  0.51100000000E-03 0.  1.
         11   -1    0    0    0    0 -0.00000000000E+00 -0.00000000000E+00 -0.45593999997E+02  0.45594000000E+02  0.51100000000E-03 0. -1.
    9900012    2    1    2    0    0  0.11294383504E+02  0.32981392988E+02 -0.25851264308E+02  0.47787271337E+02  0.20000001334E+02 0.  0.
        -12    1    1    2    0    0 -0.11294383504E+02 -0.32981392988E+02  0.25851264308E+02  0.43400728663E+02  0.00000000000E+00 0.  1.
         11    1    3    3    0    0 -0.20632796991E+00  0.33456317593E+01 -0.81848231512E+01  0.88446115447E+01  0.51100000000E-03 0. -1.
        -11    1    3    3    0    0  0.12017708636E+02  0.15048393260E+02 -0.57462122977E+01  0.20097224102E+02  0.51100000000E-03 0.  1.
        -12    1    3    3    0    0 -0.51699716185E+00  0.14587367968E+02 -0.11920228859E+02  0.18845435690E+02  0.00000000000E+00 0.  1.
</event>
<event>
 7    1  0.2935819E-010  0.4778729E+02  0.7816164E-02  0.1312668E+00
        -11   -1    0    0    0    0  0.00000000000E+00  0.00000000000E+00  0.45593999997E+02  0.45594000000E+02  0.51100000000E-03 0.  1.
         11   -1    0    0    0    0 -0.00000000000E+00 -0.00000000000E+00 -0.45593999997E+02  0.45594000000E+02  0.51100000000E-03 0. -1.
    9900012    2    1    2    0    0 -0.33084161013E+01  0.32523144467E+02 -0.28546829813E+02  0.47787285311E+02  0.20000065049E+02 0.  0.
        -12    1    1    2    0    0  0.33084161013E+01 -0.32523144467E+02  0.28546829813E+02  0.43400714689E+02  0.00000000000E+00 0.  1.
         11    1    3    3    0    0 -0.33920209683E+00  0.25902247915E+02 -0.26012877989E+02  0.36711188031E+02  0.51100000000E-03 0. -1.
        -11    1    3    3    0    0 -0.32624661357E+01  0.81637303069E+01 -0.32196170042E+01  0.93624842710E+01  0.51100000000E-03 0.  1.
         12    1    3    3    0    0  0.29325213129E+00 -0.15428337547E+01  0.68566518030E+00  0.17136130096E+01  0.00000000000E+00 0. -1.
</event>
<event>
 7    1  0.2935819E-010  0.4778727E+02  0.7816164E-02  0.1312668E+00
        -11   -1    0    0    0    0  0.00000000000E+00  0.00000000000E+00  0.45593999997E+02  0.45594000000E+02  0.51100000000E-03 0. -1.
         11   -1    0    0    0    0 -0.00000000000E+00 -0.00000000000E+00 -0.45593999997E+02  0.45594000000E+02  0.51100000000E-03 0.  1.
    9900012    2    1    2    0    0  0.37326826961E+02  0.19695071436E+02  0.10121041087E+02  0.47787270484E+02  0.19999997445E+02 0.  0.
        -12    1    1    2    0    0 -0.37326826961E+02 -0.19695071436E+02 -0.10121041087E+02  0.43400729516E+02  0.00000000000E+00 0.  1.
         11    1    3    3    0    0  0.35093092080E+00 -0.20418708722E+01  0.12141763561E+01  0.24013774495E+01  0.51100000000E-03 0.  1.
        -11    1    3    3    0    0  0.26993641071E+02  0.16808798855E+02  0.11742308983E+02  0.33897996958E+02  0.51100000000E-03 0. -1.
         12    1    3    3    0    0  0.99822549692E+01  0.49281434526E+01 -0.28354442530E+01  0.11487896077E+02  0.00000000000E+00 0. -1.
</event>
<event>
 7    1  0.2935819E-010  0.4778727E+02  0.7816164E-02  0.1312668E+00
        -11   -1    0    0    0    0  0.00000000000E+00  0.00000000000E+00  0.45593999997E+02  0.45594000000E+02  0.51100000000E-03 0.  1.
         11   -1    0    0    0    0 -0.00000000000E+00 -0.00000000000E+00 -0.45593999997E+02  0.45594000000E+02  0.51100000000E-03 0. -1.
    9900012    2    1    2    0    0  0.39831933600E+02  0.21182778780E+01  0.17104185540E+02  0.47787271913E+02  0.20000003961E+02 0.  0.
        -12    1    1    2    0    0 -0.39831933600E+02 -0.21182778780E+01 -0.17104185540E+02  0.43400728087E+02  0.00000000000E+00 0.  1.
         11    1    3    3    0    0  0.26024953261E+02  0.47275291152E+01  0.34214943515E+01  0.26671226962E+02  0.51100000000E-03 0. -1.
        -11    1    3    3    0    0  0.50335107114E+01  0.23399354460E+01  0.73767186796E+01  0.92318744961E+01  0.51100000000E-03 0.  1.
         12    1    3    3    0    0  0.87734696275E+01 -0.49491866832E+01  0.63059725087E+01  0.11884170455E+02  0.00000000000E+00 0. -1.
</event>
<event>
 7    1  0.2935819E-010  0.4778727E+02  0.7816164E-02  0.1312668E+00
        -11   -1    0    0    0    0  0.00000000000E+00  0.00000000000E+00  0.45593999997E+02  0.45594000000E+02  0.51100000000E-03 0.  1.
         11   -1    0    0    0    0 -0.00000000000E+00 -0.00000000000E+00 -0.45593999997E+02  0.45594000000E+02  0.51100000000E-03 0. -1.
    9900012    2    1    2    0    0  0.29211794631E+02  0.25642523401E+02 -0.19306869995E+02  0.47787272115E+02  0.20000004882E+02 0.  0.
        -12    1    1    2    0    0 -0.29211794631E+02 -0.25642523401E+02  0.19306869995E+02  0.43400727885E+02  0.00000000000E+00 0.  1.
         11    1    3    3    0    0  0.66236848223E+01  0.89779070715E+01 -0.52647739041E+01  0.12336687583E+02  0.51100000000E-03 0. -1.
        -11    1    3    3    0    0  0.11053958508E+02  0.85771505814E+01 -0.15970284844E+02  0.21232228075E+02  0.51100000000E-03 0.  1.
        -12    1    3    3    0    0  0.11534151301E+02  0.80874657477E+01  0.19281887531E+01  0.14218356456E+02  0.00000000000E+00 0.  1.
</event>
<event>
 7    1  0.2935819E-010  0.4778728E+02  0.7816164E-02  0.1312668E+00
        -11   -1    0    0    0    0  0.00000000000E+00  0.00000000000E+00  0.45593999997E+02  0.45594000000E+02  0.51100000000E-03 0.  1.
         11   -1    0    0    0    0 -0.00000000000E+00 -0.00000000000E+00 -0.45593999997E+02  0.45594000000E+02  0.51100000000E-03 0. -1.
    9900012    2    1    2    0    0  0.56188980397E+01  0.39891987684E+02 -0.16145587713E+02  0.47787277665E+02  0.20000030188E+02 0.  0.
        -12    1    1    2    0    0 -0.56188980397E+01 -0.39891987684E+02  0.16145587713E+02  0.43400722335E+02  0.00000000000E+00 0.  1.
         11    1    3    3    0    0 -0.41511129463E+01  0.18644864714E+02 -0.98724723435E+01  0.21501823860E+02  0.51100000000E-03 0. -1.
        -11    1    3    3    0    0  0.29131262088E+01  0.45567196125E+01  0.27984256442E+01  0.60894321806E+01  0.51100000000E-03 0.  1.
         12    1    3    3    0    0  0.68568847772E+01  0.16690403358E+02 -0.90715410133E+01  0.20196021624E+02  0.00000000000E+00 0. -1.
</event>
<event>
 7    1  0.2935819E-010  0.4778727E+02  0.7816164E-02  0.1312668E+00
        -11   -1    0    0    0    0  0.00000000000E+00  0.00000000000E+00  0.45593999997E+02  0.45594000000E+02  0.51100000000E-03 0.  1.
         11   -1    0    0    0    0 -0.00000000000E+00 -0.00000000000E+00 -0.45593999997E+02  0.45594000000E+02  0.51100000000E-03 0. -1.
    9900012    2    1    2    0    0  0.16110759393E+02  0.40171812707E+02  0.32081506384E+01  0.47787270341E+02  0.19999996792E+02 0.  0.
        -12    1    1    2    0    0 -0.16110759393E+02 -0.40171812707E+02 -0.32081506384E+01  0.43400729659E+02  0.00000000000E+00 0.  1.
         11    1    3    3    0    0  0.19341603599E+02  0.36926131335E+02  0.20903297626E+01  0.41737348789E+02  0.51100000000E-03 0. -1.
        -11    1    3    3    0    0 -0.37377685589E+00 -0.85696379292E+00  0.41081848138E-01  0.93583335041E+00  0.51100000000E-03 0.  1.
         12    1    3    3    0    0 -0.28570673502E+01  0.41026451654E+01  0.10767390277E+01  0.51140882012E+01  0.00000000000E+00 0. -1.
</event>
<event>
 7    1  0.2935819E-010  0.4778727E+02  0.7816164E-02  0.1312668E+00
        -11   -1    0    0    0    0  0.00000000000E+00  0.00000000000E+00  0.45593999997E+02  0.45594000000E+02  0.51100000000E-03 0. -1.
         11   -1    0    0    0    0 -0.00000000000E+00 -0.00000000000E+00 -0.45593999997E+02  0.45594000000E+02  0.51100000000E-03 0.  1.
    9900012    2    1    2    0    0  0.31246455938E+02  0.27234670555E+02 -0.12866815892E+02  0.47787271433E+02  0.20000001773E+02 0.  0.
        -12    1    1    2    0    0 -0.31246455938E+02 -0.27234670555E+02  0.12866815892E+02  0.43400728567E+02  0.00000000000E+00 0.  1.
         11    1    3    3    0    0  0.11772611488E+02  0.15620812771E+02 -0.27704772426E+01  0.19755498406E+02  0.51100000000E-03 0. -1.
        -11    1    3    3    0    0  0.21072612332E+02  0.92686773470E+01 -0.10227214446E+02  0.25190460215E+02  0.51100000000E-03 0.  1.
        -12    1    3    3    0    0 -0.15987678817E+01  0.23451804374E+01  0.13087579644E+00  0.28413128124E+01  0.00000000000E+00 0.  1.
</event>
<event>
 7    1  0.2935819E-010  0.4778727E+02  0.7816164E-02  0.1312668E+00
        -11   -1    0    0    0    0  0.00000000000E+00  0.00000000000E+00  0.45593999997E+02  0.45594000000E+02  0.51100000000E-03 0.  1.
         11   -1    0    0    0    0 -0.00000000000E+00 -0.00000000000E+00 -0.45593999997E+02  0.45594000000E+02  0.51100000000E-03 0. -1.
    9900012    2    1    2    0    0  0.75969285651E+01  0.42697307904E+02  0.16880706981E+01  0.47787274101E+02  0.20000013937E+02 0.  0.
        -12    1    1    2    0    0 -0.75969285651E+01 -0.42697307904E+02 -0.16880706981E+01  0.43400725899E+02  0.00000000000E+00 0.  1.
         11    1    3    3    0    0  0.92411359308E+01  0.32891743264E+02  0.83235187073E+01  0.35164560742E+02  0.51100000000E-03 0. -1.
        -11    1    3    3    0    0 -0.24293700550E+01  0.77887870138E+01 -0.36568935662E+01  0.89409123039E+01  0.51100000000E-03 0.  1.
         12    1    3    3    0    0  0.78516268927E+00  0.20167776256E+01 -0.29785544429E+01  0.36818010550E+01  0.00000000000E+00 0. -1.
</event>
<event>
 7    1  0.2935819E-010  0.4778727E+02  0.7816164E-02  0.1312668E+00
        -11   -1    0    0    0    0  0.00000000000E+00  0.00000000000E+00  0.45593999997E+02  0.45594000000E+02  0.51100000000E-03 0.  1.
         11   -1    0    0    0    0 -0.00000000000E+00 -0.00000000000E+00 -0.45593999997E+02  0.45594000000E+02  0.51100000000E-03 0. -1.
    9900012    2    1    2    0    0 -0.37569976387E+02 -0.13544321309E+02 -0.16990333429E+02  0.47787271948E+02  0.20000004118E+02 0.  0.
        -12    1    1    2    0    0  0.37569976387E+02  0.13544321309E+02  0.16990333429E+02  0.43400728052E+02  0.00000000000E+00 0.  1.
         11    1    3    3    0    0 -0.16609750155E+02  0.29970877534E+01 -0.62200846372E+01  0.17987656556E+02  0.51100000000E-03 0. -1.
        -11    1    3    3    0    0 -0.78413949965E+01 -0.89098086579E+01 -0.13714377482E+01  0.11947929008E+02  0.51100000000E-03 0.  1.
         12    1    3    3    0    0 -0.13118831235E+02 -0.76316004047E+01 -0.93988110440E+01  0.17851686384E+02  0.00000000000E+00 0. -1.
</event>
<event>
 7    1  0.2935819E-010  0.4778727E+02  0.7816164E-02  0.1312668E+00
        -11   -1    0    0    0    0  0.00000000000E+00  0.00000000000E+00  0.45593999997E+02  0.45594000000E+02  0.51100000000E-03 0.  1.
         11   -1    0    0    0    0 -0.00000000000E+00 -0.00000000000E+00 -0.45593999997E+02  0.45594000000E+02  0.51100000000E-03 0. -1.
    9900012    2    1    2    0    0  0.20742684204E+02  0.31112208899E+02 -0.22031676884E+02  0.47787271010E+02  0.19999999844E+02 0.  0.
        -12    1    1    2    0    0 -0.20742684204E+02 -0.31112208899E+02  0.22031676884E+02  0.43400728990E+02  0.00000000000E+00 0.  1.
         11    1    3    3    0    0 -0.32210771968E+01  0.11187123926E+01 -0.49018067358E+00  0.34448705460E+01  0.51100000000E-03 0. -1.
        -11    1    3    3    0    0  0.32854504844E+01  0.31521604572E+01 -0.82226944869E+00  0.46267080890E+01  0.51100000000E-03 0.  1.
         12    1    3    3    0    0  0.20678310916E+02  0.26841336049E+02 -0.20719226762E+02  0.39715692375E+02  0.00000000000E+00 0. -1.
</event>
<event>
 7    1  0.2935819E-010  0.4778726E+02  0.7816164E-02  0.1312668E+00
        -11   -1    0    0    0    0  0.00000000000E+00  0.00000000000E+00  0.45593999997E+02  0.45594000000E+02  0.51100000000E-03 0. -1.
         11   -1    0    0    0    0 -0.00000000000E+00 -0.00000000000E+00 -0.45593999997E+02  0.45594000000E+02  0.51100000000E-03 0.  1.
    9900012    2    1    2    0    0 -0.26324770839E+02  0.19959831425E+02  0.28146681399E+02  0.47787261481E+02  0.19999956397E+02 0.  0.
        -12    1    1    2    0    0  0.26324770839E+02 -0.19959831425E+02 -0.28146681399E+02  0.43400738519E+02  0.00000000000E+00 0.  1.
         11    1    3    3    0    0 -0.15152303051E+01  0.10210529541E+01 -0.25121434260E+01  0.31063381764E+01  0.51100000000E-03 0. -1.
        -11    1    3    3    0    0 -0.22266805985E+02  0.13450077044E+02  0.21727746741E+02  0.33894102732E+02  0.51100000000E-03 0.  1.
         12    1    3    3    0    0 -0.25427345485E+01  0.54887014265E+01  0.89310780838E+01  0.10786820573E+02  0.00000000000E+00 0. -1.
</event>
<event>
 7    1  0.2935819E-010  0.4778725E+02  0.7816164E-02  0.1312668E+00
        -11   -1    0    0    0    0  0.00000000000E+00  0.00000000000E+00  0.45593999997E+02  0.45594000000E+02  0.51100000000E-03 0.  1.
         11   -1    0    0    0    0 -0.00000000000E+00 -0.00000000000E+00 -0.45593999997E+02  0.45594000000E+02  0.51100000000E-03 0. -1.
    9900012    2    1    2    0    0  0.34459141658E+02 -0.25443654826E+02  0.69866057103E+01  0.47787254913E+02  0.19999926452E+02 0.  0.
        -12    1    1    2    0    0 -0.34459141658E+02  0.25443654826E+02 -0.69866057103E+01  0.43400745087E+02  0.00000000000E+00 0.  1.
         11    1    3    3    0    0  0.10376564494E+02 -0.42548421912E+01 -0.39901596266E+01  0.11903703074E+02  0.51100000000E-03 0. -1.
        -11    1    3    3    0    0  0.88409485553E+01 -0.15188240591E+02  0.36979346373E+01  0.17958834719E+02  0.51100000000E-03 0.  1.
        -12    1    3    3    0    0  0.15241628609E+02 -0.60005720438E+01  0.72788306996E+01  0.17924717121E+02  0.00000000000E+00 0.  1.
</event>
<event>
 7    1  0.2935819E-010  0.4778724E+02  0.7816164E-02  0.1312668E+00
        -11   -1    0    0    0    0  0.00000000000E+00  0.00000000000E+00  0.45593999997E+02  0.45594000000E+02  0.51100000000E-03 0. -1.
         11   -1    0    0    0    0 -0.00000000000E+00 -0.00000000000E+00 -0.45593999997E+02  0.45594000000E+02  0.51100000000E-03 0.  1.
    9900012    2    1    2    0    0  0.65586737324E+01 -0.35592528749E+02  0.23953743118E+02  0.47787238333E+02  0.19999850855E+02 0.  0.
        -12    1    1    2    0    0 -0.65586737324E+01  0.35592528749E+02 -0.23953743118E+02  0.43400761667E+02  0.00000000000E+00 0.  1.
         11    1    3    3    0    0  0.61948661422E+01 -0.37297466993E+01  0.17853976861E+01  0.74481556186E+01  0.51100000000E-03 0. -1.
        -11    1    3    3    0    0 -0.98590181823E+00  0.32531118277E+00 -0.27728462932E+00  0.10745774926E+01  0.51100000000E-03 0.  1.
         12    1    3    3    0    0  0.13497094085E+01 -0.32188093233E+02  0.22445630062E+02  0.39264505222E+02  0.00000000000E+00 0. -1.
</event>
<event>
 7    1  0.2935819E-010  0.4778728E+02  0.7816164E-02  0.1312668E+00
        -11   -1    0    0    0    0  0.00000000000E+00  0.00000000000E+00  0.45593999997E+02  0.45594000000E+02  0.51100000000E-03 0. -1.
         11   -1    0    0    0    0 -0.00000000000E+00 -0.00000000000E+00 -0.45593999997E+02  0.45594000000E+02  0.51100000000E-03 0.  1.
    9900012    2    1    2    0    0 -0.23582769436E+02  0.11111027726E+02  0.34698996983E+02  0.47787281769E+02  0.20000048897E+02 0.  0.
        -12    1    1    2    0    0  0.23582769436E+02 -0.11111027726E+02 -0.34698996983E+02  0.43400718231E+02  0.00000000000E+00 0.  1.
         11    1    3    3    0    0 -0.20716685686E+02  0.48525224720E+01  0.25344288985E+02  0.33091706281E+02  0.51100000000E-03 0. -1.
        -11    1    3    3    0    0 -0.34746766570E+01  0.28770276748E+01 -0.22660165294E+00  0.45168589399E+01  0.51100000000E-03 0.  1.
         12    1    3    3    0    0  0.60859290747E+00  0.33814775790E+01  0.95813096508E+01  0.10178716548E+02  0.00000000000E+00 0. -1.
</event>
<event>
 7    1  0.2935819E-010  0.4778727E+02  0.7816164E-02  0.1312668E+00
        -11   -1    0    0    0    0  0.00000000000E+00  0.00000000000E+00  0.45593999997E+02  0.45594000000E+02  0.51100000000E-03 0.  1.
         11   -1    0    0    0    0 -0.00000000000E+00 -0.00000000000E+00 -0.45593999997E+02  0.45594000000E+02  0.51100000000E-03 0. -1.
    9900012    2    1    2    0    0  0.11969053026E+02 -0.40708194757E+02 -0.91218207850E+01  0.47787274601E+02  0.20000016216E+02 0.  0.
        -12    1    1    2    0    0 -0.11969053026E+02  0.40708194757E+02  0.91218207850E+01  0.43400725399E+02  0.00000000000E+00 0.  1.
         11    1    3    3    0    0 -0.44678393308E-01 -0.42142221977E+01 -0.14956427217E+01  0.44719808030E+01  0.51100000000E-03 0. -1.
        -11    1    3    3    0    0  0.57642445447E+01 -0.35515734365E+02 -0.45044057560E+01  0.36261323392E+02  0.51100000000E-03 0.  1.
        -12    1    3    3    0    0  0.62494868741E+01 -0.97823819469E+00 -0.31217723074E+01  0.70539704064E+01  0.00000000000E+00 0.  1.
</event>
<event>
 7    1  0.2935819E-010  0.4778729E+02  0.7816164E-02  0.1312668E+00
        -11   -1    0    0    0    0  0.00000000000E+00  0.00000000000E+00  0.45593999997E+02  0.45594000000E+02  0.51100000000E-03 0.  1.
         11   -1    0    0    0    0 -0.00000000000E+00 -0.00000000000E+00 -0.45593999997E+02  0.45594000000E+02  0.51100000000E-03 0. -1.
    9900012    2    1    2    0    0  0.10830299949E+02  0.33501161303E+02 -0.25377121678E+02  0.47787291362E+02  0.20000092637E+02 0.  0.
        -12    1    1    2    0    0 -0.10830299949E+02 -0.33501161303E+02  0.25377121678E+02  0.43400708638E+02  0.00000000000E+00 0.  1.
         11    1    3    3    0    0 -0.40426688559E+00  0.15915274909E+02 -0.64745182260E+01  0.17186587609E+02  0.51100000000E-03 0.  1.
        -11    1    3    3    0    0  0.36993588606E+00  0.11685982405E+02 -0.87617604648E+01  0.14610526480E+02  0.51100000000E-03 0. -1.
        -12    1    3    3    0    0  0.10864630949E+02  0.58999039893E+01 -0.10140842987E+02  0.15990177273E+02  0.00000000000E+00 0.  1.
</event>
<event>
 7    1  0.2935819E-010  0.4778726E+02  0.7816164E-02  0.1312668E+00
        -11   -1    0    0    0    0  0.00000000000E+00  0.00000000000E+00  0.45593999997E+02  0.45594000000E+02  0.51100000000E-03 0. -1.
         11   -1    0    0    0    0 -0.00000000000E+00 -0.00000000000E+00 -0.45593999997E+02  0.45594000000E+02  0.51100000000E-03 0.  1.
    9900012    2    1    2    0    0  0.58405913235E+01  0.11483249845E+02  0.41444504688E+02  0.47787256886E+02  0.19999935447E+02 0.  0.
        -12    1    1    2    0    0 -0.58405913235E+01 -0.11483249845E+02 -0.41444504688E+02  0.43400743114E+02  0.00000000000E+00 0.  1.
         11    1    3    3    0    0  0.75367899533E+01  0.13914982419E+02  0.37434756059E+02  0.40642230500E+02  0.51100000000E-03 0. -1.
        -11    1    3    3    0    0 -0.35219950226E+01 -0.15151134380E+01  0.22290927548E+01  0.44349602523E+01  0.51100000000E-03 0.  1.
        -12    1    3    3    0    0  0.18257963928E+01 -0.91661913673E+00  0.17806558741E+01  0.27100661342E+01  0.00000000000E+00 0.  1.
</event>
<event>
 7    1  0.2935819E-010  0.4778727E+02  0.7816164E-02  0.1312668E+00
        -11   -1    0    0    0    0  0.00000000000E+00  0.00000000000E+00  0.45593999997E+02  0.45594000000E+02  0.51100000000E-03 0.  1.
         11   -1    0    0    0    0 -0.00000000000E+00 -0.00000000000E+00 -0.45593999997E+02  0.45594000000E+02  0.51100000000E-03 0. -1.
    9900012    2    1    2    0    0  0.33286232488E+02  0.27645838476E+02 -0.33701097275E+01  0.47787270768E+02  0.19999998739E+02 0.  0.
        -12    1    1    2    0    0 -0.33286232488E+02 -0.27645838476E+02  0.33701097275E+01  0.43400729232E+02  0.00000000000E+00 0.  1.
         11    1    3    3    0    0  0.24017256366E+02  0.19569264314E+02 -0.66480296962E+01  0.31685659347E+02  0.51100000000E-03 0. -1.
        -11    1    3    3    0    0  0.41343878329E+01  0.33070849466E+00  0.51595121925E+01  0.66199015995E+01  0.51100000000E-03 0.  1.
         12    1    3    3    0    0  0.51345882891E+01  0.77458656676E+01 -0.18815922238E+01  0.94817098213E+01  0.00000000000E+00 0. -1.
</event>
<event>
 7    1  0.2935819E-010  0.4778727E+02  0.7816164E-02  0.1312668E+00
        -11   -1    0    0    0    0  0.00000000000E+00  0.00000000000E+00  0.45593999997E+02  0.45594000000E+02  0.51100000000E-03 0. -1.
         11   -1    0    0    0    0 -0.00000000000E+00 -0.00000000000E+00 -0.45593999997E+02  0.45594000000E+02  0.51100000000E-03 0.  1.
    9900012    2    1    2    0    0  0.31352698509E+02  0.15981568252E+02  0.25401203216E+02  0.47787270140E+02  0.19999995876E+02 0.  0.
        -12    1    1    2    0    0 -0.31352698509E+02 -0.15981568252E+02 -0.25401203216E+02  0.43400729860E+02  0.00000000000E+00 0.  1.
         11    1    3    3    0    0  0.73030739816E+01  0.21928618948E+01  0.97350019631E+01  0.12365831810E+02  0.51100000000E-03 0. -1.
        -11    1    3    3    0    0  0.10646119151E+02 -0.18986926438E+01  0.30484211719E+01  0.11235557781E+02  0.51100000000E-03 0.  1.
        -12    1    3    3    0    0  0.13403505375E+02  0.15687399001E+02  0.12617780081E+02  0.24185880549E+02  0.00000000000E+00 0.  1.
</event>
<event>
 7    1  0.2935819E-010  0.4778727E+02  0.7816164E-02  0.1312668E+00
        -11   -1    0    0    0    0  0.00000000000E+00  0.00000000000E+00  0.45593999997E+02  0.45594000000E+02  0.51100000000E-03 0. -1.
         11   -1    0    0    0    0 -0.00000000000E+00 -0.00000000000E+00 -0.45593999997E+02  0.45594000000E+02  0.51100000000E-03 0.  1.
    9900012    2    1    2    0    0  0.37392053192E+02 -0.19814870541E+02  0.96347530670E+01  0.47787271859E+02  0.20000003715E+02 0.  0.
        -12    1    1    2    0    0 -0.37392053192E+02  0.19814870541E+02 -0.96347530670E+01  0.43400728141E+02  0.00000000000E+00 0.  1.
         11    1    3    3    0    0  0.25025085893E+02 -0.13649877419E+02  0.58223859366E+01  0.29094230627E+02  0.51100000000E-03 0. -1.
        -11    1    3    3    0    0 -0.24084583711E+01 -0.41198644940E+00  0.56826317188E+00  0.25086506041E+01  0.51100000000E-03 0.  1.
        -12    1    3    3    0    0  0.14775425670E+02 -0.57530066725E+01  0.32441039585E+01  0.16184390628E+02  0.00000000000E+00 0.  1.
</event>
<event>
 7    1  0.2935819E-010  0.4778727E+02  0.7816164E-02  0.1312668E+00
        -11   -1    0    0    0    0  0.00000000000E+00  0.00000000000E+00  0.45593999997E+02  0.45594000000E+02  0.51100000000E-03 0.  1.
         11   -1    0    0    0    0 -0.00000000000E+00 -0.00000000000E+00 -0.45593999997E+02  0.45594000000E+02  0.51100000000E-03 0. -1.
    9900012    2    1    2    0    0 -0.32234353756E+02 -0.27568523195E+02 -0.91948972253E+01  0.47787272262E+02  0.20000005551E+02 0.  0.
        -12    1    1    2    0    0  0.32234353756E+02  0.27568523195E+02  0.91948972253E+01  0.43400727738E+02  0.00000000000E+00 0.  1.
         11    1    3    3    0    0 -0.66848749941E+01 -0.53775868268E+00  0.34954898460E+01  0.75627500033E+01  0.51100000000E-03 0. -1.
        -11    1    3    3    0    0 -0.84655005611E+01 -0.38412195143E+01 -0.41619377510E+01  0.10185351894E+02  0.51100000000E-03 0.  1.
         12    1    3    3    0    0 -0.17083978201E+02 -0.23189544998E+02 -0.85284493203E+01  0.30039170364E+02  0.00000000000E+00 0. -1.
</event>
<event>
 7    1  0.2935819E-010  0.4778727E+02  0.7816164E-02  0.1312668E+00
        -11   -1    0    0    0    0  0.00000000000E+00  0.00000000000E+00  0.45593999997E+02  0.45594000000E+02  0.51100000000E-03 0.  1.
         11   -1    0    0    0    0 -0.00000000000E+00 -0.00000000000E+00 -0.45593999997E+02  0.45594000000E+02  0.51100000000E-03 0. -1.
    9900012    2    1    2    0    0  0.35065496654E+02 -0.25481933629E+02  0.21692017092E+01  0.47787269210E+02  0.19999991634E+02 0.  0.
        -12    1    1    2    0    0 -0.35065496654E+02  0.25481933629E+02 -0.21692017092E+01  0.43400730790E+02  0.00000000000E+00 0.  1.
         11    1    3    3    0    0  0.97104627833E+01 -0.17631587104E+01 -0.29531175509E+00  0.98736530929E+01  0.51100000000E-03 0. -1.
        -11    1    3    3    0    0  0.76747622127E+01 -0.16956422754E+02  0.35711258438E+01  0.18951917784E+02  0.51100000000E-03 0.  1.
        -12    1    3    3    0    0  0.17680271658E+02 -0.67623521651E+01 -0.11066123795E+01  0.18961698333E+02  0.00000000000E+00 0.  1.
</event>
<event>
 7    1  0.2935819E-010  0.4778726E+02  0.7816164E-02  0.1312668E+00
        -11   -1    0    0    0    0  0.00000000000E+00  0.00000000000E+00  0.45593999997E+02  0.45594000000E+02  0.51100000000E-03 0.  1.
         11   -1    0    0    0    0 -0.00000000000E+00 -0.00000000000E+00 -0.45593999997E+02  0.45594000000E+02  0.51100000000E-03 0. -1.
    9900012    2    1    2    0    0 -0.17996536596E+02  0.27843735722E+01 -0.39395385070E+02  0.47787257720E+02  0.19999939249E+02 0.  0.
        -12    1    1    2    0    0  0.17996536596E+02 -0.27843735722E+01  0.39395385070E+02  0.43400742280E+02  0.00000000000E+00 0.  1.
         11    1    3    3    0    0 -0.67885848014E+01  0.87254071346E+01 -0.20658223261E+02  0.23430318005E+02  0.51100000000E-03 0. -1.
        -11    1    3    3    0    0 -0.17890773899E+01 -0.65843611148E+00 -0.10768733824E+02  0.10936176867E+02  0.51100000000E-03 0.  1.
         12    1    3    3    0    0 -0.94188744049E+01 -0.52825974509E+01 -0.79684279846E+01  0.13420762848E+02  0.00000000000E+00 0. -1.
</event>
<event>
 7    1  0.2935819E-010  0.4778727E+02  0.7816164E-02  0.1312668E+00
        -11   -1    0    0    0    0  0.00000000000E+00  0.00000000000E+00  0.45593999997E+02  0.45594000000E+02  0.51100000000E-03 0.  1.
         11   -1    0    0    0    0 -0.00000000000E+00 -0.00000000000E+00 -0.45593999997E+02  0.45594000000E+02  0.51100000000E-03 0. -1.
    9900012    2    1    2    0    0  0.18648208927E+02  0.14767824840E+02 -0.36301224402E+02  0.47787271437E+02  0.20000001789E+02 0.  0.
        -12    1    1    2    0    0 -0.18648208927E+02 -0.14767824840E+02  0.36301224402E+02  0.43400728563E+02  0.00000000000E+00 0.  1.
         11    1    3    3    0    0  0.14849147559E+02  0.85139279292E+01 -0.16538083595E+02  0.23801100001E+02  0.51100000000E-03 0. -1.
        -11    1    3    3    0    0 -0.32608740379E+00  0.87596303066E+01 -0.12808329106E+02  0.15520655619E+02  0.51100000000E-03 0.  1.
        -12    1    3    3    0    0  0.41251487724E+01 -0.25057333954E+01 -0.69548117015E+01  0.84655158169E+01  0.00000000000E+00 0.  1.
</event>
<event>
 7    1  0.2935819E-010  0.4778727E+02  0.7816164E-02  0.1312668E+00
        -11   -1    0    0    0    0  0.00000000000E+00  0.00000000000E+00  0.45593999997E+02  0.45594000000E+02  0.51100000000E-03 0. -1.
         11   -1    0    0    0    0 -0.00000000000E+00 -0.00000000000E+00 -0.45593999997E+02  0.45594000000E+02  0.51100000000E-03 0.  1.
    9900012    2    1    2    0    0 -0.40254407177E+02  0.58524571171E+00  0.16213064498E+02  0.47787271087E+02  0.20000000196E+02 0.  0.
        -12    1    1    2    0    0  0.40254407177E+02 -0.58524571171E+00 -0.16213064498E+02  0.43400728913E+02  0.00000000000E+00 0.  1.
         11    1    3    3    0    0 -0.22490449767E+02  0.96126267213E+01  0.85237418996E+01  0.25901295323E+02  0.51100000000E-03 0. -1.
        -11    1    3    3    0    0 -0.10449866222E+02 -0.52258856276E+01  0.69860227295E+01  0.13613012102E+02  0.51100000000E-03 0.  1.
        -12    1    3    3    0    0 -0.73140911883E+01 -0.38014953820E+01  0.70329986910E+00  0.82729636622E+01  0.00000000000E+00 0.  1.
</event>
<event>
 7    1  0.2935819E-010  0.4778728E+02  0.7816164E-02  0.1312668E+00
        -11   -1    0    0    0    0  0.00000000000E+00  0.00000000000E+00  0.45593999997E+02  0.45594000000E+02  0.51100000000E-03 0.  1.
         11   -1    0    0    0    0 -0.00000000000E+00 -0.00000000000E+00 -0.45593999997E+02  0.45594000000E+02  0.51100000000E-03 0. -1.
    9900012    2    1    2    0    0 -0.75897734934E+01  0.61375560564E+01 -0.42288871271E+02  0.47787275474E+02  0.20000020195E+02 0.  0.
        -12    1    1    2    0    0  0.75897734934E+01 -0.61375560564E+01  0.42288871271E+02  0.43400724526E+02  0.00000000000E+00 0.  1.
         11    1    3    3    0    0 -0.13579662266E+02  0.59778472583E+01 -0.29309155200E+02  0.32850699595E+02  0.51100000000E-03 0. -1.
        -11    1    3    3    0    0  0.51536303799E+01  0.11902145205E+01 -0.67943717217E+01  0.86104589919E+01  0.51100000000E-03 0.  1.
         12    1    3    3    0    0  0.83625839243E+00 -0.10305057224E+01 -0.61853443494E+01  0.63261168867E+01  0.00000000000E+00 0. -1.
</event>
<event>
 7    1  0.2935819E-010  0.4778728E+02  0.7816164E-02  0.1312668E+00
        -11   -1    0    0    0    0  0.00000000000E+00  0.00000000000E+00  0.45593999997E+02  0.45594000000E+02  0.51100000000E-03 0.  1.
         11   -1    0    0    0    0 -0.00000000000E+00 -0.00000000000E+00 -0.45593999997E+02  0.45594000000E+02  0.51100000000E-03 0. -1.
    9900012    2    1    2    0    0  0.46317644094E+01  0.49446265482E+01 -0.42868636689E+02  0.47787278982E+02  0.20000036192E+02 0.  0.
        -12    1    1    2    0    0 -0.46317644094E+01 -0.49446265482E+01  0.42868636689E+02  0.43400721018E+02  0.00000000000E+00 0.  1.
         11    1    3    3    0    0  0.98794677929E+01  0.20484049003E+01 -0.27598131827E+02  0.29384634200E+02  0.51100000000E-03 0. -1.
        -11    1    3    3    0    0 -0.26616357903E+01  0.69854728194E+00  0.79701901354E-02  0.27517879952E+01  0.51100000000E-03 0.  1.
         12    1    3    3    0    0 -0.25860675932E+01  0.21976743660E+01 -0.15278475053E+02  0.15650856787E+02  0.00000000000E+00 0. -1.
</event>
<event>
 7    1  0.2935819E-010  0.4778727E+02  0.7816164E-02  0.1312668E+00
        -11   -1    0    0    0    0  0.00000000000E+00  0.00000000000E+00  0.45593999997E+02  0.45594000000E+02  0.51100000000E-03 0. -1.
         11   -1    0    0    0    0 -0.00000000000E+00 -0.00000000000E+00 -0.45593999997E+02  0.45594000000E+02  0.51100000000E-03 0.  1.
    9900012    2    1    2    0    0  0.77008203751E+01  0.40834863170E+02 -0.12523358652E+02  0.47787271936E+02  0.20000004066E+02 0.  0.
        -12    1    1    2    0    0 -0.77008203751E+01 -0.40834863170E+02  0.12523358652E+02  0.43400728064E+02  0.00000000000E+00 0.  1.
         11    1    3    3    0    0  0.50871691000E+01  0.16563981640E+02 -0.76377425840E+01  0.18936205778E+02  0.51100000000E-03 0. -1.
        -11    1    3    3    0    0  0.58255040401E+01  0.46548700773E+01  0.21579209521E+01  0.77627917564E+01  0.51100000000E-03 0.  1.
        -12    1    3    3    0    0 -0.32118527650E+01  0.19616011453E+02 -0.70435370205E+01  0.21088274402E+02  0.00000000000E+00 0.  1.
</event>
<event>
 7    1  0.2935819E-010  0.4778727E+02  0.7816164E-02  0.1312668E+00
        -11   -1    0    0    0    0  0.00000000000E+00  0.00000000000E+00  0.45593999997E+02  0.45594000000E+02  0.51100000000E-03 0. -1.
         11   -1    0    0    0    0 -0.00000000000E+00 -0.00000000000E+00 -0.45593999997E+02  0.45594000000E+02  0.51100000000E-03 0.  1.
    9900012    2    1    2    0    0  0.40991207541E+02 -0.61820407188E+01 -0.12850160179E+02  0.47787270286E+02  0.19999996540E+02 0.  0.
        -12    1    1    2    0    0 -0.40991207541E+02  0.61820407188E+01  0.12850160179E+02  0.43400729714E+02  0.00000000000E+00 0.  1.
         11    1    3    3    0    0  0.65875087052E+01 -0.19716246895E+01 -0.24329346113E+00  0.68805353590E+01  0.51100000000E-03 0. -1.
        -11    1    3    3    0    0  0.10983589614E+02 -0.87863382436E+01 -0.32653428170E+00  0.14069314320E+02  0.51100000000E-03 0.  1.
        -12    1    3    3    0    0  0.23420109222E+02  0.45759222143E+01 -0.12280332436E+02  0.26837420606E+02  0.00000000000E+00 0.  1.
</event>
<event>
 7    1  0.2935819E-010  0.4778727E+02  0.7816164E-02  0.1312668E+00
        -11   -1    0    0    0    0  0.00000000000E+00  0.00000000000E+00  0.45593999997E+02  0.45594000000E+02  0.51100000000E-03 0.  1.
         11   -1    0    0    0    0 -0.00000000000E+00 -0.00000000000E+00 -0.45593999997E+02  0.45594000000E+02  0.51100000000E-03 0. -1.
    9900012    2    1    2    0    0 -0.27845511511E+02 -0.98887249696E+01 -0.31787791267E+02  0.47787273433E+02  0.20000010891E+02 0.  0.
        -12    1    1    2    0    0  0.27845511511E+02  0.98887249696E+01  0.31787791267E+02  0.43400726567E+02  0.00000000000E+00 0.  1.
         11    1    3    3    0    0 -0.11704078293E+02 -0.96858668909E+01 -0.86104126992E+01  0.17462550593E+02  0.51100000000E-03 0. -1.
        -11    1    3    3    0    0 -0.32303898774E+01  0.46669073188E+01 -0.80426714708E+01  0.98437801342E+01  0.51100000000E-03 0.  1.
         12    1    3    3    0    0 -0.12911043342E+02 -0.48697653975E+01 -0.15134707097E+02  0.20480942706E+02  0.00000000000E+00 0. -1.
</event>
<event>
 7    1  0.2935819E-010  0.4778725E+02  0.7816164E-02  0.1312668E+00
        -11   -1    0    0    0    0  0.00000000000E+00  0.00000000000E+00  0.45593999997E+02  0.45594000000E+02  0.51100000000E-03 0. -1.
         11   -1    0    0    0    0 -0.00000000000E+00 -0.00000000000E+00 -0.45593999997E+02  0.45594000000E+02  0.51100000000E-03 0.  1.
    9900012    2    1    2    0    0  0.15576302169E+02  0.38308892042E+02  0.13169376566E+02  0.47787252566E+02  0.19999915748E+02 0.  0.
        -12    1    1    2    0    0 -0.15576302169E+02 -0.38308892042E+02 -0.13169376566E+02  0.43400747434E+02  0.00000000000E+00 0.  1.
         11    1    3    3    0    0  0.11563713686E+02  0.12268042430E+02  0.54336052972E+00  0.16867708208E+02  0.51100000000E-03 0. -1.
        -11    1    3    3    0    0  0.51443890100E+00  0.17781020041E+02  0.35121228169E+01  0.18131859475E+02  0.51100000000E-03 0.  1.
         12    1    3    3    0    0  0.34981495816E+01  0.82598295709E+01  0.91138932196E+01  0.12787684882E+02  0.00000000000E+00 0. -1.
</event>
<event>
 7    1  0.2935819E-010  0.4778727E+02  0.7816164E-02  0.1312668E+00
        -11   -1    0    0    0    0  0.00000000000E+00  0.00000000000E+00  0.45593999997E+02  0.45594000000E+02  0.51100000000E-03 0. -1.
         11   -1    0    0    0    0 -0.00000000000E+00 -0.00000000000E+00 -0.45593999997E+02  0.45594000000E+02  0.51100000000E-03 0.  1.
    9900012    2    1    2    0    0  0.42210108244E+02 -0.55767042580E+01 -0.84160775394E+01  0.47787271555E+02  0.20000002329E+02 0.  0.
        -12    1    1    2    0    0 -0.42210108244E+02  0.55767042580E+01  0.84160775394E+01  0.43400728445E+02  0.00000000000E+00 0.  1.
         11    1    3    3    0    0  0.23467079696E+02 -0.26164038236E+01  0.26768898397E+01  0.23763735774E+02  0.51100000000E-03 0. -1.
        -11    1    3    3    0    0  0.13580541651E+02  0.24835214560E+01 -0.72912005908E+01  0.15612834357E+02  0.51100000000E-03 0.  1.
        -12    1    3    3    0    0  0.51624868971E+01 -0.54438218904E+01 -0.38017667884E+01  0.84107014244E+01  0.00000000000E+00 0.  1.
</event>
<event>
 7    1  0.2935819E-010  0.4778727E+02  0.7816164E-02  0.1312668E+00
        -11   -1    0    0    0    0  0.00000000000E+00  0.00000000000E+00  0.45593999997E+02  0.45594000000E+02  0.51100000000E-03 0. -1.
         11   -1    0    0    0    0 -0.00000000000E+00 -0.00000000000E+00 -0.45593999997E+02  0.45594000000E+02  0.51100000000E-03 0.  1.
    9900012    2    1    2    0    0 -0.16762019267E+02  0.39651248993E+02  0.55169534112E+01  0.47787267154E+02  0.19999982264E+02 0.  0.
        -12    1    1    2    0    0  0.16762019267E+02 -0.39651248993E+02 -0.55169534112E+01  0.43400732846E+02  0.00000000000E+00 0.  1.
         11    1    3    3    0    0 -0.26492401990E+01  0.21155269838E+02 -0.42719667886E+00  0.21324784004E+02  0.51100000000E-03 0. -1.
        -11    1    3    3    0    0 -0.87237947057E+01  0.33740463354E+01  0.28039848295E-01  0.93535859025E+01  0.51100000000E-03 0.  1.
        -12    1    3    3    0    0 -0.53889843625E+01  0.15121932819E+02  0.59161102418E+01  0.17108897248E+02  0.00000000000E+00 0.  1.
</event>
<event>
 7    1  0.2935819E-010  0.4778728E+02  0.7816164E-02  0.1312668E+00
        -11   -1    0    0    0    0  0.00000000000E+00  0.00000000000E+00  0.45593999997E+02  0.45594000000E+02  0.51100000000E-03 0.  1.
         11   -1    0    0    0    0 -0.00000000000E+00 -0.00000000000E+00 -0.45593999997E+02  0.45594000000E+02  0.51100000000E-03 0. -1.
    9900012    2    1    2    0    0 -0.18633642335E+02 -0.89106767574E+01 -0.38170799282E+02  0.47787277601E+02  0.20000029892E+02 0.  0.
        -12    1    1    2    0    0  0.18633642335E+02  0.89106767574E+01  0.38170799282E+02  0.43400722399E+02  0.00000000000E+00 0.  1.
         11    1    3    3    0    0 -0.45549081767E+01 -0.11958414885E+01 -0.88421847445E+01  0.10018056532E+02  0.51100000000E-03 0. -1.
        -11    1    3    3    0    0  0.16665804624E+01  0.32574487290E+01 -0.94719781819E+01  0.10154153515E+02  0.51100000000E-03 0.  1.
        -12    1    3    3    0    0 -0.15745314621E+02 -0.10972283998E+02 -0.19856636356E+02  0.27615067554E+02  0.00000000000E+00 0.  1.
</event>
<event>
 7    1  0.2935819E-010  0.4778730E+02  0.7816164E-02  0.1312668E+00
        -11   -1    0    0    0    0  0.00000000000E+00  0.00000000000E+00  0.45593999997E+02  0.45594000000E+02  0.51100000000E-03 0. -1.
         11   -1    0    0    0    0 -0.00000000000E+00 -0.00000000000E+00 -0.45593999997E+02  0.45594000000E+02  0.51100000000E-03 0.  1.
    9900012    2    1    2    0    0 -0.17099526253E+02  0.18145405264E+02  0.35524230444E+02  0.47787303244E+02  0.20000146810E+02 0.  0.
        -12    1    1    2    0    0  0.17099526253E+02 -0.18145405264E+02 -0.35524230444E+02  0.43400696756E+02  0.00000000000E+00 0.  1.
         11    1    3    3    0    0 -0.28045386678E+01  0.71669361204E+01  0.26579724349E+01  0.81421881714E+01  0.51100000000E-03 0. -1.
        -11    1    3    3    0    0 -0.15162992730E+02  0.11790574441E+02  0.33247321120E+02  0.38396853466E+02  0.51100000000E-03 0.  1.
        -12    1    3    3    0    0  0.86800514485E+00 -0.81210529677E+00 -0.38106311068E+00  0.12482616067E+01  0.00000000000E+00 0.  1.
</event>
<event>
 7    1  0.3695997E-010  0.4778727E+02  0.7816164E-02  0.1312668E+00
        -11   -1    0    0    0    0  0.00000000000E+00  0.00000000000E+00  0.45593999997E+02  0.45594000000E+02  0.51100000000E-03 0. -1.
         11   -1    0    0    0    0 -0.00000000000E+00 -0.00000000000E+00 -0.45593999997E+02  0.45594000000E+02  0.51100000000E-03 0.  1.
    9900012    2    1    2    0    0  0.30071830084E+02 -0.88416143863E+01  0.30018896267E+02  0.47787271405E+02  0.20000001642E+02 0.  0.
        -12    1    1    2    0    0 -0.30071830084E+02  0.88416143863E+01 -0.30018896267E+02  0.43400728595E+02  0.00000000000E+00 0.  1.
         11    1    3    3    0    0  0.22910806270E+02 -0.79161864251E+01  0.18242957245E+02  0.30337708232E+02  0.51100000000E-03 0. -1.
        -11    1    3    3    0    0  0.50815628431E+01  0.43570387628E+01  0.87491094450E+01  0.11016033045E+02  0.51100000000E-03 0.  1.
        -12    1    3    3    0    0  0.20794609710E+01 -0.52824667240E+01  0.30268295769E+01  0.64335301280E+01  0.00000000000E+00 0.  1.
</event>
<event>
 7    1  0.2935819E-010  0.4778727E+02  0.7816164E-02  0.1312668E+00
        -11   -1    0    0    0    0  0.00000000000E+00  0.00000000000E+00  0.45593999997E+02  0.45594000000E+02  0.51100000000E-03 0. -1.
         11   -1    0    0    0    0 -0.00000000000E+00 -0.00000000000E+00 -0.45593999997E+02  0.45594000000E+02  0.51100000000E-03 0.  1.
    9900012    2    1    2    0    0  0.35393533288E+02  0.13033618001E+02  0.21471983436E+02  0.47787268791E+02  0.19999989724E+02 0.  0.
        -12    1    1    2    0    0 -0.35393533288E+02 -0.13033618001E+02 -0.21471983436E+02  0.43400731209E+02  0.00000000000E+00 0.  1.
         11    1    3    3    0    0  0.77162310609E+01 -0.31630230584E+01  0.95255510302E+01  0.12660215612E+02  0.51100000000E-03 0. -1.
        -11    1    3    3    0    0  0.21248175045E+02  0.15026251939E+02  0.11840401493E+02  0.28591402517E+02  0.51100000000E-03 0.  1.
        -12    1    3    3    0    0  0.64291271821E+01  0.11703891201E+01  0.10603091275E+00  0.65356506615E+01  0.00000000000E+00 0.  1.
</event>
<event>
 7    1  0.2935819E-010  0.4778727E+02  0.7816164E-02  0.1312668E+00
        -11   -1    0    0    0    0  0.00000000000E+00  0.00000000000E+00  0.45593999997E+02  0.45594000000E+02  0.51100000000E-03 0.  1.
         11   -1    0    0    0    0 -0.00000000000E+00 -0.00000000000E+00 -0.45593999997E+02  0.45594000000E+02  0.51100000000E-03 0. -1.
    9900012    2    1    2    0    0 -0.40805313924E+02  0.27410407604E+00  0.14780881782E+02  0.47787271392E+02  0.20000001585E+02 0.  0.
        -12    1    1    2    0    0  0.40805313924E+02 -0.27410407604E+00 -0.14780881782E+02  0.43400728608E+02  0.00000000000E+00 0.  1.
         11    1    3    3    0    0 -0.67543829184E+00  0.24077421852E+01  0.35993825496E+01  0.43828066711E+01  0.51100000000E-03 0.  1.
        -11    1    3    3    0    0 -0.29192943595E+02 -0.64686583944E+01  0.57605392857E+01  0.30450867152E+02  0.51100000000E-03 0. -1.
         12    1    3    3    0    0 -0.10936932036E+02  0.43350202853E+01  0.54209599464E+01  0.12953597569E+02  0.00000000000E+00 0. -1.
</event>
<event>
 7    1  0.2935819E-010  0.4778727E+02  0.7816164E-02  0.1312668E+00
        -11   -1    0    0    0    0  0.00000000000E+00  0.00000000000E+00  0.45593999997E+02  0.45594000000E+02  0.51100000000E-03 0.  1.
         11   -1    0    0    0    0 -0.00000000000E+00 -0.00000000000E+00 -0.45593999997E+02  0.45594000000E+02  0.51100000000E-03 0. -1.
    9900012    2    1    2    0    0  0.84099813644E+01 -0.31411097609E+02 -0.28744363116E+02  0.47787271314E+02  0.20000001229E+02 0.  0.
        -12    1    1    2    0    0 -0.84099813644E+01  0.31411097609E+02  0.28744363116E+02  0.43400728686E+02  0.00000000000E+00 0.  1.
         11    1    3    3    0    0 -0.15569743726E+01 -0.26471675335E+00  0.14355800055E+01  0.21342760762E+01  0.51100000000E-03 0. -1.
        -11    1    3    3    0    0  0.19895643034E+01 -0.15977543349E+01  0.16026066825E+00  0.25567300943E+01  0.51100000000E-03 0.  1.
         12    1    3    3    0    0  0.79773914336E+01 -0.29548626520E+02 -0.30340203790E+02  0.43096265144E+02  0.00000000000E+00 0. -1.
</event>
<event>
 7    1  0.2935819E-010  0.4778729E+02  0.7816164E-02  0.1312668E+00
        -11   -1    0    0    0    0  0.00000000000E+00  0.00000000000E+00  0.45593999997E+02  0.45594000000E+02  0.51100000000E-03 0. -1.
         11   -1    0    0    0    0 -0.00000000000E+00 -0.00000000000E+00 -0.45593999997E+02  0.45594000000E+02  0.51100000000E-03 0.  1.
    9900012    2    1    2    0    0 -0.32315634118E+02  0.89138241507E+01 -0.27565657875E+02  0.47787286140E+02  0.20000068827E+02 0.  0.
        -12    1    1    2    0    0  0.32315634118E+02 -0.89138241507E+01  0.27565657875E+02  0.43400713860E+02  0.00000000000E+00 0.  1.
         11    1    3    3    0    0 -0.11787433427E+02 -0.92429950856E+00 -0.94327633674E+00  0.11861184042E+02  0.51100000000E-03 0. -1.
        -11    1    3    3    0    0 -0.27995816211E+01 -0.12976344624E+01 -0.46118152105E+01  0.55489055000E+01  0.51100000000E-03 0.  1.
         12    1    3    3    0    0 -0.17728619071E+02  0.11135758122E+02 -0.22010566328E+02  0.30377196598E+02  0.00000000000E+00 0. -1.
</event>
<event>
 7    1  0.2935819E-010  0.4778727E+02  0.7816164E-02  0.1312668E+00
        -11   -1    0    0    0    0  0.00000000000E+00  0.00000000000E+00  0.45593999997E+02  0.45594000000E+02  0.51100000000E-03 0.  1.
         11   -1    0    0    0    0 -0.00000000000E+00 -0.00000000000E+00 -0.45593999997E+02  0.45594000000E+02  0.51100000000E-03 0. -1.
    9900012    2    1    2    0    0 -0.21408331391E+02  0.35241606154E+02  0.13540163626E+02  0.47787268574E+02  0.19999988738E+02 0.  0.
        -12    1    1    2    0    0  0.21408331391E+02 -0.35241606154E+02 -0.13540163626E+02  0.43400731426E+02  0.00000000000E+00 0.  1.
         11    1    3    3    0    0 -0.22191499109E+02  0.29862722323E+02  0.87568430272E+01  0.38222076308E+02  0.51100000000E-03 0. -1.
        -11    1    3    3    0    0  0.30020843135E+01  0.73969993961E+00  0.13004091864E+01  0.33542108669E+01  0.51100000000E-03 0.  1.
        -12    1    3    3    0    0 -0.22189165952E+01  0.46391838913E+01  0.34829114129E+01  0.62109813994E+01  0.00000000000E+00 0.  1.
</event>
<event>
 7    1  0.2935819E-010  0.4778727E+02  0.7816164E-02  0.1312668E+00
        -11   -1    0    0    0    0  0.00000000000E+00  0.00000000000E+00  0.45593999997E+02  0.45594000000E+02  0.51100000000E-03 0. -1.
         11   -1    0    0    0    0 -0.00000000000E+00 -0.00000000000E+00 -0.45593999997E+02  0.45594000000E+02  0.51100000000E-03 0.  1.
    9900012    2    1    2    0    0  0.37957126538E+01 -0.16213210802E+02  0.40079267478E+02  0.47787270506E+02  0.19999997545E+02 0.  0.
        -12    1    1    2    0    0 -0.37957126538E+01  0.16213210802E+02 -0.40079267478E+02  0.43400729494E+02  0.00000000000E+00 0.  1.
         11    1    3    3    0    0 -0.33706651372E+01 -0.48128560234E+01  0.10227051404E+02  0.11794810183E+02  0.51100000000E-03 0. -1.
        -11    1    3    3    0    0  0.57402021944E+01 -0.82380236326E+01  0.30800802365E+02  0.32396055025E+02  0.51100000000E-03 0.  1.
        -12    1    3    3    0    0  0.14261755967E+01 -0.31623311462E+01 -0.94858629195E+00  0.35964052975E+01  0.00000000000E+00 0.  1.
</event>
<event>
 7    1  0.2935819E-010  0.4778733E+02  0.7816164E-02  0.1312668E+00
        -11   -1    0    0    0    0  0.00000000000E+00  0.00000000000E+00  0.45593999997E+02  0.45594000000E+02  0.51100000000E-03 0. -1.
         11   -1    0    0    0    0 -0.00000000000E+00 -0.00000000000E+00 -0.45593999997E+02  0.45594000000E+02  0.51100000000E-03 0.  1.
    9900012    2    1    2    0    0  0.74063046847E+00  0.37272609067E+02  0.22222117288E+02  0.47787326999E+02  0.20000255117E+02 0.  0.
        -12    1    1    2    0    0 -0.74063046847E+00 -0.37272609067E+02 -0.22222117288E+02  0.43400673001E+02  0.00000000000E+00 0.  1.
         11    1    3    3    0    0 -0.42111425775E+01  0.29459868121E+01 -0.19308938785E+01  0.54900739099E+01  0.51100000000E-03 0.  1.
        -11    1    3    3    0    0  0.36034208473E+01  0.23472536457E+02  0.15607396075E+02  0.28417167734E+02  0.51100000000E-03 0. -1.
        -12    1    3    3    0    0  0.13483521986E+01  0.10854085799E+02  0.85456150910E+01  0.13880085355E+02  0.00000000000E+00 0.  1.
</event>
<event>
 7    1  0.2935819E-010  0.4778727E+02  0.7816164E-02  0.1312668E+00
        -11   -1    0    0    0    0  0.00000000000E+00  0.00000000000E+00  0.45593999997E+02  0.45594000000E+02  0.51100000000E-03 0. -1.
         11   -1    0    0    0    0 -0.00000000000E+00 -0.00000000000E+00 -0.45593999997E+02  0.45594000000E+02  0.51100000000E-03 0.  1.
    9900012    2    1    2    0    0 -0.20315411787E+02  0.29497174711E+02  0.24511704660E+02  0.47787274921E+02  0.20000017677E+02 0.  0.
        -12    1    1    2    0    0  0.20315411787E+02 -0.29497174711E+02 -0.24511704660E+02  0.43400725079E+02  0.00000000000E+00 0.  1.
         11    1    3    3    0    0 -0.96743642615E+01  0.17366302717E+02  0.35950030465E+01  0.20201629664E+02  0.51100000000E-03 0. -1.
        -11    1    3    3    0    0 -0.29164053184E+01  0.57561797725E+01  0.13995620794E+02  0.15411567967E+02  0.51100000000E-03 0.  1.
         12    1    3    3    0    0 -0.77246422065E+01  0.63746922215E+01  0.69210808202E+01  0.12174077290E+02  0.00000000000E+00 0. -1.
</event>
<event>
 7    1  0.2935819E-010  0.4778727E+02  0.7816164E-02  0.1312668E+00
        -11   -1    0    0    0    0  0.00000000000E+00  0.00000000000E+00  0.45593999997E+02  0.45594000000E+02  0.51100000000E-03 0.  1.
         11   -1    0    0    0    0 -0.00000000000E+00 -0.00000000000E+00 -0.45593999997E+02  0.45594000000E+02  0.51100000000E-03 0. -1.
    9900012    2    1    2    0    0  0.54685619290E+01 -0.25563179924E+01 -0.42978868533E+02  0.47787273374E+02  0.20000010622E+02 0.  0.
        -12    1    1    2    0    0 -0.54685619290E+01  0.25563179924E+01  0.42978868533E+02  0.43400726626E+02  0.00000000000E+00 0.  1.
         11    1    3    3    0    0  0.37669752787E+01  0.10098005233E+01 -0.25822638563E+02  0.26115483194E+02  0.51100000000E-03 0. -1.
        -11    1    3    3    0    0  0.49073709319E+00 -0.47898526161E+01 -0.40455859718E+00  0.48318918550E+01  0.51100000000E-03 0.  1.
        -12    1    3    3    0    0  0.12108495572E+01  0.12237341004E+01 -0.16751671373E+02  0.16839898325E+02  0.00000000000E+00 0.  1.
</event>
<event>
 7    1  0.2935819E-010  0.4778727E+02  0.7816164E-02  0.1312668E+00
        -11   -1    0    0    0    0  0.00000000000E+00  0.00000000000E+00  0.45593999997E+02  0.45594000000E+02  0.51100000000E-03 0.  1.
         11   -1    0    0    0    0 -0.00000000000E+00 -0.00000000000E+00 -0.45593999997E+02  0.45594000000E+02  0.51100000000E-03 0. -1.
    9900012    2    1    2    0    0  0.30142143160E+02 -0.30174134617E+02  0.80371798945E+01  0.47787268960E+02  0.19999990496E+02 0.  0.
        -12    1    1    2    0    0 -0.30142143160E+02  0.30174134617E+02 -0.80371798945E+01  0.43400731040E+02  0.00000000000E+00 0.  1.
         11    1    3    3    0    0  0.28243984156E+01  0.14379502514E+01 -0.26406732205E+01  0.41252978867E+01  0.51100000000E-03 0. -1.
        -11    1    3    3    0    0  0.72724665421E+01 -0.12528825009E+02  0.55569045112E+01  0.15515779507E+02  0.51100000000E-03 0.  1.
         12    1    3    3    0    0  0.20045278202E+02 -0.19083259859E+02  0.51209486038E+01  0.28146191566E+02  0.00000000000E+00 0. -1.
</event>
<event>
 7    1  0.2935819E-010  0.4778728E+02  0.7816164E-02  0.1312668E+00
        -11   -1    0    0    0    0  0.00000000000E+00  0.00000000000E+00  0.45593999997E+02  0.45594000000E+02  0.51100000000E-03 0.  1.
         11   -1    0    0    0    0 -0.00000000000E+00 -0.00000000000E+00 -0.45593999997E+02  0.45594000000E+02  0.51100000000E-03 0. -1.
    9900012    2    1    2    0    0 -0.11143509993E+01  0.43305355656E+02 -0.26507793050E+01  0.47787282984E+02  0.20000054436E+02 0.  0.
        -12    1    1    2    0    0  0.11143509993E+01 -0.43305355656E+02  0.26507793050E+01  0.43400717016E+02  0.00000000000E+00 0.  1.
         11    1    3    3    0    0 -0.55777147671E+01  0.35649407892E+02 -0.61709556866E+01  0.36606992220E+02  0.51100000000E-03 0. -1.
        -11    1    3    3    0    0  0.34510968159E+01  0.13428460771E+01 -0.32829659597E+00  0.37176718165E+01  0.51100000000E-03 0.  1.
         12    1    3    3    0    0  0.10122669519E+01  0.63131016869E+01  0.38484729775E+01  0.74626189471E+01  0.00000000000E+00 0. -1.
</event>
<event>
 7    1  0.2935819E-010  0.4778727E+02  0.7816164E-02  0.1312668E+00
        -11   -1    0    0    0    0  0.00000000000E+00  0.00000000000E+00  0.45593999997E+02  0.45594000000E+02  0.51100000000E-03 0.  1.
         11   -1    0    0    0    0 -0.00000000000E+00 -0.00000000000E+00 -0.45593999997E+02  0.45594000000E+02  0.51100000000E-03 0. -1.
    9900012    2    1    2    0    0 -0.37856193965E+02 -0.19211841268E+01 -0.21138616249E+02  0.47787268821E+02  0.19999989861E+02 0.  0.
        -12    1    1    2    0    0  0.37856193965E+02  0.19211841268E+01  0.21138616249E+02  0.43400731179E+02  0.00000000000E+00 0.  1.
         11    1    3    3    0    0 -0.31868548971E+02 -0.60105811351E+01 -0.12453534936E+02  0.34739344147E+02  0.51100000000E-03 0. -1.
        -11    1    3    3    0    0 -0.11834114542E+01  0.41892918959E+01 -0.19393435738E+01  0.47656776031E+01  0.51100000000E-03 0.  1.
        -12    1    3    3    0    0 -0.48042335404E+01 -0.99894887496E-01 -0.67457377390E+01  0.82822470708E+01  0.00000000000E+00 0.  1.
</event>
<event>
 7    1  0.2935819E-010  0.4778727E+02  0.7816164E-02  0.1312668E+00
        -11   -1    0    0    0    0  0.00000000000E+00  0.00000000000E+00  0.45593999997E+02  0.45594000000E+02  0.51100000000E-03 0. -1.
         11   -1    0    0    0    0 -0.00000000000E+00 -0.00000000000E+00 -0.45593999997E+02  0.45594000000E+02  0.51100000000E-03 0.  1.
    9900012    2    1    2    0    0 -0.10425651001E+02 -0.40863530061E+02  0.10251888290E+02  0.47787268424E+02  0.19999988050E+02 0.  0.
        -12    1    1    2    0    0  0.10425651001E+02  0.40863530061E+02 -0.10251888290E+02  0.43400731576E+02  0.00000000000E+00 0.  1.
         11    1    3    3    0    0 -0.60804127804E+00 -0.76789749864E+01  0.56366413806E+01  0.95450561733E+01  0.51100000000E-03 0. -1.
        -11    1    3    3    0    0  0.25101759215E+01 -0.64621719452E-01  0.10544962941E+01  0.27234393364E+01  0.51100000000E-03 0.  1.
        -12    1    3    3    0    0 -0.12327785645E+02 -0.33119933355E+02  0.35607506158E+01  0.35518772914E+02  0.00000000000E+00 0.  1.
</event>
<event>
 7    1  0.2935819E-010  0.4778727E+02  0.7816164E-02  0.1312668E+00
        -11   -1    0    0    0    0  0.00000000000E+00  0.00000000000E+00  0.45593999997E+02  0.45594000000E+02  0.51100000000E-03 0.  1.
         11   -1    0    0    0    0 -0.00000000000E+00 -0.00000000000E+00 -0.45593999997E+02  0.45594000000E+02  0.51100000000E-03 0. -1.
    9900012    2    1    2    0    0 -0.64553270521E+01  0.34366370209E+02 -0.25708066322E+02  0.47787270481E+02  0.19999997433E+02 0.  0.
        -12    1    1    2    0    0  0.64553270521E+01 -0.34366370209E+02  0.25708066322E+02  0.43400729519E+02  0.00000000000E+00 0.  1.
         11    1    3    3    0    0 -0.22733481132E+01  0.25239622782E+01 -0.41529883349E+01  0.53652408703E+01  0.51100000000E-03 0.  1.
        -11    1    3    3    0    0 -0.45367004497E+01  0.81049542976E+01 -0.15254988463E+02  0.17860196203E+02  0.51100000000E-03 0. -1.
        -12    1    3    3    0    0  0.35472151079E+00  0.23737453634E+02 -0.63000895246E+01  0.24561833408E+02  0.00000000000E+00 0.  1.
</event>
<event>
 7    1  0.2935819E-010  0.4778727E+02  0.7816164E-02  0.1312668E+00
        -11   -1    0    0    0    0  0.00000000000E+00  0.00000000000E+00  0.45593999997E+02  0.45594000000E+02  0.51100000000E-03 0.  1.
         11   -1    0    0    0    0 -0.00000000000E+00 -0.00000000000E+00 -0.45593999997E+02  0.45594000000E+02  0.51100000000E-03 0. -1.
    9900012    2    1    2    0    0 -0.20822786204E+00  0.15850216747E+02 -0.40402359910E+02  0.47787269406E+02  0.19999992530E+02 0.  0.
        -12    1    1    2    0    0  0.20822786204E+00 -0.15850216747E+02  0.40402359910E+02  0.43400730594E+02  0.00000000000E+00 0.  1.
         11    1    3    3    0    0  0.18684290827E+00  0.18857722409E+02 -0.36470492145E+02  0.41057829975E+02  0.51100000000E-03 0. -1.
        -11    1    3    3    0    0  0.17636316287E+01 -0.78567444748E+00 -0.29674750125E+00  0.19533919729E+01  0.51100000000E-03 0.  1.
         12    1    3    3    0    0 -0.21587023990E+01 -0.22218312136E+01 -0.36351202641E+01  0.47760474583E+01  0.00000000000E+00 0. -1.
</event>
<event>
 7    1  0.2935819E-010  0.4778727E+02  0.7816164E-02  0.1312668E+00
        -11   -1    0    0    0    0  0.00000000000E+00  0.00000000000E+00  0.45593999997E+02  0.45594000000E+02  0.51100000000E-03 0. -1.
         11   -1    0    0    0    0 -0.00000000000E+00 -0.00000000000E+00 -0.45593999997E+02  0.45594000000E+02  0.51100000000E-03 0.  1.
    9900012    2    1    2    0    0 -0.11823556380E+02  0.41133263758E+02 -0.72028867181E+01  0.47787269017E+02  0.19999990754E+02 0.  0.
        -12    1    1    2    0    0  0.11823556380E+02 -0.41133263758E+02  0.72028867181E+01  0.43400730983E+02  0.00000000000E+00 0.  1.
         11    1    3    3    0    0 -0.17013839626E+01  0.15040858922E+02 -0.86908952285E+01  0.17454334838E+02  0.51100000000E-03 0. -1.
        -11    1    3    3    0    0 -0.97319659671E+00  0.16597275372E+02  0.35125110001E+01  0.16992774794E+02  0.51100000000E-03 0.  1.
         12    1    3    3    0    0 -0.91489758207E+01  0.94951294637E+01 -0.20245024898E+01  0.13340159386E+02  0.00000000000E+00 0. -1.
</event>
<event>
 7    1  0.2935819E-010  0.4778727E+02  0.7816164E-02  0.1312668E+00
        -11   -1    0    0    0    0  0.00000000000E+00  0.00000000000E+00  0.45593999997E+02  0.45594000000E+02  0.51100000000E-03 0. -1.
         11   -1    0    0    0    0 -0.00000000000E+00 -0.00000000000E+00 -0.45593999997E+02  0.45594000000E+02  0.51100000000E-03 0.  1.
    9900012    2    1    2    0    0 -0.27573923824E+02 -0.22847291418E+02  0.24521492585E+02  0.47787267301E+02  0.19999982934E+02 0.  0.
        -12    1    1    2    0    0  0.27573923824E+02  0.22847291418E+02 -0.24521492585E+02  0.43400732699E+02  0.00000000000E+00 0.  1.
         11    1    3    3    0    0 -0.38750100242E+01  0.99391542160E+00  0.22094977119E+01  0.45700602789E+01  0.51100000000E-03 0. -1.
        -11    1    3    3    0    0 -0.90040207457E+01 -0.20960479648E+00  0.73318372735E+01  0.11613447457E+02  0.51100000000E-03 0.  1.
        -12    1    3    3    0    0 -0.14694893054E+02 -0.23631602043E+02  0.14980157600E+02  0.31603759566E+02  0.00000000000E+00 0.  1.
</event>
<event>
 7    1  0.2935819E-010  0.4778727E+02  0.7816164E-02  0.1312668E+00
        -11   -1    0    0    0    0  0.00000000000E+00  0.00000000000E+00  0.45593999997E+02  0.45594000000E+02  0.51100000000E-03 0.  1.
         11   -1    0    0    0    0 -0.00000000000E+00 -0.00000000000E+00 -0.45593999997E+02  0.45594000000E+02  0.51100000000E-03 0. -1.
    9900012    2    1    2    0    0 -0.36274818655E+02 -0.23761369239E+02  0.17770999998E+01  0.47787271654E+02  0.20000002781E+02 0.  0.
        -12    1    1    2    0    0  0.36274818655E+02  0.23761369239E+02 -0.17770999998E+01  0.43400728346E+02  0.00000000000E+00 0.  1.
         11    1    3    3    0    0 -0.11282437912E+02 -0.96001231815E+01 -0.32391059002E+01  0.15164022475E+02  0.51100000000E-03 0. -1.
        -11    1    3    3    0    0 -0.86886188762E+01 -0.95242351775E+01  0.83340832931E+01  0.15351224651E+02  0.51100000000E-03 0.  1.
        -12    1    3    3    0    0 -0.16303761866E+02 -0.46370108797E+01 -0.33178773931E+01  0.17272024528E+02  0.00000000000E+00 0.  1.
</event>
<event>
 7    1  0.2935819E-010  0.4778728E+02  0.7816164E-02  0.1312668E+00
        -11   -1    0    0    0    0  0.00000000000E+00  0.00000000000E+00  0.45593999997E+02  0.45594000000E+02  0.51100000000E-03 0.  1.
         11   -1    0    0    0    0 -0.00000000000E+00 -0.00000000000E+00 -0.45593999997E+02  0.45594000000E+02  0.51100000000E-03 0. -1.
    9900012    2    1    2    0    0 -0.19310300696E+02 -0.35151618788E+01 -0.38708889897E+02  0.47787283035E+02  0.20000054672E+02 0.  0.
        -12    1    1    2    0    0  0.19310300696E+02  0.35151618788E+01  0.38708889897E+02  0.43400716965E+02  0.00000000000E+00 0.  1.
         11    1    3    3    0    0  0.11985256123E+01  0.54334935858E+00  0.13318888224E+01  0.18723301699E+01  0.51100000000E-03 0.  1.
        -11    1    3    3    0    0 -0.17181475260E+02 -0.31371055558E+01 -0.38197560955E+02  0.42001168872E+02  0.51100000000E-03 0. -1.
         12    1    3    3    0    0 -0.33273510480E+01 -0.92140568160E+00 -0.18432177637E+01  0.39137839939E+01  0.00000000000E+00 0. -1.
</event>
<event>
 7    1  0.2935819E-010  0.4778727E+02  0.7816164E-02  0.1312668E+00
        -11   -1    0    0    0    0  0.00000000000E+00  0.00000000000E+00  0.45593999997E+02  0.45594000000E+02  0.51100000000E-03 0.  1.
         11   -1    0    0    0    0 -0.00000000000E+00 -0.00000000000E+00 -0.45593999997E+02  0.45594000000E+02  0.51100000000E-03 0. -1.
    9900012    2    1    2    0    0  0.13775356258E+02  0.47337131661E+01 -0.40883427865E+02  0.47787272421E+02  0.20000006276E+02 0.  0.
        -12    1    1    2    0    0 -0.13775356258E+02 -0.47337131661E+01  0.40883427865E+02  0.43400727579E+02  0.00000000000E+00 0.  1.
         11    1    3    3    0    0 -0.10349149074E+01 -0.28663032927E+01 -0.22106362493E+02  0.22315420820E+02  0.51100000000E-03 0. -1.
        -11    1    3    3    0    0  0.12116187057E+02  0.47845876124E+01 -0.12318209793E+02  0.17928540381E+02  0.51100000000E-03 0.  1.
         12    1    3    3    0    0  0.26940841085E+01  0.28154288464E+01 -0.64588555788E+01  0.75433112199E+01  0.00000000000E+00 0. -1.
</event>
<event>
 7    1  0.2935819E-010  0.4778727E+02  0.7816164E-02  0.1312668E+00
        -11   -1    0    0    0    0  0.00000000000E+00  0.00000000000E+00  0.45593999997E+02  0.45594000000E+02  0.51100000000E-03 0.  1.
         11   -1    0    0    0    0 -0.00000000000E+00 -0.00000000000E+00 -0.45593999997E+02  0.45594000000E+02  0.51100000000E-03 0. -1.
    9900012    2    1    2    0    0  0.18513617893E+02 -0.29086919721E+02  0.26359444521E+02  0.47787271183E+02  0.20000000633E+02 0.  0.
        -12    1    1    2    0    0 -0.18513617893E+02  0.29086919721E+02 -0.26359444521E+02  0.43400728817E+02  0.00000000000E+00 0.  1.
         11    1    3    3    0    0 -0.11817923030E+01 -0.99717650256E+01  0.18771141147E+01  0.10215492569E+02  0.51100000000E-03 0. -1.
        -11    1    3    3    0    0  0.12250422554E+02 -0.10493882738E+02  0.93945213466E+01  0.18666854562E+02  0.51100000000E-03 0.  1.
         12    1    3    3    0    0  0.74449876423E+01 -0.86212719579E+01  0.15087809060E+02  0.18904924051E+02  0.00000000000E+00 0. -1.
</event>
<event>
 7    1  0.2935819E-010  0.4778726E+02  0.7816164E-02  0.1312668E+00
        -11   -1    0    0    0    0  0.00000000000E+00  0.00000000000E+00  0.45593999997E+02  0.45594000000E+02  0.51100000000E-03 0. -1.
         11   -1    0    0    0    0 -0.00000000000E+00 -0.00000000000E+00 -0.45593999997E+02  0.45594000000E+02  0.51100000000E-03 0.  1.
    9900012    2    1    2    0    0 -0.33296147217E+02  0.15866815719E+02  0.22874328839E+02  0.47787260601E+02  0.19999952383E+02 0.  0.
        -12    1    1    2    0    0  0.33296147217E+02 -0.15866815719E+02 -0.22874328839E+02  0.43400739399E+02  0.00000000000E+00 0.  1.
         11    1    3    3    0    0 -0.19353770524E+02  0.10075925399E+02  0.26681881990E+01  0.21982082128E+02  0.51100000000E-03 0. -1.
        -11    1    3    3    0    0 -0.13184149036E+02  0.35361479653E+01  0.16712277499E+02  0.21578376855E+02  0.51100000000E-03 0.  1.
        -12    1    3    3    0    0 -0.75822765637E+00  0.22547423556E+01  0.34938631406E+01  0.42268016176E+01  0.00000000000E+00 0.  1.
</event>
<event>
 7    1  0.2935819E-010  0.4778727E+02  0.7816164E-02  0.1312668E+00
        -11   -1    0    0    0    0  0.00000000000E+00  0.00000000000E+00  0.45593999997E+02  0.45594000000E+02  0.51100000000E-03 0.  1.
         11   -1    0    0    0    0 -0.00000000000E+00 -0.00000000000E+00 -0.45593999997E+02  0.45594000000E+02  0.51100000000E-03 0. -1.
    9900012    2    1    2    0    0  0.64036048011E+01  0.34345681916E+02 -0.25748620467E+02  0.47787268708E+02  0.19999989348E+02 0.  0.
        -12    1    1    2    0    0 -0.64036048011E+01 -0.34345681916E+02  0.25748620467E+02  0.43400731292E+02  0.00000000000E+00 0.  1.
         11    1    3    3    0    0  0.15105217507E+01  0.27227280279E+02 -0.19522889101E+02  0.33537287703E+02  0.51100000000E-03 0. -1.
        -11    1    3    3    0    0 -0.25381149543E+01  0.23809434686E+01 -0.35351594195E-01  0.34802542031E+01  0.51100000000E-03 0.  1.
         12    1    3    3    0    0  0.74311980047E+01  0.47374581686E+01 -0.61903797709E+01  0.10769726802E+02  0.00000000000E+00 0. -1.
</event>
<event>
 7    1  0.2935819E-010  0.4778727E+02  0.7816164E-02  0.1312668E+00
        -11   -1    0    0    0    0  0.00000000000E+00  0.00000000000E+00  0.45593999997E+02  0.45594000000E+02  0.51100000000E-03 0.  1.
         11   -1    0    0    0    0 -0.00000000000E+00 -0.00000000000E+00 -0.45593999997E+02  0.45594000000E+02  0.51100000000E-03 0. -1.
    9900012    2    1    2    0    0 -0.97004485874E+01 -0.30990868259E+02 -0.28793936295E+02  0.47787269757E+02  0.19999994130E+02 0.  0.
        -12    1    1    2    0    0  0.97004485874E+01  0.30990868259E+02  0.28793936295E+02  0.43400730243E+02  0.00000000000E+00 0.  1.
         11    1    3    3    0    0 -0.80471743570E+01 -0.14733873250E+02 -0.24165990216E+02  0.29425144340E+02  0.51100000000E-03 0. -1.
        -11    1    3    3    0    0 -0.41611667246E+01 -0.11954753537E+02 -0.23020083969E+01  0.12865872825E+02  0.51100000000E-03 0.  1.
         12    1    3    3    0    0  0.25078924941E+01 -0.43022414721E+01 -0.23259376829E+01  0.54962525917E+01  0.00000000000E+00 0. -1.
</event>
<event>
 7    1  0.2935819E-010  0.4778728E+02  0.7816164E-02  0.1312668E+00
        -11   -1    0    0    0    0  0.00000000000E+00  0.00000000000E+00  0.45593999997E+02  0.45594000000E+02  0.51100000000E-03 0. -1.
         11   -1    0    0    0    0 -0.00000000000E+00 -0.00000000000E+00 -0.45593999997E+02  0.45594000000E+02  0.51100000000E-03 0.  1.
    9900012    2    1    2    0    0 -0.32497524690E+02  0.42622766684E+00 -0.28763728052E+02  0.47787276130E+02  0.20000023187E+02 0.  0.
        -12    1    1    2    0    0  0.32497524690E+02 -0.42622766684E+00  0.28763728052E+02  0.43400723870E+02  0.00000000000E+00 0.  1.
         11    1    3    3    0    0  0.82281297043E+00  0.66291260280E+00  0.27141533593E+00  0.10909357676E+01  0.51100000000E-03 0. -1.
        -11    1    3    3    0    0 -0.11572042679E+02 -0.37700431659E+01 -0.28975092678E+01  0.12510833604E+02  0.51100000000E-03 0.  1.
        -12    1    3    3    0    0 -0.21748294981E+02  0.35333582299E+01 -0.26137634120E+02  0.34185506759E+02  0.00000000000E+00 0.  1.
</event>
<event>
 7    1  0.2935819E-010  0.4778727E+02  0.7816164E-02  0.1312668E+00
        -11   -1    0    0    0    0  0.00000000000E+00  0.00000000000E+00  0.45593999997E+02  0.45594000000E+02  0.51100000000E-03 0.  1.
         11   -1    0    0    0    0 -0.00000000000E+00 -0.00000000000E+00 -0.45593999997E+02  0.45594000000E+02  0.51100000000E-03 0. -1.
    9900012    2    1    2    0    0  0.10290278313E+02 -0.29459737510E+02 -0.30163841287E+02  0.47787270938E+02  0.19999999514E+02 0.  0.
        -12    1    1    2    0    0 -0.10290278313E+02  0.29459737510E+02  0.30163841287E+02  0.43400729062E+02  0.00000000000E+00 0.  1.
         11    1    3    3    0    0  0.93427255431E+01 -0.21052938018E+02 -0.13718640210E+02  0.26808838267E+02  0.51100000000E-03 0. -1.
        -11    1    3    3    0    0  0.14782046595E+01 -0.47111131143E+01 -0.93517593845E+00  0.50253587024E+01  0.51100000000E-03 0.  1.
         12    1    3    3    0    0 -0.53065188925E+00 -0.36956863776E+01 -0.15510025139E+02  0.15953073968E+02  0.00000000000E+00 0. -1.
</event>
<event>
 7    1  0.2935819E-010  0.4778728E+02  0.7816164E-02  0.1312668E+00
        -11   -1    0    0    0    0  0.00000000000E+00  0.00000000000E+00  0.45593999997E+02  0.45594000000E+02  0.51100000000E-03 0.  1.
         11   -1    0    0    0    0 -0.00000000000E+00 -0.00000000000E+00 -0.45593999997E+02  0.45594000000E+02  0.51100000000E-03 0. -1.
    9900012    2    1    2    0    0 -0.51156411640E+01  0.32345427305E+01 -0.42976629369E+02  0.47787277389E+02  0.20000028929E+02 0.  0.
        -12    1    1    2    0    0  0.51156411640E+01 -0.32345427305E+01  0.42976629369E+02  0.43400722611E+02  0.00000000000E+00 0.  1.
         11    1    3    3    0    0  0.14309756184E+01  0.80225143640E+01 -0.31900274140E+02  0.32924700734E+02  0.51100000000E-03 0. -1.
        -11    1    3    3    0    0 -0.61834382581E+01 -0.33422948232E+01 -0.50509028958E+01  0.86554874907E+01  0.51100000000E-03 0.  1.
         12    1    3    3    0    0 -0.36317852420E+00 -0.14456768104E+01 -0.60254523333E+01  0.62070891650E+01  0.00000000000E+00 0. -1.
</event>
<event>
 7    1  0.2935819E-010  0.4778727E+02  0.7816164E-02  0.1312668E+00
        -11   -1    0    0    0    0  0.00000000000E+00  0.00000000000E+00  0.45593999997E+02  0.45594000000E+02  0.51100000000E-03 0.  1.
         11   -1    0    0    0    0 -0.00000000000E+00 -0.00000000000E+00 -0.45593999997E+02  0.45594000000E+02  0.51100000000E-03 0. -1.
    9900012    2    1    2    0    0  0.36154657656E+02 -0.61043192821E+00 -0.24001899345E+02  0.47787273398E+02  0.20000010733E+02 0.  0.
        -12    1    1    2    0    0 -0.36154657656E+02  0.61043192821E+00  0.24001899345E+02  0.43400726602E+02  0.00000000000E+00 0.  1.
         11    1    3    3    0    0  0.29849255770E+02  0.35270391559E+01 -0.20086313872E+02  0.36150768739E+02  0.51100000000E-03 0. -1.
        -11    1    3    3    0    0  0.30211156328E+01  0.13589265669E+01  0.11134050495E+01  0.34947807008E+01  0.51100000000E-03 0.  1.
         12    1    3    3    0    0  0.32842862530E+01 -0.54963976511E+01 -0.50289905231E+01  0.81417239582E+01  0.00000000000E+00 0. -1.
</event>
<event>
 7    1  0.2935819E-010  0.4778727E+02  0.7816164E-02  0.1312668E+00
        -11   -1    0    0    0    0  0.00000000000E+00  0.00000000000E+00  0.45593999997E+02  0.45594000000E+02  0.51100000000E-03 0. -1.
         11   -1    0    0    0    0 -0.00000000000E+00 -0.00000000000E+00 -0.45593999997E+02  0.45594000000E+02  0.51100000000E-03 0.  1.
    9900012    2    1    2    0    0 -0.16346771502E+01 -0.34503979363E+02  0.26275968472E+02  0.47787270970E+02  0.19999999660E+02 0.  0.
        -12    1    1    2    0    0  0.16346771502E+01  0.34503979363E+02 -0.26275968472E+02  0.43400729030E+02  0.00000000000E+00 0.  1.
         11    1    3    3    0    0 -0.41643734378E+01 -0.10036124991E+02  0.25770836717E+01  0.11167236519E+02  0.51100000000E-03 0. -1.
        -11    1    3    3    0    0  0.87460505491E-01 -0.11626661342E+02  0.19831426722E+02  0.22988527343E+02  0.51100000000E-03 0.  1.
        -12    1    3    3    0    0  0.24422357821E+01 -0.12841193029E+02  0.38674580774E+01  0.13631507107E+02  0.00000000000E+00 0.  1.
</event>
<event>
 7    1  0.2935819E-010  0.4778726E+02  0.7816164E-02  0.1312668E+00
        -11   -1    0    0    0    0  0.00000000000E+00  0.00000000000E+00  0.45593999997E+02  0.45594000000E+02  0.51100000000E-03 0.  1.
         11   -1    0    0    0    0 -0.00000000000E+00 -0.00000000000E+00 -0.45593999997E+02  0.45594000000E+02  0.51100000000E-03 0. -1.
    9900012    2    1    2    0    0  0.11376948359E+02  0.19686014902E+02 -0.36968226335E+02  0.47787263889E+02  0.19999967374E+02 0.  0.
        -12    1    1    2    0    0 -0.11376948359E+02 -0.19686014902E+02  0.36968226335E+02  0.43400736111E+02  0.00000000000E+00 0.  1.
         11    1    3    3    0    0  0.21871268974E+01  0.42693057332E+01 -0.75821554487E+01  0.89721556506E+01  0.51100000000E-03 0. -1.
        -11    1    3    3    0    0  0.41697968493E+01  0.70186252955E+01 -0.34605840831E+00  0.81711727118E+01  0.51100000000E-03 0.  1.
        -12    1    3    3    0    0  0.50200246119E+01  0.83980838730E+01 -0.29040012478E+02  0.30643935526E+02  0.00000000000E+00 0.  1.
</event>
<event>
 7    1  0.2935819E-010  0.4778727E+02  0.7816164E-02  0.1312668E+00
        -11   -1    0    0    0    0  0.00000000000E+00  0.00000000000E+00  0.45593999997E+02  0.45594000000E+02  0.51100000000E-03 0. -1.
         11   -1    0    0    0    0 -0.00000000000E+00 -0.00000000000E+00 -0.45593999997E+02  0.45594000000E+02  0.51100000000E-03 0.  1.
    9900012    2    1    2    0    0 -0.16200044720E+02 -0.39027861284E+02 -0.98998911729E+01  0.47787271313E+02  0.20000001225E+02 0.  0.
        -12    1    1    2    0    0  0.16200044720E+02  0.39027861284E+02  0.98998911729E+01  0.43400728687E+02  0.00000000000E+00 0.  1.
         11    1    3    3    0    0 -0.14905816114E+02 -0.19654100891E+02 -0.46228374699E+01  0.25096566745E+02  0.51100000000E-03 0. -1.
        -11    1    3    3    0    0 -0.11044263071E+01 -0.20556104177E+02 -0.40580417842E+01  0.20981917925E+02  0.51100000000E-03 0.  1.
         12    1    3    3    0    0 -0.18980229885E+00  0.11823437839E+01 -0.12190119188E+01  0.17087866438E+01  0.00000000000E+00 0. -1.
</event>
<event>
 7    1  0.2935819E-010  0.4778727E+02  0.7816164E-02  0.1312668E+00
        -11   -1    0    0    0    0  0.00000000000E+00  0.00000000000E+00  0.45593999997E+02  0.45594000000E+02  0.51100000000E-03 0.  1.
         11   -1    0    0    0    0 -0.00000000000E+00 -0.00000000000E+00 -0.45593999997E+02  0.45594000000E+02  0.51100000000E-03 0. -1.
    9900012    2    1    2    0    0  0.96975271635E+00  0.24518754505E+02 -0.35798237330E+02  0.47787267993E+02  0.19999986087E+02 0.  0.
        -12    1    1    2    0    0 -0.96975271635E+00 -0.24518754505E+02  0.35798237330E+02  0.43400732007E+02  0.00000000000E+00 0.  1.
         11    1    3    3    0    0  0.56065617875E+01  0.12456154059E+02 -0.17945832913E+02  0.22553097974E+02  0.51100000000E-03 0. -1.
        -11    1    3    3    0    0 -0.81710922804E+01  0.84728658615E+01 -0.16007271395E+02  0.19869296483E+02  0.51100000000E-03 0.  1.
        -12    1    3    3    0    0  0.35342832092E+01  0.35897345837E+01 -0.18451330228E+01  0.53648735358E+01  0.00000000000E+00 0.  1.
</event>
<event>
 7    1  0.2935819E-010  0.4778727E+02  0.7816164E-02  0.1312668E+00
        -11   -1    0    0    0    0  0.00000000000E+00  0.00000000000E+00  0.45593999997E+02  0.45594000000E+02  0.51100000000E-03 0.  1.
         11   -1    0    0    0    0 -0.00000000000E+00 -0.00000000000E+00 -0.45593999997E+02  0.45594000000E+02  0.51100000000E-03 0. -1.
    9900012    2    1    2    0    0  0.39599693019E+02  0.17443338800E+02  0.33492676573E+01  0.47787270173E+02  0.19999996027E+02 0.  0.
        -12    1    1    2    0    0 -0.39599693019E+02 -0.17443338800E+02 -0.33492676573E+01  0.43400729827E+02  0.00000000000E+00 0.  1.
         11    1    3    3    0    0  0.21242428482E+02  0.11567860045E+02  0.14570602528E+01  0.24231780345E+02  0.51100000000E-03 0. -1.
        -11    1    3    3    0    0 -0.22927116177E+00  0.48584112362E+01  0.29528020012E+00  0.48727728927E+01  0.51100000000E-03 0.  1.
        -12    1    3    3    0    0  0.18586535698E+02  0.10170675189E+01  0.15969272044E+01  0.18682716936E+02  0.00000000000E+00 0.  1.
</event>
<event>
 7    1  0.2935819E-010  0.4778726E+02  0.7816164E-02  0.1312668E+00
        -11   -1    0    0    0    0  0.00000000000E+00  0.00000000000E+00  0.45593999997E+02  0.45594000000E+02  0.51100000000E-03 0. -1.
         11   -1    0    0    0    0 -0.00000000000E+00 -0.00000000000E+00 -0.45593999997E+02  0.45594000000E+02  0.51100000000E-03 0.  1.
    9900012    2    1    2    0    0 -0.41154489258E+02 -0.13088574214E+02  0.43152243226E+01  0.47787263577E+02  0.19999965954E+02 0.  0.
        -12    1    1    2    0    0  0.41154489258E+02  0.13088574214E+02 -0.43152243226E+01  0.43400736423E+02  0.00000000000E+00 0.  1.
         11    1    3    3    0    0 -0.23956220440E+02 -0.32709052810E+01  0.92788931412E+01  0.25897821865E+02  0.51100000000E-03 0. -1.
        -11    1    3    3    0    0 -0.14772061130E+02 -0.10985905507E+02 -0.32402061555E+01  0.18692320509E+02  0.51100000000E-03 0.  1.
        -12    1    3    3    0    0 -0.24262076882E+01  0.11682365736E+01 -0.17234626630E+01  0.31971212033E+01  0.00000000000E+00 0.  1.
</event>
<event>
 7    1  0.2935819E-010  0.4778725E+02  0.7816164E-02  0.1312668E+00
        -11   -1    0    0    0    0  0.00000000000E+00  0.00000000000E+00  0.45593999997E+02  0.45594000000E+02  0.51100000000E-03 0. -1.
         11   -1    0    0    0    0 -0.00000000000E+00 -0.00000000000E+00 -0.45593999997E+02  0.45594000000E+02  0.51100000000E-03 0.  1.
    9900012    2    1    2    0    0 -0.23603219687E+02 -0.30575540652E+02  0.19790125023E+02  0.47787254451E+02  0.19999924346E+02 0.  0.
        -12    1    1    2    0    0  0.23603219687E+02  0.30575540652E+02 -0.19790125023E+02  0.43400745549E+02  0.00000000000E+00 0.  1.
         11    1    3    3    0    0 -0.15315081519E+02 -0.20645419607E+02  0.19277482074E+02  0.32131081340E+02  0.51100000000E-03 0. -1.
        -11    1    3    3    0    0 -0.59665389303E+00  0.16278342922E+01 -0.25152111040E+00  0.17518856929E+01  0.51100000000E-03 0.  1.
         12    1    3    3    0    0 -0.76914842749E+01 -0.11557955336E+02  0.76416405967E+00  0.13904287419E+02  0.00000000000E+00 0. -1.
</event>
<event>
 7    1  0.2935819E-010  0.4778727E+02  0.7816164E-02  0.1312668E+00
        -11   -1    0    0    0    0  0.00000000000E+00  0.00000000000E+00  0.45593999997E+02  0.45594000000E+02  0.51100000000E-03 0.  1.
         11   -1    0    0    0    0 -0.00000000000E+00 -0.00000000000E+00 -0.45593999997E+02  0.45594000000E+02  0.51100000000E-03 0. -1.
    9900012    2    1    2    0    0  0.21445788038E+02  0.17070717593E+01 -0.37693330490E+02  0.47787273255E+02  0.20000010079E+02 0.  0.
        -12    1    1    2    0    0 -0.21445788038E+02 -0.17070717593E+01  0.37693330490E+02  0.43400726745E+02  0.00000000000E+00 0.  1.
         11    1    3    3    0    0  0.15686594600E+02 -0.59107067846E+01 -0.18783509584E+02  0.25175899932E+02  0.51100000000E-03 0. -1.
        -11    1    3    3    0    0  0.56777934905E+01  0.90736187491E+01 -0.17833346450E+02  0.20798945694E+02  0.51100000000E-03 0.  1.
         12    1    3    3    0    0  0.81399947640E-01 -0.14558402052E+01 -0.10764744558E+01  0.18124276285E+01  0.00000000000E+00 0. -1.
</event>
<event>
 7    1  0.2935819E-010  0.4778727E+02  0.7816164E-02  0.1312668E+00
        -11   -1    0    0    0    0  0.00000000000E+00  0.00000000000E+00  0.45593999997E+02  0.45594000000E+02  0.51100000000E-03 0.  1.
         11   -1    0    0    0    0 -0.00000000000E+00 -0.00000000000E+00 -0.45593999997E+02  0.45594000000E+02  0.51100000000E-03 0. -1.
    9900012    2    1    2    0    0 -0.11932305879E+02  0.11042672974E+02 -0.40240566347E+02  0.47787265790E+02  0.19999976044E+02 0.  0.
        -12    1    1    2    0    0  0.11932305879E+02 -0.11042672974E+02  0.40240566347E+02  0.43400734210E+02  0.00000000000E+00 0.  1.
         11    1    3    3    0    0  0.73530023744E+00  0.57402683390E+01 -0.16247223983E+02  0.17247134094E+02  0.51100000000E-03 0. -1.
        -11    1    3    3    0    0 -0.10108430881E+02  0.31976354856E+01 -0.58746050634E+01  0.12120900647E+02  0.51100000000E-03 0.  1.
        -12    1    3    3    0    0 -0.25591752346E+01  0.21047691496E+01 -0.18118737301E+02  0.18419231049E+02  0.00000000000E+00 0.  1.
</event>
<event>
 7    1  0.2935819E-010  0.4778727E+02  0.7816164E-02  0.1312668E+00
        -11   -1    0    0    0    0  0.00000000000E+00  0.00000000000E+00  0.45593999997E+02  0.45594000000E+02  0.51100000000E-03 0. -1.
         11   -1    0    0    0    0 -0.00000000000E+00 -0.00000000000E+00 -0.45593999997E+02  0.45594000000E+02  0.51100000000E-03 0.  1.
    9900012    2    1    2    0    0 -0.10205268405E+02  0.17077964868E+02  0.38572255975E+02  0.47787270533E+02  0.19999997668E+02 0.  0.
        -12    1    1    2    0    0  0.10205268405E+02 -0.17077964868E+02 -0.38572255975E+02  0.43400729467E+02  0.00000000000E+00 0.  1.
         11    1    3    3    0    0  0.57961479983E+01  0.24065749603E+01  0.92996130185E+01  0.11219168294E+02  0.51100000000E-03 0. -1.
        -11    1    3    3    0    0 -0.89348282085E+01  0.65554915760E+01  0.16346743994E+02  0.19748966160E+02  0.51100000000E-03 0.  1.
         12    1    3    3    0    0 -0.70665881944E+01  0.81158983320E+01  0.12925898962E+02  0.16819136079E+02  0.00000000000E+00 0. -1.
</event>
<event>
 7    1  0.2935819E-010  0.4778728E+02  0.7816164E-02  0.1312668E+00
        -11   -1    0    0    0    0  0.00000000000E+00  0.00000000000E+00  0.45593999997E+02  0.45594000000E+02  0.51100000000E-03 0.  1.
         11   -1    0    0    0    0 -0.00000000000E+00 -0.00000000000E+00 -0.45593999997E+02  0.45594000000E+02  0.51100000000E-03 0. -1.
    9900012    2    1    2    0    0  0.12560297865E+02  0.39676399405E+02 -0.12314422096E+02  0.47787277152E+02  0.20000027846E+02 0.  0.
        -12    1    1    2    0    0 -0.12560297865E+02 -0.39676399405E+02  0.12314422096E+02  0.43400722848E+02  0.00000000000E+00 0.  1.
         11    1    3    3    0    0 -0.40358443871E+00  0.21727826626E+01 -0.16606279696E+01  0.27643354378E+01  0.51100000000E-03 0.  1.
        -11    1    3    3    0    0  0.77301474465E+01  0.18623017103E+02 -0.14780228699E+02  0.25000542118E+02  0.51100000000E-03 0. -1.
        -12    1    3    3    0    0  0.52337348574E+01  0.18880599640E+02  0.41264345725E+01  0.20022399596E+02  0.00000000000E+00 0.  1.
</event>
<event>
 7    1  0.2935819E-010  0.4778726E+02  0.7816164E-02  0.1312668E+00
        -11   -1    0    0    0    0  0.00000000000E+00  0.00000000000E+00  0.45593999997E+02  0.45594000000E+02  0.51100000000E-03 0.  1.
         11   -1    0    0    0    0 -0.00000000000E+00 -0.00000000000E+00 -0.45593999997E+02  0.45594000000E+02  0.51100000000E-03 0. -1.
    9900012    2    1    2    0    0 -0.26649447682E+02  0.29628893774E+02  0.17191848555E+02  0.47787261932E+02  0.19999958455E+02 0.  0.
        -12    1    1    2    0    0  0.26649447682E+02 -0.29628893774E+02 -0.17191848555E+02  0.43400738068E+02  0.00000000000E+00 0.  1.
         11    1    3    3    0    0 -0.24459833191E+02  0.20275926834E+02  0.17893418463E+02  0.36463283907E+02  0.51100000000E-03 0. -1.
        -11    1    3    3    0    0  0.17665267556E+01  0.46327037066E+01  0.70102940142E+00  0.50073948211E+01  0.51100000000E-03 0.  1.
        -12    1    3    3    0    0 -0.39561412468E+01  0.47202632337E+01 -0.14025993090E+01  0.63165832047E+01  0.00000000000E+00 0.  1.
</event>
<event>
 7    1  0.2935819E-010  0.4778727E+02  0.7816164E-02  0.1312668E+00
        -11   -1    0    0    0    0  0.00000000000E+00  0.00000000000E+00  0.45593999997E+02  0.45594000000E+02  0.51100000000E-03 0.  1.
         11   -1    0    0    0    0 -0.00000000000E+00 -0.00000000000E+00 -0.45593999997E+02  0.45594000000E+02  0.51100000000E-03 0. -1.
    9900012    2    1    2    0    0 -0.70918959458E+01  0.42444776968E+02  0.56364215471E+01  0.47787270423E+02  0.19999997166E+02 0.  0.
        -12    1    1    2    0    0  0.70918959458E+01 -0.42444776968E+02 -0.56364215471E+01  0.43400729577E+02  0.00000000000E+00 0.  1.
         11    1    3    3    0    0 -0.48104871529E+01  0.27903179195E+02  0.14519884436E+01  0.28352009920E+02  0.51100000000E-03 0. -1.
        -11    1    3    3    0    0 -0.25417932651E+00 -0.92015051212E+00 -0.23431106131E+01  0.25301090295E+01  0.51100000000E-03 0.  1.
        -12    1    3    3    0    0 -0.20272294664E+01  0.15461748286E+02  0.65275437166E+01  0.16905151473E+02  0.00000000000E+00 0.  1.
</event>
<event>
 7    1  0.2935819E-010  0.4778728E+02  0.7816164E-02  0.1312668E+00
        -11   -1    0    0    0    0  0.00000000000E+00  0.00000000000E+00  0.45593999997E+02  0.45594000000E+02  0.51100000000E-03 0. -1.
         11   -1    0    0    0    0 -0.00000000000E+00 -0.00000000000E+00 -0.45593999997E+02  0.45594000000E+02  0.51100000000E-03 0.  1.
    9900012    2    1    2    0    0  0.27626670089E+02  0.19966396757E+02  0.26865079323E+02  0.47787281266E+02  0.20000046603E+02 0.  0.
        -12    1    1    2    0    0 -0.27626670089E+02 -0.19966396757E+02 -0.26865079323E+02  0.43400718734E+02  0.00000000000E+00 0.  1.
         11    1    3    3    0    0  0.18572232216E+02  0.48017180119E+01  0.18042677569E+02  0.26334815729E+02  0.51100000000E-03 0. -1.
        -11    1    3    3    0    0  0.39501540829E+01  0.33469399930E+01 -0.98363726812E+00  0.52700348321E+01  0.51100000000E-03 0.  1.
         12    1    3    3    0    0  0.51042837899E+01  0.11817738752E+02  0.98060390220E+01  0.16182430705E+02  0.00000000000E+00 0. -1.
</event>
<event>
 7    1  0.2935819E-010  0.4778727E+02  0.7816164E-02  0.1312668E+00
        -11   -1    0    0    0    0  0.00000000000E+00  0.00000000000E+00  0.45593999997E+02  0.45594000000E+02  0.51100000000E-03 0.  1.
         11   -1    0    0    0    0 -0.00000000000E+00 -0.00000000000E+00 -0.45593999997E+02  0.45594000000E+02  0.51100000000E-03 0. -1.
    9900012    2    1    2    0    0  0.17437305463E+02  0.33621129514E+02 -0.21193947374E+02  0.47787269858E+02  0.19999994588E+02 0.  0.
        -12    1    1    2    0    0 -0.17437305463E+02 -0.33621129514E+02  0.21193947374E+02  0.43400730142E+02  0.00000000000E+00 0.  1.
         11    1    3    3    0    0  0.13105306544E+02  0.10094976840E+02 -0.12764085725E+02  0.20894484959E+02  0.51100000000E-03 0. -1.
        -11    1    3    3    0    0 -0.90724722686E-01  0.18090936682E+02 -0.37764824785E+01  0.18481126621E+02  0.51100000000E-03 0.  1.
        -12    1    3    3    0    0  0.44227236409E+01  0.54352159919E+01 -0.46533791705E+01  0.84116582781E+01  0.00000000000E+00 0.  1.
</event>
<event>
 7    1  0.2935819E-010  0.4778727E+02  0.7816164E-02  0.1312668E+00
        -11   -1    0    0    0    0  0.00000000000E+00  0.00000000000E+00  0.45593999997E+02  0.45594000000E+02  0.51100000000E-03 0. -1.
         11   -1    0    0    0    0 -0.00000000000E+00 -0.00000000000E+00 -0.45593999997E+02  0.45594000000E+02  0.51100000000E-03 0.  1.
    9900012    2    1    2    0    0 -0.16728113844E+01  0.53480732779E+01  0.43037458926E+02  0.47787273549E+02  0.20000011418E+02 0.  0.
        -12    1    1    2    0    0  0.16728113844E+01 -0.53480732779E+01 -0.43037458926E+02  0.43400726451E+02  0.00000000000E+00 0.  1.
         11    1    3    3    0    0 -0.42081122469E+01 -0.10174426361E+01  0.12641130816E+01  0.45101419428E+01  0.51100000000E-03 0.  1.
        -11    1    3    3    0    0  0.49565857225E+01  0.62831600565E+01  0.23093996069E+02  0.24441327644E+02  0.51100000000E-03 0. -1.
         12    1    3    3    0    0 -0.24212848599E+01  0.82355857434E-01  0.18679349775E+02  0.18835803962E+02  0.00000000000E+00 0. -1.
</event>
<event>
 7    1  0.2935819E-010  0.4778727E+02  0.7816164E-02  0.1312668E+00
        -11   -1    0    0    0    0  0.00000000000E+00  0.00000000000E+00  0.45593999997E+02  0.45594000000E+02  0.51100000000E-03 0. -1.
         11   -1    0    0    0    0 -0.00000000000E+00 -0.00000000000E+00 -0.45593999997E+02  0.45594000000E+02  0.51100000000E-03 0.  1.
    9900012    2    1    2    0    0  0.30921832255E+02 -0.43821713267E+01  0.30137356130E+02  0.47787269936E+02  0.19999994948E+02 0.  0.
        -12    1    1    2    0    0 -0.30921832255E+02  0.43821713267E+01 -0.30137356130E+02  0.43400730064E+02  0.00000000000E+00 0.  1.
         11    1    3    3    0    0  0.13971679176E+02 -0.62337407274E+01  0.88573405377E+01  0.17678230231E+02  0.51100000000E-03 0. -1.
        -11    1    3    3    0    0  0.10571436508E+02  0.64531279730E+01  0.17348455994E+02  0.21315887411E+02  0.51100000000E-03 0.  1.
        -12    1    3    3    0    0  0.63787165713E+01 -0.46015585723E+01  0.39315595985E+01  0.87931522941E+01  0.00000000000E+00 0.  1.
</event>
<event>
 7    1  0.2935819E-010  0.4778727E+02  0.7816164E-02  0.1312668E+00
        -11   -1    0    0    0    0  0.00000000000E+00  0.00000000000E+00  0.45593999997E+02  0.45594000000E+02  0.51100000000E-03 0.  1.
         11   -1    0    0    0    0 -0.00000000000E+00 -0.00000000000E+00 -0.45593999997E+02  0.45594000000E+02  0.51100000000E-03 0. -1.
    9900012    2    1    2    0    0 -0.24704393737E+02  0.23206336408E+02 -0.27106862020E+02  0.47787273186E+02  0.20000009765E+02 0.  0.
        -12    1    1    2    0    0  0.24704393737E+02 -0.23206336408E+02  0.27106862020E+02  0.43400726814E+02  0.00000000000E+00 0.  1.
         11    1    3    3    0    0 -0.41598213651E+01 -0.27041381417E+01 -0.38096333948E+01  0.62553803836E+01  0.51100000000E-03 0. -1.
        -11    1    3    3    0    0 -0.19715215835E+02  0.26720565083E+02 -0.22732446090E+02  0.40242296645E+02  0.51100000000E-03 0.  1.
        -12    1    3    3    0    0 -0.82935653684E+00 -0.81009053322E+00 -0.56478253467E+00  0.12895961572E+01  0.00000000000E+00 0.  1.
</event>
<event>
 7    1  0.2935819E-010  0.4778727E+02  0.7816164E-02  0.1312668E+00
        -11   -1    0    0    0    0  0.00000000000E+00  0.00000000000E+00  0.45593999997E+02  0.45594000000E+02  0.51100000000E-03 0.  1.
         11   -1    0    0    0    0 -0.00000000000E+00 -0.00000000000E+00 -0.45593999997E+02  0.45594000000E+02  0.51100000000E-03 0. -1.
    9900012    2    1    2    0    0  0.13513429804E+02 -0.18433807797E+02 -0.36894517431E+02  0.47787268769E+02  0.19999989624E+02 0.  0.
        -12    1    1    2    0    0 -0.13513429804E+02  0.18433807797E+02  0.36894517431E+02  0.43400731231E+02  0.00000000000E+00 0.  1.
         11    1    3    3    0    0 -0.23380131953E+01 -0.20129657391E+00 -0.10317689915E+02  0.10581188565E+02  0.51100000000E-03 0. -1.
        -11    1    3    3    0    0  0.87319840388E+01 -0.14804336008E+02 -0.13207267552E+02  0.21675973481E+02  0.51100000000E-03 0.  1.
         12    1    3    3    0    0  0.71194589600E+01 -0.34281752154E+01 -0.13369559964E+02  0.15530106722E+02  0.00000000000E+00 0. -1.
</event>
<event>
 7    1  0.2935819E-010  0.4778727E+02  0.7816164E-02  0.1312668E+00
        -11   -1    0    0    0    0  0.00000000000E+00  0.00000000000E+00  0.45593999997E+02  0.45594000000E+02  0.51100000000E-03 0.  1.
         11   -1    0    0    0    0 -0.00000000000E+00 -0.00000000000E+00 -0.45593999997E+02  0.45594000000E+02  0.51100000000E-03 0. -1.
    9900012    2    1    2    0    0  0.32912396157E+02 -0.31717304670E+01 -0.28112942712E+02  0.47787271401E+02  0.20000001626E+02 0.  0.
        -12    1    1    2    0    0 -0.32912396157E+02  0.31717304670E+01  0.28112942712E+02  0.43400728599E+02  0.00000000000E+00 0.  1.
         11    1    3    3    0    0  0.30599808839E+01 -0.13548531123E+00 -0.11886807751E+02  0.12275098291E+02  0.51100000000E-03 0. -1.
        -11    1    3    3    0    0  0.29248271069E+02 -0.48665314521E+01 -0.15451543674E+02  0.33434932198E+02  0.51100000000E-03 0.  1.
        -12    1    3    3    0    0  0.60414420450E+00  0.18302862964E+01 -0.77459128764E+00  0.20772409127E+01  0.00000000000E+00 0.  1.
</event>
<event>
 7    1  0.2935819E-010  0.4778726E+02  0.7816164E-02  0.1312668E+00
        -11   -1    0    0    0    0  0.00000000000E+00  0.00000000000E+00  0.45593999997E+02  0.45594000000E+02  0.51100000000E-03 0.  1.
         11   -1    0    0    0    0 -0.00000000000E+00 -0.00000000000E+00 -0.45593999997E+02  0.45594000000E+02  0.51100000000E-03 0. -1.
    9900012    2    1    2    0    0  0.36375593434E+02 -0.13416172989E+02 -0.19505033871E+02  0.47787264503E+02  0.19999970175E+02 0.  0.
        -12    1    1    2    0    0 -0.36375593434E+02  0.13416172989E+02  0.19505033871E+02  0.43400735497E+02  0.00000000000E+00 0.  1.
         11    1    3    3    0    0  0.24098127547E+01 -0.51721990386E+01  0.82377348837E+00  0.57651924017E+01  0.51100000000E-03 0. -1.
        -11    1    3    3    0    0  0.28952540615E+02 -0.47447994480E+01 -0.12018050558E+02  0.31704830378E+02  0.51100000000E-03 0.  1.
        -12    1    3    3    0    0  0.50132400648E+01 -0.34991745027E+01 -0.83107568021E+01  0.10317241723E+02  0.00000000000E+00 0.  1.
</event>
<event>
 7    1  0.2935819E-010  0.4778727E+02  0.7816164E-02  0.1312668E+00
        -11   -1    0    0    0    0  0.00000000000E+00  0.00000000000E+00  0.45593999997E+02  0.45594000000E+02  0.51100000000E-03 0. -1.
         11   -1    0    0    0    0 -0.00000000000E+00 -0.00000000000E+00 -0.45593999997E+02  0.45594000000E+02  0.51100000000E-03 0.  1.
    9900012    2    1    2    0    0 -0.23386187522E+02  0.16428920808E+02  0.32661905503E+02  0.47787271011E+02  0.19999999845E+02 0.  0.
        -12    1    1    2    0    0  0.23386187522E+02 -0.16428920808E+02 -0.32661905503E+02  0.43400728989E+02  0.00000000000E+00 0.  1.
         11    1    3    3    0    0 -0.45158569442E+01  0.72007772314E+01  0.22329272428E+01  0.87880669666E+01  0.51100000000E-03 0. -1.
        -11    1    3    3    0    0 -0.19198696146E+02  0.67092419087E+01  0.20998232000E+02  0.29232338396E+02  0.51100000000E-03 0.  1.
        -12    1    3    3    0    0  0.32836556863E+00  0.25189016682E+01  0.94307462603E+01  0.97668656480E+01  0.00000000000E+00 0.  1.
</event>
<event>
 7    1  0.2935819E-010  0.4778726E+02  0.7816164E-02  0.1312668E+00
        -11   -1    0    0    0    0  0.00000000000E+00  0.00000000000E+00  0.45593999997E+02  0.45594000000E+02  0.51100000000E-03 0.  1.
         11   -1    0    0    0    0 -0.00000000000E+00 -0.00000000000E+00 -0.45593999997E+02  0.45594000000E+02  0.51100000000E-03 0. -1.
    9900012    2    1    2    0    0  0.37462074659E+02  0.16304574410E+02 -0.14641645147E+02  0.47787263173E+02  0.19999964113E+02 0.  0.
        -12    1    1    2    0    0 -0.37462074659E+02 -0.16304574410E+02  0.14641645147E+02  0.43400736827E+02  0.00000000000E+00 0.  1.
         11    1    3    3    0    0  0.16928221711E+02  0.10079551846E+02 -0.46306834058E+01  0.20238707586E+02  0.51100000000E-03 0. -1.
        -11    1    3    3    0    0  0.66431495209E+01 -0.40309350482E+01 -0.38493586824E+00  0.77799774295E+01  0.51100000000E-03 0.  1.
        -12    1    3    3    0    0  0.13890703428E+02  0.10255957612E+02 -0.96260258732E+01  0.19768578158E+02  0.00000000000E+00 0.  1.
</event>
<event>
 7    1  0.2935819E-010  0.4778727E+02  0.7816164E-02  0.1312668E+00
        -11   -1    0    0    0    0  0.00000000000E+00  0.00000000000E+00  0.45593999997E+02  0.45594000000E+02  0.51100000000E-03 0.  1.
         11   -1    0    0    0    0 -0.00000000000E+00 -0.00000000000E+00 -0.45593999997E+02  0.45594000000E+02  0.51100000000E-03 0. -1.
    9900012    2    1    2    0    0 -0.82074826694E+01 -0.16251105091E+02 -0.39397486369E+02  0.47787272809E+02  0.20000008047E+02 0.  0.
        -12    1    1    2    0    0  0.82074826694E+01  0.16251105091E+02  0.39397486369E+02  0.43400727191E+02  0.00000000000E+00 0.  1.
         11    1    3    3    0    0 -0.37433958126E+01 -0.58243536458E+01 -0.18057336947E+02  0.19339170755E+02  0.51100000000E-03 0. -1.
        -11    1    3    3    0    0 -0.13730330253E+01  0.17969395175E+01 -0.13307519481E+02  0.13498306794E+02  0.51100000000E-03 0.  1.
        -12    1    3    3    0    0 -0.30910538315E+01 -0.12223690963E+02 -0.80326299409E+01  0.14949795260E+02  0.00000000000E+00 0.  1.
</event>
<event>
 7    1  0.2935819E-010  0.4778727E+02  0.7816164E-02  0.1312668E+00
        -11   -1    0    0    0    0  0.00000000000E+00  0.00000000000E+00  0.45593999997E+02  0.45594000000E+02  0.51100000000E-03 0.  1.
         11   -1    0    0    0    0 -0.00000000000E+00 -0.00000000000E+00 -0.45593999997E+02  0.45594000000E+02  0.51100000000E-03 0. -1.
    9900012    2    1    2    0    0  0.13638450269E+02 -0.22272754368E+02 -0.34663243697E+02  0.47787269862E+02  0.19999994610E+02 0.  0.
        -12    1    1    2    0    0 -0.13638450269E+02  0.22272754368E+02  0.34663243697E+02  0.43400730138E+02  0.00000000000E+00 0.  1.
         11    1    3    3    0    0  0.13304457218E+00 -0.58354352188E+00  0.20440451864E+01  0.21298696874E+01  0.51100000000E-03 0. -1.
        -11    1    3    3    0    0  0.11901227017E+00 -0.26669107541E+01 -0.94726796847E+01  0.98416582729E+01  0.51100000000E-03 0.  1.
         12    1    3    3    0    0  0.13386393426E+02 -0.19022300093E+02 -0.27234609199E+02  0.35815741902E+02  0.00000000000E+00 0. -1.
</event>
<event>
 7    1  0.2935819E-010  0.4778727E+02  0.7816164E-02  0.1312668E+00
        -11   -1    0    0    0    0  0.00000000000E+00  0.00000000000E+00  0.45593999997E+02  0.45594000000E+02  0.51100000000E-03 0.  1.
         11   -1    0    0    0    0 -0.00000000000E+00 -0.00000000000E+00 -0.45593999997E+02  0.45594000000E+02  0.51100000000E-03 0. -1.
    9900012    2    1    2    0    0 -0.11527511090E+02  0.34633092975E+02 -0.23479541293E+02  0.47787268437E+02  0.19999988110E+02 0.  0.
        -12    1    1    2    0    0  0.11527511090E+02 -0.34633092975E+02  0.23479541293E+02  0.43400731563E+02  0.00000000000E+00 0.  1.
         11    1    3    3    0    0  0.29317187510E+01  0.14070477737E+02 -0.60276995885E+01  0.15585457361E+02  0.51100000000E-03 0. -1.
        -11    1    3    3    0    0 -0.15319427553E+02  0.18774648461E+02 -0.13399230983E+02  0.27689558981E+02  0.51100000000E-03 0.  1.
        -12    1    3    3    0    0  0.86019771195E+00  0.17879667768E+01 -0.40526107213E+01  0.45122520937E+01  0.00000000000E+00 0.  1.
</event>
<event>
 7    1  0.2935819E-010  0.4778727E+02  0.7816164E-02  0.1312668E+00
        -11   -1    0    0    0    0  0.00000000000E+00  0.00000000000E+00  0.45593999997E+02  0.45594000000E+02  0.51100000000E-03 0.  1.
         11   -1    0    0    0    0 -0.00000000000E+00 -0.00000000000E+00 -0.45593999997E+02  0.45594000000E+02  0.51100000000E-03 0. -1.
    9900012    2    1    2    0    0  0.59508908973E+01 -0.42879446799E+02 -0.30924434274E+01  0.47787271128E+02  0.20000000381E+02 0.  0.
        -12    1    1    2    0    0 -0.59508908973E+01  0.42879446799E+02  0.30924434274E+01  0.43400728872E+02  0.00000000000E+00 0.  1.
         11    1    3    3    0    0 -0.56958914164E+01 -0.67129233662E+01 -0.27479959950E+01  0.92226894883E+01  0.51100000000E-03 0. -1.
        -11    1    3    3    0    0  0.71839756944E+01 -0.12667030637E+02  0.10823652353E+01  0.14602557540E+02  0.51100000000E-03 0.  1.
         12    1    3    3    0    0  0.44628066193E+01 -0.23499492796E+02 -0.14268126677E+01  0.23962024100E+02  0.00000000000E+00 0. -1.
</event>
<event>
 7    1  0.2935819E-010  0.4778727E+02  0.7816164E-02  0.1312668E+00
        -11   -1    0    0    0    0  0.00000000000E+00  0.00000000000E+00  0.45593999997E+02  0.45594000000E+02  0.51100000000E-03 0.  1.
         11   -1    0    0    0    0 -0.00000000000E+00 -0.00000000000E+00 -0.45593999997E+02  0.45594000000E+02  0.51100000000E-03 0. -1.
    9900012    2    1    2    0    0 -0.87350556911E+01  0.12337215501E+01 -0.42494702884E+02  0.47787273739E+02  0.20000012287E+02 0.  0.
        -12    1    1    2    0    0  0.87350556911E+01 -0.12337215501E+01  0.42494702884E+02  0.43400726261E+02  0.00000000000E+00 0.  1.
         11    1    3    3    0    0 -0.27426889590E+01 -0.12820602910E+01 -0.30868981372E+01  0.43237670713E+01  0.51100000000E-03 0. -1.
        -11    1    3    3    0    0 -0.65952940167E+01  0.12409688221E+01 -0.40878642228E+02  0.41425853008E+02  0.51100000000E-03 0.  1.
        -12    1    3    3    0    0  0.60292728459E+00  0.12748130190E+01  0.14708374812E+01  0.20376536605E+01  0.00000000000E+00 0.  1.
</event>
<event>
 7    1  0.2935819E-010  0.4778727E+02  0.7816164E-02  0.1312668E+00
        -11   -1    0    0    0    0  0.00000000000E+00  0.00000000000E+00  0.45593999997E+02  0.45594000000E+02  0.51100000000E-03 0. -1.
         11   -1    0    0    0    0 -0.00000000000E+00 -0.00000000000E+00 -0.45593999997E+02  0.45594000000E+02  0.51100000000E-03 0.  1.
    9900012    2    1    2    0    0 -0.14125666382E+02 -0.10213232984E+02  0.39746431609E+02  0.47787269541E+02  0.19999993145E+02 0.  0.
        -12    1    1    2    0    0  0.14125666382E+02  0.10213232984E+02 -0.39746431609E+02  0.43400730459E+02  0.00000000000E+00 0.  1.
         11    1    3    3    0    0 -0.69310839977E+01 -0.17676893570E+01  0.11750432401E+02  0.13756355364E+02  0.51100000000E-03 0. -1.
        -11    1    3    3    0    0 -0.83106648597E+01  0.12863816455E+01  0.18799384504E+02  0.20594630031E+02  0.51100000000E-03 0.  1.
        -12    1    3    3    0    0  0.11160824756E+01 -0.97319252725E+01  0.91966147050E+01  0.13436284145E+02  0.00000000000E+00 0.  1.
</event>
<event>
 7    1  0.2935819E-010  0.4778727E+02  0.7816164E-02  0.1312668E+00
        -11   -1    0    0    0    0  0.00000000000E+00  0.00000000000E+00  0.45593999997E+02  0.45594000000E+02  0.51100000000E-03 0.  1.
         11   -1    0    0    0    0 -0.00000000000E+00 -0.00000000000E+00 -0.45593999997E+02  0.45594000000E+02  0.51100000000E-03 0. -1.
    9900012    2    1    2    0    0 -0.33795826353E+02 -0.30993017469E+01 -0.27052912636E+02  0.47787266915E+02  0.19999981173E+02 0.  0.
        -12    1    1    2    0    0  0.33795826353E+02  0.30993017469E+01  0.27052912636E+02  0.43400733085E+02  0.00000000000E+00 0.  1.
         11    1    3    3    0    0 -0.17284457229E+02 -0.74816206012E+01 -0.15670939774E+02  0.24501131855E+02  0.51100000000E-03 0. -1.
        -11    1    3    3    0    0 -0.51005497910E+01  0.58284056807E+01 -0.83545617526E+01  0.11392305442E+02  0.51100000000E-03 0.  1.
        -12    1    3    3    0    0 -0.11410819333E+02 -0.14460868264E+01 -0.30274111100E+01  0.11893829618E+02  0.00000000000E+00 0.  1.
</event>
<event>
 7    1  0.2935819E-010  0.4778728E+02  0.7816164E-02  0.1312668E+00
        -11   -1    0    0    0    0  0.00000000000E+00  0.00000000000E+00  0.45593999997E+02  0.45594000000E+02  0.51100000000E-03 0.  1.
         11   -1    0    0    0    0 -0.00000000000E+00 -0.00000000000E+00 -0.45593999997E+02  0.45594000000E+02  0.51100000000E-03 0. -1.
    9900012    2    1    2    0    0 -0.27367271152E+02  0.28147882528E+02 -0.18502757942E+02  0.47787275668E+02  0.20000021079E+02 0.  0.
        -12    1    1    2    0    0  0.27367271152E+02 -0.28147882528E+02  0.18502757942E+02  0.43400724332E+02  0.00000000000E+00 0.  1.
         11    1    3    3    0    0 -0.19728205539E+02  0.13541838998E+02 -0.31847311274E+01  0.24139718512E+02  0.51100000000E-03 0. -1.
        -11    1    3    3    0    0  0.14002283652E+01  0.29327503754E+01 -0.28949665040E+01  0.43522977333E+01  0.51100000000E-03 0.  1.
         12    1    3    3    0    0 -0.90392939782E+01  0.11673293154E+02 -0.12423060311E+02  0.19295259422E+02  0.00000000000E+00 0. -1.
</event>
<event>
 7    1  0.2935819E-010  0.4778728E+02  0.7816164E-02  0.1312668E+00
        -11   -1    0    0    0    0  0.00000000000E+00  0.00000000000E+00  0.45593999997E+02  0.45594000000E+02  0.51100000000E-03 0.  1.
         11   -1    0    0    0    0 -0.00000000000E+00 -0.00000000000E+00 -0.45593999997E+02  0.45594000000E+02  0.51100000000E-03 0. -1.
    9900012    2    1    2    0    0 -0.10583177183E+02  0.40913392744E+02  0.98849892814E+01  0.47787281594E+02  0.20000048098E+02 0.  0.
        -12    1    1    2    0    0  0.10583177183E+02 -0.40913392744E+02 -0.98849892814E+01  0.43400718406E+02  0.00000000000E+00 0.  1.
         11    1    3    3    0    0 -0.22843431283E+01  0.11198958243E+02  0.61235317948E+01  0.12966592890E+02  0.51100000000E-03 0. -1.
        -11    1    3    3    0    0 -0.30266349286E+01  0.29150445639E+02  0.29235015837E+01  0.29452603649E+02  0.51100000000E-03 0.  1.
        -12    1    3    3    0    0 -0.52721991259E+01  0.56398886125E+00  0.83795590280E+00  0.53680850546E+01  0.00000000000E+00 0.  1.
</event>
<event>
 7    1  0.2935819E-010  0.4778728E+02  0.7816164E-02  0.1312668E+00
        -11   -1    0    0    0    0  0.00000000000E+00  0.00000000000E+00  0.45593999997E+02  0.45594000000E+02  0.51100000000E-03 0. -1.
         11   -1    0    0    0    0 -0.00000000000E+00 -0.00000000000E+00 -0.45593999997E+02  0.45594000000E+02  0.51100000000E-03 0.  1.
    9900012    2    1    2    0    0 -0.34919201497E+02 -0.23269924920E+02 -0.11080739377E+02  0.47787276226E+02  0.20000023626E+02 0.  0.
        -12    1    1    2    0    0  0.34919201497E+02  0.23269924920E+02  0.11080739377E+02  0.43400723774E+02  0.00000000000E+00 0.  1.
         11    1    3    3    0    0 -0.20461037748E+02 -0.44111136312E+01 -0.45292785081E+01  0.21415563343E+02  0.51100000000E-03 0. -1.
        -11    1    3    3    0    0 -0.14727750996E+02 -0.14143384963E+02 -0.70966496223E+01  0.21617225162E+02  0.51100000000E-03 0.  1.
         12    1    3    3    0    0  0.26958724742E+00 -0.47154263255E+01  0.54518875327E+00  0.47544877213E+01  0.00000000000E+00 0. -1.
</event>
<event>
 7    1  0.2935819E-010  0.4778727E+02  0.7816164E-02  0.1312668E+00
        -11   -1    0    0    0    0  0.00000000000E+00  0.00000000000E+00  0.45593999997E+02  0.45594000000E+02  0.51100000000E-03 0.  1.
         11   -1    0    0    0    0 -0.00000000000E+00 -0.00000000000E+00 -0.45593999997E+02  0.45594000000E+02  0.51100000000E-03 0. -1.
    9900012    2    1    2    0    0  0.29818035936E+02  0.26837065581E+02 -0.16561401055E+02  0.47787270041E+02  0.19999995424E+02 0.  0.
        -12    1    1    2    0    0 -0.29818035936E+02 -0.26837065581E+02  0.16561401055E+02  0.43400729959E+02  0.00000000000E+00 0.  1.
         11    1    3    3    0    0 -0.13527401623E+01  0.23872296311E+01  0.14142683053E+01  0.30868959099E+01  0.51100000000E-03 0. -1.
        -11    1    3    3    0    0  0.18094789777E+02  0.99048080873E+01 -0.49894607478E+01  0.21223132642E+02  0.51100000000E-03 0.  1.
         12    1    3    3    0    0  0.13075986321E+02  0.14545027863E+02 -0.12986208612E+02  0.23477241489E+02  0.00000000000E+00 0. -1.
</event>
<event>
 7    1  0.2935819E-010  0.4778727E+02  0.7816164E-02  0.1312668E+00
        -11   -1    0    0    0    0  0.00000000000E+00  0.00000000000E+00  0.45593999997E+02  0.45594000000E+02  0.51100000000E-03 0.  1.
         11   -1    0    0    0    0 -0.00000000000E+00 -0.00000000000E+00 -0.45593999997E+02  0.45594000000E+02  0.51100000000E-03 0. -1.
    9900012    2    1    2    0    0  0.40901444538E+02 -0.36964844611E+01 -0.14036777078E+02  0.47787271050E+02  0.20000000025E+02 0.  0.
        -12    1    1    2    0    0 -0.40901444538E+02  0.36964844611E+01  0.14036777078E+02  0.43400728950E+02  0.00000000000E+00 0.  1.
         11    1    3    3    0    0  0.28473334458E+02 -0.11629303606E+01 -0.24667036472E+01  0.28603632800E+02  0.51100000000E-03 0. -1.
        -11    1    3    3    0    0  0.26877063451E+01  0.22465317292E+01 -0.60961743339E+01  0.70309325112E+01  0.51100000000E-03 0.  1.
         12    1    3    3    0    0  0.97404037344E+01 -0.47800858297E+01 -0.54738990970E+01  0.12152705739E+02  0.00000000000E+00 0. -1.
</event>
<event>
 7    1  0.2935819E-010  0.4778727E+02  0.7816164E-02  0.1312668E+00
        -11   -1    0    0    0    0  0.00000000000E+00  0.00000000000E+00  0.45593999997E+02  0.45594000000E+02  0.51100000000E-03 0.  1.
         11   -1    0    0    0    0 -0.00000000000E+00 -0.00000000000E+00 -0.45593999997E+02  0.45594000000E+02  0.51100000000E-03 0. -1.
    9900012    2    1    2    0    0 -0.40570236582E+02  0.87616773950E+00 -0.15391943295E+02  0.47787266312E+02  0.19999978423E+02 0.  0.
        -12    1    1    2    0    0  0.40570236582E+02 -0.87616773950E+00  0.15391943295E+02  0.43400733688E+02  0.00000000000E+00 0.  1.
         11    1    3    3    0    0 -0.62728696026E+01 -0.55001837423E+01 -0.54321083635E+01  0.99553360457E+01  0.51100000000E-03 0. -1.
        -11    1    3    3    0    0 -0.32991033327E+02  0.34949644950E+01 -0.80566076265E+01  0.34139888452E+02  0.51100000000E-03 0.  1.
         12    1    3    3    0    0 -0.13063336524E+01  0.28813869868E+01 -0.19032273054E+01  0.36920418138E+01  0.00000000000E+00 0. -1.
</event>
<event>
 7    1  0.2935819E-010  0.4778727E+02  0.7816164E-02  0.1312668E+00
        -11   -1    0    0    0    0  0.00000000000E+00  0.00000000000E+00  0.45593999997E+02  0.45594000000E+02  0.51100000000E-03 0. -1.
         11   -1    0    0    0    0 -0.00000000000E+00 -0.00000000000E+00 -0.45593999997E+02  0.45594000000E+02  0.51100000000E-03 0.  1.
    9900012    2    1    2    0    0  0.36393707480E+02 -0.21301596087E+02  0.10264665266E+02  0.47787270824E+02  0.19999998994E+02 0.  0.
        -12    1    1    2    0    0 -0.36393707480E+02  0.21301596087E+02 -0.10264665266E+02  0.43400729176E+02  0.00000000000E+00 0.  1.
         11    1    3    3    0    0  0.19374298873E+02 -0.59012087713E+01  0.72217029100E+01  0.21502109547E+02  0.51100000000E-03 0. -1.
        -11    1    3    3    0    0  0.24302077313E+01 -0.18471609407E+01 -0.41158506741E+01  0.51242697227E+01  0.51100000000E-03 0.  1.
        -12    1    3    3    0    0  0.14589200875E+02 -0.13553226375E+02  0.71588130302E+01  0.21160891554E+02  0.00000000000E+00 0.  1.
</event>
<event>
 7    1  0.2935819E-010  0.4778727E+02  0.7816164E-02  0.1312668E+00
        -11   -1    0    0    0    0  0.00000000000E+00  0.00000000000E+00  0.45593999997E+02  0.45594000000E+02  0.51100000000E-03 0.  1.
         11   -1    0    0    0    0 -0.00000000000E+00 -0.00000000000E+00 -0.45593999997E+02  0.45594000000E+02  0.51100000000E-03 0. -1.
    9900012    2    1    2    0    0  0.35248984121E+01 -0.41467320383E+02  0.12315025844E+02  0.47787269245E+02  0.19999991795E+02 0.  0.
        -12    1    1    2    0    0 -0.35248984121E+01  0.41467320383E+02 -0.12315025844E+02  0.43400730755E+02  0.00000000000E+00 0.  1.
         11    1    3    3    0    0 -0.58865172842E+00 -0.34654491382E+01  0.85074271134E+01  0.92050076012E+01  0.51100000000E-03 0.  1.
        -11    1    3    3    0    0  0.10480021257E+01 -0.24215794954E+02  0.31723686145E+01  0.24445182687E+02  0.51100000000E-03 0. -1.
        -12    1    3    3    0    0  0.30655480148E+01 -0.13786076291E+02  0.63523011591E+00  0.14137078957E+02  0.00000000000E+00 0.  1.
</event>
<event>
 7    1  0.2935819E-010  0.4778727E+02  0.7816164E-02  0.1312668E+00
        -11   -1    0    0    0    0  0.00000000000E+00  0.00000000000E+00  0.45593999997E+02  0.45594000000E+02  0.51100000000E-03 0.  1.
         11   -1    0    0    0    0 -0.00000000000E+00 -0.00000000000E+00 -0.45593999997E+02  0.45594000000E+02  0.51100000000E-03 0. -1.
    9900012    2    1    2    0    0  0.23853595037E+01  0.42978313199E+02  0.55496002072E+01  0.47787269501E+02  0.19999992963E+02 0.  0.
        -12    1    1    2    0    0 -0.23853595037E+01 -0.42978313199E+02 -0.55496002072E+01  0.43400730499E+02  0.00000000000E+00 0.  1.
         11    1    3    3    0    0  0.72212965820E+01  0.20289072391E+02  0.21794466843E+01  0.21645867295E+02  0.51100000000E-03 0. -1.
        -11    1    3    3    0    0 -0.42130502950E+01  0.94791251893E+01  0.68940348174E+01  0.12455172559E+02  0.51100000000E-03 0.  1.
        -12    1    3    3    0    0 -0.62288678328E+00  0.13210115618E+02 -0.35238812945E+01  0.13686229648E+02  0.00000000000E+00 0.  1.
</event>
<event>
 7    1  0.2935819E-010  0.4778727E+02  0.7816164E-02  0.1312668E+00
        -11   -1    0    0    0    0  0.00000000000E+00  0.00000000000E+00  0.45593999997E+02  0.45594000000E+02  0.51100000000E-03 0.  1.
         11   -1    0    0    0    0 -0.00000000000E+00 -0.00000000000E+00 -0.45593999997E+02  0.45594000000E+02  0.51100000000E-03 0. -1.
    9900012    2    1    2    0    0  0.12753244833E+02 -0.32346093516E+02 -0.25975144627E+02  0.47787272380E+02  0.20000006091E+02 0.  0.
        -12    1    1    2    0    0 -0.12753244833E+02  0.32346093516E+02  0.25975144627E+02  0.43400727620E+02  0.00000000000E+00 0.  1.
         11    1    3    3    0    0  0.82379453041E+01 -0.22597405517E+01 -0.10654903584E+02  0.13656395602E+02  0.51100000000E-03 0.  1.
        -11    1    3    3    0    0  0.27290536388E+01 -0.22812669101E+02 -0.10849367591E+02  0.25408155830E+02  0.51100000000E-03 0. -1.
        -12    1    3    3    0    0  0.17862458899E+01 -0.72736838631E+01 -0.44708734526E+01  0.87227209487E+01  0.00000000000E+00 0.  1.
</event>
<event>
 7    1  0.2935819E-010  0.4778728E+02  0.7816164E-02  0.1312668E+00
        -11   -1    0    0    0    0  0.00000000000E+00  0.00000000000E+00  0.45593999997E+02  0.45594000000E+02  0.51100000000E-03 0.  1.
         11   -1    0    0    0    0 -0.00000000000E+00 -0.00000000000E+00 -0.45593999997E+02  0.45594000000E+02  0.51100000000E-03 0. -1.
    9900012    2    1    2    0    0  0.27504958794E+02 -0.37180744177E+01 -0.33365790678E+02  0.47787276236E+02  0.20000023670E+02 0.  0.
        -12    1    1    2    0    0 -0.27504958794E+02  0.37180744177E+01  0.33365790678E+02  0.43400723764E+02  0.00000000000E+00 0.  1.
         11    1    3    3    0    0  0.11859348042E+02  0.37360994199E+01 -0.21023630611E+02  0.24425306942E+02  0.51100000000E-03 0. -1.
        -11    1    3    3    0    0  0.51873038931E+01 -0.73838461219E+01 -0.79216898408E+01  0.12007600736E+02  0.51100000000E-03 0.  1.
        -12    1    3    3    0    0  0.10458306859E+02 -0.70327715619E-01 -0.44204702264E+01  0.11354368559E+02  0.00000000000E+00 0.  1.
</event>
<event>
 7    1  0.2935819E-010  0.4778729E+02  0.7816164E-02  0.1312668E+00
        -11   -1    0    0    0    0  0.00000000000E+00  0.00000000000E+00  0.45593999997E+02  0.45594000000E+02  0.51100000000E-03 0.  1.
         11   -1    0    0    0    0 -0.00000000000E+00 -0.00000000000E+00 -0.45593999997E+02  0.45594000000E+02  0.51100000000E-03 0. -1.
    9900012    2    1    2    0    0 -0.17816463769E+02  0.27530457712E+02 -0.28430068974E+02  0.47787293728E+02  0.20000103422E+02 0.  0.
        -12    1    1    2    0    0  0.17816463769E+02 -0.27530457712E+02  0.28430068974E+02  0.43400706272E+02  0.00000000000E+00 0.  1.
         11    1    3    3    0    0 -0.13209566684E+02  0.23417393273E+02 -0.16120299474E+02  0.31348540876E+02  0.51100000000E-03 0. -1.
        -11    1    3    3    0    0 -0.34137452394E+01  0.65928345719E+00  0.12413327252E+00  0.34790401790E+01  0.51100000000E-03 0.  1.
         12    1    3    3    0    0 -0.11931518452E+01  0.34537809818E+01 -0.12433902772E+02  0.12959712672E+02  0.00000000000E+00 0. -1.
</event>
<event>
 7    1  0.2935819E-010  0.4778727E+02  0.7816164E-02  0.1312668E+00
        -11   -1    0    0    0    0  0.00000000000E+00  0.00000000000E+00  0.45593999997E+02  0.45594000000E+02  0.51100000000E-03 0.  1.
         11   -1    0    0    0    0 -0.00000000000E+00 -0.00000000000E+00 -0.45593999997E+02  0.45594000000E+02  0.51100000000E-03 0. -1.
    9900012    2    1    2    0    0 -0.22504474518E+02  0.31274428440E+02 -0.19977038382E+02  0.47787270627E+02  0.19999998097E+02 0.  0.
        -12    1    1    2    0    0  0.22504474518E+02 -0.31274428440E+02  0.19977038382E+02  0.43400729373E+02  0.00000000000E+00 0.  1.
         11    1    3    3    0    0 -0.10392720936E+02  0.25345915240E+02 -0.16465175820E+02  0.31961321669E+02  0.51100000000E-03 0. -1.
        -11    1    3    3    0    0  0.46485611353E+00  0.22774011416E+01 -0.31573801069E+00  0.23457062728E+01  0.51100000000E-03 0.  1.
         12    1    3    3    0    0 -0.12576609696E+02  0.36511120590E+01 -0.31961245516E+01  0.13480242685E+02  0.00000000000E+00 0. -1.
</event>
<event>
 7    1  0.2935819E-010  0.4778727E+02  0.7816164E-02  0.1312668E+00
        -11   -1    0    0    0    0  0.00000000000E+00  0.00000000000E+00  0.45593999997E+02  0.45594000000E+02  0.51100000000E-03 0.  1.
         11   -1    0    0    0    0 -0.00000000000E+00 -0.00000000000E+00 -0.45593999997E+02  0.45594000000E+02  0.51100000000E-03 0. -1.
    9900012    2    1    2    0    0 -0.23776418007E+01 -0.21301537469E+02 -0.37738770330E+02  0.47787268841E+02  0.19999989955E+02 0.  0.
        -12    1    1    2    0    0  0.23776418007E+01  0.21301537469E+02  0.37738770330E+02  0.43400731159E+02  0.00000000000E+00 0.  1.
         11    1    3    3    0    0  0.29634787086E+01 -0.31868879587E+00 -0.16925613236E+01  0.34276132658E+01  0.51100000000E-03 0. -1.
        -11    1    3    3    0    0 -0.95319994781E+01 -0.17476929034E+02 -0.24363870350E+02  0.31462680134E+02  0.51100000000E-03 0.  1.
        -12    1    3    3    0    0  0.41908789687E+01 -0.35059196386E+01 -0.11682338657E+02  0.12896975442E+02  0.00000000000E+00 0.  1.
</event>
<event>
 7    1  0.2935819E-010  0.4778727E+02  0.7816164E-02  0.1312668E+00
        -11   -1    0    0    0    0  0.00000000000E+00  0.00000000000E+00  0.45593999997E+02  0.45594000000E+02  0.51100000000E-03 0. -1.
         11   -1    0    0    0    0 -0.00000000000E+00 -0.00000000000E+00 -0.45593999997E+02  0.45594000000E+02  0.51100000000E-03 0.  1.
    9900012    2    1    2    0    0  0.15023866414E+02  0.40327287385E+02  0.56228888203E+01  0.47787267880E+02  0.19999985572E+02 0.  0.
        -12    1    1    2    0    0 -0.15023866414E+02 -0.40327287385E+02 -0.56228888203E+01  0.43400732120E+02  0.00000000000E+00 0.  1.
         11    1    3    3    0    0  0.10532095129E+02  0.19104836627E+02  0.10100804515E+02  0.24040508782E+02  0.51100000000E-03 0. -1.
        -11    1    3    3    0    0  0.44716373506E+01  0.21261776846E+02 -0.26154476203E+01  0.21883767084E+02  0.51100000000E-03 0.  1.
         12    1    3    3    0    0  0.20133934377E-01 -0.39326088364E-01 -0.18624680749E+01  0.18629920146E+01  0.00000000000E+00 0. -1.
</event>
<event>
 7    1  0.2935819E-010  0.4778727E+02  0.7816164E-02  0.1312668E+00
        -11   -1    0    0    0    0  0.00000000000E+00  0.00000000000E+00  0.45593999997E+02  0.45594000000E+02  0.51100000000E-03 0. -1.
         11   -1    0    0    0    0 -0.00000000000E+00 -0.00000000000E+00 -0.45593999997E+02  0.45594000000E+02  0.51100000000E-03 0.  1.
    9900012    2    1    2    0    0  0.23338307662E+02 -0.32461468191E+02  0.16887856332E+02  0.47787271744E+02  0.20000003192E+02 0.  0.
        -12    1    1    2    0    0 -0.23338307662E+02  0.32461468191E+02 -0.16887856332E+02  0.43400728256E+02  0.00000000000E+00 0.  1.
         11    1    3    3    0    0  0.15631303878E+02 -0.17572305523E+02  0.14982047692E+02  0.27885217152E+02  0.51100000000E-03 0. -1.
        -11    1    3    3    0    0 -0.11843572463E+01 -0.82120049035E+01 -0.11353451407E+01  0.83742901474E+01  0.51100000000E-03 0.  1.
        -12    1    3    3    0    0  0.88913610304E+01 -0.66771577643E+01  0.30411537808E+01  0.11527764445E+02  0.00000000000E+00 0.  1.
</event>
<event>
 7    1  0.2935819E-010  0.4778727E+02  0.7816164E-02  0.1312668E+00
        -11   -1    0    0    0    0  0.00000000000E+00  0.00000000000E+00  0.45593999997E+02  0.45594000000E+02  0.51100000000E-03 0.  1.
         11   -1    0    0    0    0 -0.00000000000E+00 -0.00000000000E+00 -0.45593999997E+02  0.45594000000E+02  0.51100000000E-03 0. -1.
    9900012    2    1    2    0    0  0.16216309734E+01  0.30839890850E+01 -0.43260639616E+02  0.47787267107E+02  0.19999982046E+02 0.  0.
        -12    1    1    2    0    0 -0.16216309734E+01 -0.30839890850E+01  0.43260639616E+02  0.43400732893E+02  0.00000000000E+00 0.  1.
         11    1    3    3    0    0  0.37015594254E+01  0.33940544084E+01 -0.19684985803E+02  0.20315506733E+02  0.51100000000E-03 0. -1.
        -11    1    3    3    0    0 -0.31269499937E+01  0.40125778685E+01 -0.20387895847E+01  0.54804434716E+01  0.51100000000E-03 0.  1.
        -12    1    3    3    0    0  0.10470215416E+01 -0.43226431919E+01 -0.21536864229E+02  0.21991316902E+02  0.00000000000E+00 0.  1.
</event>
<event>
 7    1  0.2935819E-010  0.4778727E+02  0.7816164E-02  0.1312668E+00
        -11   -1    0    0    0    0  0.00000000000E+00  0.00000000000E+00  0.45593999997E+02  0.45594000000E+02  0.51100000000E-03 0. -1.
         11   -1    0    0    0    0 -0.00000000000E+00 -0.00000000000E+00 -0.45593999997E+02  0.45594000000E+02  0.51100000000E-03 0.  1.
    9900012    2    1    2    0    0 -0.43362193376E+02  0.23474368954E+00 -0.18133034109E+01  0.47787274336E+02  0.20000015006E+02 0.  0.
        -12    1    1    2    0    0  0.43362193376E+02 -0.23474368954E+00  0.18133034109E+01  0.43400725664E+02  0.00000000000E+00 0.  1.
         11    1    3    3    0    0 -0.46842358314E+01 -0.50068645312E+01 -0.99447889874E+00  0.69281849209E+01  0.51100000000E-03 0. -1.
        -11    1    3    3    0    0 -0.34458770279E+02  0.10499739113E+01 -0.28053416448E+01  0.34588715448E+02  0.51100000000E-03 0.  1.
        -12    1    3    3    0    0 -0.42191872656E+01  0.41916343094E+01  0.19865171326E+01  0.62703739669E+01  0.00000000000E+00 0.  1.
</event>
<event>
 7    1  0.2935819E-010  0.4778727E+02  0.7816164E-02  0.1312668E+00
        -11   -1    0    0    0    0  0.00000000000E+00  0.00000000000E+00  0.45593999997E+02  0.45594000000E+02  0.51100000000E-03 0.  1.
         11   -1    0    0    0    0 -0.00000000000E+00 -0.00000000000E+00 -0.45593999997E+02  0.45594000000E+02  0.51100000000E-03 0. -1.
    9900012    2    1    2    0    0  0.26249874328E+01  0.18856749454E+02 -0.39001993757E+02  0.47787273324E+02  0.20000010394E+02 0.  0.
        -12    1    1    2    0    0 -0.26249874328E+01 -0.18856749454E+02  0.39001993757E+02  0.43400726676E+02  0.00000000000E+00 0.  1.
         11    1    3    3    0    0 -0.60132694324E+00  0.22006102021E+02 -0.31376754090E+02  0.38329242332E+02  0.51100000000E-03 0. -1.
        -11    1    3    3    0    0  0.26806649756E+01 -0.59582714336E+00 -0.25356940221E+01  0.37377425181E+01  0.51100000000E-03 0.  1.
         12    1    3    3    0    0  0.54564940043E+00 -0.25535254236E+01 -0.50895456448E+01  0.57202884741E+01  0.00000000000E+00 0. -1.
</event>
<event>
 7    1  0.2935819E-010  0.4778727E+02  0.7816164E-02  0.1312668E+00
        -11   -1    0    0    0    0  0.00000000000E+00  0.00000000000E+00  0.45593999997E+02  0.45594000000E+02  0.51100000000E-03 0. -1.
         11   -1    0    0    0    0 -0.00000000000E+00 -0.00000000000E+00 -0.45593999997E+02  0.45594000000E+02  0.51100000000E-03 0.  1.
    9900012    2    1    2    0    0 -0.25463712142E+02 -0.77332501628E+01  0.34284394590E+02  0.47787268364E+02  0.19999987780E+02 0.  0.
        -12    1    1    2    0    0  0.25463712142E+02  0.77332501628E+01 -0.34284394590E+02  0.43400731636E+02  0.00000000000E+00 0.  1.
         11    1    3    3    0    0 -0.93971265570E+01 -0.37451070954E+00  0.77907151225E+01  0.12212349822E+02  0.51100000000E-03 0. -1.
        -11    1    3    3    0    0 -0.16512333854E+02 -0.93613123371E+01  0.15830910634E+02  0.24716574798E+02  0.51100000000E-03 0.  1.
        -12    1    3    3    0    0  0.44574826888E+00  0.20025728838E+01  0.10662768833E+02  0.10858343744E+02  0.00000000000E+00 0.  1.
</event>
<event>
 7    1  0.2935819E-010  0.4778727E+02  0.7816164E-02  0.1312668E+00
        -11   -1    0    0    0    0  0.00000000000E+00  0.00000000000E+00  0.45593999997E+02  0.45594000000E+02  0.51100000000E-03 0. -1.
         11   -1    0    0    0    0 -0.00000000000E+00 -0.00000000000E+00 -0.45593999997E+02  0.45594000000E+02  0.51100000000E-03 0.  1.
    9900012    2    1    2    0    0 -0.26541868148E+02 -0.30451203696E+02  0.15870628324E+02  0.47787269422E+02  0.19999992602E+02 0.  0.
        -12    1    1    2    0    0  0.26541868148E+02  0.30451203696E+02 -0.15870628324E+02  0.43400730578E+02  0.00000000000E+00 0.  1.
         11    1    3    3    0    0 -0.18953918835E+02 -0.23727444369E+02  0.56270270116E+01  0.30885370141E+02  0.51100000000E-03 0. -1.
        -11    1    3    3    0    0 -0.68525689038E+01 -0.49346640732E+01  0.11736330818E+02  0.14458563948E+02  0.51100000000E-03 0.  1.
        -12    1    3    3    0    0 -0.73538040942E+00 -0.17890952536E+01 -0.14927295058E+01  0.24433353332E+01  0.00000000000E+00 0.  1.
</event>
<event>
 7    1  0.2935819E-010  0.4778727E+02  0.7816164E-02  0.1312668E+00
        -11   -1    0    0    0    0  0.00000000000E+00  0.00000000000E+00  0.45593999997E+02  0.45594000000E+02  0.51100000000E-03 0.  1.
         11   -1    0    0    0    0 -0.00000000000E+00 -0.00000000000E+00 -0.45593999997E+02  0.45594000000E+02  0.51100000000E-03 0. -1.
    9900012    2    1    2    0    0  0.91329828338E+01 -0.22587326803E+02 -0.35916913972E+02  0.47787269398E+02  0.19999992492E+02 0.  0.
        -12    1    1    2    0    0 -0.91329828338E+01  0.22587326803E+02  0.35916913972E+02  0.43400730602E+02  0.00000000000E+00 0.  1.
         11    1    3    3    0    0  0.74021652541E+01 -0.51876623445E+01 -0.41051576366E+01  0.99275480625E+01  0.51100000000E-03 0.  1.
        -11    1    3    3    0    0 -0.18355156759E+01  0.20813118691E+00 -0.78518013306E+00  0.20072230792E+01  0.51100000000E-03 0. -1.
         12    1    3    3    0    0  0.35663332555E+01 -0.17607795646E+02 -0.31026576202E+02  0.35852498256E+02  0.00000000000E+00 0. -1.
</event>
<event>
 7    1  0.2935819E-010  0.4778730E+02  0.7816164E-02  0.1312668E+00
        -11   -1    0    0    0    0  0.00000000000E+00  0.00000000000E+00  0.45593999997E+02  0.45594000000E+02  0.51100000000E-03 0.  1.
         11   -1    0    0    0    0 -0.00000000000E+00 -0.00000000000E+00 -0.45593999997E+02  0.45594000000E+02  0.51100000000E-03 0. -1.
    9900012    2    1    2    0    0 -0.19311547470E+02  0.24222232778E+01 -0.38791985238E+02  0.47787295513E+02  0.20000111560E+02 0.  0.
        -12    1    1    2    0    0  0.19311547470E+02 -0.24222232778E+01  0.38791985238E+02  0.43400704487E+02  0.00000000000E+00 0.  1.
         11    1    3    3    0    0 -0.79152981738E+01  0.85375583526E+00 -0.20521400191E+02  0.22011558561E+02  0.51100000000E-03 0. -1.
        -11    1    3    3    0    0 -0.88339659623E+00 -0.54321606103E+01 -0.47054501036E+01  0.72408576412E+01  0.51100000000E-03 0.  1.
        -12    1    3    3    0    0 -0.10512852700E+02  0.70006280529E+01 -0.13565134943E+02  0.18534879310E+02  0.00000000000E+00 0.  1.
</event>
<event>
 7    1  0.2935819E-010  0.4778727E+02  0.7816164E-02  0.1312668E+00
        -11   -1    0    0    0    0  0.00000000000E+00  0.00000000000E+00  0.45593999997E+02  0.45594000000E+02  0.51100000000E-03 0.  1.
         11   -1    0    0    0    0 -0.00000000000E+00 -0.00000000000E+00 -0.45593999997E+02  0.45594000000E+02  0.51100000000E-03 0. -1.
    9900012    2    1    2    0    0  0.21246272415E+02 -0.23988864466E+02 -0.29270347888E+02  0.47787274483E+02  0.20000015677E+02 0.  0.
        -12    1    1    2    0    0 -0.21246272415E+02  0.23988864466E+02  0.29270347888E+02  0.43400725517E+02  0.00000000000E+00 0.  1.
         11    1    3    3    0    0  0.88357776506E+01 -0.50398664301E+01 -0.60189871900E+01  0.11819451230E+02  0.51100000000E-03 0. -1.
        -11    1    3    3    0    0  0.76381409414E+00  0.26152327369E+01 -0.38146486458E+01  0.46876858673E+01  0.51100000000E-03 0.  1.
        -12    1    3    3    0    0  0.11646680671E+02 -0.21564230772E+02 -0.19436712053E+02  0.31280137386E+02  0.00000000000E+00 0.  1.
</event>
<event>
 7    1  0.2935819E-010  0.4778727E+02  0.7816164E-02  0.1312668E+00
        -11   -1    0    0    0    0  0.00000000000E+00  0.00000000000E+00  0.45593999997E+02  0.45594000000E+02  0.51100000000E-03 0.  1.
         11   -1    0    0    0    0 -0.00000000000E+00 -0.00000000000E+00 -0.45593999997E+02  0.45594000000E+02  0.51100000000E-03 0. -1.
    9900012    2    1    2    0    0 -0.30312192455E+02  0.25451337832E+01 -0.30956691360E+02  0.47787268930E+02  0.19999990362E+02 0.  0.
        -12    1    1    2    0    0  0.30312192455E+02 -0.25451337832E+01  0.30956691360E+02  0.43400731070E+02  0.00000000000E+00 0.  1.
         11    1    3    3    0    0 -0.21080541795E+02 -0.50333359844E+01 -0.24771539763E+02  0.32914326607E+02  0.51100000000E-03 0. -1.
        -11    1    3    3    0    0 -0.69134487513E+01  0.45773719943E+01 -0.86057428521E+00  0.83359880261E+01  0.51100000000E-03 0.  1.
         12    1    3    3    0    0 -0.23182019086E+01  0.30010977733E+01 -0.53245773116E+01  0.65369542970E+01  0.00000000000E+00 0. -1.
</event>
<event>
 7    1  0.2935819E-010  0.4778727E+02  0.7816164E-02  0.1312668E+00
        -11   -1    0    0    0    0  0.00000000000E+00  0.00000000000E+00  0.45593999997E+02  0.45594000000E+02  0.51100000000E-03 0. -1.
         11   -1    0    0    0    0 -0.00000000000E+00 -0.00000000000E+00 -0.45593999997E+02  0.45594000000E+02  0.51100000000E-03 0.  1.
    9900012    2    1    2    0    0 -0.34142708896E+02  0.15381347441E+02 -0.21938843987E+02  0.47787270797E+02  0.19999998872E+02 0.  0.
        -12    1    1    2    0    0  0.34142708896E+02 -0.15381347441E+02  0.21938843987E+02  0.43400729203E+02  0.00000000000E+00 0.  1.
         11    1    3    3    0    0 -0.17395715253E+02  0.44758572275E+01 -0.86543414568E+01  0.19938451128E+02  0.51100000000E-03 0. -1.
        -11    1    3    3    0    0 -0.61245764220E+01  0.10220579979E+02 -0.12354108351E+02  0.17163760802E+02  0.51100000000E-03 0.  1.
        -12    1    3    3    0    0 -0.10622417221E+02  0.68491023365E+00 -0.93039417906E+00  0.10685058867E+02  0.00000000000E+00 0.  1.
</event>
<event>
 7    1  0.2935819E-010  0.4778727E+02  0.7816164E-02  0.1312668E+00
        -11   -1    0    0    0    0  0.00000000000E+00  0.00000000000E+00  0.45593999997E+02  0.45594000000E+02  0.51100000000E-03 0. -1.
         11   -1    0    0    0    0 -0.00000000000E+00 -0.00000000000E+00 -0.45593999997E+02  0.45594000000E+02  0.51100000000E-03 0.  1.
    9900012    2    1    2    0    0 -0.14893627657E+01 -0.43369313664E+02  0.71246735032E+00  0.47787272139E+02  0.20000004992E+02 0.  0.
        -12    1    1    2    0    0  0.14893627657E+01  0.43369313664E+02 -0.71246735032E+00  0.43400727861E+02  0.00000000000E+00 0.  1.
         11    1    3    3    0    0  0.56817459494E+01 -0.57794168239E+01  0.29074040248E+01  0.86102784091E+01  0.51100000000E-03 0. -1.
        -11    1    3    3    0    0 -0.22943112551E+01 -0.33581544215E+01 -0.21482721789E+01  0.45995802928E+01  0.51100000000E-03 0.  1.
         12    1    3    3    0    0 -0.48767974600E+01 -0.34231742418E+02 -0.46664495501E-01  0.34577413437E+02  0.00000000000E+00 0. -1.
</event>
<event>
 7    1  0.2935819E-010  0.4778727E+02  0.7816164E-02  0.1312668E+00
        -11   -1    0    0    0    0  0.00000000000E+00  0.00000000000E+00  0.45593999997E+02  0.45594000000E+02  0.51100000000E-03 0.  1.
         11   -1    0    0    0    0 -0.00000000000E+00 -0.00000000000E+00 -0.45593999997E+02  0.45594000000E+02  0.51100000000E-03 0. -1.
    9900012    2    1    2    0    0 -0.21046617748E+02  0.37785808096E+02 -0.35910713369E+01  0.47787271832E+02  0.20000003592E+02 0.  0.
        -12    1    1    2    0    0  0.21046617748E+02 -0.37785808096E+02  0.35910713369E+01  0.43400728168E+02  0.00000000000E+00 0.  1.
         11    1    3    3    0    0  0.17031994362E-01  0.12694392794E+02 -0.54337347319E+01  0.13808452915E+02  0.51100000000E-03 0. -1.
        -11    1    3    3    0    0 -0.20616298316E+02  0.24611602963E+02  0.88083767634E-01  0.32105615018E+02  0.51100000000E-03 0.  1.
        -12    1    3    3    0    0 -0.44735142638E+00  0.47981233921E+00  0.17545796274E+01  0.18732038993E+01  0.00000000000E+00 0.  1.
</event>
<event>
 7    1  0.2935819E-010  0.4778728E+02  0.7816164E-02  0.1312668E+00
        -11   -1    0    0    0    0  0.00000000000E+00  0.00000000000E+00  0.45593999997E+02  0.45594000000E+02  0.51100000000E-03 0.  1.
         11   -1    0    0    0    0 -0.00000000000E+00 -0.00000000000E+00 -0.45593999997E+02  0.45594000000E+02  0.51100000000E-03 0. -1.
    9900012    2    1    2    0    0  0.18074038940E+02 -0.39455264322E+02  0.48354415659E+00  0.47787279023E+02  0.20000036378E+02 0.  0.
        -12    1    1    2    0    0 -0.18074038940E+02  0.39455264322E+02 -0.48354415659E+00  0.43400720977E+02  0.00000000000E+00 0.  1.
         11    1    3    3    0    0  0.13026683219E+02 -0.12598669052E+02  0.27631184457E+01  0.18331823733E+02  0.51100000000E-03 0.  1.
        -11    1    3    3    0    0  0.18772403766E+01 -0.22644079410E+01  0.28933919912E+01  0.41259292566E+01  0.51100000000E-03 0. -1.
         12    1    3    3    0    0  0.31701153440E+01 -0.24592187329E+02 -0.51729662803E+01  0.25329526033E+02  0.00000000000E+00 0. -1.
</event>
<event>
 7    1  0.2935819E-010  0.4778727E+02  0.7816164E-02  0.1312668E+00
        -11   -1    0    0    0    0  0.00000000000E+00  0.00000000000E+00  0.45593999997E+02  0.45594000000E+02  0.51100000000E-03 0.  1.
         11   -1    0    0    0    0 -0.00000000000E+00 -0.00000000000E+00 -0.45593999997E+02  0.45594000000E+02  0.51100000000E-03 0. -1.
    9900012    2    1    2    0    0  0.41181507907E+02 -0.95280219577E+01 -0.98449724056E+01  0.47787271002E+02  0.19999999804E+02 0.  0.
        -12    1    1    2    0    0 -0.41181507907E+02  0.95280219577E+01  0.98449724056E+01  0.43400728998E+02  0.00000000000E+00 0.  1.
         11    1    3    3    0    0  0.45104465888E+01  0.59319231961E+00 -0.22026796619E+01  0.50544835060E+01  0.51100000000E-03 0. -1.
        -11    1    3    3    0    0  0.23168383230E+02 -0.25491988479E+01  0.36213967497E+01  0.23587855157E+02  0.51100000000E-03 0.  1.
        -12    1    3    3    0    0  0.13502678089E+02 -0.75720154295E+01 -0.11263689493E+02  0.19144932338E+02  0.00000000000E+00 0.  1.
</event>
<event>
 7    1  0.2935819E-010  0.4778727E+02  0.7816164E-02  0.1312668E+00
        -11   -1    0    0    0    0  0.00000000000E+00  0.00000000000E+00  0.45593999997E+02  0.45594000000E+02  0.51100000000E-03 0.  1.
         11   -1    0    0    0    0 -0.00000000000E+00 -0.00000000000E+00 -0.45593999997E+02  0.45594000000E+02  0.51100000000E-03 0. -1.
    9900012    2    1    2    0    0 -0.20267509339E+02 -0.26858948272E+02 -0.27412558627E+02  0.47787269505E+02  0.19999992980E+02 0.  0.
        -12    1    1    2    0    0  0.20267509339E+02  0.26858948272E+02  0.27412558627E+02  0.43400730495E+02  0.00000000000E+00 0.  1.
         11    1    3    3    0    0  0.17149718843E+01 -0.51422446686E+01 -0.38611512453E+00  0.54344175352E+01  0.51100000000E-03 0. -1.
        -11    1    3    3    0    0 -0.20086293611E+02 -0.22700641240E+02 -0.24072640585E+02  0.38707497062E+02  0.51100000000E-03 0.  1.
         12    1    3    3    0    0 -0.18961876117E+01  0.98393763732E+00 -0.29538029169E+01  0.36453549080E+01  0.00000000000E+00 0. -1.
</event>
<event>
 7    1  0.2935819E-010  0.4778727E+02  0.7816164E-02  0.1312668E+00
        -11   -1    0    0    0    0  0.00000000000E+00  0.00000000000E+00  0.45593999997E+02  0.45594000000E+02  0.51100000000E-03 0. -1.
         11   -1    0    0    0    0 -0.00000000000E+00 -0.00000000000E+00 -0.45593999997E+02  0.45594000000E+02  0.51100000000E-03 0.  1.
    9900012    2    1    2    0    0  0.17218840047E+02  0.19299298278E+02  0.34852144433E+02  0.47787270303E+02  0.19999996621E+02 0.  0.
        -12    1    1    2    0    0 -0.17218840047E+02 -0.19299298278E+02 -0.34852144433E+02  0.43400729697E+02  0.00000000000E+00 0.  1.
         11    1    3    3    0    0 -0.32014494323E+01 -0.22485590731E+00  0.51768471743E+01  0.60909429134E+01  0.51100000000E-03 0.  1.
        -11    1    3    3    0    0  0.17908752104E+02  0.13096879407E+02  0.24620693325E+02  0.33142573711E+02  0.51100000000E-03 0. -1.
         12    1    3    3    0    0  0.25115373755E+01  0.64272747789E+01  0.50546039337E+01  0.85537536788E+01  0.00000000000E+00 0. -1.
</event>
<event>
 7    1  0.2935819E-010  0.4778728E+02  0.7816164E-02  0.1312668E+00
        -11   -1    0    0    0    0  0.00000000000E+00  0.00000000000E+00  0.45593999997E+02  0.45594000000E+02  0.51100000000E-03 0. -1.
         11   -1    0    0    0    0 -0.00000000000E+00 -0.00000000000E+00 -0.45593999997E+02  0.45594000000E+02  0.51100000000E-03 0.  1.
    9900012    2    1    2    0    0  0.39110208320E+02  0.18696956989E+02  0.21066841895E+01  0.47787277498E+02  0.20000029423E+02 0.  0.
        -12    1    1    2    0    0 -0.39110208320E+02 -0.18696956989E+02 -0.21066841895E+01  0.43400722502E+02  0.00000000000E+00 0.  1.
         11    1    3    3    0    0  0.72160081645E+01  0.55663437459E+01  0.18110200859E+01  0.92916495059E+01  0.51100000000E-03 0.  1.
        -11    1    3    3    0    0  0.22884740958E+02  0.14226934056E+02  0.62227902737E+01  0.27655743353E+02  0.51100000000E-03 0. -1.
        -12    1    3    3    0    0  0.90094591968E+01 -0.10963208129E+01 -0.59271261701E+01  0.10839884639E+02  0.00000000000E+00 0.  1.
</event>
<event>
 7    1  0.2935819E-010  0.4778727E+02  0.7816164E-02  0.1312668E+00
        -11   -1    0    0    0    0  0.00000000000E+00  0.00000000000E+00  0.45593999997E+02  0.45594000000E+02  0.51100000000E-03 0.  1.
         11   -1    0    0    0    0 -0.00000000000E+00 -0.00000000000E+00 -0.45593999997E+02  0.45594000000E+02  0.51100000000E-03 0. -1.
    9900012    2    1    2    0    0  0.38666312548E+02  0.65548817911E+01 -0.18589591663E+02  0.47787272822E+02  0.20000008106E+02 0.  0.
        -12    1    1    2    0    0 -0.38666312548E+02 -0.65548817911E+01  0.18589591663E+02  0.43400727178E+02  0.00000000000E+00 0.  1.
         11    1    3    3    0    0  0.24795071594E+02  0.12079635604E+01 -0.18915639289E+02  0.31209872818E+02  0.51100000000E-03 0. -1.
        -11    1    3    3    0    0  0.13789789476E+02  0.43538584106E+01  0.20309264964E+01  0.14602706583E+02  0.51100000000E-03 0.  1.
        -12    1    3    3    0    0  0.81451478514E-01  0.99305982010E+00 -0.17048788697E+01  0.19746934218E+01  0.00000000000E+00 0.  1.
</event>
<event>
 7    1  0.2935819E-010  0.4778727E+02  0.7816164E-02  0.1312668E+00
        -11   -1    0    0    0    0  0.00000000000E+00  0.00000000000E+00  0.45593999997E+02  0.45594000000E+02  0.51100000000E-03 0. -1.
         11   -1    0    0    0    0 -0.00000000000E+00 -0.00000000000E+00 -0.45593999997E+02  0.45594000000E+02  0.51100000000E-03 0.  1.
    9900012    2    1    2    0    0  0.18783050991E+02 -0.32272905485E+02  0.22119667257E+02  0.47787272903E+02  0.20000008473E+02 0.  0.
        -12    1    1    2    0    0 -0.18783050991E+02  0.32272905485E+02 -0.22119667257E+02  0.43400727097E+02  0.00000000000E+00 0.  1.
         11    1    3    3    0    0  0.58434253035E+01 -0.10185224992E+02  0.15014415206E+02  0.19060878565E+02  0.51100000000E-03 0. -1.
        -11    1    3    3    0    0  0.21287437185E+01 -0.62199402167E+01 -0.27715370173E+01  0.71344673114E+01  0.51100000000E-03 0.  1.
         12    1    3    3    0    0  0.10810881969E+02 -0.15867740276E+02  0.98767890690E+01  0.21591927027E+02  0.00000000000E+00 0. -1.
</event>
<event>
 7    1  0.2935819E-010  0.4778727E+02  0.7816164E-02  0.1312668E+00
        -11   -1    0    0    0    0  0.00000000000E+00  0.00000000000E+00  0.45593999997E+02  0.45594000000E+02  0.51100000000E-03 0.  1.
         11   -1    0    0    0    0 -0.00000000000E+00 -0.00000000000E+00 -0.45593999997E+02  0.45594000000E+02  0.51100000000E-03 0. -1.
    9900012    2    1    2    0    0  0.20556376012E+02 -0.37085028885E+02 -0.92606325722E+01  0.47787271000E+02  0.19999999795E+02 0.  0.
        -12    1    1    2    0    0 -0.20556376012E+02  0.37085028885E+02  0.92606325722E+01  0.43400729000E+02  0.00000000000E+00 0.  1.
         11    1    3    3    0    0  0.60354467803E+00 -0.10741387511E+02 -0.60945187472E+01  0.12364660564E+02  0.51100000000E-03 0. -1.
        -11    1    3    3    0    0  0.98502304531E+01 -0.13608232781E+02  0.45846686791E+01  0.17413507015E+02  0.51100000000E-03 0.  1.
        -12    1    3    3    0    0  0.10102600881E+02 -0.12735408592E+02 -0.77507825041E+01  0.18009103420E+02  0.00000000000E+00 0.  1.
</event>
<event>
 7    1  0.2935819E-010  0.4778727E+02  0.7816164E-02  0.1312668E+00
        -11   -1    0    0    0    0  0.00000000000E+00  0.00000000000E+00  0.45593999997E+02  0.45594000000E+02  0.51100000000E-03 0.  1.
         11   -1    0    0    0    0 -0.00000000000E+00 -0.00000000000E+00 -0.45593999997E+02  0.45594000000E+02  0.51100000000E-03 0. -1.
    9900012    2    1    2    0    0  0.19388909818E+02  0.19740427281E+02 -0.33436640210E+02  0.47787271876E+02  0.20000003791E+02 0.  0.
        -12    1    1    2    0    0 -0.19388909818E+02 -0.19740427281E+02  0.33436640210E+02  0.43400728124E+02  0.00000000000E+00 0.  1.
         11    1    3    3    0    0  0.36214075099E+01  0.33728495936E+01 -0.89262384740E+01  0.10206294151E+02  0.51100000000E-03 0. -1.
        -11    1    3    3    0    0  0.11367495284E+02 -0.12283108305E+00 -0.10926108423E+02  0.15767526186E+02  0.51100000000E-03 0.  1.
        -12    1    3    3    0    0  0.44000070242E+01  0.16490408771E+02 -0.13584293313E+02  0.21813451539E+02  0.00000000000E+00 0.  1.
</event>
<event>
 7    1  0.2935819E-010  0.4778727E+02  0.7816164E-02  0.1312668E+00
        -11   -1    0    0    0    0  0.00000000000E+00  0.00000000000E+00  0.45593999997E+02  0.45594000000E+02  0.51100000000E-03 0.  1.
         11   -1    0    0    0    0 -0.00000000000E+00 -0.00000000000E+00 -0.45593999997E+02  0.45594000000E+02  0.51100000000E-03 0. -1.
    9900012    2    1    2    0    0  0.50256824093E+01  0.39652030155E+01 -0.42926019697E+02  0.47787268604E+02  0.19999988874E+02 0.  0.
        -12    1    1    2    0    0 -0.50256824093E+01 -0.39652030155E+01  0.42926019697E+02  0.43400731396E+02  0.00000000000E+00 0.  1.
         11    1    3    3    0    0  0.64719042539E+01  0.48611283503E+00 -0.22932187713E+02  0.23832899193E+02  0.51100000000E-03 0. -1.
        -11    1    3    3    0    0  0.12423876667E+01  0.23189276887E+01  0.95734683330E+00  0.27995474563E+01  0.51100000000E-03 0.  1.
        -12    1    3    3    0    0 -0.26886095113E+01  0.11601624918E+01 -0.20951178818E+02  0.21154821955E+02  0.00000000000E+00 0.  1.
</event>
<event>
 7    1  0.2935819E-010  0.4778727E+02  0.7816164E-02  0.1312668E+00
        -11   -1    0    0    0    0  0.00000000000E+00  0.00000000000E+00  0.45593999997E+02  0.45594000000E+02  0.51100000000E-03 0. -1.
         11   -1    0    0    0    0 -0.00000000000E+00 -0.00000000000E+00 -0.45593999997E+02  0.45594000000E+02  0.51100000000E-03 0.  1.
    9900012    2    1    2    0    0  0.39518181515E+02  0.28605866620E+01  0.17713086284E+02  0.47787273601E+02  0.20000011654E+02 0.  0.
        -12    1    1    2    0    0 -0.39518181515E+02 -0.28605866620E+01 -0.17713086284E+02  0.43400726399E+02  0.00000000000E+00 0.  1.
         11    1    3    3    0    0  0.78705981672E+01  0.69448218702E+01 -0.62869632149E+00  0.10515328128E+02  0.51100000000E-03 0. -1.
        -11    1    3    3    0    0  0.13219358833E+02 -0.46203611359E+01  0.75359542595E+01  0.15902508979E+02  0.51100000000E-03 0.  1.
         12    1    3    3    0    0  0.18428224515E+02  0.53612592761E+00  0.10805828346E+02  0.21369436493E+02  0.00000000000E+00 0. -1.
</event>
<event>
 7    1  0.2935819E-010  0.4778727E+02  0.7816164E-02  0.1312668E+00
        -11   -1    0    0    0    0  0.00000000000E+00  0.00000000000E+00  0.45593999997E+02  0.45594000000E+02  0.51100000000E-03 0. -1.
         11   -1    0    0    0    0 -0.00000000000E+00 -0.00000000000E+00 -0.45593999997E+02  0.45594000000E+02  0.51100000000E-03 0.  1.
    9900012    2    1    2    0    0  0.35515966626E+02 -0.21985108675E+02 -0.11785344708E+02  0.47787271450E+02  0.20000001849E+02 0.  0.
        -12    1    1    2    0    0 -0.35515966626E+02  0.21985108675E+02  0.11785344708E+02  0.43400728550E+02  0.00000000000E+00 0.  1.
         11    1    3    3    0    0  0.17685050211E+02 -0.89708085887E+01  0.70899973870E+00  0.19842859889E+02  0.51100000000E-03 0. -1.
        -11    1    3    3    0    0  0.64649869351E+01 -0.53669146933E+01 -0.11454534362E+02  0.14205850454E+02  0.51100000000E-03 0.  1.
        -12    1    3    3    0    0  0.11365929480E+02 -0.76473853926E+01 -0.10398100842E+01  0.13738561107E+02  0.00000000000E+00 0.  1.
</event>
<event>
 7    1  0.2935819E-010  0.4778727E+02  0.7816164E-02  0.1312668E+00
        -11   -1    0    0    0    0  0.00000000000E+00  0.00000000000E+00  0.45593999997E+02  0.45594000000E+02  0.51100000000E-03 0.  1.
         11   -1    0    0    0    0 -0.00000000000E+00 -0.00000000000E+00 -0.45593999997E+02  0.45594000000E+02  0.51100000000E-03 0. -1.
    9900012    2    1    2    0    0 -0.18286043612E+02 -0.20883134693E+02 -0.33363733019E+02  0.47787269746E+02  0.19999994082E+02 0.  0.
        -12    1    1    2    0    0  0.18286043612E+02  0.20883134693E+02  0.33363733019E+02  0.43400730254E+02  0.00000000000E+00 0.  1.
         11    1    3    3    0    0 -0.11368663568E+02 -0.13734565163E+02 -0.20621027046E+02  0.27260072418E+02  0.51100000000E-03 0. -1.
        -11    1    3    3    0    0  0.35894303624E+01 -0.18213483562E+01 -0.50494669607E+01  0.64574326949E+01  0.51100000000E-03 0.  1.
        -12    1    3    3    0    0 -0.10506810406E+02 -0.53272211737E+01 -0.76932390120E+01  0.14069764633E+02  0.00000000000E+00 0.  1.
</event>
<event>
 7    1  0.2935819E-010  0.4778727E+02  0.7816164E-02  0.1312668E+00
        -11   -1    0    0    0    0  0.00000000000E+00  0.00000000000E+00  0.45593999997E+02  0.45594000000E+02  0.51100000000E-03 0. -1.
         11   -1    0    0    0    0 -0.00000000000E+00 -0.00000000000E+00 -0.45593999997E+02  0.45594000000E+02  0.51100000000E-03 0.  1.
    9900012    2    1    2    0    0 -0.27136635910E+02 -0.13850938651E+02  0.30909187182E+02  0.47787270027E+02  0.19999995359E+02 0.  0.
        -12    1    1    2    0    0  0.27136635910E+02  0.13850938651E+02 -0.30909187182E+02  0.43400729973E+02  0.00000000000E+00 0.  1.
         11    1    3    3    0    0 -0.20871182056E+02 -0.65225756580E+01  0.29403111017E+02  0.36642777889E+02  0.51100000000E-03 0. -1.
        -11    1    3    3    0    0 -0.60962281315E+01 -0.74365448991E+01  0.26569282663E+01  0.99762450622E+01  0.51100000000E-03 0.  1.
         12    1    3    3    0    0 -0.16922572177E+00  0.10818190652E+00 -0.11508521018E+01  0.11682470758E+01  0.00000000000E+00 0. -1.
</event>
<event>
 7    1  0.2935819E-010  0.4778727E+02  0.7816164E-02  0.1312668E+00
        -11   -1    0    0    0    0  0.00000000000E+00  0.00000000000E+00  0.45593999997E+02  0.45594000000E+02  0.51100000000E-03 0.  1.
         11   -1    0    0    0    0 -0.00000000000E+00 -0.00000000000E+00 -0.45593999997E+02  0.45594000000E+02  0.51100000000E-03 0. -1.
    9900012    2    1    2    0    0 -0.21506426139E+02 -0.52072573323E+01 -0.37336061908E+02  0.47787269442E+02  0.19999992693E+02 0.  0.
        -12    1    1    2    0    0  0.21506426139E+02  0.52072573323E+01  0.37336061908E+02  0.43400730558E+02  0.00000000000E+00 0.  1.
         11    1    3    3    0    0 -0.13906464264E+02 -0.81303267450E+01 -0.34573049568E+02  0.38141679538E+02  0.51100000000E-03 0. -1.
        -11    1    3    3    0    0 -0.20937416789E+01 -0.71926668704E+00  0.51755455988E+00  0.22735350819E+01  0.51100000000E-03 0.  1.
         12    1    3    3    0    0 -0.55062201961E+01  0.36423360998E+01 -0.32805669000E+01  0.73720548219E+01  0.00000000000E+00 0. -1.
</event>
<event>
 7    1  0.2935819E-010  0.4778727E+02  0.7816164E-02  0.1312668E+00
        -11   -1    0    0    0    0  0.00000000000E+00  0.00000000000E+00  0.45593999997E+02  0.45594000000E+02  0.51100000000E-03 0.  1.
         11   -1    0    0    0    0 -0.00000000000E+00 -0.00000000000E+00 -0.45593999997E+02  0.45594000000E+02  0.51100000000E-03 0. -1.
    9900012    2    1    2    0    0  0.68319930589E+01  0.18340922398E+02 -0.38737036944E+02  0.47787267348E+02  0.19999983146E+02 0.  0.
        -12    1    1    2    0    0 -0.68319930589E+01 -0.18340922398E+02  0.38737036944E+02  0.43400732652E+02  0.00000000000E+00 0.  1.
         11    1    3    3    0    0  0.94388283146E+01  0.10538028347E+02 -0.25962968899E+02  0.29567165500E+02  0.51100000000E-03 0. -1.
        -11    1    3    3    0    0 -0.89641145737E+00 -0.84153662408E+00  0.11880436572E+01  0.17097325473E+01  0.51100000000E-03 0.  1.
        -12    1    3    3    0    0 -0.17104237984E+01  0.86444306755E+01 -0.13962111701E+02  0.16510369300E+02  0.00000000000E+00 0.  1.
</event>
<event>
 7    1  0.2935819E-010  0.4778728E+02  0.7816164E-02  0.1312668E+00
        -11   -1    0    0    0    0  0.00000000000E+00  0.00000000000E+00  0.45593999997E+02  0.45594000000E+02  0.51100000000E-03 0.  1.
         11   -1    0    0    0    0 -0.00000000000E+00 -0.00000000000E+00 -0.45593999997E+02  0.45594000000E+02  0.51100000000E-03 0. -1.
    9900012    2    1    2    0    0  0.88146596012E+01 -0.36249256581E+01 -0.42341278797E+02  0.47787283416E+02  0.20000056405E+02 0.  0.
        -12    1    1    2    0    0 -0.88146596012E+01  0.36249256581E+01  0.42341278797E+02  0.43400716584E+02  0.00000000000E+00 0.  1.
         11    1    3    3    0    0  0.76421321495E+01  0.58288938252E+01 -0.15599414378E+02  0.18322661275E+02  0.51100000000E-03 0. -1.
        -11    1    3    3    0    0  0.18601858167E+01 -0.80348644979E+01 -0.11556469960E+02  0.14197582082E+02  0.51100000000E-03 0.  1.
         12    1    3    3    0    0 -0.68765836502E+00 -0.14189549854E+01 -0.15185394459E+02  0.15267040059E+02  0.00000000000E+00 0. -1.
</event>
<event>
 7    1  0.2935819E-010  0.4778727E+02  0.7816164E-02  0.1312668E+00
        -11   -1    0    0    0    0  0.00000000000E+00  0.00000000000E+00  0.45593999997E+02  0.45594000000E+02  0.51100000000E-03 0.  1.
         11   -1    0    0    0    0 -0.00000000000E+00 -0.00000000000E+00 -0.45593999997E+02  0.45594000000E+02  0.51100000000E-03 0. -1.
    9900012    2    1    2    0    0  0.48764623732E+01 -0.37772726124E+01 -0.42960160186E+02  0.47787273775E+02  0.20000012451E+02 0.  0.
        -12    1    1    2    0    0 -0.48764623732E+01  0.37772726124E+01  0.42960160186E+02  0.43400726225E+02  0.00000000000E+00 0.  1.
         11    1    3    3    0    0  0.21669464974E+01  0.62976510293E+01 -0.12100102658E+02  0.13811898863E+02  0.51100000000E-03 0. -1.
        -11    1    3    3    0    0  0.16293581407E+01 -0.51301046789E+01 -0.41681121372E+01  0.68077853239E+01  0.51100000000E-03 0.  1.
         12    1    3    3    0    0  0.10801577351E+01 -0.49448189629E+01 -0.26691945390E+02  0.27167589588E+02  0.00000000000E+00 0. -1.
</event>
<event>
 7    1  0.2935819E-010  0.4778727E+02  0.7816164E-02  0.1312668E+00
        -11   -1    0    0    0    0  0.00000000000E+00  0.00000000000E+00  0.45593999997E+02  0.45594000000E+02  0.51100000000E-03 0.  1.
         11   -1    0    0    0    0 -0.00000000000E+00 -0.00000000000E+00 -0.45593999997E+02  0.45594000000E+02  0.51100000000E-03 0. -1.
    9900012    2    1    2    0    0 -0.63576522869E+01  0.37137833841E+02 -0.21540318139E+02  0.47787265553E+02  0.19999974964E+02 0.  0.
        -12    1    1    2    0    0  0.63576522869E+01 -0.37137833841E+02  0.21540318139E+02  0.43400734447E+02  0.00000000000E+00 0.  1.
         11    1    3    3    0    0  0.11012192056E+01  0.26185549221E+02 -0.87859914095E+01  0.27642165564E+02  0.51100000000E-03 0. -1.
        -11    1    3    3    0    0 -0.33405068692E+01 -0.51519528564E-01 -0.51869450848E+01  0.61697682274E+01  0.51100000000E-03 0.  1.
         12    1    3    3    0    0 -0.41183646233E+01  0.11003804148E+02 -0.75673816448E+01  0.13975331762E+02  0.00000000000E+00 0. -1.
</event>
<event>
 7    1  0.2935819E-010  0.4778727E+02  0.7816164E-02  0.1312668E+00
        -11   -1    0    0    0    0  0.00000000000E+00  0.00000000000E+00  0.45593999997E+02  0.45594000000E+02  0.51100000000E-03 0.  1.
         11   -1    0    0    0    0 -0.00000000000E+00 -0.00000000000E+00 -0.45593999997E+02  0.45594000000E+02  0.51100000000E-03 0. -1.
    9900012    2    1    2    0    0 -0.20342036577E+02 -0.30791205967E+02 -0.22841334719E+02  0.47787269721E+02  0.19999993967E+02 0.  0.
        -12    1    1    2    0    0  0.20342036577E+02  0.30791205967E+02  0.22841334719E+02  0.43400730279E+02  0.00000000000E+00 0.  1.
         11    1    3    3    0    0 -0.13001832615E+01 -0.17201735992E+02 -0.61990086570E+01  0.18330791207E+02  0.51100000000E-03 0.  1.
        -11    1    3    3    0    0 -0.97958066816E+00 -0.31627125249E+01 -0.34329194037E+01  0.47694092605E+01  0.51100000000E-03 0. -1.
         12    1    3    3    0    0 -0.18062272647E+02 -0.10426757450E+02 -0.13209406658E+02  0.24687069254E+02  0.00000000000E+00 0. -1.
</event>
<event>
 7    1  0.2935819E-010  0.4778727E+02  0.7816164E-02  0.1312668E+00
        -11   -1    0    0    0    0  0.00000000000E+00  0.00000000000E+00  0.45593999997E+02  0.45594000000E+02  0.51100000000E-03 0.  1.
         11   -1    0    0    0    0 -0.00000000000E+00 -0.00000000000E+00 -0.45593999997E+02  0.45594000000E+02  0.51100000000E-03 0. -1.
    9900012    2    1    2    0    0 -0.72981359735E+01 -0.25341210066E+02 -0.34470040839E+02  0.47787269226E+02  0.19999991708E+02 0.  0.
        -12    1    1    2    0    0  0.72981359735E+01  0.25341210066E+02  0.34470040839E+02  0.43400730774E+02  0.00000000000E+00 0.  1.
         11    1    3    3    0    0  0.36022425330E+01 -0.30519905078E+01 -0.14767767295E+02  0.15504120371E+02  0.51100000000E-03 0. -1.
        -11    1    3    3    0    0 -0.50102247458E+01 -0.11235291642E+02 -0.58954895341E+01  0.13641514849E+02  0.51100000000E-03 0.  1.
         12    1    3    3    0    0 -0.58901537607E+01 -0.11053927916E+02 -0.13806784010E+02  0.18641634005E+02  0.00000000000E+00 0. -1.
</event>
<event>
 7    1  0.2935819E-010  0.4778728E+02  0.7816164E-02  0.1312668E+00
        -11   -1    0    0    0    0  0.00000000000E+00  0.00000000000E+00  0.45593999997E+02  0.45594000000E+02  0.51100000000E-03 0.  1.
         11   -1    0    0    0    0 -0.00000000000E+00 -0.00000000000E+00 -0.45593999997E+02  0.45594000000E+02  0.51100000000E-03 0. -1.
    9900012    2    1    2    0    0  0.38704550234E+02 -0.19268876071E+02 -0.37802487632E+01  0.47787284861E+02  0.20000062997E+02 0.  0.
        -12    1    1    2    0    0 -0.38704550234E+02  0.19268876071E+02  0.37802487632E+01  0.43400715139E+02  0.00000000000E+00 0.  1.
         11    1    3    3    0    0  0.30972742008E+02 -0.18031454183E+02  0.18431237294E-01  0.35839146577E+02  0.51100000000E-03 0. -1.
        -11    1    3    3    0    0  0.87593614058E+01  0.10181593377E+00 -0.47966035464E+01  0.99872010376E+01  0.51100000000E-03 0.  1.
         12    1    3    3    0    0 -0.10275531798E+01 -0.13392378217E+01  0.99792354590E+00  0.19609372463E+01  0.00000000000E+00 0. -1.
</event>
<event>
 7    1  0.2935819E-010  0.4778727E+02  0.7816164E-02  0.1312668E+00
        -11   -1    0    0    0    0  0.00000000000E+00  0.00000000000E+00  0.45593999997E+02  0.45594000000E+02  0.51100000000E-03 0.  1.
         11   -1    0    0    0    0 -0.00000000000E+00 -0.00000000000E+00 -0.45593999997E+02  0.45594000000E+02  0.51100000000E-03 0. -1.
    9900012    2    1    2    0    0  0.17751282249E+02  0.35867873110E+02 -0.16793180255E+02  0.47787271365E+02  0.20000001463E+02 0.  0.
        -12    1    1    2    0    0 -0.17751282249E+02 -0.35867873110E+02  0.16793180255E+02  0.43400728635E+02  0.00000000000E+00 0.  1.
         11    1    3    3    0    0  0.13061478256E+02  0.17417774451E+02 -0.81570558663E+01  0.23249056792E+02  0.51100000000E-03 0. -1.
        -11    1    3    3    0    0  0.67335346310E+00  0.34932527277E+01  0.34024964965E+01  0.49227230448E+01  0.51100000000E-03 0.  1.
        -12    1    3    3    0    0  0.40164505300E+01  0.14956845931E+02 -0.12038620885E+02  0.19615491528E+02  0.00000000000E+00 0.  1.
</event>
<event>
 7    1  0.2935819E-010  0.4778727E+02  0.7816164E-02  0.1312668E+00
        -11   -1    0    0    0    0  0.00000000000E+00  0.00000000000E+00  0.45593999997E+02  0.45594000000E+02  0.51100000000E-03 0.  1.
         11   -1    0    0    0    0 -0.00000000000E+00 -0.00000000000E+00 -0.45593999997E+02  0.45594000000E+02  0.51100000000E-03 0. -1.
    9900012    2    1    2    0    0 -0.96277788521E+01  0.12307439890E+02 -0.40490197261E+02  0.47787271014E+02  0.19999999861E+02 0.  0.
        -12    1    1    2    0    0  0.96277788521E+01 -0.12307439890E+02  0.40490197261E+02  0.43400728986E+02  0.00000000000E+00 0.  1.
         11    1    3    3    0    0 -0.59059542060E+01  0.16145160265E+02 -0.19203961370E+02  0.25774767267E+02  0.51100000000E-03 0. -1.
        -11    1    3    3    0    0 -0.86228165273E+00 -0.20787375403E+01 -0.85438513886E+01  0.88352745414E+01  0.51100000000E-03 0.  1.
         12    1    3    3    0    0 -0.28595429933E+01 -0.17589828352E+01 -0.12742384502E+02  0.13177229206E+02  0.00000000000E+00 0. -1.
</event>
<event>
 7    1  0.2935819E-010  0.4778727E+02  0.7816164E-02  0.1312668E+00
        -11   -1    0    0    0    0  0.00000000000E+00  0.00000000000E+00  0.45593999997E+02  0.45594000000E+02  0.51100000000E-03 0.  1.
         11   -1    0    0    0    0 -0.00000000000E+00 -0.00000000000E+00 -0.45593999997E+02  0.45594000000E+02  0.51100000000E-03 0. -1.
    9900012    2    1    2    0    0 -0.18428316204E+01 -0.15151284744E+02 -0.40628388353E+02  0.47787269615E+02  0.19999993481E+02 0.  0.
        -12    1    1    2    0    0  0.18428316204E+01  0.15151284744E+02  0.40628388353E+02  0.43400730385E+02  0.00000000000E+00 0.  1.
         11    1    3    3    0    0  0.18041535492E+01  0.33006895829E+01 -0.62039168833E+01  0.72552123820E+01  0.51100000000E-03 0. -1.
        -11    1    3    3    0    0  0.21729569325E+01 -0.13375287980E+02 -0.19787986180E+02  0.23983003725E+02  0.51100000000E-03 0.  1.
         12    1    3    3    0    0 -0.58199421021E+01 -0.50766863473E+01 -0.14636485290E+02  0.16549053508E+02  0.00000000000E+00 0. -1.
</event>
<event>
 7    1  0.2935819E-010  0.4778727E+02  0.7816164E-02  0.1312668E+00
        -11   -1    0    0    0    0  0.00000000000E+00  0.00000000000E+00  0.45593999997E+02  0.45594000000E+02  0.51100000000E-03 0. -1.
         11   -1    0    0    0    0 -0.00000000000E+00 -0.00000000000E+00 -0.45593999997E+02  0.45594000000E+02  0.51100000000E-03 0.  1.
    9900012    2    1    2    0    0  0.74560396941E+01 -0.11291598714E+01  0.42740566543E+02  0.47787267767E+02  0.19999985058E+02 0.  0.
        -12    1    1    2    0    0 -0.74560396941E+01  0.11291598714E+01 -0.42740566543E+02  0.43400732233E+02  0.00000000000E+00 0.  1.
         11    1    3    3    0    0  0.77733906914E+01  0.47216309787E+00  0.17415508506E+02  0.19077433727E+02  0.51100000000E-03 0. -1.
        -11    1    3    3    0    0 -0.25756312556E+01 -0.35270048872E+01  0.13780106973E+01  0.45795800661E+01  0.51100000000E-03 0.  1.
        -12    1    3    3    0    0  0.22582802582E+01  0.19256819179E+01  0.23947047340E+02  0.24130253974E+02  0.00000000000E+00 0.  1.
</event>
<event>
 7    1  0.2935819E-010  0.4778727E+02  0.7816164E-02  0.1312668E+00
        -11   -1    0    0    0    0  0.00000000000E+00  0.00000000000E+00  0.45593999997E+02  0.45594000000E+02  0.51100000000E-03 0. -1.
         11   -1    0    0    0    0 -0.00000000000E+00 -0.00000000000E+00 -0.45593999997E+02  0.45594000000E+02  0.51100000000E-03 0.  1.
    9900012    2    1    2    0    0 -0.32465901736E+01 -0.26110021184E+02  0.34515935278E+02  0.47787270259E+02  0.19999996418E+02 0.  0.
        -12    1    1    2    0    0  0.32465901736E+01  0.26110021184E+02 -0.34515935278E+02  0.43400729741E+02  0.00000000000E+00 0.  1.
         11    1    3    3    0    0 -0.32552130003E+00 -0.11667156798E+00  0.10984594077E+02  0.10990035654E+02  0.51100000000E-03 0. -1.
        -11    1    3    3    0    0 -0.16758616481E+01 -0.14033507859E+00 -0.18486806859E+00  0.16918577545E+01  0.51100000000E-03 0.  1.
         12    1    3    3    0    0 -0.12452072255E+01 -0.25853014537E+02  0.23716209269E+02  0.35105376850E+02  0.00000000000E+00 0. -1.
</event>
<event>
 7    1  0.2935819E-010  0.4778727E+02  0.7816164E-02  0.1312668E+00
        -11   -1    0    0    0    0  0.00000000000E+00  0.00000000000E+00  0.45593999997E+02  0.45594000000E+02  0.51100000000E-03 0.  1.
         11   -1    0    0    0    0 -0.00000000000E+00 -0.00000000000E+00 -0.45593999997E+02  0.45594000000E+02  0.51100000000E-03 0. -1.
    9900012    2    1    2    0    0 -0.40058437596E+02  0.11641538844E+02  0.11975778845E+02  0.47787272723E+02  0.20000007651E+02 0.  0.
        -12    1    1    2    0    0  0.40058437596E+02 -0.11641538844E+02 -0.11975778845E+02  0.43400727277E+02  0.00000000000E+00 0.  1.
         11    1    3    3    0    0 -0.29110035999E+01  0.93136084985E+00 -0.14331606731E+01  0.33756961901E+01  0.51100000000E-03 0. -1.
        -11    1    3    3    0    0 -0.26269337526E+02  0.10896025628E+01  0.28277591424E+01  0.26443554032E+02  0.51100000000E-03 0.  1.
        -12    1    3    3    0    0 -0.10878096469E+02  0.96205754315E+01  0.10581180376E+02  0.17968022500E+02  0.00000000000E+00 0.  1.
</event>
<event>
 7    1  0.2935819E-010  0.4778727E+02  0.7816164E-02  0.1312668E+00
        -11   -1    0    0    0    0  0.00000000000E+00  0.00000000000E+00  0.45593999997E+02  0.45594000000E+02  0.51100000000E-03 0.  1.
         11   -1    0    0    0    0 -0.00000000000E+00 -0.00000000000E+00 -0.45593999997E+02  0.45594000000E+02  0.51100000000E-03 0. -1.
    9900012    2    1    2    0    0 -0.29453651280E+02  0.47564659217E+00 -0.31872866292E+02  0.47787269371E+02  0.19999992372E+02 0.  0.
        -12    1    1    2    0    0  0.29453651280E+02 -0.47564659217E+00  0.31872866292E+02  0.43400730629E+02  0.00000000000E+00 0.  1.
         11    1    3    3    0    0 -0.16082804966E+02  0.82921420892E+01 -0.19393843399E+02  0.26524279407E+02  0.51100000000E-03 0. -1.
        -11    1    3    3    0    0 -0.14300275190E+02 -0.77175883454E+01 -0.11487006809E+02  0.19900009198E+02  0.51100000000E-03 0.  1.
        -12    1    3    3    0    0  0.92942887571E+00 -0.98907151717E-01 -0.99201608370E+00  0.13629807666E+01  0.00000000000E+00 0.  1.
</event>
<event>
 7    1  0.2935819E-010  0.4778727E+02  0.7816164E-02  0.1312668E+00
        -11   -1    0    0    0    0  0.00000000000E+00  0.00000000000E+00  0.45593999997E+02  0.45594000000E+02  0.51100000000E-03 0.  1.
         11   -1    0    0    0    0 -0.00000000000E+00 -0.00000000000E+00 -0.45593999997E+02  0.45594000000E+02  0.51100000000E-03 0. -1.
    9900012    2    1    2    0    0  0.36362251895E+02 -0.16632712922E+02  0.16874920426E+02  0.47787269115E+02  0.19999991201E+02 0.  0.
        -12    1    1    2    0    0 -0.36362251895E+02  0.16632712922E+02 -0.16874920426E+02  0.43400730885E+02  0.00000000000E+00 0.  1.
         11    1    3    3    0    0  0.14921123620E+02 -0.12937956743E+02  0.44974065636E+01  0.20254809820E+02  0.51100000000E-03 0.  1.
        -11    1    3    3    0    0  0.16273688794E+02 -0.62219337927E+01  0.49002568813E+01  0.18098561403E+02  0.51100000000E-03 0. -1.
         12    1    3    3    0    0  0.51674394805E+01  0.25271776137E+01  0.74772569814E+01  0.94338978923E+01  0.00000000000E+00 0. -1.
</event>
<event>
 7    1  0.2935819E-010  0.4778727E+02  0.7816164E-02  0.1312668E+00
        -11   -1    0    0    0    0  0.00000000000E+00  0.00000000000E+00  0.45593999997E+02  0.45594000000E+02  0.51100000000E-03 0.  1.
         11   -1    0    0    0    0 -0.00000000000E+00 -0.00000000000E+00 -0.45593999997E+02  0.45594000000E+02  0.51100000000E-03 0. -1.
    9900012    2    1    2    0    0 -0.55940647454E+01  0.18624884218E+02 -0.38800047227E+02  0.47787268010E+02  0.19999986163E+02 0.  0.
        -12    1    1    2    0    0  0.55940647454E+01 -0.18624884218E+02  0.38800047227E+02  0.43400731990E+02  0.00000000000E+00 0.  1.
         11    1    3    3    0    0 -0.13020194769E+01  0.18862958015E+00 -0.66752303209E+00  0.14752705163E+01  0.51100000000E-03 0. -1.
        -11    1    3    3    0    0 -0.58649408653E+01  0.22750778208E+01 -0.18426276905E+01  0.65550581623E+01  0.51100000000E-03 0.  1.
         12    1    3    3    0    0  0.15728955969E+01  0.16161176817E+02 -0.36289896504E+02  0.39756939331E+02  0.00000000000E+00 0. -1.
</event>
<event>
 7    1  0.2935819E-010  0.4778728E+02  0.7816164E-02  0.1312668E+00
        -11   -1    0    0    0    0  0.00000000000E+00  0.00000000000E+00  0.45593999997E+02  0.45594000000E+02  0.51100000000E-03 0. -1.
         11   -1    0    0    0    0 -0.00000000000E+00 -0.00000000000E+00 -0.45593999997E+02  0.45594000000E+02  0.51100000000E-03 0.  1.
    9900012    2    1    2    0    0 -0.33402525643E+02  0.16673891704E+02  0.22133127635E+02  0.47787277393E+02  0.20000028948E+02 0.  0.
        -12    1    1    2    0    0  0.33402525643E+02 -0.16673891704E+02 -0.22133127635E+02  0.43400722607E+02  0.00000000000E+00 0.  1.
         11    1    3    3    0    0 -0.18715727536E+02  0.90765349734E+01  0.25199799474E+01  0.20952619013E+02  0.51100000000E-03 0.  1.
        -11    1    3    3    0    0 -0.13120050769E+02  0.89835978216E+01  0.15426289552E+02  0.22154258544E+02  0.51100000000E-03 0. -1.
         12    1    3    3    0    0 -0.15667473370E+01 -0.13862410910E+01  0.41868581355E+01  0.46803998363E+01  0.00000000000E+00 0. -1.
</event>
<event>
 7    1  0.2935819E-010  0.4778726E+02  0.7816164E-02  0.1312668E+00
        -11   -1    0    0    0    0  0.00000000000E+00  0.00000000000E+00  0.45593999997E+02  0.45594000000E+02  0.51100000000E-03 0. -1.
         11   -1    0    0    0    0 -0.00000000000E+00 -0.00000000000E+00 -0.45593999997E+02  0.45594000000E+02  0.51100000000E-03 0.  1.
    9900012    2    1    2    0    0 -0.17699121433E+02 -0.91345003314E+01  0.38560681229E+02  0.47787261151E+02  0.19999954892E+02 0.  0.
        -12    1    1    2    0    0  0.17699121433E+02  0.91345003314E+01 -0.38560681229E+02  0.43400738849E+02  0.00000000000E+00 0.  1.
         11    1    3    3    0    0 -0.69912745134E+00 -0.54529673431E+01  0.10243776087E+01  0.55922251193E+01  0.51100000000E-03 0. -1.
        -11    1    3    3    0    0 -0.15744894355E+01 -0.76390940443E+00  0.28798698508E+00  0.17735589433E+01  0.51100000000E-03 0.  1.
         12    1    3    3    0    0 -0.15425504546E+02 -0.29176235838E+01  0.37248316635E+02  0.40421477089E+02  0.00000000000E+00 0. -1.
</event>
<event>
 7    1  0.2935819E-010  0.4778727E+02  0.7816164E-02  0.1312668E+00
        -11   -1    0    0    0    0  0.00000000000E+00  0.00000000000E+00  0.45593999997E+02  0.45594000000E+02  0.51100000000E-03 0.  1.
         11   -1    0    0    0    0 -0.00000000000E+00 -0.00000000000E+00 -0.45593999997E+02  0.45594000000E+02  0.51100000000E-03 0. -1.
    9900012    2    1    2    0    0  0.13104252764E+02 -0.40575056207E+02  0.80973250606E+01  0.47787270745E+02  0.19999998635E+02 0.  0.
        -12    1    1    2    0    0 -0.13104252764E+02  0.40575056207E+02 -0.80973250606E+01  0.43400729255E+02  0.00000000000E+00 0.  1.
         11    1    3    3    0    0 -0.15737385207E+01 -0.20427178455E+02  0.37449733347E+01  0.20827172110E+02  0.51100000000E-03 0. -1.
        -11    1    3    3    0    0  0.77749527634E+01 -0.54835726174E+01  0.49828070113E+01  0.10740010479E+02  0.51100000000E-03 0.  1.
         12    1    3    3    0    0  0.69030385209E+01 -0.14664305135E+02 -0.63045528539E+00  0.16220088155E+02  0.00000000000E+00 0. -1.
</event>
<event>
 7    1  0.2935819E-010  0.4778728E+02  0.7816164E-02  0.1312668E+00
        -11   -1    0    0    0    0  0.00000000000E+00  0.00000000000E+00  0.45593999997E+02  0.45594000000E+02  0.51100000000E-03 0.  1.
         11   -1    0    0    0    0 -0.00000000000E+00 -0.00000000000E+00 -0.45593999997E+02  0.45594000000E+02  0.51100000000E-03 0. -1.
    9900012    2    1    2    0    0  0.21021957432E+02  0.29329242434E+02 -0.24114211874E+02  0.47787281453E+02  0.20000047459E+02 0.  0.
        -12    1    1    2    0    0 -0.21021957432E+02 -0.29329242434E+02  0.24114211874E+02  0.43400718547E+02  0.00000000000E+00 0.  1.
         11    1    3    3    0    0  0.15205305055E+02  0.74452216540E+01 -0.87768250971E+01  0.19070010130E+02  0.51100000000E-03 0. -1.
        -11    1    3    3    0    0  0.16382392384E+01  0.99074676069E+00  0.71131849078E+00  0.20423959466E+01  0.51100000000E-03 0.  1.
         12    1    3    3    0    0  0.41784131385E+01  0.20893274020E+02 -0.16048705268E+02  0.26674875377E+02  0.00000000000E+00 0. -1.
</event>
<event>
 7    1  0.2935819E-010  0.4778727E+02  0.7816164E-02  0.1312668E+00
        -11   -1    0    0    0    0  0.00000000000E+00  0.00000000000E+00  0.45593999997E+02  0.45594000000E+02  0.51100000000E-03 0. -1.
         11   -1    0    0    0    0 -0.00000000000E+00 -0.00000000000E+00 -0.45593999997E+02  0.45594000000E+02  0.51100000000E-03 0.  1.
    9900012    2    1    2    0    0  0.17616731442E+02 -0.15734348971E+02  0.36410220730E+02  0.47787272612E+02  0.20000007145E+02 0.  0.
        -12    1    1    2    0    0 -0.17616731442E+02  0.15734348971E+02 -0.36410220730E+02  0.43400727388E+02  0.00000000000E+00 0.  1.
         11    1    3    3    0    0  0.91125658571E+01 -0.69005817497E+01  0.20043392273E+02  0.23073674589E+02  0.51100000000E-03 0. -1.
        -11    1    3    3    0    0  0.74235536578E+01 -0.20802962494E+01  0.84989443483E+00  0.77562298965E+01  0.51100000000E-03 0.  1.
        -12    1    3    3    0    0  0.10806119267E+01 -0.67534709721E+01  0.15516934022E+02  0.16957368126E+02  0.00000000000E+00 0.  1.
</event>
<event>
 7    1  0.2935819E-010  0.4778728E+02  0.7816164E-02  0.1312668E+00
        -11   -1    0    0    0    0  0.00000000000E+00  0.00000000000E+00  0.45593999997E+02  0.45594000000E+02  0.51100000000E-03 0. -1.
         11   -1    0    0    0    0 -0.00000000000E+00 -0.00000000000E+00 -0.45593999997E+02  0.45594000000E+02  0.51100000000E-03 0.  1.
    9900012    2    1    2    0    0  0.39121216946E+02  0.11034522606E+02  0.15211592652E+02  0.47787275864E+02  0.20000021976E+02 0.  0.
        -12    1    1    2    0    0 -0.39121216946E+02 -0.11034522606E+02 -0.15211592652E+02  0.43400724136E+02  0.00000000000E+00 0.  1.
         11    1    3    3    0    0  0.18042231626E+02  0.12372413337E+02  0.68576946406E+01  0.22926550327E+02  0.51100000000E-03 0. -1.
        -11    1    3    3    0    0  0.55727703207E+01  0.35575902250E+01  0.70709749841E-01  0.66118996806E+01  0.51100000000E-03 0.  1.
         12    1    3    3    0    0  0.15506214999E+02 -0.48954809562E+01  0.82831882614E+01  0.18248825857E+02  0.00000000000E+00 0. -1.
</event>
<event>
 7    1  0.2935819E-010  0.4778728E+02  0.7816164E-02  0.1312668E+00
        -11   -1    0    0    0    0  0.00000000000E+00  0.00000000000E+00  0.45593999997E+02  0.45594000000E+02  0.51100000000E-03 0.  1.
         11   -1    0    0    0    0 -0.00000000000E+00 -0.00000000000E+00 -0.45593999997E+02  0.45594000000E+02  0.51100000000E-03 0. -1.
    9900012    2    1    2    0    0 -0.12554370856E+02 -0.21254278067E+02 -0.35696863723E+02  0.47787278308E+02  0.20000033116E+02 0.  0.
        -12    1    1    2    0    0  0.12554370856E+02  0.21254278067E+02  0.35696863723E+02  0.43400721692E+02  0.00000000000E+00 0.  1.
         11    1    3    3    0    0 -0.78352338323E+01 -0.17988526225E+02 -0.35069234671E+02  0.40184937298E+02  0.51100000000E-03 0. -1.
        -11    1    3    3    0    0 -0.15713816472E+01  0.12764272475E+01  0.10778517844E+00  0.20273442493E+01  0.51100000000E-03 0.  1.
         12    1    3    3    0    0 -0.31477553761E+01 -0.45421790896E+01 -0.73541423045E+00  0.55749967605E+01  0.00000000000E+00 0. -1.
</event>
<event>
 7    1  0.2935819E-010  0.4778727E+02  0.7816164E-02  0.1312668E+00
        -11   -1    0    0    0    0  0.00000000000E+00  0.00000000000E+00  0.45593999997E+02  0.45594000000E+02  0.51100000000E-03 0.  1.
         11   -1    0    0    0    0 -0.00000000000E+00 -0.00000000000E+00 -0.45593999997E+02  0.45594000000E+02  0.51100000000E-03 0. -1.
    9900012    2    1    2    0    0  0.74035942066E+01  0.32002707994E+02 -0.28366116313E+02  0.47787273269E+02  0.20000010144E+02 0.  0.
        -12    1    1    2    0    0 -0.74035942066E+01 -0.32002707994E+02  0.28366116313E+02  0.43400726731E+02  0.00000000000E+00 0.  1.
         11    1    3    3    0    0  0.61353558295E+01  0.71409101536E+01 -0.12687161727E+02  0.15798710767E+02  0.51100000000E-03 0. -1.
        -11    1    3    3    0    0  0.24045461449E+01  0.15600608442E+02 -0.27160692212E+01  0.16016799249E+02  0.51100000000E-03 0.  1.
         12    1    3    3    0    0 -0.11363077678E+01  0.92611893984E+01 -0.12962885365E+02  0.15971763253E+02  0.00000000000E+00 0. -1.
</event>
<event>
 7    1  0.2935819E-010  0.4778727E+02  0.7816164E-02  0.1312668E+00
        -11   -1    0    0    0    0  0.00000000000E+00  0.00000000000E+00  0.45593999997E+02  0.45594000000E+02  0.51100000000E-03 0. -1.
         11   -1    0    0    0    0 -0.00000000000E+00 -0.00000000000E+00 -0.45593999997E+02  0.45594000000E+02  0.51100000000E-03 0.  1.
    9900012    2    1    2    0    0 -0.42767075912E+02  0.66587671071E+01  0.32033450188E+01  0.47787269813E+02  0.19999994386E+02 0.  0.
        -12    1    1    2    0    0  0.42767075912E+02 -0.66587671071E+01 -0.32033450188E+01  0.43400730187E+02  0.00000000000E+00 0.  1.
         11    1    3    3    0    0 -0.26047490177E+02  0.84865102140E+01 -0.57469874263E+01  0.27991435563E+02  0.51100000000E-03 0. -1.
        -11    1    3    3    0    0 -0.10868925226E+02  0.12881670834E+01  0.64949368393E+01  0.12727023015E+02  0.51100000000E-03 0.  1.
         12    1    3    3    0    0 -0.58506605089E+01 -0.31159101903E+01  0.24553956058E+01  0.70688112357E+01  0.00000000000E+00 0. -1.
</event>
<event>
 7    1  0.2935819E-010  0.4778727E+02  0.7816164E-02  0.1312668E+00
        -11   -1    0    0    0    0  0.00000000000E+00  0.00000000000E+00  0.45593999997E+02  0.45594000000E+02  0.51100000000E-03 0.  1.
         11   -1    0    0    0    0 -0.00000000000E+00 -0.00000000000E+00 -0.45593999997E+02  0.45594000000E+02  0.51100000000E-03 0. -1.
    9900012    2    1    2    0    0  0.80535118345E+01 -0.32141133303E+01 -0.42525680045E+02  0.47787273732E+02  0.20000012252E+02 0.  0.
        -12    1    1    2    0    0 -0.80535118345E+01  0.32141133303E+01  0.42525680045E+02  0.43400726268E+02  0.00000000000E+00 0.  1.
         11    1    3    3    0    0  0.38440263971E+01 -0.45789020874E+00 -0.10203270090E+02  0.10912970410E+02  0.51100000000E-03 0. -1.
        -11    1    3    3    0    0 -0.22974712938E+01 -0.75298193879E+01 -0.24099866095E+02  0.25353108299E+02  0.51100000000E-03 0.  1.
        -12    1    3    3    0    0  0.65069567313E+01  0.47735962664E+01 -0.82225438594E+01  0.11521195022E+02  0.00000000000E+00 0.  1.
</event>
<event>
 7    1  0.2935819E-010  0.4778727E+02  0.7816164E-02  0.1312668E+00
        -11   -1    0    0    0    0  0.00000000000E+00  0.00000000000E+00  0.45593999997E+02  0.45594000000E+02  0.51100000000E-03 0.  1.
         11   -1    0    0    0    0 -0.00000000000E+00 -0.00000000000E+00 -0.45593999997E+02  0.45594000000E+02  0.51100000000E-03 0. -1.
    9900012    2    1    2    0    0 -0.22665189963E+02  0.16501231846E+02 -0.33130378226E+02  0.47787269017E+02  0.19999990755E+02 0.  0.
        -12    1    1    2    0    0  0.22665189963E+02 -0.16501231846E+02  0.33130378226E+02  0.43400730983E+02  0.00000000000E+00 0.  1.
         11    1    3    3    0    0 -0.52889264337E+01  0.43118567885E+01 -0.56048559568E+01  0.88305867496E+01  0.51100000000E-03 0. -1.
        -11    1    3    3    0    0 -0.17499096135E+02  0.43764563247E+01 -0.12267718269E+02  0.21814413751E+02  0.51100000000E-03 0.  1.
        -12    1    3    3    0    0  0.12283260609E+00  0.78129187330E+01 -0.15257804001E+02  0.17142268517E+02  0.00000000000E+00 0.  1.
</event>
<event>
 7    1  0.2935819E-010  0.4778727E+02  0.7816164E-02  0.1312668E+00
        -11   -1    0    0    0    0  0.00000000000E+00  0.00000000000E+00  0.45593999997E+02  0.45594000000E+02  0.51100000000E-03 0.  1.
         11   -1    0    0    0    0 -0.00000000000E+00 -0.00000000000E+00 -0.45593999997E+02  0.45594000000E+02  0.51100000000E-03 0. -1.
    9900012    2    1    2    0    0  0.21206268399E+02 -0.18850520987E+02 -0.32841671426E+02  0.47787270248E+02  0.19999996371E+02 0.  0.
        -12    1    1    2    0    0 -0.21206268399E+02  0.18850520987E+02  0.32841671426E+02  0.43400729752E+02  0.00000000000E+00 0.  1.
         11    1    3    3    0    0  0.42531390667E+01  0.10357764539E+01 -0.12310980514E+02  0.13066073100E+02  0.51100000000E-03 0. -1.
        -11    1    3    3    0    0  0.17240998296E+02 -0.20802894889E+02 -0.20059753461E+02  0.33651243175E+02  0.51100000000E-03 0.  1.
        -12    1    3    3    0    0 -0.28786896380E+00  0.91659744837E+00 -0.47093745143E+00  0.10699539737E+01  0.00000000000E+00 0.  1.
</event>
<event>
 7    1  0.2935819E-010  0.4778727E+02  0.7816164E-02  0.1312668E+00
        -11   -1    0    0    0    0  0.00000000000E+00  0.00000000000E+00  0.45593999997E+02  0.45594000000E+02  0.51100000000E-03 0.  1.
         11   -1    0    0    0    0 -0.00000000000E+00 -0.00000000000E+00 -0.45593999997E+02  0.45594000000E+02  0.51100000000E-03 0. -1.
    9900012    2    1    2    0    0  0.34992047880E+02 -0.25513864421E+02  0.28675037288E+01  0.47787271087E+02  0.20000000195E+02 0.  0.
        -12    1    1    2    0    0 -0.34992047880E+02  0.25513864421E+02 -0.28675037288E+01  0.43400728913E+02  0.00000000000E+00 0.  1.
         11    1    3    3    0    0  0.33099935715E+02 -0.23127464231E+02 -0.33113547689E+00  0.40380626507E+02  0.51100000000E-03 0. -1.
        -11    1    3    3    0    0  0.15138922869E+00 -0.25426215808E+01  0.45385173555E+01  0.52044195881E+01  0.51100000000E-03 0.  1.
        -12    1    3    3    0    0  0.17407229358E+01  0.15622139018E+00 -0.13398781499E+01  0.22022249927E+01  0.00000000000E+00 0.  1.
</event>
<event>
 7    1  0.2935819E-010  0.4778727E+02  0.7816164E-02  0.1312668E+00
        -11   -1    0    0    0    0  0.00000000000E+00  0.00000000000E+00  0.45593999997E+02  0.45594000000E+02  0.51100000000E-03 0.  1.
         11   -1    0    0    0    0 -0.00000000000E+00 -0.00000000000E+00 -0.45593999997E+02  0.45594000000E+02  0.51100000000E-03 0. -1.
    9900012    2    1    2    0    0  0.31996871468E+02  0.25010577248E+02 -0.15306684881E+02  0.47787270052E+02  0.19999995476E+02 0.  0.
        -12    1    1    2    0    0 -0.31996871468E+02 -0.25010577248E+02  0.15306684881E+02  0.43400729948E+02  0.00000000000E+00 0.  1.
         11    1    3    3    0    0  0.21348055823E+02  0.93183453924E+01 -0.31734858254E+01  0.23508340239E+02  0.51100000000E-03 0. -1.
        -11    1    3    3    0    0 -0.15265081598E+01  0.32944053125E+01 -0.16820837802E+01  0.40015921369E+01  0.51100000000E-03 0.  1.
         12    1    3    3    0    0  0.12175323805E+02  0.12397826543E+02 -0.10451115275E+02  0.20277337676E+02  0.00000000000E+00 0. -1.
</event>
<event>
 7    1  0.2935819E-010  0.4778726E+02  0.7816164E-02  0.1312668E+00
        -11   -1    0    0    0    0  0.00000000000E+00  0.00000000000E+00  0.45593999997E+02  0.45594000000E+02  0.51100000000E-03 0.  1.
         11   -1    0    0    0    0 -0.00000000000E+00 -0.00000000000E+00 -0.45593999997E+02  0.45594000000E+02  0.51100000000E-03 0. -1.
    9900012    2    1    2    0    0  0.15781738612E+02  0.13021520842E+02 -0.38275328544E+02  0.47787262059E+02  0.19999959034E+02 0.  0.
        -12    1    1    2    0    0 -0.15781738612E+02 -0.13021520842E+02  0.38275328544E+02  0.43400737941E+02  0.00000000000E+00 0.  1.
         11    1    3    3    0    0  0.15796873296E+02  0.13970836901E+02 -0.36550476548E+02  0.42197900727E+02  0.51100000000E-03 0. -1.
        -11    1    3    3    0    0 -0.17932028094E+01  0.88583334312E+00  0.64785709683E+00  0.21023786781E+01  0.51100000000E-03 0.  1.
         12    1    3    3    0    0  0.17780681259E+01 -0.18351494027E+01 -0.23727090925E+01  0.34869826539E+01  0.00000000000E+00 0. -1.
</event>
<event>
 7    1  0.2935819E-010  0.4778727E+02  0.7816164E-02  0.1312668E+00
        -11   -1    0    0    0    0  0.00000000000E+00  0.00000000000E+00  0.45593999997E+02  0.45594000000E+02  0.51100000000E-03 0.  1.
         11   -1    0    0    0    0 -0.00000000000E+00 -0.00000000000E+00 -0.45593999997E+02  0.45594000000E+02  0.51100000000E-03 0. -1.
    9900012    2    1    2    0    0 -0.16580330336E+02 -0.14437592485E+02 -0.37420205498E+02  0.47787271776E+02  0.20000003337E+02 0.  0.
        -12    1    1    2    0    0  0.16580330336E+02  0.14437592485E+02  0.37420205498E+02  0.43400728224E+02  0.00000000000E+00 0.  1.
         11    1    3    3    0    0 -0.54240719749E+01 -0.10430427213E+02 -0.14252511041E+02  0.18475617442E+02  0.51100000000E-03 0. -1.
        -11    1    3    3    0    0  0.59288718068E+00  0.25110355595E+01 -0.59003112413E-01  0.25807550094E+01  0.51100000000E-03 0.  1.
        -12    1    3    3    0    0 -0.11749145542E+02 -0.65182008308E+01 -0.23108691345E+02  0.26730899325E+02  0.00000000000E+00 0.  1.
</event>
<event>
 7    1  0.2935819E-010  0.4778728E+02  0.7816164E-02  0.1312668E+00
        -11   -1    0    0    0    0  0.00000000000E+00  0.00000000000E+00  0.45593999997E+02  0.45594000000E+02  0.51100000000E-03 0.  1.
         11   -1    0    0    0    0 -0.00000000000E+00 -0.00000000000E+00 -0.45593999997E+02  0.45594000000E+02  0.51100000000E-03 0. -1.
    9900012    2    1    2    0    0 -0.19291180260E+02  0.28634811085E+02 -0.26296784723E+02  0.47787275023E+02  0.20000018142E+02 0.  0.
        -12    1    1    2    0    0  0.19291180260E+02 -0.28634811085E+02  0.26296784723E+02  0.43400724977E+02  0.00000000000E+00 0.  1.
         11    1    3    3    0    0 -0.84205939262E+01  0.21884399863E+02 -0.11196088888E+02  0.25984336937E+02  0.51100000000E-03 0. -1.
        -11    1    3    3    0    0 -0.10228497315E+02  0.49742008173E+01 -0.67171488010E+01  0.13209273991E+02  0.51100000000E-03 0.  1.
         12    1    3    3    0    0 -0.64208901954E+00  0.17762104053E+01 -0.83835470340E+01  0.85936640953E+01  0.00000000000E+00 0. -1.
</event>
<event>
 7    1  0.2935819E-010  0.4778727E+02  0.7816164E-02  0.1312668E+00
        -11   -1    0    0    0    0  0.00000000000E+00  0.00000000000E+00  0.45593999997E+02  0.45594000000E+02  0.51100000000E-03 0. -1.
         11   -1    0    0    0    0 -0.00000000000E+00 -0.00000000000E+00 -0.45593999997E+02  0.45594000000E+02  0.51100000000E-03 0.  1.
    9900012    2    1    2    0    0 -0.38195097276E+02 -0.18434414644E+02 -0.92157687874E+01  0.47787268514E+02  0.19999988463E+02 0.  0.
        -12    1    1    2    0    0  0.38195097276E+02  0.18434414644E+02  0.92157687874E+01  0.43400731486E+02  0.00000000000E+00 0.  1.
         11    1    3    3    0    0 -0.88590546688E+01 -0.54406709163E+01  0.12323574313E+00  0.10397063862E+02  0.51100000000E-03 0. -1.
        -11    1    3    3    0    0 -0.10240153870E+02 -0.28697817639E+01  0.46898343732E+01  0.11622863045E+02  0.51100000000E-03 0.  1.
        -12    1    3    3    0    0 -0.19095888737E+02 -0.10123961964E+02 -0.14028838904E+02  0.25767341607E+02  0.00000000000E+00 0.  1.
</event>
<event>
 7    1  0.2935819E-010  0.4778728E+02  0.7816164E-02  0.1312668E+00
        -11   -1    0    0    0    0  0.00000000000E+00  0.00000000000E+00  0.45593999997E+02  0.45594000000E+02  0.51100000000E-03 0. -1.
         11   -1    0    0    0    0 -0.00000000000E+00 -0.00000000000E+00 -0.45593999997E+02  0.45594000000E+02  0.51100000000E-03 0.  1.
    9900012    2    1    2    0    0 -0.27785486135E+02 -0.31980089722E+02  0.94267042382E+01  0.47787284209E+02  0.20000060024E+02 0.  0.
        -12    1    1    2    0    0  0.27785486135E+02  0.31980089722E+02 -0.94267042382E+01  0.43400715791E+02  0.00000000000E+00 0.  1.
         11    1    3    3    0    0 -0.15188239428E+02 -0.12331337395E+02  0.13333480347E+02  0.23675434469E+02  0.51100000000E-03 0. -1.
        -11    1    3    3    0    0 -0.38404432736E+01 -0.10012445653E+02 -0.25331315561E+01  0.11018839696E+02  0.51100000000E-03 0.  1.
         12    1    3    3    0    0 -0.87568034332E+01 -0.96363066739E+01 -0.13736445526E+01  0.13093010045E+02  0.00000000000E+00 0. -1.
</event>
<event>
 7    1  0.2935819E-010  0.4778726E+02  0.7816164E-02  0.1312668E+00
        -11   -1    0    0    0    0  0.00000000000E+00  0.00000000000E+00  0.45593999997E+02  0.45594000000E+02  0.51100000000E-03 0. -1.
         11   -1    0    0    0    0 -0.00000000000E+00 -0.00000000000E+00 -0.45593999997E+02  0.45594000000E+02  0.51100000000E-03 0.  1.
    9900012    2    1    2    0    0  0.35933202840E+02  0.21903234585E+02  0.10614961434E+02  0.47787260860E+02  0.19999953566E+02 0.  0.
        -12    1    1    2    0    0 -0.35933202840E+02 -0.21903234585E+02 -0.10614961434E+02  0.43400739140E+02  0.00000000000E+00 0.  1.
         11    1    3    3    0    0  0.19392188806E+02  0.38138003915E+01 -0.12936156459E+01  0.19805946123E+02  0.51100000000E-03 0. -1.
        -11    1    3    3    0    0  0.99704387929E+01  0.71625844924E+01  0.79696522802E+01  0.14636516801E+02  0.51100000000E-03 0.  1.
         12    1    3    3    0    0  0.65705752413E+01  0.10926849701E+02  0.39389247996E+01  0.13344797936E+02  0.00000000000E+00 0. -1.
</event>
<event>
 7    1  0.2935819E-010  0.4778726E+02  0.7816164E-02  0.1312668E+00
        -11   -1    0    0    0    0  0.00000000000E+00  0.00000000000E+00  0.45593999997E+02  0.45594000000E+02  0.51100000000E-03 0.  1.
         11   -1    0    0    0    0 -0.00000000000E+00 -0.00000000000E+00 -0.45593999997E+02  0.45594000000E+02  0.51100000000E-03 0. -1.
    9900012    2    1    2    0    0 -0.15743839716E+02 -0.14180012998E+02 -0.37877203957E+02  0.47787264554E+02  0.19999970409E+02 0.  0.
        -12    1    1    2    0    0  0.15743839716E+02  0.14180012998E+02  0.37877203957E+02  0.43400735446E+02  0.00000000000E+00 0.  1.
         11    1    3    3    0    0 -0.40969984470E+01 -0.10991020716E+02 -0.61464572166E+01  0.13242615649E+02  0.51100000000E-03 0. -1.
        -11    1    3    3    0    0 -0.93077714926E+01 -0.51145679179E+01 -0.25109185067E+02  0.27262879344E+02  0.51100000000E-03 0.  1.
         12    1    3    3    0    0 -0.23390697763E+01  0.19255756356E+01 -0.66215616736E+01  0.72817695613E+01  0.00000000000E+00 0. -1.
</event>
<event>
 7    1  0.2935819E-010  0.4778727E+02  0.7816164E-02  0.1312668E+00
        -11   -1    0    0    0    0  0.00000000000E+00  0.00000000000E+00  0.45593999997E+02  0.45594000000E+02  0.51100000000E-03 0.  1.
         11   -1    0    0    0    0 -0.00000000000E+00 -0.00000000000E+00 -0.45593999997E+02  0.45594000000E+02  0.51100000000E-03 0. -1.
    9900012    2    1    2    0    0  0.20108917415E+02 -0.34972598975E+02 -0.16005381716E+02  0.47787268641E+02  0.19999989040E+02 0.  0.
        -12    1    1    2    0    0 -0.20108917415E+02  0.34972598975E+02  0.16005381716E+02  0.43400731359E+02  0.00000000000E+00 0.  1.
         11    1    3    3    0    0  0.16186444715E+02 -0.13081823197E+02 -0.32501182360E+01  0.21064148677E+02  0.51100000000E-03 0. -1.
        -11    1    3    3    0    0 -0.16969412118E+01 -0.62334306876E+01 -0.58370369519E+01  0.87066795193E+01  0.51100000000E-03 0.  1.
         12    1    3    3    0    0  0.56194139117E+01 -0.15657345090E+02 -0.69182265284E+01  0.18016440444E+02  0.00000000000E+00 0. -1.
</event>
<event>
 7    1  0.2935819E-010  0.4778727E+02  0.7816164E-02  0.1312668E+00
        -11   -1    0    0    0    0  0.00000000000E+00  0.00000000000E+00  0.45593999997E+02  0.45594000000E+02  0.51100000000E-03 0.  1.
         11   -1    0    0    0    0 -0.00000000000E+00 -0.00000000000E+00 -0.45593999997E+02  0.45594000000E+02  0.51100000000E-03 0. -1.
    9900012    2    1    2    0    0  0.27463889039E+02 -0.13277624049E+01 -0.33579680142E+02  0.47787273363E+02  0.20000010573E+02 0.  0.
        -12    1    1    2    0    0 -0.27463889039E+02  0.13277624049E+01  0.33579680142E+02  0.43400726637E+02  0.00000000000E+00 0.  1.
         11    1    3    3    0    0  0.62541111978E+01  0.54110966003E+01 -0.10059298319E+02  0.13022417449E+02  0.51100000000E-03 0. -1.
        -11    1    3    3    0    0  0.21276754269E+02 -0.45572333721E+01 -0.24136650012E+02  0.32496869423E+02  0.51100000000E-03 0.  1.
        -12    1    3    3    0    0 -0.66976428436E-01 -0.21816256331E+01  0.61626818835E+00  0.22679864914E+01  0.00000000000E+00 0.  1.
</event>
<event>
 7    1  0.2935819E-010  0.4778727E+02  0.7816164E-02  0.1312668E+00
        -11   -1    0    0    0    0  0.00000000000E+00  0.00000000000E+00  0.45593999997E+02  0.45594000000E+02  0.51100000000E-03 0.  1.
         11   -1    0    0    0    0 -0.00000000000E+00 -0.00000000000E+00 -0.45593999997E+02  0.45594000000E+02  0.51100000000E-03 0. -1.
    9900012    2    1    2    0    0 -0.17137418926E+02  0.10824235704E+02 -0.38376660047E+02  0.47787271407E+02  0.20000001654E+02 0.  0.
        -12    1    1    2    0    0  0.17137418926E+02 -0.10824235704E+02  0.38376660047E+02  0.43400728593E+02  0.00000000000E+00 0.  1.
         11    1    3    3    0    0 -0.79116632936E+01  0.32739672584E+00 -0.84333595165E+01  0.11568195956E+02  0.51100000000E-03 0. -1.
        -11    1    3    3    0    0  0.25322072996E+01  0.35419902006E+01 -0.16455055157E+02  0.17021357433E+02  0.51100000000E-03 0.  1.
        -12    1    3    3    0    0 -0.11757962932E+02  0.69548487780E+01 -0.13488245373E+02  0.19197718018E+02  0.00000000000E+00 0.  1.
</event>
<event>
 7    1  0.2935819E-010  0.4778727E+02  0.7816164E-02  0.1312668E+00
        -11   -1    0    0    0    0  0.00000000000E+00  0.00000000000E+00  0.45593999997E+02  0.45594000000E+02  0.51100000000E-03 0.  1.
         11   -1    0    0    0    0 -0.00000000000E+00 -0.00000000000E+00 -0.45593999997E+02  0.45594000000E+02  0.51100000000E-03 0. -1.
    9900012    2    1    2    0    0 -0.62697894578E+01 -0.26381394203E+02 -0.33887093757E+02  0.47787270246E+02  0.19999996358E+02 0.  0.
        -12    1    1    2    0    0  0.62697894578E+01  0.26381394203E+02  0.33887093757E+02  0.43400729754E+02  0.00000000000E+00 0.  1.
         11    1    3    3    0    0 -0.75069076813E+01 -0.79469281645E+01 -0.15202167766E+02  0.18724669162E+02  0.51100000000E-03 0. -1.
        -11    1    3    3    0    0  0.27082871578E+01 -0.39643002016E+01  0.67445152560E+00  0.48482347859E+01  0.51100000000E-03 0.  1.
         12    1    3    3    0    0 -0.14711689343E+01 -0.14470165837E+02 -0.19359377517E+02  0.24214366298E+02  0.00000000000E+00 0. -1.
</event>
<event>
 7    1  0.2935819E-010  0.4778727E+02  0.7816164E-02  0.1312668E+00
        -11   -1    0    0    0    0  0.00000000000E+00  0.00000000000E+00  0.45593999997E+02  0.45594000000E+02  0.51100000000E-03 0.  1.
         11   -1    0    0    0    0 -0.00000000000E+00 -0.00000000000E+00 -0.45593999997E+02  0.45594000000E+02  0.51100000000E-03 0. -1.
    9900012    2    1    2    0    0  0.17648709602E+02 -0.11416042843E+02 -0.37971309609E+02  0.47787270303E+02  0.19999996619E+02 0.  0.
        -12    1    1    2    0    0 -0.17648709602E+02  0.11416042843E+02  0.37971309609E+02  0.43400729697E+02  0.00000000000E+00 0.  1.
         11    1    3    3    0    0  0.18269298571E+02 -0.12365259014E+02 -0.23961167840E+02  0.32569993326E+02  0.51100000000E-03 0. -1.
        -11    1    3    3    0    0 -0.17293353355E+01  0.18803700071E+01 -0.23613422023E+01  0.34788402268E+01  0.51100000000E-03 0.  1.
         12    1    3    3    0    0  0.11087463663E+01 -0.93115383594E+00 -0.11648799567E+02  0.11738436750E+02  0.00000000000E+00 0. -1.
</event>
<event>
 7    1  0.2935819E-010  0.4778726E+02  0.7816164E-02  0.1312668E+00
        -11   -1    0    0    0    0  0.00000000000E+00  0.00000000000E+00  0.45593999997E+02  0.45594000000E+02  0.51100000000E-03 0.  1.
         11   -1    0    0    0    0 -0.00000000000E+00 -0.00000000000E+00 -0.45593999997E+02  0.45594000000E+02  0.51100000000E-03 0. -1.
    9900012    2    1    2    0    0 -0.33726029238E+02 -0.10967628129E+01 -0.27294251436E+02  0.47787261547E+02  0.19999956698E+02 0.  0.
        -12    1    1    2    0    0  0.33726029238E+02  0.10967628129E+01  0.27294251436E+02  0.43400738453E+02  0.00000000000E+00 0.  1.
         11    1    3    3    0    0 -0.19223579173E+02  0.25291998681E+01 -0.61877538400E+01  0.20352669261E+02  0.51100000000E-03 0.  1.
        -11    1    3    3    0    0 -0.13531992117E+02 -0.12320792886E+01 -0.20783781610E+02  0.24831399644E+02  0.51100000000E-03 0. -1.
         12    1    3    3    0    0 -0.97045794774E+00 -0.23938833924E+01 -0.32271598641E+00  0.26031926422E+01  0.00000000000E+00 0. -1.
</event>
<event>
 7    1  0.2935819E-010  0.4778727E+02  0.7816164E-02  0.1312668E+00
        -11   -1    0    0    0    0  0.00000000000E+00  0.00000000000E+00  0.45593999997E+02  0.45594000000E+02  0.51100000000E-03 0. -1.
         11   -1    0    0    0    0 -0.00000000000E+00 -0.00000000000E+00 -0.45593999997E+02  0.45594000000E+02  0.51100000000E-03 0.  1.
    9900012    2    1    2    0    0  0.24426364340E+02  0.29837733704E+02  0.19916968736E+02  0.47787271077E+02  0.20000000147E+02 0.  0.
        -12    1    1    2    0    0 -0.24426364340E+02 -0.29837733704E+02 -0.19916968736E+02  0.43400728923E+02  0.00000000000E+00 0.  1.
         11    1    3    3    0    0  0.88511106809E-01  0.49030934952E+01  0.73143722200E+01  0.88061456536E+01  0.51100000000E-03 0. -1.
        -11    1    3    3    0    0  0.12532656882E+02  0.19517339802E+02  0.43692348866E+01  0.23602632379E+02  0.51100000000E-03 0.  1.
        -12    1    3    3    0    0  0.11805196351E+02  0.54173004067E+01  0.82333616293E+01  0.15378493044E+02  0.00000000000E+00 0.  1.
</event>
<event>
 7    1  0.2935819E-010  0.4778727E+02  0.7816164E-02  0.1312668E+00
        -11   -1    0    0    0    0  0.00000000000E+00  0.00000000000E+00  0.45593999997E+02  0.45594000000E+02  0.51100000000E-03 0.  1.
         11   -1    0    0    0    0 -0.00000000000E+00 -0.00000000000E+00 -0.45593999997E+02  0.45594000000E+02  0.51100000000E-03 0. -1.
    9900012    2    1    2    0    0 -0.87404552092E+01 -0.34829759102E+02 -0.24374486698E+02  0.47787270995E+02  0.19999999775E+02 0.  0.
        -12    1    1    2    0    0  0.87404552092E+01  0.34829759102E+02  0.24374486698E+02  0.43400729005E+02  0.00000000000E+00 0.  1.
         11    1    3    3    0    0 -0.69680594414E+01 -0.25590042921E+02 -0.18439338341E+02  0.32301909353E+02  0.51100000000E-03 0. -1.
        -11    1    3    3    0    0 -0.35768580620E+01  0.89907097032E+00 -0.30631173490E+01  0.47942601473E+01  0.51100000000E-03 0.  1.
        -12    1    3    3    0    0  0.18044622942E+01 -0.10138787151E+02 -0.28720310072E+01  0.10691101495E+02  0.00000000000E+00 0.  1.
</event>
<event>
 7    1  0.2935819E-010  0.4778726E+02  0.7816164E-02  0.1312668E+00
        -11   -1    0    0    0    0  0.00000000000E+00  0.00000000000E+00  0.45593999997E+02  0.45594000000E+02  0.51100000000E-03 0. -1.
         11   -1    0    0    0    0 -0.00000000000E+00 -0.00000000000E+00 -0.45593999997E+02  0.45594000000E+02  0.51100000000E-03 0.  1.
    9900012    2    1    2    0    0  0.13201643434E+02 -0.14687375251E+02  0.38647403451E+02  0.47787260667E+02  0.19999952685E+02 0.  0.
        -12    1    1    2    0    0 -0.13201643434E+02  0.14687375251E+02 -0.38647403451E+02  0.43400739333E+02  0.00000000000E+00 0.  1.
         11    1    3    3    0    0  0.46537597831E+01 -0.16506107325E+02  0.28119075547E+02  0.32936172653E+02  0.51100000000E-03 0. -1.
        -11    1    3    3    0    0  0.39460642955E+01  0.35926841761E+01  0.69270419890E+01  0.87442960833E+01  0.51100000000E-03 0.  1.
         12    1    3    3    0    0  0.46018193557E+01 -0.17739521016E+01  0.36012859152E+01  0.61067919306E+01  0.00000000000E+00 0. -1.
</event>
<event>
 7    1  0.2935819E-010  0.4778727E+02  0.7816164E-02  0.1312668E+00
        -11   -1    0    0    0    0  0.00000000000E+00  0.00000000000E+00  0.45593999997E+02  0.45594000000E+02  0.51100000000E-03 0. -1.
         11   -1    0    0    0    0 -0.00000000000E+00 -0.00000000000E+00 -0.45593999997E+02  0.45594000000E+02  0.51100000000E-03 0.  1.
    9900012    2    1    2    0    0  0.11366621847E+02 -0.26297655273E+02  0.32601481627E+02  0.47787269944E+02  0.19999994984E+02 0.  0.
        -12    1    1    2    0    0 -0.11366621847E+02  0.26297655273E+02 -0.32601481627E+02  0.43400730056E+02  0.00000000000E+00 0.  1.
         11    1    3    3    0    0  0.88021809900E+01 -0.12128655028E+02  0.60843414556E+01  0.16174111233E+02  0.51100000000E-03 0. -1.
        -11    1    3    3    0    0  0.45382817318E+01 -0.29975580149E+01  0.55317437009E+01  0.77576764410E+01  0.51100000000E-03 0.  1.
         12    1    3    3    0    0 -0.19738408751E+01 -0.11171442231E+02  0.20985396471E+02  0.23855482270E+02  0.00000000000E+00 0. -1.
</event>
<event>
 7    1  0.2935819E-010  0.4778727E+02  0.7816164E-02  0.1312668E+00
        -11   -1    0    0    0    0  0.00000000000E+00  0.00000000000E+00  0.45593999997E+02  0.45594000000E+02  0.51100000000E-03 0.  1.
         11   -1    0    0    0    0 -0.00000000000E+00 -0.00000000000E+00 -0.45593999997E+02  0.45594000000E+02  0.51100000000E-03 0. -1.
    9900012    2    1    2    0    0 -0.12842128691E+02  0.21338330629E+02 -0.35544036377E+02  0.47787272526E+02  0.20000006753E+02 0.  0.
        -12    1    1    2    0    0  0.12842128691E+02 -0.21338330629E+02  0.35544036377E+02  0.43400727474E+02  0.00000000000E+00 0.  1.
         11    1    3    3    0    0 -0.27309834379E+01 -0.17060016241E+00  0.35440616500E+00  0.27591627252E+01  0.51100000000E-03 0. -1.
        -11    1    3    3    0    0  0.17607178812E+01  0.59136887762E+01 -0.15767084792E+02  0.16931414752E+02  0.51100000000E-03 0.  1.
         12    1    3    3    0    0 -0.11871863135E+02  0.15595242016E+02 -0.20131357750E+02  0.28096695049E+02  0.00000000000E+00 0. -1.
</event>
<event>
 7    1  0.3136127E-010  0.4778726E+02  0.7816164E-02  0.1312668E+00
        -11   -1    0    0    0    0  0.00000000000E+00  0.00000000000E+00  0.45593999997E+02  0.45594000000E+02  0.51100000000E-03 0. -1.
         11   -1    0    0    0    0 -0.00000000000E+00 -0.00000000000E+00 -0.45593999997E+02  0.45594000000E+02  0.51100000000E-03 0.  1.
    9900012    2    1    2    0    0 -0.31580476041E+02  0.29259038892E+02  0.54960143619E+01  0.47787262705E+02  0.19999961979E+02 0.  0.
        -12    1    1    2    0    0  0.31580476041E+02 -0.29259038892E+02 -0.54960143619E+01  0.43400737295E+02  0.00000000000E+00 0.  1.
         11    1    3    3    0    0 -0.11897927080E+02  0.10349895623E+02  0.18224327145E+01  0.15874579348E+02  0.51100000000E-03 0. -1.
        -11    1    3    3    0    0 -0.12469278912E+02  0.12094932025E+02  0.10096398685E+02  0.20092475306E+02  0.51100000000E-03 0.  1.
        -12    1    3    3    0    0 -0.72132700488E+01  0.68142112445E+01 -0.64228170374E+01  0.11820208051E+02  0.00000000000E+00 0.  1.
</event>
<event>
 7    1  0.2935819E-010  0.4778727E+02  0.7816164E-02  0.1312668E+00
        -11   -1    0    0    0    0  0.00000000000E+00  0.00000000000E+00  0.45593999997E+02  0.45594000000E+02  0.51100000000E-03 0.  1.
         11   -1    0    0    0    0 -0.00000000000E+00 -0.00000000000E+00 -0.45593999997E+02  0.45594000000E+02  0.51100000000E-03 0. -1.
    9900012    2    1    2    0    0  0.40688115465E+02  0.15097855354E+02  0.39425316632E+00  0.47787269454E+02  0.19999992749E+02 0.  0.
        -12    1    1    2    0    0 -0.40688115465E+02 -0.15097855354E+02 -0.39425316632E+00  0.43400730546E+02  0.00000000000E+00 0.  1.
         11    1    3    3    0    0  0.16103125592E+02  0.12575889825E+01 -0.44793737017E+01  0.16761771175E+02  0.51100000000E-03 0. -1.
        -11    1    3    3    0    0  0.67848190454E+01  0.10534866091E+02  0.17124677323E+01  0.12647122955E+02  0.51100000000E-03 0.  1.
        -12    1    3    3    0    0  0.17800170827E+02  0.33054002799E+01  0.31611591357E+01  0.18378375324E+02  0.00000000000E+00 0.  1.
</event>
<event>
 7    1  0.2935819E-010  0.4778728E+02  0.7816164E-02  0.1312668E+00
        -11   -1    0    0    0    0  0.00000000000E+00  0.00000000000E+00  0.45593999997E+02  0.45594000000E+02  0.51100000000E-03 0.  1.
         11   -1    0    0    0    0 -0.00000000000E+00 -0.00000000000E+00 -0.45593999997E+02  0.45594000000E+02  0.51100000000E-03 0. -1.
    9900012    2    1    2    0    0  0.12814020027E+02  0.34600259843E+02 -0.22852697906E+02  0.47787275443E+02  0.20000020057E+02 0.  0.
        -12    1    1    2    0    0 -0.12814020027E+02 -0.34600259843E+02  0.22852697906E+02  0.43400724557E+02  0.00000000000E+00 0.  1.
         11    1    3    3    0    0  0.73226210328E+01  0.17596298659E+02 -0.16826085977E+02  0.25423762012E+02  0.51100000000E-03 0. -1.
        -11    1    3    3    0    0 -0.32215806003E+01  0.53140022905E+01  0.79833454745E+00  0.62653443815E+01  0.51100000000E-03 0.  1.
        -12    1    3    3    0    0  0.87129795941E+01  0.11689958894E+02 -0.68249464761E+01  0.16098169050E+02  0.00000000000E+00 0.  1.
</event>
<event>
 7    1  0.2935819E-010  0.4778727E+02  0.7816164E-02  0.1312668E+00
        -11   -1    0    0    0    0  0.00000000000E+00  0.00000000000E+00  0.45593999997E+02  0.45594000000E+02  0.51100000000E-03 0. -1.
         11   -1    0    0    0    0 -0.00000000000E+00 -0.00000000000E+00 -0.45593999997E+02  0.45594000000E+02  0.51100000000E-03 0.  1.
    9900012    2    1    2    0    0 -0.96071602239E+01 -0.26216295004E+01  0.42242784393E+02  0.47787270720E+02  0.19999998520E+02 0.  0.
        -12    1    1    2    0    0  0.96071602239E+01  0.26216295004E+01 -0.42242784393E+02  0.43400729280E+02  0.00000000000E+00 0.  1.
         11    1    3    3    0    0 -0.81089255667E+01 -0.73733127885E+01  0.11771061129E+02  0.16083478967E+02  0.51100000000E-03 0. -1.
        -11    1    3    3    0    0  0.79479984543E+00  0.30673174455E+01  0.27132187678E+02  0.27316583820E+02  0.51100000000E-03 0.  1.
        -12    1    3    3    0    0 -0.22930345026E+01  0.16843658427E+01  0.33395355860E+01  0.43872079335E+01  0.00000000000E+00 0.  1.
</event>
<event>
 7    1  0.2935819E-010  0.4778727E+02  0.7816164E-02  0.1312668E+00
        -11   -1    0    0    0    0  0.00000000000E+00  0.00000000000E+00  0.45593999997E+02  0.45594000000E+02  0.51100000000E-03 0.  1.
         11   -1    0    0    0    0 -0.00000000000E+00 -0.00000000000E+00 -0.45593999997E+02  0.45594000000E+02  0.51100000000E-03 0. -1.
    9900012    2    1    2    0    0 -0.36771465901E+02 -0.40314406814E+01 -0.22698678377E+02  0.47787271682E+02  0.20000002905E+02 0.  0.
        -12    1    1    2    0    0  0.36771465901E+02  0.40314406814E+01  0.22698678377E+02  0.43400728318E+02  0.00000000000E+00 0.  1.
         11    1    3    3    0    0 -0.27421530257E+02  0.53187094527E+01 -0.18983270300E+02  0.33772674508E+02  0.51100000000E-03 0. -1.
        -11    1    3    3    0    0 -0.19112444867E+01 -0.35719776854E+01 -0.16332945719E+01  0.43680123045E+01  0.51100000000E-03 0.  1.
         12    1    3    3    0    0 -0.74386911577E+01 -0.57781724487E+01 -0.20821135045E+01  0.96465848689E+01  0.00000000000E+00 0. -1.
</event>
<event>
 7    1  0.2935819E-010  0.4778727E+02  0.7816164E-02  0.1312668E+00
        -11   -1    0    0    0    0  0.00000000000E+00  0.00000000000E+00  0.45593999997E+02  0.45594000000E+02  0.51100000000E-03 0. -1.
         11   -1    0    0    0    0 -0.00000000000E+00 -0.00000000000E+00 -0.45593999997E+02  0.45594000000E+02  0.51100000000E-03 0.  1.
    9900012    2    1    2    0    0 -0.21154406963E+01 -0.42802142812E+02  0.68647513229E+01  0.47787270405E+02  0.19999997087E+02 0.  0.
        -12    1    1    2    0    0  0.21154406963E+01  0.42802142812E+02 -0.68647513229E+01  0.43400729595E+02  0.00000000000E+00 0.  1.
         11    1    3    3    0    0  0.56163811988E+01 -0.17198880318E+02  0.30929142196E+01  0.18355144799E+02  0.51100000000E-03 0. -1.
        -11    1    3    3    0    0 -0.49413990532E+01 -0.67026880429E+01 -0.34413774706E+01  0.90103568609E+01  0.51100000000E-03 0.  1.
        -12    1    3    3    0    0 -0.27904228419E+01 -0.18900574450E+02  0.72132145739E+01  0.20421768745E+02  0.00000000000E+00 0.  1.
</event>
<event>
 7    1  0.2935819E-010  0.4778727E+02  0.7816164E-02  0.1312668E+00
        -11   -1    0    0    0    0  0.00000000000E+00  0.00000000000E+00  0.45593999997E+02  0.45594000000E+02  0.51100000000E-03 0.  1.
         11   -1    0    0    0    0 -0.00000000000E+00 -0.00000000000E+00 -0.45593999997E+02  0.45594000000E+02  0.51100000000E-03 0. -1.
    9900012    2    1    2    0    0  0.31745337899E+02 -0.28419800184E+02 -0.82566152956E+01  0.47787271700E+02  0.20000002989E+02 0.  0.
        -12    1    1    2    0    0 -0.31745337899E+02  0.28419800184E+02  0.82566152956E+01  0.43400728300E+02  0.00000000000E+00 0.  1.
         11    1    3    3    0    0  0.28888350160E+02 -0.13766530465E+02 -0.48799450777E+01  0.32370789306E+02  0.51100000000E-03 0. -1.
        -11    1    3    3    0    0  0.21699996791E+01 -0.67367293468E+01 -0.19699005314E+01  0.73466270672E+01  0.51100000000E-03 0.  1.
         12    1    3    3    0    0  0.68698805962E+00 -0.79165403719E+01 -0.14067696865E+01  0.80698553274E+01  0.00000000000E+00 0. -1.
</event>
<event>
 7    1  0.2935819E-010  0.4778727E+02  0.7816164E-02  0.1312668E+00
        -11   -1    0    0    0    0  0.00000000000E+00  0.00000000000E+00  0.45593999997E+02  0.45594000000E+02  0.51100000000E-03 0.  1.
         11   -1    0    0    0    0 -0.00000000000E+00 -0.00000000000E+00 -0.45593999997E+02  0.45594000000E+02  0.51100000000E-03 0. -1.
    9900012    2    1    2    0    0  0.34173218717E+02  0.61219677677E+01 -0.26044885698E+02  0.47787269155E+02  0.19999991386E+02 0.  0.
        -12    1    1    2    0    0 -0.34173218717E+02 -0.61219677677E+01  0.26044885698E+02  0.43400730845E+02  0.00000000000E+00 0.  1.
         11    1    3    3    0    0  0.11093283606E+02 -0.15893682925E+01 -0.18130113845E+02  0.21314034367E+02  0.51100000000E-03 0. -1.
        -11    1    3    3    0    0  0.11305664635E+02  0.71736385277E+01 -0.31164376269E+01  0.13747411622E+02  0.51100000000E-03 0.  1.
         12    1    3    3    0    0  0.11774270476E+02  0.53769753253E+00 -0.47983342262E+01  0.12725823165E+02  0.00000000000E+00 0. -1.
</event>
<event>
 7    1  0.2935819E-010  0.4778727E+02  0.7816164E-02  0.1312668E+00
        -11   -1    0    0    0    0  0.00000000000E+00  0.00000000000E+00  0.45593999997E+02  0.45594000000E+02  0.51100000000E-03 0.  1.
         11   -1    0    0    0    0 -0.00000000000E+00 -0.00000000000E+00 -0.45593999997E+02  0.45594000000E+02  0.51100000000E-03 0. -1.
    9900012    2    1    2    0    0 -0.34184214429E+02 -0.60066785394E+01 -0.26057299336E+02  0.47787267841E+02  0.19999985396E+02 0.  0.
        -12    1    1    2    0    0  0.34184214429E+02  0.60066785394E+01  0.26057299336E+02  0.43400732159E+02  0.00000000000E+00 0.  1.
         11    1    3    3    0    0 -0.21235209241E+02 -0.38147581643E+00 -0.20865580595E+02  0.29773345279E+02  0.51100000000E-03 0. -1.
        -11    1    3    3    0    0 -0.34811644286E+00 -0.45762767262E+01 -0.10461754396E+01  0.47072260455E+01  0.51100000000E-03 0.  1.
         12    1    3    3    0    0 -0.12600888745E+02 -0.10489259968E+01 -0.41455433015E+01  0.13306696516E+02  0.00000000000E+00 0. -1.
</event>
<event>
 7    1  0.2935819E-010  0.4778727E+02  0.7816164E-02  0.1312668E+00
        -11   -1    0    0    0    0  0.00000000000E+00  0.00000000000E+00  0.45593999997E+02  0.45594000000E+02  0.51100000000E-03 0.  1.
         11   -1    0    0    0    0 -0.00000000000E+00 -0.00000000000E+00 -0.45593999997E+02  0.45594000000E+02  0.51100000000E-03 0. -1.
    9900012    2    1    2    0    0 -0.39397891966E+02 -0.18098938031E+02  0.19641828275E+01  0.47787268862E+02  0.19999990048E+02 0.  0.
        -12    1    1    2    0    0  0.39397891966E+02  0.18098938031E+02 -0.19641828275E+01  0.43400731138E+02  0.00000000000E+00 0.  1.
         11    1    3    3    0    0 -0.23315212739E+02 -0.14155260037E+02  0.79911319823E+01  0.28422327885E+02  0.51100000000E-03 0. -1.
        -11    1    3    3    0    0 -0.23244076401E+00 -0.15311182175E+01  0.10172852214E+01  0.18528953525E+01  0.51100000000E-03 0.  1.
         12    1    3    3    0    0 -0.15850238462E+02 -0.24125597762E+01 -0.70442343762E+01  0.17512045624E+02  0.00000000000E+00 0. -1.
</event>
<event>
 7    1  0.2935819E-010  0.4778727E+02  0.7816164E-02  0.1312668E+00
        -11   -1    0    0    0    0  0.00000000000E+00  0.00000000000E+00  0.45593999997E+02  0.45594000000E+02  0.51100000000E-03 0.  1.
         11   -1    0    0    0    0 -0.00000000000E+00 -0.00000000000E+00 -0.45593999997E+02  0.45594000000E+02  0.51100000000E-03 0. -1.
    9900012    2    1    2    0    0  0.24747566747E+02 -0.35554641258E+02  0.26549104288E+01  0.47787272768E+02  0.20000007858E+02 0.  0.
        -12    1    1    2    0    0 -0.24747566747E+02  0.35554641258E+02 -0.26549104288E+01  0.43400727232E+02  0.00000000000E+00 0.  1.
         11    1    3    3    0    0  0.10478053717E+02 -0.13202071121E+02 -0.71385505595E+01  0.18304185203E+02  0.51100000000E-03 0. -1.
        -11    1    3    3    0    0 -0.23386653994E+00  0.38285980505E+00 -0.45017720242E+00  0.63555878055E+00  0.51100000000E-03 0.  1.
         12    1    3    3    0    0  0.14503379570E+02 -0.22735429942E+02  0.10243638191E+02  0.28847528785E+02  0.00000000000E+00 0. -1.
</event>
<event>
 7    1  0.2935819E-010  0.4778731E+02  0.7816164E-02  0.1312668E+00
        -11   -1    0    0    0    0  0.00000000000E+00  0.00000000000E+00  0.45593999997E+02  0.45594000000E+02  0.51100000000E-03 0.  1.
         11   -1    0    0    0    0 -0.00000000000E+00 -0.00000000000E+00 -0.45593999997E+02  0.45594000000E+02  0.51100000000E-03 0. -1.
    9900012    2    1    2    0    0 -0.12565210359E+02 -0.40367601749E+02 -0.98077595674E+01  0.47787309567E+02  0.20000175639E+02 0.  0.
        -12    1    1    2    0    0  0.12565210359E+02  0.40367601749E+02  0.98077595674E+01  0.43400690433E+02  0.00000000000E+00 0.  1.
         11    1    3    3    0    0  0.46113461468E+00  0.26640566191E+00 -0.59481132102E+00  0.79838454286E+00  0.51100000000E-03 0. -1.
        -11    1    3    3    0    0  0.30462252902E+00 -0.25701440127E+02 -0.22768612558E+01  0.25803893446E+02  0.51100000000E-03 0.  1.
        -12    1    3    3    0    0 -0.13330967503E+02 -0.14932567283E+02 -0.69360869907E+01  0.21185031579E+02  0.00000000000E+00 0.  1.
</event>
<event>
 7    1  0.2935819E-010  0.4778727E+02  0.7816164E-02  0.1312668E+00
        -11   -1    0    0    0    0  0.00000000000E+00  0.00000000000E+00  0.45593999997E+02  0.45594000000E+02  0.51100000000E-03 0. -1.
         11   -1    0    0    0    0 -0.00000000000E+00 -0.00000000000E+00 -0.45593999997E+02  0.45594000000E+02  0.51100000000E-03 0.  1.
    9900012    2    1    2    0    0  0.37988369682E+02  0.20701603658E+02 -0.34569781933E+01  0.47787270475E+02  0.19999997404E+02 0.  0.
        -12    1    1    2    0    0 -0.37988369682E+02 -0.20701603658E+02  0.34569781933E+01  0.43400729525E+02  0.00000000000E+00 0.  1.
         11    1    3    3    0    0  0.18308264748E+02  0.22689248671E+01  0.44406185519E+01  0.18975238378E+02  0.51100000000E-03 0. -1.
        -11    1    3    3    0    0  0.17623144815E+02  0.13911094084E+02 -0.48046883971E+01  0.22960374619E+02  0.51100000000E-03 0.  1.
         12    1    3    3    0    0  0.20569601192E+01  0.45215847067E+01 -0.30929083481E+01  0.58516574782E+01  0.00000000000E+00 0. -1.
</event>
<event>
 7    1  0.2935819E-010  0.4778727E+02  0.7816164E-02  0.1312668E+00
        -11   -1    0    0    0    0  0.00000000000E+00  0.00000000000E+00  0.45593999997E+02  0.45594000000E+02  0.51100000000E-03 0.  1.
         11   -1    0    0    0    0 -0.00000000000E+00 -0.00000000000E+00 -0.45593999997E+02  0.45594000000E+02  0.51100000000E-03 0. -1.
    9900012    2    1    2    0    0 -0.78259732803E+01  0.89671361600E+01 -0.41736884717E+02  0.47787274953E+02  0.20000017822E+02 0.  0.
        -12    1    1    2    0    0  0.78259732803E+01 -0.89671361600E+01  0.41736884717E+02  0.43400725047E+02  0.00000000000E+00 0.  1.
         11    1    3    3    0    0 -0.55316283106E+01  0.89672706190E+01 -0.31376096694E+02  0.33097889633E+02  0.51100000000E-03 0. -1.
        -11    1    3    3    0    0 -0.43028401695E+01 -0.86733686742E+00 -0.30676071572E+00  0.44000919495E+01  0.51100000000E-03 0.  1.
        -12    1    3    3    0    0  0.20084951998E+01  0.86720240844E+00 -0.10054027307E+02  0.10289293371E+02  0.00000000000E+00 0.  1.
</event>
<event>
 7    1  0.2935819E-010  0.4778727E+02  0.7816164E-02  0.1312668E+00
        -11   -1    0    0    0    0  0.00000000000E+00  0.00000000000E+00  0.45593999997E+02  0.45594000000E+02  0.51100000000E-03 0.  1.
         11   -1    0    0    0    0 -0.00000000000E+00 -0.00000000000E+00 -0.45593999997E+02  0.45594000000E+02  0.51100000000E-03 0. -1.
    9900012    2    1    2    0    0  0.11966293593E+02 -0.33284149592E+02 -0.25151470514E+02  0.47787271142E+02  0.20000000443E+02 0.  0.
        -12    1    1    2    0    0 -0.11966293593E+02  0.33284149592E+02  0.25151470514E+02  0.43400728858E+02  0.00000000000E+00 0.  1.
         11    1    3    3    0    0 -0.42806527421E+01 -0.12678839688E+02 -0.13300769833E+02  0.18867629479E+02  0.51100000000E-03 0. -1.
        -11    1    3    3    0    0  0.91599321373E+01 -0.13639717201E+02 -0.69442094613E+01  0.17837272420E+02  0.51100000000E-03 0.  1.
         12    1    3    3    0    0  0.70870141977E+01 -0.69655927030E+01 -0.49064912193E+01  0.11082369243E+02  0.00000000000E+00 0. -1.
</event>
<event>
 7    1  0.2935819E-010  0.4778727E+02  0.7816164E-02  0.1312668E+00
        -11   -1    0    0    0    0  0.00000000000E+00  0.00000000000E+00  0.45593999997E+02  0.45594000000E+02  0.51100000000E-03 0. -1.
         11   -1    0    0    0    0 -0.00000000000E+00 -0.00000000000E+00 -0.45593999997E+02  0.45594000000E+02  0.51100000000E-03 0.  1.
    9900012    2    1    2    0    0  0.84979212092E+01  0.23651069746E+02  0.35384112614E+02  0.47787272006E+02  0.20000004382E+02 0.  0.
        -12    1    1    2    0    0 -0.84979212092E+01 -0.23651069746E+02 -0.35384112614E+02  0.43400727994E+02  0.00000000000E+00 0.  1.
         11    1    3    3    0    0  0.30412152918E+01  0.22211445739E+02  0.20230746703E+02  0.30197357909E+02  0.51100000000E-03 0. -1.
        -11    1    3    3    0    0  0.22123901831E+00  0.48542418039E+00  0.10520838286E+02  0.10534354363E+02  0.51100000000E-03 0.  1.
         12    1    3    3    0    0  0.52354668991E+01  0.95419982582E+00  0.46325276252E+01  0.70555597338E+01  0.00000000000E+00 0. -1.
</event>
<event>
 7    1  0.2935819E-010  0.4778727E+02  0.7816164E-02  0.1312668E+00
        -11   -1    0    0    0    0  0.00000000000E+00  0.00000000000E+00  0.45593999997E+02  0.45594000000E+02  0.51100000000E-03 0.  1.
         11   -1    0    0    0    0 -0.00000000000E+00 -0.00000000000E+00 -0.45593999997E+02  0.45594000000E+02  0.51100000000E-03 0. -1.
    9900012    2    1    2    0    0 -0.19333675652E+02 -0.11062219699E+02 -0.37248622628E+02  0.47787267212E+02  0.19999982525E+02 0.  0.
        -12    1    1    2    0    0  0.19333675652E+02  0.11062219699E+02  0.37248622628E+02  0.43400732788E+02  0.00000000000E+00 0.  1.
         11    1    3    3    0    0 -0.14839754680E+02 -0.94517492178E+01 -0.12939466650E+02  0.21839956037E+02  0.51100000000E-03 0. -1.
        -11    1    3    3    0    0 -0.22915463468E+01  0.30334900830E+01 -0.12569128394E+02  0.13131497842E+02  0.51100000000E-03 0.  1.
         12    1    3    3    0    0 -0.22023746257E+01 -0.46439605641E+01 -0.11740027584E+02  0.12815813333E+02  0.00000000000E+00 0. -1.
</event>
<event>
 7    1  0.2935819E-010  0.4778726E+02  0.7816164E-02  0.1312668E+00
        -11   -1    0    0    0    0  0.00000000000E+00  0.00000000000E+00  0.45593999997E+02  0.45594000000E+02  0.51100000000E-03 0.  1.
         11   -1    0    0    0    0 -0.00000000000E+00 -0.00000000000E+00 -0.45593999997E+02  0.45594000000E+02  0.51100000000E-03 0. -1.
    9900012    2    1    2    0    0 -0.33280226225E+02  0.20323515176E+01 -0.27783449395E+02  0.47787263018E+02  0.19999963406E+02 0.  0.
        -12    1    1    2    0    0  0.33280226225E+02 -0.20323515176E+01  0.27783449395E+02  0.43400736982E+02  0.00000000000E+00 0.  1.
         11    1    3    3    0    0 -0.23779622051E+02  0.40486385446E+01 -0.91136452362E+01  0.25786051049E+02  0.51100000000E-03 0. -1.
        -11    1    3    3    0    0 -0.91469991337E+01 -0.37320796313E+01 -0.16160049670E+02  0.18940517869E+02  0.51100000000E-03 0.  1.
        -12    1    3    3    0    0 -0.35360503979E+00  0.17157926043E+01 -0.25097544885E+01  0.30606941006E+01  0.00000000000E+00 0.  1.
</event>
<event>
 7    1  0.2935819E-010  0.4778728E+02  0.7816164E-02  0.1312668E+00
        -11   -1    0    0    0    0  0.00000000000E+00  0.00000000000E+00  0.45593999997E+02  0.45594000000E+02  0.51100000000E-03 0.  1.
         11   -1    0    0    0    0 -0.00000000000E+00 -0.00000000000E+00 -0.45593999997E+02  0.45594000000E+02  0.51100000000E-03 0. -1.
    9900012    2    1    2    0    0 -0.38670988398E+02 -0.12727530304E+02 -0.15039521382E+02  0.47787279099E+02  0.20000036724E+02 0.  0.
        -12    1    1    2    0    0  0.38670988398E+02  0.12727530304E+02  0.15039521382E+02  0.43400720901E+02  0.00000000000E+00 0.  1.
         11    1    3    3    0    0 -0.17297151633E+02 -0.26498746621E+01  0.11750534622E+01  0.17538359138E+02  0.51100000000E-03 0. -1.
        -11    1    3    3    0    0 -0.36437991410E+01 -0.25363642089E+01 -0.83133301313E+01  0.94245357293E+01  0.51100000000E-03 0.  1.
         12    1    3    3    0    0 -0.17730037624E+02 -0.75412914331E+01 -0.79012447127E+01  0.20824384232E+02  0.00000000000E+00 0. -1.
</event>
<event>
 7    1  0.2935819E-010  0.4778727E+02  0.7816164E-02  0.1312668E+00
        -11   -1    0    0    0    0  0.00000000000E+00  0.00000000000E+00  0.45593999997E+02  0.45594000000E+02  0.51100000000E-03 0. -1.
         11   -1    0    0    0    0 -0.00000000000E+00 -0.00000000000E+00 -0.45593999997E+02  0.45594000000E+02  0.51100000000E-03 0.  1.
    9900012    2    1    2    0    0  0.32039263758E+01  0.41793775038E+02  0.11253386934E+02  0.47787268512E+02  0.19999988455E+02 0.  0.
        -12    1    1    2    0    0 -0.32039263758E+01 -0.41793775038E+02 -0.11253386934E+02  0.43400731488E+02  0.00000000000E+00 0.  1.
         11    1    3    3    0    0  0.20107154743E+01  0.25179917201E+02 -0.25265010278E+01  0.25386106726E+02  0.51100000000E-03 0. -1.
        -11    1    3    3    0    0  0.13435874804E+01  0.60020614173E+01  0.86492877788E+01  0.10613206298E+02  0.51100000000E-03 0.  1.
         12    1    3    3    0    0 -0.15037657882E+00  0.10611796420E+02  0.51306001831E+01  0.11787955489E+02  0.00000000000E+00 0. -1.
</event>
<event>
 7    1  0.2935819E-010  0.4778727E+02  0.7816164E-02  0.1312668E+00
        -11   -1    0    0    0    0  0.00000000000E+00  0.00000000000E+00  0.45593999997E+02  0.45594000000E+02  0.51100000000E-03 0. -1.
         11   -1    0    0    0    0 -0.00000000000E+00 -0.00000000000E+00 -0.45593999997E+02  0.45594000000E+02  0.51100000000E-03 0.  1.
    9900012    2    1    2    0    0  0.13353611340E+02  0.31517803805E+02  0.26682063620E+02  0.47787269458E+02  0.19999992768E+02 0.  0.
        -12    1    1    2    0    0 -0.13353611340E+02 -0.31517803805E+02 -0.26682063620E+02  0.43400730542E+02  0.00000000000E+00 0.  1.
         11    1    3    3    0    0  0.12052862161E+01 -0.21750315536E+01 -0.90034898668E-01  0.24882893051E+01  0.51100000000E-03 0. -1.
        -11    1    3    3    0    0  0.37849711490E+01  0.16126597109E+02  0.16140370541E+02  0.23128006883E+02  0.51100000000E-03 0.  1.
         12    1    3    3    0    0  0.83633539752E+01  0.17566238250E+02  0.10631727978E+02  0.22170973270E+02  0.00000000000E+00 0. -1.
</event>
<event>
 7    1  0.2935819E-010  0.4778727E+02  0.7816164E-02  0.1312668E+00
        -11   -1    0    0    0    0  0.00000000000E+00  0.00000000000E+00  0.45593999997E+02  0.45594000000E+02  0.51100000000E-03 0.  1.
         11   -1    0    0    0    0 -0.00000000000E+00 -0.00000000000E+00 -0.45593999997E+02  0.45594000000E+02  0.51100000000E-03 0. -1.
    9900012    2    1    2    0    0 -0.16187216877E+02 -0.30904101724E+02 -0.25817316336E+02  0.47787270555E+02  0.19999997769E+02 0.  0.
        -12    1    1    2    0    0  0.16187216877E+02  0.30904101724E+02  0.25817316336E+02  0.43400729445E+02  0.00000000000E+00 0.  1.
         11    1    3    3    0    0 -0.21745431577E+01 -0.19215929750E+02 -0.16444201177E+02  0.25384884217E+02  0.51100000000E-03 0. -1.
        -11    1    3    3    0    0 -0.32302920097E+01 -0.40465663419E+01  0.13869123739E+01  0.53603182575E+01  0.51100000000E-03 0.  1.
         12    1    3    3    0    0 -0.10782381709E+02 -0.76416056321E+01 -0.10760027533E+02  0.17042068081E+02  0.00000000000E+00 0. -1.
</event>
<event>
 7    1  0.2935819E-010  0.4778727E+02  0.7816164E-02  0.1312668E+00
        -11   -1    0    0    0    0  0.00000000000E+00  0.00000000000E+00  0.45593999997E+02  0.45594000000E+02  0.51100000000E-03 0. -1.
         11   -1    0    0    0    0 -0.00000000000E+00 -0.00000000000E+00 -0.45593999997E+02  0.45594000000E+02  0.51100000000E-03 0.  1.
    9900012    2    1    2    0    0 -0.19361155322E+02  0.23343396055E+02  0.31046013996E+02  0.47787268902E+02  0.19999990234E+02 0.  0.
        -12    1    1    2    0    0  0.19361155322E+02 -0.23343396055E+02 -0.31046013996E+02  0.43400731098E+02  0.00000000000E+00 0.  1.
         11    1    3    3    0    0 -0.59204884645E+01  0.15894754551E+02  0.15116624674E+02  0.22720205714E+02  0.51100000000E-03 0. -1.
        -11    1    3    3    0    0 -0.31481339310E+01 -0.21415283494E+01 -0.99270547366E-02  0.38074912641E+01  0.51100000000E-03 0.  1.
         12    1    3    3    0    0 -0.10292532927E+02  0.95901698533E+01  0.15939316376E+02  0.21259571924E+02  0.00000000000E+00 0. -1.
</event>
<event>
 7    1  0.2935819E-010  0.4778727E+02  0.7816164E-02  0.1312668E+00
        -11   -1    0    0    0    0  0.00000000000E+00  0.00000000000E+00  0.45593999997E+02  0.45594000000E+02  0.51100000000E-03 0. -1.
         11   -1    0    0    0    0 -0.00000000000E+00 -0.00000000000E+00 -0.45593999997E+02  0.45594000000E+02  0.51100000000E-03 0.  1.
    9900012    2    1    2    0    0  0.15291190054E+02  0.19662908038E+02  0.35541142807E+02  0.47787270999E+02  0.19999999792E+02 0.  0.
        -12    1    1    2    0    0 -0.15291190054E+02 -0.19662908038E+02 -0.35541142807E+02  0.43400729001E+02  0.00000000000E+00 0.  1.
         11    1    3    3    0    0  0.25936428023E+01  0.61634505093E+01  0.70401976458E+01  0.97097625264E+01  0.51100000000E-03 0. -1.
        -11    1    3    3    0    0  0.87474185622E+01  0.10003833199E+02  0.29814238001E+02  0.32641733993E+02  0.51100000000E-03 0.  1.
        -12    1    3    3    0    0  0.39501286890E+01  0.34956243296E+01 -0.13132928398E+01  0.54357744799E+01  0.00000000000E+00 0.  1.
</event>
<event>
 7    1  0.2935819E-010  0.4778727E+02  0.7816164E-02  0.1312668E+00
        -11   -1    0    0    0    0  0.00000000000E+00  0.00000000000E+00  0.45593999997E+02  0.45594000000E+02  0.51100000000E-03 0.  1.
         11   -1    0    0    0    0 -0.00000000000E+00 -0.00000000000E+00 -0.45593999997E+02  0.45594000000E+02  0.51100000000E-03 0. -1.
    9900012    2    1    2    0    0  0.35180915035E+02  0.42895257615E+01 -0.25050479432E+02  0.47787270355E+02  0.19999996856E+02 0.  0.
        -12    1    1    2    0    0 -0.35180915035E+02 -0.42895257615E+01  0.25050479432E+02  0.43400729645E+02  0.00000000000E+00 0.  1.
         11    1    3    3    0    0  0.16131849519E+02 -0.53030789836E+01 -0.11882691434E+02  0.20725770711E+02  0.51100000000E-03 0. -1.
        -11    1    3    3    0    0  0.99736944185E+01  0.63761124145E-01 -0.84825816747E+01  0.13093236344E+02  0.51100000000E-03 0.  1.
         12    1    3    3    0    0  0.90753710975E+01  0.95288436210E+01 -0.46852063234E+01  0.13968263299E+02  0.00000000000E+00 0. -1.
</event>
<event>
 7    1  0.2935819E-010  0.4778727E+02  0.7816164E-02  0.1312668E+00
        -11   -1    0    0    0    0  0.00000000000E+00  0.00000000000E+00  0.45593999997E+02  0.45594000000E+02  0.51100000000E-03 0. -1.
         11   -1    0    0    0    0 -0.00000000000E+00 -0.00000000000E+00 -0.45593999997E+02  0.45594000000E+02  0.51100000000E-03 0.  1.
    9900012    2    1    2    0    0 -0.28635766436E+02  0.16288553183E+02  0.28254193562E+02  0.47787268001E+02  0.19999986125E+02 0.  0.
        -12    1    1    2    0    0  0.28635766436E+02 -0.16288553183E+02 -0.28254193562E+02  0.43400731999E+02  0.00000000000E+00 0.  1.
         11    1    3    3    0    0 -0.25589959470E+01  0.28442419055E+01  0.44213277553E+01  0.58469061609E+01  0.51100000000E-03 0. -1.
        -11    1    3    3    0    0 -0.24907599671E+02  0.16356130263E+02  0.16724977847E+02  0.34170695088E+02  0.51100000000E-03 0.  1.
        -12    1    3    3    0    0 -0.11691708186E+01 -0.29118189848E+01  0.71078879594E+01  0.77696667526E+01  0.00000000000E+00 0.  1.
</event>
<event>
 7    1  0.2935819E-010  0.4778727E+02  0.7816164E-02  0.1312668E+00
        -11   -1    0    0    0    0  0.00000000000E+00  0.00000000000E+00  0.45593999997E+02  0.45594000000E+02  0.51100000000E-03 0. -1.
         11   -1    0    0    0    0 -0.00000000000E+00 -0.00000000000E+00 -0.45593999997E+02  0.45594000000E+02  0.51100000000E-03 0.  1.
    9900012    2    1    2    0    0 -0.38526703055E+01 -0.25703433973E+02  0.34757933699E+02  0.47787267961E+02  0.19999985943E+02 0.  0.
        -12    1    1    2    0    0  0.38526703055E+01  0.25703433973E+02 -0.34757933699E+02  0.43400732039E+02  0.00000000000E+00 0.  1.
         11    1    3    3    0    0 -0.31113900297E+01 -0.69990184138E+01 -0.70770577804E-01  0.76597660153E+01  0.51100000000E-03 0. -1.
        -11    1    3    3    0    0 -0.13810556603E+01 -0.42214059331E+00  0.13502602504E+01  0.19770484117E+01  0.51100000000E-03 0.  1.
         12    1    3    3    0    0  0.63977538445E+00 -0.18282274966E+02  0.33478444026E+02  0.38150453534E+02  0.00000000000E+00 0. -1.
</event>
<event>
 7    1  0.2935819E-010  0.4778727E+02  0.7816164E-02  0.1312668E+00
        -11   -1    0    0    0    0  0.00000000000E+00  0.00000000000E+00  0.45593999997E+02  0.45594000000E+02  0.51100000000E-03 0. -1.
         11   -1    0    0    0    0 -0.00000000000E+00 -0.00000000000E+00 -0.45593999997E+02  0.45594000000E+02  0.51100000000E-03 0.  1.
    9900012    2    1    2    0    0 -0.40455168615E+02 -0.14797368704E+02  0.52953266847E+01  0.47787271055E+02  0.20000000050E+02 0.  0.
        -12    1    1    2    0    0  0.40455168615E+02  0.14797368704E+02 -0.52953266847E+01  0.43400728945E+02  0.00000000000E+00 0.  1.
         11    1    3    3    0    0 -0.30713279714E+01 -0.12166530994E+01  0.23500874302E+01  0.40541597727E+01  0.51100000000E-03 0. -1.
        -11    1    3    3    0    0 -0.19781367954E+02  0.15239549363E+01  0.49612073935E+01  0.20450881053E+02  0.51100000000E-03 0.  1.
        -12    1    3    3    0    0 -0.17602472690E+02 -0.15104670541E+02 -0.20159681390E+01  0.23282230230E+02  0.00000000000E+00 0.  1.
</event>
<event>
 7    1  0.2935819E-010  0.4778727E+02  0.7816164E-02  0.1312668E+00
        -11   -1    0    0    0    0  0.00000000000E+00  0.00000000000E+00  0.45593999997E+02  0.45594000000E+02  0.51100000000E-03 0. -1.
         11   -1    0    0    0    0 -0.00000000000E+00 -0.00000000000E+00 -0.45593999997E+02  0.45594000000E+02  0.51100000000E-03 0.  1.
    9900012    2    1    2    0    0 -0.26491706566E+02 -0.23745468127E+02  0.24858908264E+02  0.47787273123E+02  0.20000009479E+02 0.  0.
        -12    1    1    2    0    0  0.26491706566E+02  0.23745468127E+02 -0.24858908264E+02  0.43400726877E+02  0.00000000000E+00 0.  1.
         11    1    3    3    0    0 -0.12492791741E+02 -0.12978139773E+02  0.21105371528E+01  0.18137153161E+02  0.51100000000E-03 0. -1.
        -11    1    3    3    0    0 -0.38764690529E+01 -0.10483996232E+01  0.96576722382E+01  0.10459291917E+02  0.51100000000E-03 0.  1.
         12    1    3    3    0    0 -0.10122445772E+02 -0.97189287302E+01  0.13090698873E+02  0.19190828045E+02  0.00000000000E+00 0. -1.
</event>
<event>
 7    1  0.2935819E-010  0.4778727E+02  0.7816164E-02  0.1312668E+00
        -11   -1    0    0    0    0  0.00000000000E+00  0.00000000000E+00  0.45593999997E+02  0.45594000000E+02  0.51100000000E-03 0.  1.
         11   -1    0    0    0    0 -0.00000000000E+00 -0.00000000000E+00 -0.45593999997E+02  0.45594000000E+02  0.51100000000E-03 0. -1.
    9900012    2    1    2    0    0 -0.32403913663E+02 -0.28089153376E+02 -0.66789997603E+01  0.47787271944E+02  0.20000004100E+02 0.  0.
        -12    1    1    2    0    0  0.32403913663E+02  0.28089153376E+02  0.66789997603E+01  0.43400728056E+02  0.00000000000E+00 0.  1.
         11    1    3    3    0    0 -0.14332551829E+02 -0.96080568409E+01 -0.35981505504E+01  0.17626215868E+02  0.51100000000E-03 0. -1.
        -11    1    3    3    0    0 -0.70372693143E+01 -0.99576876033E+00 -0.59730543479E+01  0.92839696968E+01  0.51100000000E-03 0.  1.
        -12    1    3    3    0    0 -0.11034092520E+02 -0.17485327774E+02  0.28922051379E+01  0.20877086379E+02  0.00000000000E+00 0.  1.
</event>
<event>
 7    1  0.2935819E-010  0.4778726E+02  0.7816164E-02  0.1312668E+00
        -11   -1    0    0    0    0  0.00000000000E+00  0.00000000000E+00  0.45593999997E+02  0.45594000000E+02  0.51100000000E-03 0. -1.
         11   -1    0    0    0    0 -0.00000000000E+00 -0.00000000000E+00 -0.45593999997E+02  0.45594000000E+02  0.51100000000E-03 0.  1.
    9900012    2    1    2    0    0  0.36709957283E+02 -0.22242428121E+02 -0.64247782726E+01  0.47787258667E+02  0.19999943567E+02 0.  0.
        -12    1    1    2    0    0 -0.36709957283E+02  0.22242428121E+02  0.64247782726E+01  0.43400741333E+02  0.00000000000E+00 0.  1.
         11    1    3    3    0    0  0.11722494467E+02 -0.11015412514E+02  0.17587355058E+01  0.16181759491E+02  0.51100000000E-03 0. -1.
        -11    1    3    3    0    0  0.18051372014E+02 -0.82926343632E+01 -0.11952634120E+02  0.23183728754E+02  0.51100000000E-03 0.  1.
        -12    1    3    3    0    0  0.69360908009E+01 -0.29343812430E+01  0.37691203418E+01  0.84217704213E+01  0.00000000000E+00 0.  1.
</event>
<event>
 7    1  0.2935819E-010  0.4778727E+02  0.7816164E-02  0.1312668E+00
        -11   -1    0    0    0    0  0.00000000000E+00  0.00000000000E+00  0.45593999997E+02  0.45594000000E+02  0.51100000000E-03 0.  1.
         11   -1    0    0    0    0 -0.00000000000E+00 -0.00000000000E+00 -0.45593999997E+02  0.45594000000E+02  0.51100000000E-03 0. -1.
    9900012    2    1    2    0    0  0.14678196941E+02 -0.99669095410E+00 -0.40831116628E+02  0.47787274852E+02  0.20000017360E+02 0.  0.
        -12    1    1    2    0    0 -0.14678196941E+02  0.99669095410E+00  0.40831116628E+02  0.43400725148E+02  0.00000000000E+00 0.  1.
         11    1    3    3    0    0  0.15026066762E+02  0.64131799497E+01 -0.33203847730E+02  0.37005500453E+02  0.51100000000E-03 0. -1.
        -11    1    3    3    0    0 -0.44175193228E+00 -0.46084019729E+01 -0.35501089241E+01  0.58340198103E+01  0.51100000000E-03 0.  1.
         12    1    3    3    0    0  0.93882111723E-01 -0.28014689309E+01 -0.40771599737E+01  0.49477545890E+01  0.00000000000E+00 0. -1.
</event>
<event>
 7    1  0.2935819E-010  0.4778730E+02  0.7816164E-02  0.1312668E+00
        -11   -1    0    0    0    0  0.00000000000E+00  0.00000000000E+00  0.45593999997E+02  0.45594000000E+02  0.51100000000E-03 0.  1.
         11   -1    0    0    0    0 -0.00000000000E+00 -0.00000000000E+00 -0.45593999997E+02  0.45594000000E+02  0.51100000000E-03 0. -1.
    9900012    2    1    2    0    0 -0.22038879700E+02 -0.37181537659E+02  0.39296421181E+01  0.47787296685E+02  0.20000116903E+02 0.  0.
        -12    1    1    2    0    0  0.22038879700E+02  0.37181537659E+02 -0.39296421181E+01  0.43400703315E+02  0.00000000000E+00 0.  1.
         11    1    3    3    0    0 -0.13400372951E+02 -0.13541775728E+02 -0.52833284899E+01  0.19770261640E+02  0.51100000000E-03 0. -1.
        -11    1    3    3    0    0 -0.68942790571E+01 -0.10186088681E+02  0.73361891781E+01  0.14321562703E+02  0.51100000000E-03 0.  1.
         12    1    3    3    0    0 -0.17442276917E+01 -0.13453673249E+02  0.18767814299E+01  0.13695472342E+02  0.00000000000E+00 0. -1.
</event>
<event>
 7    1  0.2935819E-010  0.4778727E+02  0.7816164E-02  0.1312668E+00
        -11   -1    0    0    0    0  0.00000000000E+00  0.00000000000E+00  0.45593999997E+02  0.45594000000E+02  0.51100000000E-03 0.  1.
         11   -1    0    0    0    0 -0.00000000000E+00 -0.00000000000E+00 -0.45593999997E+02  0.45594000000E+02  0.51100000000E-03 0. -1.
    9900012    2    1    2    0    0 -0.40148870525E+02 -0.97178599454E-01 -0.16482788504E+02  0.47787267691E+02  0.19999984711E+02 0.  0.
        -12    1    1    2    0    0  0.40148870525E+02  0.97178599454E-01  0.16482788504E+02  0.43400732309E+02  0.00000000000E+00 0.  1.
         11    1    3    3    0    0 -0.34277319555E+02 -0.50795653058E+01 -0.17060218666E+02  0.38623667366E+02  0.51100000000E-03 0. -1.
        -11    1    3    3    0    0 -0.39864877816E+01  0.53541889165E+01 -0.90561673336E+00  0.67364356833E+01  0.51100000000E-03 0.  1.
         12    1    3    3    0    0 -0.18850631881E+01 -0.37180221024E+00  0.14830468954E+01  0.24271646422E+01  0.00000000000E+00 0. -1.
</event>
<event>
 7    1  0.2935819E-010  0.4778728E+02  0.7816164E-02  0.1312668E+00
        -11   -1    0    0    0    0  0.00000000000E+00  0.00000000000E+00  0.45593999997E+02  0.45594000000E+02  0.51100000000E-03 0.  1.
         11   -1    0    0    0    0 -0.00000000000E+00 -0.00000000000E+00 -0.45593999997E+02  0.45594000000E+02  0.51100000000E-03 0. -1.
    9900012    2    1    2    0    0 -0.76769108049E+01  0.13025849547E+02 -0.40681878117E+02  0.47787275087E+02  0.20000018429E+02 0.  0.
        -12    1    1    2    0    0  0.76769108049E+01 -0.13025849547E+02  0.40681878117E+02  0.43400724913E+02  0.00000000000E+00 0.  1.
         11    1    3    3    0    0  0.18087451069E+01  0.36494149630E+01 -0.19361406805E+02  0.19785193003E+02  0.51100000000E-03 0. -1.
        -11    1    3    3    0    0 -0.54967845489E+01  0.40590670318E+01 -0.20118290425E+02  0.21247029803E+02  0.51100000000E-03 0.  1.
        -12    1    3    3    0    0 -0.39888713629E+01  0.53173675519E+01 -0.12021808863E+01  0.67550522807E+01  0.00000000000E+00 0.  1.
</event>
<event>
 7    1  0.2935819E-010  0.4778727E+02  0.7816164E-02  0.1312668E+00
        -11   -1    0    0    0    0  0.00000000000E+00  0.00000000000E+00  0.45593999997E+02  0.45594000000E+02  0.51100000000E-03 0.  1.
         11   -1    0    0    0    0 -0.00000000000E+00 -0.00000000000E+00 -0.45593999997E+02  0.45594000000E+02  0.51100000000E-03 0. -1.
    9900012    2    1    2    0    0  0.35071682140E+02 -0.13338038249E+02 -0.21810487216E+02  0.47787268381E+02  0.19999987857E+02 0.  0.
        -12    1    1    2    0    0 -0.35071682140E+02  0.13338038249E+02  0.21810487216E+02  0.43400731619E+02  0.00000000000E+00 0.  1.
         11    1    3    3    0    0  0.78705028027E+00 -0.63336395040E+01 -0.25922126800E+01  0.68886866927E+01  0.51100000000E-03 0. -1.
        -11    1    3    3    0    0  0.23251047941E+02 -0.88565730346E+01 -0.12438021246E+02  0.27816442782E+02  0.51100000000E-03 0.  1.
        -12    1    3    3    0    0  0.11033583919E+02  0.18521742896E+01 -0.67802532896E+01  0.13082138906E+02  0.00000000000E+00 0.  1.
</event>
<event>
 7    1  0.2935819E-010  0.4778727E+02  0.7816164E-02  0.1312668E+00
        -11   -1    0    0    0    0  0.00000000000E+00  0.00000000000E+00  0.45593999997E+02  0.45594000000E+02  0.51100000000E-03 0.  1.
         11   -1    0    0    0    0 -0.00000000000E+00 -0.00000000000E+00 -0.45593999997E+02  0.45594000000E+02  0.51100000000E-03 0. -1.
    9900012    2    1    2    0    0 -0.10663236867E+02 -0.22757994116E+01 -0.42008799961E+02  0.47787272384E+02  0.20000006109E+02 0.  0.
        -12    1    1    2    0    0  0.10663236867E+02  0.22757994116E+01  0.42008799961E+02  0.43400727616E+02  0.00000000000E+00 0.  1.
         11    1    3    3    0    0 -0.14156845939E+02  0.16958312974E+01 -0.28340049062E+02  0.31724604203E+02  0.51100000000E-03 0. -1.
        -11    1    3    3    0    0 -0.54018948018E+00  0.37003110078E+00  0.42021679160E+00  0.77801677559E+00  0.51100000000E-03 0.  1.
         12    1    3    3    0    0  0.40337985517E+01 -0.43416618098E+01 -0.14088967690E+02  0.15284651406E+02  0.00000000000E+00 0. -1.
</event>
<event>
 7    1  0.2935819E-010  0.4778728E+02  0.7816164E-02  0.1312668E+00
        -11   -1    0    0    0    0  0.00000000000E+00  0.00000000000E+00  0.45593999997E+02  0.45594000000E+02  0.51100000000E-03 0.  1.
         11   -1    0    0    0    0 -0.00000000000E+00 -0.00000000000E+00 -0.45593999997E+02  0.45594000000E+02  0.51100000000E-03 0. -1.
    9900012    2    1    2    0    0 -0.18375208584E+02  0.10877735740E+02 -0.37784242597E+02  0.47787280951E+02  0.20000045168E+02 0.  0.
        -12    1    1    2    0    0  0.18375208584E+02 -0.10877735740E+02  0.37784242597E+02  0.43400719049E+02  0.00000000000E+00 0.  1.
         11    1    3    3    0    0 -0.26516091172E+01 -0.37971350074E-01 -0.23396688127E+02  0.23546496306E+02  0.51100000000E-03 0. -1.
        -11    1    3    3    0    0 -0.95847776279E+01  0.46343232404E+01 -0.89694164010E+01  0.13921039649E+02  0.51100000000E-03 0.  1.
         12    1    3    3    0    0 -0.61388218390E+01  0.62813838497E+01 -0.54181380694E+01  0.10319744996E+02  0.00000000000E+00 0. -1.
</event>
<event>
 7    1  0.2935819E-010  0.4778727E+02  0.7816164E-02  0.1312668E+00
        -11   -1    0    0    0    0  0.00000000000E+00  0.00000000000E+00  0.45593999997E+02  0.45594000000E+02  0.51100000000E-03 0.  1.
         11   -1    0    0    0    0 -0.00000000000E+00 -0.00000000000E+00 -0.45593999997E+02  0.45594000000E+02  0.51100000000E-03 0. -1.
    9900012    2    1    2    0    0  0.56689873559E+01 -0.66627018254E+01 -0.42509935895E+02  0.47787266561E+02  0.19999979558E+02 0.  0.
        -12    1    1    2    0    0 -0.56689873559E+01  0.66627018254E+01  0.42509935895E+02  0.43400733439E+02  0.00000000000E+00 0.  1.
         11    1    3    3    0    0  0.12250589998E+00  0.12947726710E+01 -0.33024338535E+01  0.35492976182E+01  0.51100000000E-03 0. -1.
        -11    1    3    3    0    0 -0.39986536912E+01  0.30930958016E+01 -0.16355801152E+02  0.17119249533E+02  0.51100000000E-03 0.  1.
        -12    1    3    3    0    0  0.95451351471E+01 -0.11050570298E+02 -0.22851700890E+02  0.27118719410E+02  0.00000000000E+00 0.  1.
</event>
<event>
 7    1  0.2935819E-010  0.4778728E+02  0.7816164E-02  0.1312668E+00
        -11   -1    0    0    0    0  0.00000000000E+00  0.00000000000E+00  0.45593999997E+02  0.45594000000E+02  0.51100000000E-03 0.  1.
         11   -1    0    0    0    0 -0.00000000000E+00 -0.00000000000E+00 -0.45593999997E+02  0.45594000000E+02  0.51100000000E-03 0. -1.
    9900012    2    1    2    0    0 -0.10704554319E+02 -0.26652422831E+02 -0.32537420708E+02  0.47787275671E+02  0.20000021093E+02 0.  0.
        -12    1    1    2    0    0  0.10704554319E+02  0.26652422831E+02  0.32537420708E+02  0.43400724329E+02  0.00000000000E+00 0.  1.
         11    1    3    3    0    0 -0.10472566127E+01 -0.10339160763E+02 -0.18364301463E+02  0.21100771554E+02  0.51100000000E-03 0. -1.
        -11    1    3    3    0    0 -0.12609023297E+01 -0.28110391037E+01  0.22596349997E+01  0.38207023072E+01  0.51100000000E-03 0.  1.
        -12    1    3    3    0    0 -0.83963953768E+01 -0.13502222965E+02 -0.16432754245E+02  0.22865801809E+02  0.00000000000E+00 0.  1.
</event>
<event>
 7    1  0.2935819E-010  0.4778728E+02  0.7816164E-02  0.1312668E+00
        -11   -1    0    0    0    0  0.00000000000E+00  0.00000000000E+00  0.45593999997E+02  0.45594000000E+02  0.51100000000E-03 0.  1.
         11   -1    0    0    0    0 -0.00000000000E+00 -0.00000000000E+00 -0.45593999997E+02  0.45594000000E+02  0.51100000000E-03 0. -1.
    9900012    2    1    2    0    0 -0.20228965071E+02  0.36004509969E+02 -0.13344924101E+02  0.47787276904E+02  0.20000026717E+02 0.  0.
        -12    1    1    2    0    0  0.20228965071E+02 -0.36004509969E+02  0.13344924101E+02  0.43400723096E+02  0.00000000000E+00 0.  1.
         11    1    3    3    0    0 -0.10544520993E+02  0.10771221628E+02 -0.87091622863E+01  0.17408493511E+02  0.51100000000E-03 0. -1.
        -11    1    3    3    0    0 -0.90173691014E+01  0.17195858218E+02  0.25417279585E+01  0.19582412176E+02  0.51100000000E-03 0.  1.
        -12    1    3    3    0    0 -0.66707497704E+00  0.80374301233E+01 -0.71774897735E+01  0.10796371217E+02  0.00000000000E+00 0.  1.
</event>
<event>
 7    1  0.2935819E-010  0.4778727E+02  0.7816164E-02  0.1312668E+00
        -11   -1    0    0    0    0  0.00000000000E+00  0.00000000000E+00  0.45593999997E+02  0.45594000000E+02  0.51100000000E-03 0.  1.
         11   -1    0    0    0    0 -0.00000000000E+00 -0.00000000000E+00 -0.45593999997E+02  0.45594000000E+02  0.51100000000E-03 0. -1.
    9900012    2    1    2    0    0 -0.17419334781E+02  0.38601516841E+02  0.94928007819E+01  0.47787267364E+02  0.19999983221E+02 0.  0.
        -12    1    1    2    0    0  0.17419334781E+02 -0.38601516841E+02 -0.94928007819E+01  0.43400732636E+02  0.00000000000E+00 0.  1.
         11    1    3    3    0    0 -0.91808556806E+01  0.14986760170E+02  0.21116771765E+01  0.17701702522E+02  0.51100000000E-03 0. -1.
        -11    1    3    3    0    0 -0.13827733314E+01  0.11761683366E+02  0.10739229961E+02  0.15986879561E+02  0.51100000000E-03 0.  1.
        -12    1    3    3    0    0 -0.68557057692E+01  0.11853073305E+02 -0.33581063557E+01  0.14098685281E+02  0.00000000000E+00 0.  1.
</event>
<event>
 7    1  0.2935819E-010  0.4778727E+02  0.7816164E-02  0.1312668E+00
        -11   -1    0    0    0    0  0.00000000000E+00  0.00000000000E+00  0.45593999997E+02  0.45594000000E+02  0.51100000000E-03 0.  1.
         11   -1    0    0    0    0 -0.00000000000E+00 -0.00000000000E+00 -0.45593999997E+02  0.45594000000E+02  0.51100000000E-03 0. -1.
    9900012    2    1    2    0    0  0.41668267489E+02 -0.99006096317E+00 -0.12099545453E+02  0.47787265716E+02  0.19999975704E+02 0.  0.
        -12    1    1    2    0    0 -0.41668267489E+02  0.99006096317E+00  0.12099545453E+02  0.43400734284E+02  0.00000000000E+00 0.  1.
         11    1    3    3    0    0  0.33763919611E+02  0.32733685213E+01 -0.10162887775E+02  0.35411883559E+02  0.51100000000E-03 0. -1.
        -11    1    3    3    0    0  0.88588765392E+01 -0.53750188054E+01 -0.57940471898E+00  0.10378161243E+02  0.51100000000E-03 0.  1.
         12    1    3    3    0    0 -0.95452866157E+00  0.11115893209E+01 -0.13572529590E+01  0.19972209139E+01  0.00000000000E+00 0. -1.
</event>
<event>
 7    1  0.2935819E-010  0.4778727E+02  0.7816164E-02  0.1312668E+00
        -11   -1    0    0    0    0  0.00000000000E+00  0.00000000000E+00  0.45593999997E+02  0.45594000000E+02  0.51100000000E-03 0.  1.
         11   -1    0    0    0    0 -0.00000000000E+00 -0.00000000000E+00 -0.45593999997E+02  0.45594000000E+02  0.51100000000E-03 0. -1.
    9900012    2    1    2    0    0 -0.42130662989E+02 -0.10302713254E+02 -0.15763084824E+01  0.47787269445E+02  0.19999992706E+02 0.  0.
        -12    1    1    2    0    0  0.42130662989E+02  0.10302713254E+02  0.15763084824E+01  0.43400730555E+02  0.00000000000E+00 0.  1.
         11    1    3    3    0    0 -0.78306438814E+01 -0.27429047215E+01  0.22636382267E+01  0.86003818631E+01  0.51100000000E-03 0. -1.
        -11    1    3    3    0    0 -0.74271368884E+01 -0.11595634648E+01 -0.83072677033E+01  0.11203465836E+02  0.51100000000E-03 0.  1.
        -12    1    3    3    0    0 -0.26872882219E+02 -0.64002450677E+01  0.44673209942E+01  0.27983421745E+02  0.00000000000E+00 0.  1.
</event>
<event>
 7    1  0.2935819E-010  0.4778727E+02  0.7816164E-02  0.1312668E+00
        -11   -1    0    0    0    0  0.00000000000E+00  0.00000000000E+00  0.45593999997E+02  0.45594000000E+02  0.51100000000E-03 0. -1.
         11   -1    0    0    0    0 -0.00000000000E+00 -0.00000000000E+00 -0.45593999997E+02  0.45594000000E+02  0.51100000000E-03 0.  1.
    9900012    2    1    2    0    0  0.74318607229E+01  0.56210157317E+01  0.42388620408E+02  0.47787268304E+02  0.19999987504E+02 0.  0.
        -12    1    1    2    0    0 -0.74318607229E+01 -0.56210157317E+01 -0.42388620408E+02  0.43400731696E+02  0.00000000000E+00 0.  1.
         11    1    3    3    0    0  0.93884583483E+00  0.26041284035E+01  0.30732638258E+01  0.41361657423E+01  0.51100000000E-03 0. -1.
        -11    1    3    3    0    0  0.35766659648E+01  0.10050269939E+02  0.28443479163E+02  0.30378149589E+02  0.51100000000E-03 0.  1.
        -12    1    3    3    0    0  0.29163489232E+01 -0.70333826112E+01  0.10871877419E+02  0.13272952973E+02  0.00000000000E+00 0.  1.
</event>
<event>
 7    1  0.2935819E-010  0.4778727E+02  0.7816164E-02  0.1312668E+00
        -11   -1    0    0    0    0  0.00000000000E+00  0.00000000000E+00  0.45593999997E+02  0.45594000000E+02  0.51100000000E-03 0. -1.
         11   -1    0    0    0    0 -0.00000000000E+00 -0.00000000000E+00 -0.45593999997E+02  0.45594000000E+02  0.51100000000E-03 0.  1.
    9900012    2    1    2    0    0 -0.15817396207E+02  0.26239643233E+02  0.30739457921E+02  0.47787272206E+02  0.20000005296E+02 0.  0.
        -12    1    1    2    0    0  0.15817396207E+02 -0.26239643233E+02 -0.30739457921E+02  0.43400727794E+02  0.00000000000E+00 0.  1.
         11    1    3    3    0    0 -0.39001417228E+01  0.19798528281E+02  0.11938639879E+02  0.23446192654E+02  0.51100000000E-03 0. -1.
        -11    1    3    3    0    0 -0.52705264700E+00  0.33021470771E+01  0.63508375446E+01  0.71774018691E+01  0.51100000000E-03 0.  1.
         12    1    3    3    0    0 -0.11390201837E+02  0.31389678751E+01  0.12449980498E+02  0.17163677683E+02  0.00000000000E+00 0. -1.
</event>
<event>
 7    1  0.2935819E-010  0.4778727E+02  0.7816164E-02  0.1312668E+00
        -11   -1    0    0    0    0  0.00000000000E+00  0.00000000000E+00  0.45593999997E+02  0.45594000000E+02  0.51100000000E-03 0.  1.
         11   -1    0    0    0    0 -0.00000000000E+00 -0.00000000000E+00 -0.45593999997E+02  0.45594000000E+02  0.51100000000E-03 0. -1.
    9900012    2    1    2    0    0  0.30805694963E+02  0.13668933583E+02 -0.27345798521E+02  0.47787270926E+02  0.19999999459E+02 0.  0.
        -12    1    1    2    0    0 -0.30805694963E+02 -0.13668933583E+02  0.27345798521E+02  0.43400729074E+02  0.00000000000E+00 0.  1.
         11    1    3    3    0    0  0.13894952705E+02  0.30524592001E+01 -0.48790761283E+00  0.14234650398E+02  0.51100000000E-03 0.  1.
        -11    1    3    3    0    0  0.15923688193E+02  0.97394568926E+01 -0.23998649323E+02  0.30403224102E+02  0.51100000000E-03 0. -1.
        -12    1    3    3    0    0  0.98705406421E+00  0.87701749067E+00 -0.28592415852E+01  0.31493964259E+01  0.00000000000E+00 0.  1.
</event>
<event>
 7    1  0.2935819E-010  0.4778727E+02  0.7816164E-02  0.1312668E+00
        -11   -1    0    0    0    0  0.00000000000E+00  0.00000000000E+00  0.45593999997E+02  0.45594000000E+02  0.51100000000E-03 0.  1.
         11   -1    0    0    0    0 -0.00000000000E+00 -0.00000000000E+00 -0.45593999997E+02  0.45594000000E+02  0.51100000000E-03 0. -1.
    9900012    2    1    2    0    0  0.17006949055E+01  0.24551072906E+02 -0.35748783126E+02  0.47787273750E+02  0.20000012337E+02 0.  0.
        -12    1    1    2    0    0 -0.17006949055E+01 -0.24551072906E+02  0.35748783126E+02  0.43400726250E+02  0.00000000000E+00 0.  1.
         11    1    3    3    0    0  0.28404123937E+00  0.31465104373E+00  0.54023553829E-01  0.42732131994E+00  0.51100000000E-03 0.  1.
        -11    1    3    3    0    0  0.95920210509E+01  0.17494410867E+02 -0.27072522002E+02  0.33630086638E+02  0.51100000000E-03 0. -1.
        -12    1    3    3    0    0 -0.81753673847E+01  0.67420109943E+01 -0.87302846780E+01  0.13729865793E+02  0.00000000000E+00 0.  1.
</event>
<event>
 7    1  0.2935819E-010  0.4778731E+02  0.7816164E-02  0.1312668E+00
        -11   -1    0    0    0    0  0.00000000000E+00  0.00000000000E+00  0.45593999997E+02  0.45594000000E+02  0.51100000000E-03 0.  1.
         11   -1    0    0    0    0 -0.00000000000E+00 -0.00000000000E+00 -0.45593999997E+02  0.45594000000E+02  0.51100000000E-03 0. -1.
    9900012    2    1    2    0    0 -0.25934210931E+02 -0.33181578304E+02 -0.10489027022E+02  0.47787307342E+02  0.20000165493E+02 0.  0.
        -12    1    1    2    0    0  0.25934210931E+02  0.33181578304E+02  0.10489027022E+02  0.43400692658E+02  0.00000000000E+00 0.  1.
         11    1    3    3    0    0 -0.82346071192E+01 -0.13057334126E+00  0.28876078196E+00  0.82407030559E+01  0.51100000000E-03 0. -1.
        -11    1    3    3    0    0 -0.10041440315E+02 -0.17735778702E+02 -0.25201881275E+01  0.20536302448E+02  0.51100000000E-03 0.  1.
         12    1    3    3    0    0 -0.76581634969E+01 -0.15315226260E+02 -0.82575996765E+01  0.19010301838E+02  0.00000000000E+00 0. -1.
</event>
<event>
 7    1  0.2935819E-010  0.4778728E+02  0.7816164E-02  0.1312668E+00
        -11   -1    0    0    0    0  0.00000000000E+00  0.00000000000E+00  0.45593999997E+02  0.45594000000E+02  0.51100000000E-03 0.  1.
         11   -1    0    0    0    0 -0.00000000000E+00 -0.00000000000E+00 -0.45593999997E+02  0.45594000000E+02  0.51100000000E-03 0. -1.
    9900012    2    1    2    0    0 -0.34360759126E+02 -0.26453537187E+02 -0.17808066044E+01  0.47787278006E+02  0.20000031741E+02 0.  0.
        -12    1    1    2    0    0  0.34360759126E+02  0.26453537187E+02  0.17808066044E+01  0.43400721994E+02  0.00000000000E+00 0.  1.
         11    1    3    3    0    0 -0.75294132975E+01 -0.14913206494E+01 -0.20423518754E+01  0.79427516220E+01  0.51100000000E-03 0. -1.
        -11    1    3    3    0    0 -0.17223890955E+02 -0.91737221950E+01  0.61276538846E+01  0.20454039721E+02  0.51100000000E-03 0.  1.
        -12    1    3    3    0    0 -0.96074548739E+01 -0.15788494343E+02 -0.58661086136E+01  0.19390486663E+02  0.00000000000E+00 0.  1.
</event>
<event>
 7    1  0.2935819E-010  0.4778728E+02  0.7816164E-02  0.1312668E+00
        -11   -1    0    0    0    0  0.00000000000E+00  0.00000000000E+00  0.45593999997E+02  0.45594000000E+02  0.51100000000E-03 0.  1.
         11   -1    0    0    0    0 -0.00000000000E+00 -0.00000000000E+00 -0.45593999997E+02  0.45594000000E+02  0.51100000000E-03 0. -1.
    9900012    2    1    2    0    0 -0.20647384693E+02  0.22881646137E+02 -0.30557133575E+02  0.47787278383E+02  0.20000033459E+02 0.  0.
        -12    1    1    2    0    0  0.20647384693E+02 -0.22881646137E+02  0.30557133575E+02  0.43400721617E+02  0.00000000000E+00 0.  1.
         11    1    3    3    0    0 -0.21157673030E+02  0.15040405397E+02 -0.27943576992E+02  0.38140587540E+02  0.51100000000E-03 0. -1.
        -11    1    3    3    0    0  0.35573096917E+00  0.73982497500E+01 -0.43649621829E+00  0.74196477744E+01  0.51100000000E-03 0.  1.
         12    1    3    3    0    0  0.15455736787E+00  0.44299098995E+00 -0.21770603647E+01  0.22270430684E+01  0.00000000000E+00 0. -1.
</event>
<event>
 7    1  0.2935819E-010  0.4778729E+02  0.7816164E-02  0.1312668E+00
        -11   -1    0    0    0    0  0.00000000000E+00  0.00000000000E+00  0.45593999997E+02  0.45594000000E+02  0.51100000000E-03 0.  1.
         11   -1    0    0    0    0 -0.00000000000E+00 -0.00000000000E+00 -0.45593999997E+02  0.45594000000E+02  0.51100000000E-03 0. -1.
    9900012    2    1    2    0    0  0.16321537934E+02 -0.18243282801E+02 -0.35838685069E+02  0.47787293608E+02  0.20000102876E+02 0.  0.
        -12    1    1    2    0    0 -0.16321537934E+02  0.18243282801E+02  0.35838685069E+02  0.43400706392E+02  0.00000000000E+00 0.  1.
         11    1    3    3    0    0 -0.70135867819E+00 -0.44512359867E+01 -0.16465903543E+02  0.17071361561E+02  0.51100000000E-03 0. -1.
        -11    1    3    3    0    0  0.12992762645E+02 -0.14016645654E+02 -0.12799546384E+02  0.23002317806E+02  0.51100000000E-03 0.  1.
        -12    1    3    3    0    0  0.40301339670E+01  0.22459884045E+00 -0.65732351418E+01  0.77136142411E+01  0.00000000000E+00 0.  1.
</event>
<event>
 7    1  0.2935819E-010  0.4778727E+02  0.7816164E-02  0.1312668E+00
        -11   -1    0    0    0    0  0.00000000000E+00  0.00000000000E+00  0.45593999997E+02  0.45594000000E+02  0.51100000000E-03 0. -1.
         11   -1    0    0    0    0 -0.00000000000E+00 -0.00000000000E+00 -0.45593999997E+02  0.45594000000E+02  0.51100000000E-03 0.  1.
    9900012    2    1    2    0    0 -0.24382724531E+02  0.12401361985E+02 -0.33694398103E+02  0.47787268461E+02  0.19999988219E+02 0.  0.
        -12    1    1    2    0    0  0.24382724531E+02 -0.12401361985E+02  0.33694398103E+02  0.43400731539E+02  0.00000000000E+00 0.  1.
         11    1    3    3    0    0 -0.15117016946E+01  0.68113989856E+01 -0.37012117398E+01  0.78980609493E+01  0.51100000000E-03 0. -1.
        -11    1    3    3    0    0 -0.20717550685E+02  0.27349744478E+01 -0.18697373904E+02  0.28040841335E+02  0.51100000000E-03 0.  1.
        -12    1    3    3    0    0 -0.21534721521E+01  0.28549885521E+01 -0.11295812459E+02  0.11848366177E+02  0.00000000000E+00 0.  1.
</event>
<event>
 7    1  0.2935819E-010  0.4778728E+02  0.7816164E-02  0.1312668E+00
        -11   -1    0    0    0    0  0.00000000000E+00  0.00000000000E+00  0.45593999997E+02  0.45594000000E+02  0.51100000000E-03 0.  1.
         11   -1    0    0    0    0 -0.00000000000E+00 -0.00000000000E+00 -0.45593999997E+02  0.45594000000E+02  0.51100000000E-03 0. -1.
    9900012    2    1    2    0    0  0.10839306102E+02 -0.14968737338E+02 -0.39269188803E+02  0.47787276003E+02  0.20000022607E+02 0.  0.
        -12    1    1    2    0    0 -0.10839306102E+02  0.14968737338E+02  0.39269188803E+02  0.43400723997E+02  0.00000000000E+00 0.  1.
         11    1    3    3    0    0  0.78836660892E+01 -0.10734298829E+02 -0.38040390316E+02  0.40304449606E+02  0.51100000000E-03 0. -1.
        -11    1    3    3    0    0  0.23731097091E+01 -0.67084483796E+00  0.15619908189E+01  0.29191605073E+01  0.51100000000E-03 0.  1.
        -12    1    3    3    0    0  0.58253030364E+00 -0.35635936709E+01 -0.27907893053E+01  0.45636658897E+01  0.00000000000E+00 0.  1.
</event>
<event>
 7    1  0.2935819E-010  0.4778728E+02  0.7816164E-02  0.1312668E+00
        -11   -1    0    0    0    0  0.00000000000E+00  0.00000000000E+00  0.45593999997E+02  0.45594000000E+02  0.51100000000E-03 0. -1.
         11   -1    0    0    0    0 -0.00000000000E+00 -0.00000000000E+00 -0.45593999997E+02  0.45594000000E+02  0.51100000000E-03 0.  1.
    9900012    2    1    2    0    0  0.25768264998E+01  0.39543958698E+02  0.17699083825E+02  0.47787282580E+02  0.20000052595E+02 0.  0.
        -12    1    1    2    0    0 -0.25768264998E+01 -0.39543958698E+02 -0.17699083825E+02  0.43400717420E+02  0.00000000000E+00 0.  1.
         11    1    3    3    0    0  0.96270402503E+01  0.10117293487E+02  0.37465490545E+01  0.14459466158E+02  0.51100000000E-03 0. -1.
        -11    1    3    3    0    0 -0.47720172067E+01  0.20902191478E+02  0.10097044493E+02  0.23698608916E+02  0.51100000000E-03 0.  1.
         12    1    3    3    0    0 -0.22781965438E+01  0.85244737322E+01  0.38554902778E+01  0.96292075056E+01  0.00000000000E+00 0. -1.
</event>
<event>
 7    1  0.2935819E-010  0.4778728E+02  0.7816164E-02  0.1312668E+00
        -11   -1    0    0    0    0  0.00000000000E+00  0.00000000000E+00  0.45593999997E+02  0.45594000000E+02  0.51100000000E-03 0.  1.
         11   -1    0    0    0    0 -0.00000000000E+00 -0.00000000000E+00 -0.45593999997E+02  0.45594000000E+02  0.51100000000E-03 0. -1.
    9900012    2    1    2    0    0  0.37762539959E+02 -0.11944579695E+02 -0.17746562112E+02  0.47787275639E+02  0.20000020950E+02 0.  0.
        -12    1    1    2    0    0 -0.37762539959E+02  0.11944579695E+02  0.17746562112E+02  0.43400724361E+02  0.00000000000E+00 0.  1.
         11    1    3    3    0    0  0.58043761586E+01 -0.38321445453E+01  0.71550148545E+00  0.69919995026E+01  0.51100000000E-03 0. -1.
        -11    1    3    3    0    0  0.18661942731E+02 -0.12378296827E+02 -0.12041477188E+02  0.25426118697E+02  0.51100000000E-03 0.  1.
        -12    1    3    3    0    0  0.13296221069E+02  0.42658616778E+01 -0.64205864096E+01  0.15369157440E+02  0.00000000000E+00 0.  1.
</event>
<event>
 7    1  0.2935819E-010  0.4778727E+02  0.7816164E-02  0.1312668E+00
        -11   -1    0    0    0    0  0.00000000000E+00  0.00000000000E+00  0.45593999997E+02  0.45594000000E+02  0.51100000000E-03 0.  1.
         11   -1    0    0    0    0 -0.00000000000E+00 -0.00000000000E+00 -0.45593999997E+02  0.45594000000E+02  0.51100000000E-03 0. -1.
    9900012    2    1    2    0    0 -0.28464308700E+02 -0.29061496667E+02 -0.15127319999E+02  0.47787271105E+02  0.20000000275E+02 0.  0.
        -12    1    1    2    0    0  0.28464308700E+02  0.29061496667E+02  0.15127319999E+02  0.43400728895E+02  0.00000000000E+00 0.  1.
         11    1    3    3    0    0 -0.16644163637E+02 -0.19675402483E+02 -0.14989461021E+02  0.29813312262E+02  0.51100000000E-03 0. -1.
        -11    1    3    3    0    0 -0.41197151726E+01 -0.32335946232E+00  0.36285471613E+01  0.54993607999E+01  0.51100000000E-03 0.  1.
        -12    1    3    3    0    0 -0.77004298902E+01 -0.90627347213E+01 -0.37664061387E+01  0.12474598043E+02  0.00000000000E+00 0.  1.
</event>
<event>
 7    1  0.2935819E-010  0.4778727E+02  0.7816164E-02  0.1312668E+00
        -11   -1    0    0    0    0  0.00000000000E+00  0.00000000000E+00  0.45593999997E+02  0.45594000000E+02  0.51100000000E-03 0.  1.
         11   -1    0    0    0    0 -0.00000000000E+00 -0.00000000000E+00 -0.45593999997E+02  0.45594000000E+02  0.51100000000E-03 0. -1.
    9900012    2    1    2    0    0 -0.42843163217E+02  0.37347669471E+01 -0.58427841770E+01  0.47787271371E+02  0.20000001491E+02 0.  0.
        -12    1    1    2    0    0  0.42843163217E+02 -0.37347669471E+01  0.58427841770E+01  0.43400728629E+02  0.00000000000E+00 0.  1.
         11    1    3    3    0    0 -0.24031950695E+02 -0.22984550670E+01 -0.27699514624E+01  0.24300003730E+02  0.51100000000E-03 0. -1.
        -11    1    3    3    0    0 -0.68002320442E+01  0.26038271941E+01 -0.72898654147E+01  0.10303650321E+02  0.51100000000E-03 0.  1.
        -12    1    3    3    0    0 -0.12010980477E+02  0.34293948199E+01  0.42170327002E+01  0.13183617321E+02  0.00000000000E+00 0.  1.
</event>
<event>
 7    1  0.2935819E-010  0.4778728E+02  0.7816164E-02  0.1312668E+00
        -11   -1    0    0    0    0  0.00000000000E+00  0.00000000000E+00  0.45593999997E+02  0.45594000000E+02  0.51100000000E-03 0. -1.
         11   -1    0    0    0    0 -0.00000000000E+00 -0.00000000000E+00 -0.45593999997E+02  0.45594000000E+02  0.51100000000E-03 0.  1.
    9900012    2    1    2    0    0  0.18067975453E+02  0.14898497222E+00  0.39460726369E+02  0.47787275823E+02  0.20000021789E+02 0.  0.
        -12    1    1    2    0    0 -0.18067975453E+02 -0.14898497222E+00 -0.39460726369E+02  0.43400724177E+02  0.00000000000E+00 0.  1.
         11    1    3    3    0    0  0.61752593599E+01 -0.60506572319E+01  0.22909504247E+02  0.24486520092E+02  0.51100000000E-03 0. -1.
        -11    1    3    3    0    0  0.84641450477E+00  0.39725509234E+01  0.85952346749E+01  0.95066102125E+01  0.51100000000E-03 0.  1.
         12    1    3    3    0    0  0.11046301588E+02  0.22270912807E+01  0.79559874472E+01  0.13794145519E+02  0.00000000000E+00 0. -1.
</event>
<event>
 7    1  0.2935819E-010  0.4778728E+02  0.7816164E-02  0.1312668E+00
        -11   -1    0    0    0    0  0.00000000000E+00  0.00000000000E+00  0.45593999997E+02  0.45594000000E+02  0.51100000000E-03 0.  1.
         11   -1    0    0    0    0 -0.00000000000E+00 -0.00000000000E+00 -0.45593999997E+02  0.45594000000E+02  0.51100000000E-03 0. -1.
    9900012    2    1    2    0    0 -0.39366161813E+02  0.84712811718E+01 -0.16191526164E+02  0.47787276272E+02  0.20000023836E+02 0.  0.
        -12    1    1    2    0    0  0.39366161813E+02 -0.84712811718E+01  0.16191526164E+02  0.43400723728E+02  0.00000000000E+00 0.  1.
         11    1    3    3    0    0 -0.91904598446E+01  0.79144603557E+01 -0.77639894732E+01  0.14400790523E+02  0.51100000000E-03 0. -1.
        -11    1    3    3    0    0 -0.28944481559E+02  0.21120654242E+01 -0.50326397816E+01  0.29454563254E+02  0.51100000000E-03 0.  1.
        -12    1    3    3    0    0 -0.12312204095E+01 -0.15552446081E+01 -0.33948969091E+01  0.39319224956E+01  0.00000000000E+00 0.  1.
</event>
<event>
 7    1  0.2935819E-010  0.4778727E+02  0.7816164E-02  0.1312668E+00
        -11   -1    0    0    0    0  0.00000000000E+00  0.00000000000E+00  0.45593999997E+02  0.45594000000E+02  0.51100000000E-03 0. -1.
         11   -1    0    0    0    0 -0.00000000000E+00 -0.00000000000E+00 -0.45593999997E+02  0.45594000000E+02  0.51100000000E-03 0.  1.
    9900012    2    1    2    0    0 -0.16409112070E+02  0.47192869381E+01  0.39901035828E+02  0.47787270879E+02  0.19999999246E+02 0.  0.
        -12    1    1    2    0    0  0.16409112070E+02 -0.47192869381E+01 -0.39901035828E+02  0.43400729121E+02  0.00000000000E+00 0.  1.
         11    1    3    3    0    0 -0.13658175240E+02  0.75857011102E+01  0.22692721791E+02  0.27550830019E+02  0.51100000000E-03 0. -1.
        -11    1    3    3    0    0  0.35354626589E+01 -0.22286029934E+01  0.85600536283E+01  0.95257905654E+01  0.51100000000E-03 0.  1.
        -12    1    3    3    0    0 -0.62863994892E+01 -0.63781117869E+00  0.86482604082E+01  0.10710650294E+02  0.00000000000E+00 0.  1.
</event>
<event>
 7    1  0.2935819E-010  0.4778727E+02  0.7816164E-02  0.1312668E+00
        -11   -1    0    0    0    0  0.00000000000E+00  0.00000000000E+00  0.45593999997E+02  0.45594000000E+02  0.51100000000E-03 0. -1.
         11   -1    0    0    0    0 -0.00000000000E+00 -0.00000000000E+00 -0.45593999997E+02  0.45594000000E+02  0.51100000000E-03 0.  1.
    9900012    2    1    2    0    0 -0.30625676234E+02 -0.21600195877E+02  0.21888871987E+02  0.47787271624E+02  0.20000002642E+02 0.  0.
        -12    1    1    2    0    0  0.30625676234E+02  0.21600195877E+02 -0.21888871987E+02  0.43400728376E+02  0.00000000000E+00 0.  1.
         11    1    3    3    0    0 -0.78879925923E+01 -0.10832795467E+02  0.18603636774E+01  0.13528889017E+02  0.51100000000E-03 0. -1.
        -11    1    3    3    0    0 -0.14595395916E+02 -0.80361815610E+01  0.19507551754E+02  0.25654441560E+02  0.51100000000E-03 0.  1.
        -12    1    3    3    0    0 -0.81422877262E+01 -0.27312188492E+01  0.52095655479E+00  0.86039410476E+01  0.00000000000E+00 0.  1.
</event>
<event>
 7    1  0.2935819E-010  0.4778727E+02  0.7816164E-02  0.1312668E+00
        -11   -1    0    0    0    0  0.00000000000E+00  0.00000000000E+00  0.45593999997E+02  0.45594000000E+02  0.51100000000E-03 0. -1.
         11   -1    0    0    0    0 -0.00000000000E+00 -0.00000000000E+00 -0.45593999997E+02  0.45594000000E+02  0.51100000000E-03 0.  1.
    9900012    2    1    2    0    0  0.27819510685E+02  0.33033251561E+02  0.43014479952E+01  0.47787270302E+02  0.19999996614E+02 0.  0.
        -12    1    1    2    0    0 -0.27819510685E+02 -0.33033251561E+02 -0.43014479952E+01  0.43400729698E+02  0.00000000000E+00 0.  1.
         11    1    3    3    0    0  0.20586477571E+02  0.20981466040E+02  0.42636403097E+01  0.29701912479E+02  0.51100000000E-03 0. -1.
        -11    1    3    3    0    0 -0.17157977531E+01  0.45196336500E+01  0.34054974470E+01  0.59134138518E+01  0.51100000000E-03 0.  1.
        -12    1    3    3    0    0  0.89488308670E+01  0.75321518711E+01 -0.33676897614E+01  0.12171943971E+02  0.00000000000E+00 0.  1.
</event>
<event>
 7    1  0.2935819E-010  0.4778726E+02  0.7816164E-02  0.1312668E+00
        -11   -1    0    0    0    0  0.00000000000E+00  0.00000000000E+00  0.45593999997E+02  0.45594000000E+02  0.51100000000E-03 0. -1.
         11   -1    0    0    0    0 -0.00000000000E+00 -0.00000000000E+00 -0.45593999997E+02  0.45594000000E+02  0.51100000000E-03 0.  1.
    9900012    2    1    2    0    0  0.33791060040E+02 -0.22887883523E+02 -0.14762553360E+02  0.47787263457E+02  0.19999965407E+02 0.  0.
        -12    1    1    2    0    0 -0.33791060040E+02  0.22887883523E+02  0.14762553360E+02  0.43400736543E+02  0.00000000000E+00 0.  1.
         11    1    3    3    0    0  0.34670155954E+01  0.13380961040E+01  0.18088561129E+00  0.37206744265E+01  0.51100000000E-03 0. -1.
        -11    1    3    3    0    0  0.30963085623E+02 -0.25207526349E+02 -0.15421770215E+02  0.42801437508E+02  0.51100000000E-03 0.  1.
        -12    1    3    3    0    0 -0.63904117884E+00  0.98154672203E+00  0.47833124409E+00  0.12651515225E+01  0.00000000000E+00 0.  1.
</event>
<event>
 7    1  0.2935819E-010  0.4778727E+02  0.7816164E-02  0.1312668E+00
        -11   -1    0    0    0    0  0.00000000000E+00  0.00000000000E+00  0.45593999997E+02  0.45594000000E+02  0.51100000000E-03 0.  1.
         11   -1    0    0    0    0 -0.00000000000E+00 -0.00000000000E+00 -0.45593999997E+02  0.45594000000E+02  0.51100000000E-03 0. -1.
    9900012    2    1    2    0    0  0.23388336111E+02  0.31908691250E+02 -0.17845014481E+02  0.47787269762E+02  0.19999994152E+02 0.  0.
        -12    1    1    2    0    0 -0.23388336111E+02 -0.31908691250E+02  0.17845014481E+02  0.43400730238E+02  0.00000000000E+00 0.  1.
         11    1    3    3    0    0  0.17598689247E+02  0.27187867139E+02 -0.18965994812E+02  0.37531359451E+02  0.51100000000E-03 0. -1.
        -11    1    3    3    0    0  0.71651224527E+01  0.44662465937E+01  0.19007278973E+01  0.86544269133E+01  0.51100000000E-03 0.  1.
         12    1    3    3    0    0 -0.13754755879E+01  0.25457751795E+00 -0.77974756653E+00  0.16014833977E+01  0.00000000000E+00 0. -1.
</event>
<event>
 7    1  0.2935819E-010  0.4778727E+02  0.7816164E-02  0.1312668E+00
        -11   -1    0    0    0    0  0.00000000000E+00  0.00000000000E+00  0.45593999997E+02  0.45594000000E+02  0.51100000000E-03 0. -1.
         11   -1    0    0    0    0 -0.00000000000E+00 -0.00000000000E+00 -0.45593999997E+02  0.45594000000E+02  0.51100000000E-03 0.  1.
    9900012    2    1    2    0    0  0.31889533184E+02  0.29344682510E+02 -0.23601749429E+01  0.47787272540E+02  0.20000006818E+02 0.  0.
        -12    1    1    2    0    0 -0.31889533184E+02 -0.29344682510E+02  0.23601749429E+01  0.43400727460E+02  0.00000000000E+00 0.  1.
         11    1    3    3    0    0  0.28975941509E+02  0.22116396767E+02 -0.34508469937E+01  0.36614867711E+02  0.51100000000E-03 0. -1.
        -11    1    3    3    0    0 -0.27081751375E+01  0.30537238469E+01  0.83117123759E+00  0.41653676663E+01  0.51100000000E-03 0.  1.
        -12    1    3    3    0    0  0.56217668129E+01  0.41745618966E+01  0.25950081325E+00  0.70070371627E+01  0.00000000000E+00 0.  1.
</event>
<event>
 7    1  0.2935819E-010  0.4778725E+02  0.7816164E-02  0.1312668E+00
        -11   -1    0    0    0    0  0.00000000000E+00  0.00000000000E+00  0.45593999997E+02  0.45594000000E+02  0.51100000000E-03 0. -1.
         11   -1    0    0    0    0 -0.00000000000E+00 -0.00000000000E+00 -0.45593999997E+02  0.45594000000E+02  0.51100000000E-03 0.  1.
    9900012    2    1    2    0    0 -0.40309640046E+02 -0.13986704488E+02  0.79454540228E+01  0.47787248593E+02  0.19999897634E+02 0.  0.
        -12    1    1    2    0    0  0.40309640046E+02  0.13986704488E+02 -0.79454540228E+01  0.43400751407E+02  0.00000000000E+00 0.  1.
         11    1    3    3    0    0 -0.28303127055E+02 -0.12381636089E+02  0.47384199584E+01  0.31254192316E+02  0.51100000000E-03 0. -1.
        -11    1    3    3    0    0 -0.49751164521E+00  0.12405540525E+01 -0.29027811212E+01  0.31957206844E+01  0.51100000000E-03 0.  1.
         12    1    3    3    0    0 -0.11509001346E+02 -0.28456224508E+01  0.61098151856E+01  0.13337335593E+02  0.00000000000E+00 0. -1.
</event>
<event>
 7    1  0.2935819E-010  0.4778727E+02  0.7816164E-02  0.1312668E+00
        -11   -1    0    0    0    0  0.00000000000E+00  0.00000000000E+00  0.45593999997E+02  0.45594000000E+02  0.51100000000E-03 0.  1.
         11   -1    0    0    0    0 -0.00000000000E+00 -0.00000000000E+00 -0.45593999997E+02  0.45594000000E+02  0.51100000000E-03 0. -1.
    9900012    2    1    2    0    0  0.31359540653E+02 -0.14132762378E+02 -0.26466344694E+02  0.47787272312E+02  0.20000005779E+02 0.  0.
        -12    1    1    2    0    0 -0.31359540653E+02  0.14132762378E+02  0.26466344694E+02  0.43400727688E+02  0.00000000000E+00 0.  1.
         11    1    3    3    0    0  0.12122683225E+02  0.17365555014E+01 -0.14573459845E+02  0.19035776992E+02  0.51100000000E-03 0. -1.
        -11    1    3    3    0    0  0.20980750294E+01 -0.50464732194E+00 -0.37676401936E+01  0.43418545160E+01  0.51100000000E-03 0.  1.
         12    1    3    3    0    0  0.17138782399E+02 -0.15364670558E+02 -0.81252446552E+01  0.24409640804E+02  0.00000000000E+00 0. -1.
</event>
<event>
 7    1  0.2935819E-010  0.4778728E+02  0.7816164E-02  0.1312668E+00
        -11   -1    0    0    0    0  0.00000000000E+00  0.00000000000E+00  0.45593999997E+02  0.45594000000E+02  0.51100000000E-03 0.  1.
         11   -1    0    0    0    0 -0.00000000000E+00 -0.00000000000E+00 -0.45593999997E+02  0.45594000000E+02  0.51100000000E-03 0. -1.
    9900012    2    1    2    0    0 -0.32403820385E+02  0.76361815479E+01 -0.27844275850E+02  0.47787279478E+02  0.20000038454E+02 0.  0.
        -12    1    1    2    0    0  0.32403820385E+02 -0.76361815479E+01  0.27844275850E+02  0.43400720522E+02  0.00000000000E+00 0.  1.
         11    1    3    3    0    0 -0.33421938682E+01  0.28639815822E+01 -0.38437134009E+01  0.58435249058E+01  0.51100000000E-03 0. -1.
        -11    1    3    3    0    0 -0.10903793622E+02  0.68553121513E+01 -0.19072509317E+02  0.23014096374E+02  0.51100000000E-03 0.  1.
        -12    1    3    3    0    0 -0.18157832895E+02 -0.20831121855E+01 -0.49280531322E+01  0.18929658198E+02  0.00000000000E+00 0.  1.
</event>
<event>
 7    1  0.2935819E-010  0.4778727E+02  0.7816164E-02  0.1312668E+00
        -11   -1    0    0    0    0  0.00000000000E+00  0.00000000000E+00  0.45593999997E+02  0.45594000000E+02  0.51100000000E-03 0. -1.
         11   -1    0    0    0    0 -0.00000000000E+00 -0.00000000000E+00 -0.45593999997E+02  0.45594000000E+02  0.51100000000E-03 0.  1.
    9900012    2    1    2    0    0  0.22979338253E+02 -0.36763002079E+02 -0.20136858495E+01  0.47787271445E+02  0.20000001826E+02 0.  0.
        -12    1    1    2    0    0 -0.22979338253E+02  0.36763002079E+02  0.20136858495E+01  0.43400728555E+02  0.00000000000E+00 0.  1.
         11    1    3    3    0    0  0.11419862630E+02 -0.94567883890E+01 -0.84823646433E+01  0.17081996936E+02  0.51100000000E-03 0. -1.
        -11    1    3    3    0    0  0.58852917770E+01 -0.11478452594E+02  0.49732665131E+01  0.13824793428E+02  0.51100000000E-03 0.  1.
         12    1    3    3    0    0  0.56741838460E+01 -0.15827761096E+02  0.14954122807E+01  0.16880481081E+02  0.00000000000E+00 0. -1.
</event>
<event>
 7    1  0.2935819E-010  0.4778727E+02  0.7816164E-02  0.1312668E+00
        -11   -1    0    0    0    0  0.00000000000E+00  0.00000000000E+00  0.45593999997E+02  0.45594000000E+02  0.51100000000E-03 0. -1.
         11   -1    0    0    0    0 -0.00000000000E+00 -0.00000000000E+00 -0.45593999997E+02  0.45594000000E+02  0.51100000000E-03 0.  1.
    9900012    2    1    2    0    0 -0.22873525085E+02  0.10820114962E+01  0.36868072682E+02  0.47787266343E+02  0.19999978563E+02 0.  0.
        -12    1    1    2    0    0  0.22873525085E+02 -0.10820114962E+01 -0.36868072682E+02  0.43400733657E+02  0.00000000000E+00 0.  1.
         11    1    3    3    0    0 -0.15296289714E+02 -0.15200857620E+01  0.30647556880E+02  0.34286438758E+02  0.51100000000E-03 0. -1.
        -11    1    3    3    0    0 -0.54119594916E+01  0.57509853427E+01  0.28200575096E+01  0.83854554181E+01  0.51100000000E-03 0.  1.
         12    1    3    3    0    0 -0.21652758788E+01 -0.31488880845E+01  0.34004582928E+01  0.51153721664E+01  0.00000000000E+00 0. -1.
</event>
<event>
 7    1  0.2935819E-010  0.4778727E+02  0.7816164E-02  0.1312668E+00
        -11   -1    0    0    0    0  0.00000000000E+00  0.00000000000E+00  0.45593999997E+02  0.45594000000E+02  0.51100000000E-03 0.  1.
         11   -1    0    0    0    0 -0.00000000000E+00 -0.00000000000E+00 -0.45593999997E+02  0.45594000000E+02  0.51100000000E-03 0. -1.
    9900012    2    1    2    0    0  0.45327822213E+01 -0.32656185170E+02 -0.28225003282E+02  0.47787270112E+02  0.19999995747E+02 0.  0.
        -12    1    1    2    0    0 -0.45327822213E+01  0.32656185170E+02  0.28225003282E+02  0.43400729888E+02  0.00000000000E+00 0.  1.
         11    1    3    3    0    0  0.53103340443E+00 -0.92130084501E+01 -0.78842548776E+01  0.12137668492E+02  0.51100000000E-03 0. -1.
        -11    1    3    3    0    0  0.81092279048E+01 -0.75864721207E+01 -0.14490415436E+02  0.18256129826E+02  0.51100000000E-03 0.  1.
        -12    1    3    3    0    0 -0.41074790879E+01 -0.15856704600E+02 -0.58503329690E+01  0.17393471794E+02  0.00000000000E+00 0.  1.
</event>
<event>
 7    1  0.2935819E-010  0.4778726E+02  0.7816164E-02  0.1312668E+00
        -11   -1    0    0    0    0  0.00000000000E+00  0.00000000000E+00  0.45593999997E+02  0.45594000000E+02  0.51100000000E-03 0.  1.
         11   -1    0    0    0    0 -0.00000000000E+00 -0.00000000000E+00 -0.45593999997E+02  0.45594000000E+02  0.51100000000E-03 0. -1.
    9900012    2    1    2    0    0 -0.17853607403E+02  0.26501804734E+01 -0.39469607384E+02  0.47787255065E+02  0.19999927145E+02 0.  0.
        -12    1    1    2    0    0  0.17853607403E+02 -0.26501804734E+01  0.39469607384E+02  0.43400744935E+02  0.00000000000E+00 0.  1.
         11    1    3    3    0    0 -0.15699276943E+01  0.43315254143E+00 -0.62419927572E+01  0.64509509323E+01  0.51100000000E-03 0. -1.
        -11    1    3    3    0    0  0.79226250228E+00  0.52027192393E+01 -0.16215637266E+02  0.17048250924E+02  0.51100000000E-03 0.  1.
        -12    1    3    3    0    0 -0.17075942211E+02 -0.29856913073E+01 -0.17011977360E+02  0.24288053209E+02  0.00000000000E+00 0.  1.
</event>
<event>
 7    1  0.2935819E-010  0.4778727E+02  0.7816164E-02  0.1312668E+00
        -11   -1    0    0    0    0  0.00000000000E+00  0.00000000000E+00  0.45593999997E+02  0.45594000000E+02  0.51100000000E-03 0.  1.
         11   -1    0    0    0    0 -0.00000000000E+00 -0.00000000000E+00 -0.45593999997E+02  0.45594000000E+02  0.51100000000E-03 0. -1.
    9900012    2    1    2    0    0 -0.21722338068E+02  0.66092927027E+01 -0.36987573497E+02  0.47787270577E+02  0.19999997871E+02 0.  0.
        -12    1    1    2    0    0  0.21722338068E+02 -0.66092927027E+01  0.36987573497E+02  0.43400729423E+02  0.00000000000E+00 0.  1.
         11    1    3    3    0    0 -0.13051234837E+02  0.29427073386E+01 -0.32278755905E+02  0.34941556066E+02  0.51100000000E-03 0. -1.
        -11    1    3    3    0    0 -0.97246563969E+01  0.27713990309E+01 -0.52100372968E+01  0.11375152022E+02  0.51100000000E-03 0.  1.
        -12    1    3    3    0    0  0.10535531654E+01  0.89518633322E+00  0.50121970483E+00  0.14705624896E+01  0.00000000000E+00 0.  1.
</event>
<event>
 7    1  0.2935819E-010  0.4778725E+02  0.7816164E-02  0.1312668E+00
        -11   -1    0    0    0    0  0.00000000000E+00  0.00000000000E+00  0.45593999997E+02  0.45594000000E+02  0.51100000000E-03 0.  1.
         11   -1    0    0    0    0 -0.00000000000E+00 -0.00000000000E+00 -0.45593999997E+02  0.45594000000E+02  0.51100000000E-03 0. -1.
    9900012    2    1    2    0    0 -0.23412602635E+01 -0.68714158291E+01 -0.42789330859E+02  0.47787254724E+02  0.19999925591E+02 0.  0.
        -12    1    1    2    0    0  0.23412602635E+01  0.68714158291E+01  0.42789330859E+02  0.43400745276E+02  0.00000000000E+00 0.  1.
         11    1    3    3    0    0 -0.53450327363E+01 -0.49390280555E+01 -0.36423863037E+02  0.37143790489E+02  0.51100000000E-03 0. -1.
        -11    1    3    3    0    0  0.33752574506E+01 -0.46692395153E+01 -0.44999454155E+01  0.73105177322E+01  0.51100000000E-03 0.  1.
        -12    1    3    3    0    0 -0.37148497778E+00  0.27368517417E+01 -0.18655224060E+01  0.33329465030E+01  0.00000000000E+00 0.  1.
</event>
<event>
 7    1  0.2935819E-010  0.4778727E+02  0.7816164E-02  0.1312668E+00
        -11   -1    0    0    0    0  0.00000000000E+00  0.00000000000E+00  0.45593999997E+02  0.45594000000E+02  0.51100000000E-03 0.  1.
         11   -1    0    0    0    0 -0.00000000000E+00 -0.00000000000E+00 -0.45593999997E+02  0.45594000000E+02  0.51100000000E-03 0. -1.
    9900012    2    1    2    0    0  0.23114984607E+02 -0.26653726274E+01 -0.36636272860E+02  0.47787271738E+02  0.20000003163E+02 0.  0.
        -12    1    1    2    0    0 -0.23114984607E+02  0.26653726274E+01  0.36636272860E+02  0.43400728262E+02  0.00000000000E+00 0.  1.
         11    1    3    3    0    0  0.16885645982E+02 -0.76830128208E+01 -0.30987617152E+02  0.36116286399E+02  0.51100000000E-03 0. -1.
        -11    1    3    3    0    0 -0.79896630750E+00  0.34309254093E+00  0.69413491656E+00  0.11126019934E+01  0.51100000000E-03 0.  1.
         12    1    3    3    0    0  0.70283049325E+01  0.46745476525E+01 -0.63427906244E+01  0.10558383346E+02  0.00000000000E+00 0. -1.
</event>
<event>
 7    1  0.2935819E-010  0.4778727E+02  0.7816164E-02  0.1312668E+00
        -11   -1    0    0    0    0  0.00000000000E+00  0.00000000000E+00  0.45593999997E+02  0.45594000000E+02  0.51100000000E-03 0. -1.
         11   -1    0    0    0    0 -0.00000000000E+00 -0.00000000000E+00 -0.45593999997E+02  0.45594000000E+02  0.51100000000E-03 0.  1.
    9900012    2    1    2    0    0 -0.75660480798E+01  0.42292992292E+02 -0.61384959655E+01  0.47787269438E+02  0.19999992677E+02 0.  0.
        -12    1    1    2    0    0  0.75660480798E+01 -0.42292992292E+02  0.61384959655E+01  0.43400730562E+02  0.00000000000E+00 0.  1.
         11    1    3    3    0    0 -0.92540795683E+01  0.38492308413E+02 -0.40520342982E+01  0.39795914085E+02  0.51100000000E-03 0. -1.
        -11    1    3    3    0    0  0.39635503889E+01  0.36507098201E+01 -0.18558784010E+01  0.56992717760E+01  0.51100000000E-03 0.  1.
        -12    1    3    3    0    0 -0.22755189003E+01  0.14997405886E+00 -0.23058326626E+00  0.22920835776E+01  0.00000000000E+00 0.  1.
</event>
<event>
 7    1  0.2935819E-010  0.4778721E+02  0.7816164E-02  0.1312668E+00
        -11   -1    0    0    0    0  0.00000000000E+00  0.00000000000E+00  0.45593999997E+02  0.45594000000E+02  0.51100000000E-03 0.  1.
         11   -1    0    0    0    0 -0.00000000000E+00 -0.00000000000E+00 -0.45593999997E+02  0.45594000000E+02  0.51100000000E-03 0. -1.
    9900012    2    1    2    0    0 -0.14265531218E+02  0.35738275554E+02 -0.20072339881E+02  0.47787210274E+02  0.19999722924E+02 0.  0.
        -12    1    1    2    0    0  0.14265531218E+02 -0.35738275554E+02  0.20072339881E+02  0.43400789726E+02  0.00000000000E+00 0.  1.
         11    1    3    3    0    0  0.26047833830E+01  0.13841372698E+02 -0.12550532129E+02  0.18864897339E+02  0.51100000000E-03 0. -1.
        -11    1    3    3    0    0 -0.11295536829E+02  0.12113395141E+02 -0.56967450049E+01  0.17515033486E+02  0.51100000000E-03 0.  1.
         12    1    3    3    0    0 -0.55747777725E+01  0.97835077146E+01 -0.18250627479E+01  0.11407279450E+02  0.00000000000E+00 0. -1.
</event>
<event>
 7    1  0.2935819E-010  0.4778727E+02  0.7816164E-02  0.1312668E+00
        -11   -1    0    0    0    0  0.00000000000E+00  0.00000000000E+00  0.45593999997E+02  0.45594000000E+02  0.51100000000E-03 0.  1.
         11   -1    0    0    0    0 -0.00000000000E+00 -0.00000000000E+00 -0.45593999997E+02  0.45594000000E+02  0.51100000000E-03 0. -1.
    9900012    2    1    2    0    0 -0.19408454307E+02 -0.21323233806E+02 -0.32438476698E+02  0.47787272252E+02  0.20000005508E+02 0.  0.
        -12    1    1    2    0    0  0.19408454307E+02  0.21323233806E+02  0.32438476698E+02  0.43400727748E+02  0.00000000000E+00 0.  1.
         11    1    3    3    0    0  0.18733127169E+01  0.57434997213E+00 -0.37374281373E+00  0.19947085947E+01  0.51100000000E-03 0.  1.
        -11    1    3    3    0    0 -0.12484085467E+02 -0.16404849298E+02 -0.27726136423E+02  0.34550110154E+02  0.51100000000E-03 0. -1.
        -12    1    3    3    0    0 -0.87976815573E+01 -0.54927344799E+01 -0.43385974606E+01  0.11242453503E+02  0.00000000000E+00 0.  1.
</event>
<event>
 7    1  0.2935819E-010  0.4778727E+02  0.7816164E-02  0.1312668E+00
        -11   -1    0    0    0    0  0.00000000000E+00  0.00000000000E+00  0.45593999997E+02  0.45594000000E+02  0.51100000000E-03 0.  1.
         11   -1    0    0    0    0 -0.00000000000E+00 -0.00000000000E+00 -0.45593999997E+02  0.45594000000E+02  0.51100000000E-03 0. -1.
    9900012    2    1    2    0    0  0.14865368390E+02  0.17362616731E+02 -0.36894219816E+02  0.47787273129E+02  0.20000009504E+02 0.  0.
        -12    1    1    2    0    0 -0.14865368390E+02 -0.17362616731E+02  0.36894219816E+02  0.43400726871E+02  0.00000000000E+00 0.  1.
         11    1    3    3    0    0  0.16599866152E+02  0.89391146497E+01 -0.18637734366E+02  0.26510912273E+02  0.51100000000E-03 0. -1.
        -11    1    3    3    0    0 -0.22165222177E+01  0.53376034069E+01 -0.49541205073E+01  0.76122461293E+01  0.51100000000E-03 0.  1.
         12    1    3    3    0    0  0.48202445659E+00  0.30858986741E+01 -0.13302364942E+02  0.13664114727E+02  0.00000000000E+00 0. -1.
</event>
<event>
 7    1  0.2935819E-010  0.4778727E+02  0.7816164E-02  0.1312668E+00
        -11   -1    0    0    0    0  0.00000000000E+00  0.00000000000E+00  0.45593999997E+02  0.45594000000E+02  0.51100000000E-03 0.  1.
         11   -1    0    0    0    0 -0.00000000000E+00 -0.00000000000E+00 -0.45593999997E+02  0.45594000000E+02  0.51100000000E-03 0. -1.
    9900012    2    1    2    0    0 -0.13053919380E+02 -0.28512740015E+02 -0.30004035491E+02  0.47787270742E+02  0.19999998623E+02 0.  0.
        -12    1    1    2    0    0  0.13053919380E+02  0.28512740015E+02  0.30004035491E+02  0.43400729258E+02  0.00000000000E+00 0.  1.
         11    1    3    3    0    0  0.19449055420E+01 -0.65611109560E+01 -0.14589659451E+02  0.16114868839E+02  0.51100000000E-03 0. -1.
        -11    1    3    3    0    0  0.46751281715E+00  0.19598785218E+00 -0.83221574386E+00  0.97445511844E+00  0.51100000000E-03 0.  1.
         12    1    3    3    0    0 -0.15466337739E+02 -0.22147616911E+02 -0.14582160296E+02  0.30697946785E+02  0.00000000000E+00 0. -1.
</event>
<event>
 7    1  0.2935819E-010  0.4778727E+02  0.7816164E-02  0.1312668E+00
        -11   -1    0    0    0    0  0.00000000000E+00  0.00000000000E+00  0.45593999997E+02  0.45594000000E+02  0.51100000000E-03 0.  1.
         11   -1    0    0    0    0 -0.00000000000E+00 -0.00000000000E+00 -0.45593999997E+02  0.45594000000E+02  0.51100000000E-03 0. -1.
    9900012    2    1    2    0    0 -0.82638280748E+01  0.24588647954E+02 -0.34795554753E+02  0.47787273126E+02  0.20000009490E+02 0.  0.
        -12    1    1    2    0    0  0.82638280748E+01 -0.24588647954E+02  0.34795554753E+02  0.43400726874E+02  0.00000000000E+00 0.  1.
         11    1    3    3    0    0  0.11186118179E+01  0.76691656874E+01 -0.68115003476E+01  0.10318136071E+02  0.51100000000E-03 0. -1.
        -11    1    3    3    0    0  0.15529615811E+01 -0.22006028552E+01 -0.47031971745E+01  0.54198160967E+01  0.51100000000E-03 0.  1.
        -12    1    3    3    0    0 -0.10935401474E+02  0.19120085122E+02 -0.23280857231E+02  0.32049320958E+02  0.00000000000E+00 0.  1.
</event>
<event>
 7    1  0.2935819E-010  0.4778727E+02  0.7816164E-02  0.1312668E+00
        -11   -1    0    0    0    0  0.00000000000E+00  0.00000000000E+00  0.45593999997E+02  0.45594000000E+02  0.51100000000E-03 0.  1.
         11   -1    0    0    0    0 -0.00000000000E+00 -0.00000000000E+00 -0.45593999997E+02  0.45594000000E+02  0.51100000000E-03 0. -1.
    9900012    2    1    2    0    0 -0.19592805553E+01  0.24919040674E+02 -0.35479934957E+02  0.47787272437E+02  0.20000006350E+02 0.  0.
        -12    1    1    2    0    0  0.19592805553E+01 -0.24919040674E+02  0.35479934957E+02  0.43400727563E+02  0.00000000000E+00 0.  1.
         11    1    3    3    0    0 -0.10340527568E+01  0.71120877848E+00 -0.14638983082E+02  0.14692682157E+02  0.51100000000E-03 0. -1.
        -11    1    3    3    0    0 -0.11349647283E+01 -0.31277210592E+00 -0.11483236939E+01  0.16445725560E+01  0.51100000000E-03 0.  1.
         12    1    3    3    0    0  0.20973692980E+00  0.24520604001E+02 -0.19692628182E+02  0.31450017724E+02  0.00000000000E+00 0. -1.
</event>
<event>
 7    1  0.2935819E-010  0.4778726E+02  0.7816164E-02  0.1312668E+00
        -11   -1    0    0    0    0  0.00000000000E+00  0.00000000000E+00  0.45593999997E+02  0.45594000000E+02  0.51100000000E-03 0.  1.
         11   -1    0    0    0    0 -0.00000000000E+00 -0.00000000000E+00 -0.45593999997E+02  0.45594000000E+02  0.51100000000E-03 0. -1.
    9900012    2    1    2    0    0 -0.34703448148E+02 -0.25893175742E+02 -0.29728823073E+01  0.47787263916E+02  0.19999967500E+02 0.  0.
        -12    1    1    2    0    0  0.34703448148E+02  0.25893175742E+02  0.29728823073E+01  0.43400736084E+02  0.00000000000E+00 0.  1.
         11    1    3    3    0    0 -0.12560829529E+02 -0.83635276311E+00 -0.55907123234E+01  0.13774250940E+02  0.51100000000E-03 0. -1.
        -11    1    3    3    0    0 -0.32346200226E+01 -0.13373887837E+01  0.98223457745E+00  0.36354037569E+01  0.51100000000E-03 0.  1.
         12    1    3    3    0    0 -0.18907998596E+02 -0.23719434195E+02  0.16355954386E+01  0.30377609220E+02  0.00000000000E+00 0. -1.
</event>
<event>
 7    1  0.2935819E-010  0.4778727E+02  0.7816164E-02  0.1312668E+00
        -11   -1    0    0    0    0  0.00000000000E+00  0.00000000000E+00  0.45593999997E+02  0.45594000000E+02  0.51100000000E-03 0.  1.
         11   -1    0    0    0    0 -0.00000000000E+00 -0.00000000000E+00 -0.45593999997E+02  0.45594000000E+02  0.51100000000E-03 0. -1.
    9900012    2    1    2    0    0  0.32428115408E+02 -0.22911470147E+02 -0.17524413319E+02  0.47787271948E+02  0.20000004121E+02 0.  0.
        -12    1    1    2    0    0 -0.32428115408E+02  0.22911470147E+02  0.17524413319E+02  0.43400728052E+02  0.00000000000E+00 0.  1.
         11    1    3    3    0    0  0.20003699598E+02 -0.19684797453E+02 -0.88052945307E+01  0.29413814109E+02  0.51100000000E-03 0. -1.
        -11    1    3    3    0    0  0.16387088303E+01  0.29347424006E+01 -0.31497615213E+00  0.33759872372E+01  0.51100000000E-03 0.  1.
         12    1    3    3    0    0  0.10785706980E+02 -0.61614150945E+01 -0.84041426359E+01  0.14997470602E+02  0.00000000000E+00 0. -1.
</event>
<event>
 7    1  0.2935819E-010  0.4778727E+02  0.7816164E-02  0.1312668E+00
        -11   -1    0    0    0    0  0.00000000000E+00  0.00000000000E+00  0.45593999997E+02  0.45594000000E+02  0.51100000000E-03 0. -1.
         11   -1    0    0    0    0 -0.00000000000E+00 -0.00000000000E+00 -0.45593999997E+02  0.45594000000E+02  0.51100000000E-03 0.  1.
    9900012    2    1    2    0    0 -0.41365915594E+02 -0.42973949569E+01  0.12410333626E+02  0.47787274694E+02  0.20000016640E+02 0.  0.
        -12    1    1    2    0    0  0.41365915594E+02  0.42973949569E+01 -0.12410333626E+02  0.43400725306E+02  0.00000000000E+00 0.  1.
         11    1    3    3    0    0 -0.21465448524E+02  0.49730713748E+01  0.20136388634E+01  0.22125814357E+02  0.51100000000E-03 0. -1.
        -11    1    3    3    0    0 -0.14618916248E+01 -0.23371063698E+01  0.41754873410E+01  0.50033876626E+01  0.51100000000E-03 0.  1.
         12    1    3    3    0    0 -0.18438575445E+02 -0.69333599619E+01  0.62212074220E+01  0.20658072674E+02  0.00000000000E+00 0. -1.
</event>
<event>
 7    1  0.2935819E-010  0.4778727E+02  0.7816164E-02  0.1312668E+00
        -11   -1    0    0    0    0  0.00000000000E+00  0.00000000000E+00  0.45593999997E+02  0.45594000000E+02  0.51100000000E-03 0.  1.
         11   -1    0    0    0    0 -0.00000000000E+00 -0.00000000000E+00 -0.45593999997E+02  0.45594000000E+02  0.51100000000E-03 0. -1.
    9900012    2    1    2    0    0 -0.73949657510E+01 -0.40112140018E+02 -0.14830840892E+02  0.47787272623E+02  0.20000007198E+02 0.  0.
        -12    1    1    2    0    0  0.73949657510E+01  0.40112140018E+02  0.14830840892E+02  0.43400727377E+02  0.00000000000E+00 0.  1.
         11    1    3    3    0    0 -0.65555979900E+01 -0.14209598670E+02 -0.21781352565E+01  0.15799773189E+02  0.51100000000E-03 0. -1.
        -11    1    3    3    0    0  0.61597236140E+01 -0.14177928956E+02 -0.45690217267E+01  0.16119299745E+02  0.51100000000E-03 0.  1.
        -12    1    3    3    0    0 -0.69990913750E+01 -0.11724612392E+02 -0.80836839088E+01  0.15868199689E+02  0.00000000000E+00 0.  1.
</event>
<event>
 7    1  0.2935819E-010  0.4778728E+02  0.7816164E-02  0.1312668E+00
        -11   -1    0    0    0    0  0.00000000000E+00  0.00000000000E+00  0.45593999997E+02  0.45594000000E+02  0.51100000000E-03 0. -1.
         11   -1    0    0    0    0 -0.00000000000E+00 -0.00000000000E+00 -0.45593999997E+02  0.45594000000E+02  0.51100000000E-03 0.  1.
    9900012    2    1    2    0    0  0.35113869269E+02  0.25061243970E+02  0.47511201496E+01  0.47787275271E+02  0.20000019270E+02 0.  0.
        -12    1    1    2    0    0 -0.35113869269E+02 -0.25061243970E+02 -0.47511201496E+01  0.43400724729E+02  0.00000000000E+00 0.  1.
         11    1    3    3    0    0  0.28777533086E+01  0.23513056794E+00  0.37567004814E+00  0.29116797103E+01  0.51100000000E-03 0. -1.
        -11    1    3    3    0    0  0.23536453458E+02  0.13824932415E+02 -0.53401481505E+01  0.27813855903E+02  0.51100000000E-03 0.  1.
        -12    1    3    3    0    0  0.86996625021E+01  0.11001180987E+02  0.97155982520E+01  0.17061739658E+02  0.00000000000E+00 0.  1.
</event>
<event>
 7    1  0.2935819E-010  0.4778728E+02  0.7816164E-02  0.1312668E+00
        -11   -1    0    0    0    0  0.00000000000E+00  0.00000000000E+00  0.45593999997E+02  0.45594000000E+02  0.51100000000E-03 0.  1.
         11   -1    0    0    0    0 -0.00000000000E+00 -0.00000000000E+00 -0.45593999997E+02  0.45594000000E+02  0.51100000000E-03 0. -1.
    9900012    2    1    2    0    0 -0.82218045561E+01  0.61702679382E+01 -0.42165773152E+02  0.47787277632E+02  0.20000030036E+02 0.  0.
        -12    1    1    2    0    0  0.82218045561E+01 -0.61702679382E+01  0.42165773152E+02  0.43400722368E+02  0.00000000000E+00 0.  1.
         11    1    3    3    0    0 -0.48440986136E+01 -0.12415338225E+01 -0.23262725945E+02  0.23794140377E+02  0.51100000000E-03 0. -1.
        -11    1    3    3    0    0  0.29335470532E-01 -0.33570259607E+01 -0.57273846887E+01  0.66387814773E+01  0.51100000000E-03 0.  1.
         12    1    3    3    0    0 -0.34070414130E+01  0.10768827721E+02 -0.13175662517E+02  0.17354355778E+02  0.00000000000E+00 0. -1.
</event>
<event>
 7    1  0.2935819E-010  0.4778727E+02  0.7816164E-02  0.1312668E+00
        -11   -1    0    0    0    0  0.00000000000E+00  0.00000000000E+00  0.45593999997E+02  0.45594000000E+02  0.51100000000E-03 0.  1.
         11   -1    0    0    0    0 -0.00000000000E+00 -0.00000000000E+00 -0.45593999997E+02  0.45594000000E+02  0.51100000000E-03 0. -1.
    9900012    2    1    2    0    0 -0.30566801848E+02  0.30612715557E+02  0.34865533928E+01  0.47787265173E+02  0.19999973229E+02 0.  0.
        -12    1    1    2    0    0  0.30566801848E+02 -0.30612715557E+02 -0.34865533928E+01  0.43400734827E+02  0.00000000000E+00 0.  1.
         11    1    3    3    0    0 -0.26487407058E+02  0.27794680551E+02  0.88838605625E+01  0.39408755098E+02  0.51100000000E-03 0. -1.
        -11    1    3    3    0    0 -0.36925081558E+01  0.38121842641E+01 -0.47997907431E+01  0.71557918348E+01  0.51100000000E-03 0.  1.
        -12    1    3    3    0    0 -0.38688663408E+00 -0.99414925830E+00 -0.59751642650E+00  0.12227182404E+01  0.00000000000E+00 0.  1.
</event>
<event>
 7    1  0.2935819E-010  0.4778728E+02  0.7816164E-02  0.1312668E+00
        -11   -1    0    0    0    0  0.00000000000E+00  0.00000000000E+00  0.45593999997E+02  0.45594000000E+02  0.51100000000E-03 0.  1.
         11   -1    0    0    0    0 -0.00000000000E+00 -0.00000000000E+00 -0.45593999997E+02  0.45594000000E+02  0.51100000000E-03 0. -1.
    9900012    2    1    2    0    0 -0.30711973678E+02 -0.28988501781E+02 -0.10003217051E+02  0.47787275189E+02  0.20000018899E+02 0.  0.
        -12    1    1    2    0    0  0.30711973678E+02  0.28988501781E+02  0.10003217051E+02  0.43400724811E+02  0.00000000000E+00 0.  1.
         11    1    3    3    0    0 -0.19439390142E+02 -0.16207400239E+02 -0.66660294268E+01  0.26172612789E+02  0.51100000000E-03 0. -1.
        -11    1    3    3    0    0  0.25571827598E+01 -0.43535399140E+01  0.13739374979E+00  0.50508782161E+01  0.51100000000E-03 0.  1.
        -12    1    3    3    0    0 -0.13829766296E+02 -0.84275616274E+01 -0.34745813740E+01  0.16563784185E+02  0.00000000000E+00 0.  1.
</event>
<event>
 7    1  0.2935819E-010  0.4778727E+02  0.7816164E-02  0.1312668E+00
        -11   -1    0    0    0    0  0.00000000000E+00  0.00000000000E+00  0.45593999997E+02  0.45594000000E+02  0.51100000000E-03 0.  1.
         11   -1    0    0    0    0 -0.00000000000E+00 -0.00000000000E+00 -0.45593999997E+02  0.45594000000E+02  0.51100000000E-03 0. -1.
    9900012    2    1    2    0    0  0.37447068858E+02 -0.90517499022E+01 -0.19985154025E+02  0.47787268166E+02  0.19999986875E+02 0.  0.
        -12    1    1    2    0    0 -0.37447068858E+02  0.90517499022E+01  0.19985154025E+02  0.43400731834E+02  0.00000000000E+00 0.  1.
         11    1    3    3    0    0 -0.20518094715E+01 -0.15359868910E+01 -0.12893118056E+01  0.28690596072E+01  0.51100000000E-03 0. -1.
        -11    1    3    3    0    0  0.13509483185E+01  0.10462426976E+01 -0.11821875785E+01  0.20778000081E+01  0.51100000000E-03 0.  1.
         12    1    3    3    0    0  0.38147930011E+02 -0.85620057089E+01 -0.17513654641E+02  0.42840408550E+02  0.00000000000E+00 0. -1.
</event>
<event>
 7    1  0.2935819E-010  0.4778727E+02  0.7816164E-02  0.1312668E+00
        -11   -1    0    0    0    0  0.00000000000E+00  0.00000000000E+00  0.45593999997E+02  0.45594000000E+02  0.51100000000E-03 0. -1.
         11   -1    0    0    0    0 -0.00000000000E+00 -0.00000000000E+00 -0.45593999997E+02  0.45594000000E+02  0.51100000000E-03 0.  1.
    9900012    2    1    2    0    0  0.20556205925E+02 -0.19418628896E+02 -0.32923886610E+02  0.47787273512E+02  0.20000011248E+02 0.  0.
        -12    1    1    2    0    0 -0.20556205925E+02  0.19418628896E+02  0.32923886610E+02  0.43400726488E+02  0.00000000000E+00 0.  1.
         11    1    3    3    0    0  0.11437620007E+02  0.38820729053E+00 -0.12974735379E+02  0.17300682494E+02  0.51100000000E-03 0.  1.
        -11    1    3    3    0    0  0.10294114751E+02 -0.16174985309E+02 -0.17441983562E+02  0.25919524284E+02  0.51100000000E-03 0. -1.
        -12    1    3    3    0    0 -0.11755288333E+01 -0.36318508773E+01 -0.25071676686E+01  0.45670667338E+01  0.00000000000E+00 0.  1.
</event>
<event>
 7    1  0.2935819E-010  0.4778727E+02  0.7816164E-02  0.1312668E+00
        -11   -1    0    0    0    0  0.00000000000E+00  0.00000000000E+00  0.45593999997E+02  0.45594000000E+02  0.51100000000E-03 0.  1.
         11   -1    0    0    0    0 -0.00000000000E+00 -0.00000000000E+00 -0.45593999997E+02  0.45594000000E+02  0.51100000000E-03 0. -1.
    9900012    2    1    2    0    0  0.37780913208E+02 -0.33841078710E+01  0.21089651212E+02  0.47787274462E+02  0.20000015584E+02 0.  0.
        -12    1    1    2    0    0 -0.37780913208E+02  0.33841078710E+01 -0.21089651212E+02  0.43400725538E+02  0.00000000000E+00 0.  1.
         11    1    3    3    0    0  0.17681842911E+02 -0.10515223192E+02  0.12868103564E+02  0.24265316341E+02  0.51100000000E-03 0. -1.
        -11    1    3    3    0    0  0.10881187255E+02  0.57751383731E+01  0.24438804322E+01  0.12558861856E+02  0.51100000000E-03 0.  1.
        -12    1    3    3    0    0  0.92178830425E+01  0.13559769480E+01  0.57776672157E+01  0.10963096265E+02  0.00000000000E+00 0.  1.
</event>
<event>
 7    1  0.2935819E-010  0.4778727E+02  0.7816164E-02  0.1312668E+00
        -11   -1    0    0    0    0  0.00000000000E+00  0.00000000000E+00  0.45593999997E+02  0.45594000000E+02  0.51100000000E-03 0.  1.
         11   -1    0    0    0    0 -0.00000000000E+00 -0.00000000000E+00 -0.45593999997E+02  0.45594000000E+02  0.51100000000E-03 0. -1.
    9900012    2    1    2    0    0 -0.40277110026E+02 -0.65426745107E+01 -0.14784139457E+02  0.47787274645E+02  0.20000016418E+02 0.  0.
        -12    1    1    2    0    0  0.40277110026E+02  0.65426745107E+01  0.14784139457E+02  0.43400725355E+02  0.00000000000E+00 0.  1.
         11    1    3    3    0    0 -0.17353518371E+02  0.13252096466E+01 -0.54149347802E+01  0.18226966270E+02  0.51100000000E-03 0. -1.
        -11    1    3    3    0    0 -0.22954690109E+02 -0.97405093396E+01 -0.10829009596E+02  0.27185708917E+02  0.51100000000E-03 0.  1.
        -12    1    3    3    0    0  0.31098453963E-01  0.18726251822E+01  0.14598049197E+01  0.23745994590E+01  0.00000000000E+00 0.  1.
</event>
<event>
 7    1  0.2935819E-010  0.4778728E+02  0.7816164E-02  0.1312668E+00
        -11   -1    0    0    0    0  0.00000000000E+00  0.00000000000E+00  0.45593999997E+02  0.45594000000E+02  0.51100000000E-03 0.  1.
         11   -1    0    0    0    0 -0.00000000000E+00 -0.00000000000E+00 -0.45593999997E+02  0.45594000000E+02  0.51100000000E-03 0. -1.
    9900012    2    1    2    0    0  0.92789410659E+01  0.42310367119E+02 -0.27123740379E+01  0.47787275513E+02  0.20000020374E+02 0.  0.
        -12    1    1    2    0    0 -0.92789410659E+01 -0.42310367119E+02  0.27123740379E+01  0.43400724487E+02  0.00000000000E+00 0.  1.
         11    1    3    3    0    0  0.56683831054E+01  0.14136811263E+02 -0.62143611683E+01  0.16449871875E+02  0.51100000000E-03 0. -1.
        -11    1    3    3    0    0 -0.71438338211E+00  0.10906644860E+02  0.72905303416E+01  0.13138381888E+02  0.51100000000E-03 0.  1.
        -12    1    3    3    0    0  0.43249413426E+01  0.17266910997E+02 -0.37885432112E+01  0.18199021750E+02  0.00000000000E+00 0.  1.
</event>
<event>
 7    1  0.2935819E-010  0.4778726E+02  0.7816164E-02  0.1312668E+00
        -11   -1    0    0    0    0  0.00000000000E+00  0.00000000000E+00  0.45593999997E+02  0.45594000000E+02  0.51100000000E-03 0.  1.
         11   -1    0    0    0    0 -0.00000000000E+00 -0.00000000000E+00 -0.45593999997E+02  0.45594000000E+02  0.51100000000E-03 0. -1.
    9900012    2    1    2    0    0 -0.35442893634E+02 -0.21914942892E+02  0.12130980820E+02  0.47787261218E+02  0.19999955199E+02 0.  0.
        -12    1    1    2    0    0  0.35442893634E+02  0.21914942892E+02 -0.12130980820E+02  0.43400738782E+02  0.00000000000E+00 0.  1.
         11    1    3    3    0    0 -0.21308436093E+02 -0.59285929978E+01  0.13667944087E+02  0.26000199220E+02  0.51100000000E-03 0. -1.
        -11    1    3    3    0    0 -0.33451544264E+01 -0.43718109476E+01 -0.21815435979E+01  0.59213108202E+01  0.51100000000E-03 0.  1.
         12    1    3    3    0    0 -0.10789303115E+02 -0.11614538946E+02  0.64458033110E+00  0.15865751178E+02  0.00000000000E+00 0. -1.
</event>
<event>
 7    1  0.2935819E-010  0.4778727E+02  0.7816164E-02  0.1312668E+00
        -11   -1    0    0    0    0  0.00000000000E+00  0.00000000000E+00  0.45593999997E+02  0.45594000000E+02  0.51100000000E-03 0. -1.
         11   -1    0    0    0    0 -0.00000000000E+00 -0.00000000000E+00 -0.45593999997E+02  0.45594000000E+02  0.51100000000E-03 0.  1.
    9900012    2    1    2    0    0  0.25724924599E+02  0.24562953657E+02  0.24869916700E+02  0.47787271957E+02  0.20000004163E+02 0.  0.
        -12    1    1    2    0    0 -0.25724924599E+02 -0.24562953657E+02 -0.24869916700E+02  0.43400728043E+02  0.00000000000E+00 0.  1.
         11    1    3    3    0    0  0.48531459261E+01  0.11676929277E+02  0.56264574323E+01  0.13840546457E+02  0.51100000000E-03 0. -1.
        -11    1    3    3    0    0  0.15510421701E+02  0.50227256904E+01  0.18101810857E+02  0.24361373345E+02  0.51100000000E-03 0.  1.
        -12    1    3    3    0    0  0.53613569715E+01  0.78632986894E+01  0.11416484114E+01  0.95853521557E+01  0.00000000000E+00 0.  1.
</event>
<event>
 7    1  0.2935819E-010  0.4778727E+02  0.7816164E-02  0.1312668E+00
        -11   -1    0    0    0    0  0.00000000000E+00  0.00000000000E+00  0.45593999997E+02  0.45594000000E+02  0.51100000000E-03 0. -1.
         11   -1    0    0    0    0 -0.00000000000E+00 -0.00000000000E+00 -0.45593999997E+02  0.45594000000E+02  0.51100000000E-03 0.  1.
    9900012    2    1    2    0    0  0.22091069826E+02 -0.17524763408E+02  0.32992278777E+02  0.47787272385E+02  0.20000006113E+02 0.  0.
        -12    1    1    2    0    0 -0.22091069826E+02  0.17524763408E+02 -0.32992278777E+02  0.43400727615E+02  0.00000000000E+00 0.  1.
         11    1    3    3    0    0 -0.80202840097E+00  0.23738050796E+01  0.59272380874E+00  0.25747857943E+01  0.51100000000E-03 0. -1.
        -11    1    3    3    0    0  0.12104040213E+02 -0.15351809633E+02  0.17296071158E+02  0.26102488890E+02  0.51100000000E-03 0.  1.
        -12    1    3    3    0    0  0.10789058014E+02 -0.45467588551E+01  0.15103483810E+02  0.19109997701E+02  0.00000000000E+00 0.  1.
</event>
<event>
 7    1  0.2935819E-010  0.4778727E+02  0.7816164E-02  0.1312668E+00
        -11   -1    0    0    0    0  0.00000000000E+00  0.00000000000E+00  0.45593999997E+02  0.45594000000E+02  0.51100000000E-03 0. -1.
         11   -1    0    0    0    0 -0.00000000000E+00 -0.00000000000E+00 -0.45593999997E+02  0.45594000000E+02  0.51100000000E-03 0.  1.
    9900012    2    1    2    0    0 -0.31829059791E+02  0.88613932128E+01  0.28142669001E+02  0.47787272410E+02  0.20000006224E+02 0.  0.
        -12    1    1    2    0    0  0.31829059791E+02 -0.88613932128E+01 -0.28142669001E+02  0.43400727590E+02  0.00000000000E+00 0.  1.
         11    1    3    3    0    0 -0.84898609766E+01 -0.48544016124E+00  0.32730484433E-01  0.85037911015E+01  0.51100000000E-03 0. -1.
        -11    1    3    3    0    0 -0.13904660641E+02  0.11862935846E+01  0.95084770471E+01  0.16886622399E+02  0.51100000000E-03 0.  1.
         12    1    3    3    0    0 -0.94345381735E+01  0.81605397895E+01  0.18601461470E+02  0.22396858909E+02  0.00000000000E+00 0. -1.
</event>
<event>
 7    1  0.2935819E-010  0.4778727E+02  0.7816164E-02  0.1312668E+00
        -11   -1    0    0    0    0  0.00000000000E+00  0.00000000000E+00  0.45593999997E+02  0.45594000000E+02  0.51100000000E-03 0.  1.
         11   -1    0    0    0    0 -0.00000000000E+00 -0.00000000000E+00 -0.45593999997E+02  0.45594000000E+02  0.51100000000E-03 0. -1.
    9900012    2    1    2    0    0  0.36098981572E+02 -0.23821004798E+02 -0.36120370114E+01  0.47787267846E+02  0.19999985416E+02 0.  0.
        -12    1    1    2    0    0 -0.36098981572E+02  0.23821004798E+02  0.36120370114E+01  0.43400732154E+02  0.00000000000E+00 0.  1.
         11    1    3    3    0    0  0.25221162127E+02 -0.80856521067E+01 -0.30112338739E+01  0.26656187251E+02  0.51100000000E-03 0. -1.
        -11    1    3    3    0    0  0.43125338231E+01 -0.76657747693E+01 -0.46725774696E+01  0.99596702385E+01  0.51100000000E-03 0.  1.
         12    1    3    3    0    0  0.65652856220E+01 -0.80695779222E+01  0.40717743321E+01  0.11171410356E+02  0.00000000000E+00 0. -1.
</event>
<event>
 7    1  0.2935819E-010  0.4778727E+02  0.7816164E-02  0.1312668E+00
        -11   -1    0    0    0    0  0.00000000000E+00  0.00000000000E+00  0.45593999997E+02  0.45594000000E+02  0.51100000000E-03 0.  1.
         11   -1    0    0    0    0 -0.00000000000E+00 -0.00000000000E+00 -0.45593999997E+02  0.45594000000E+02  0.51100000000E-03 0. -1.
    9900012    2    1    2    0    0  0.39894050835E+02  0.80014694067E+01 -0.15101792948E+02  0.47787274719E+02  0.20000016752E+02 0.  0.
        -12    1    1    2    0    0 -0.39894050835E+02 -0.80014694067E+01  0.15101792948E+02  0.43400725281E+02  0.00000000000E+00 0.  1.
         11    1    3    3    0    0  0.21283273659E+02  0.26951813658E+00 -0.13237412178E+02  0.25065503368E+02  0.51100000000E-03 0. -1.
        -11    1    3    3    0    0  0.19674983966E+02  0.65577998971E+01 -0.69210910336E+00  0.20750632493E+02  0.51100000000E-03 0.  1.
         12    1    3    3    0    0 -0.10642067899E+01  0.11741513730E+01 -0.11722716663E+01  0.19711388581E+01  0.00000000000E+00 0. -1.
</event>
<event>
 7    1  0.2935819E-010  0.4778727E+02  0.7816164E-02  0.1312668E+00
        -11   -1    0    0    0    0  0.00000000000E+00  0.00000000000E+00  0.45593999997E+02  0.45594000000E+02  0.51100000000E-03 0.  1.
         11   -1    0    0    0    0 -0.00000000000E+00 -0.00000000000E+00 -0.45593999997E+02  0.45594000000E+02  0.51100000000E-03 0. -1.
    9900012    2    1    2    0    0  0.16070771657E+02 -0.33720819523E+02 -0.22096603350E+02  0.47787271313E+02  0.20000001223E+02 0.  0.
        -12    1    1    2    0    0 -0.16070771657E+02  0.33720819523E+02  0.22096603350E+02  0.43400728687E+02  0.00000000000E+00 0.  1.
         11    1    3    3    0    0 -0.30639581870E+01 -0.29814292244E+01 -0.24889491660E+01  0.49468806539E+01  0.51100000000E-03 0. -1.
        -11    1    3    3    0    0  0.14379962307E+02 -0.12389112102E+02 -0.11726422367E+02  0.22311037547E+02  0.51100000000E-03 0.  1.
        -12    1    3    3    0    0  0.47547675368E+01 -0.18350278197E+02 -0.78812318179E+01  0.20529353112E+02  0.00000000000E+00 0.  1.
</event>
<event>
 7    1  0.2935819E-010  0.4778727E+02  0.7816164E-02  0.1312668E+00
        -11   -1    0    0    0    0  0.00000000000E+00  0.00000000000E+00  0.45593999997E+02  0.45594000000E+02  0.51100000000E-03 0.  1.
         11   -1    0    0    0    0 -0.00000000000E+00 -0.00000000000E+00 -0.45593999997E+02  0.45594000000E+02  0.51100000000E-03 0. -1.
    9900012    2    1    2    0    0 -0.22455038044E+02  0.29564340662E+02 -0.22479866742E+02  0.47787269809E+02  0.19999994367E+02 0.  0.
        -12    1    1    2    0    0  0.22455038044E+02 -0.29564340662E+02  0.22479866742E+02  0.43400730191E+02  0.00000000000E+00 0.  1.
         11    1    3    3    0    0 -0.19421991725E+02  0.22092375454E+02 -0.16804009680E+02  0.33877153915E+02  0.51100000000E-03 0. -1.
        -11    1    3    3    0    0  0.72348536361E+00 -0.21190909791E+01 -0.19089512705E+01  0.29424603418E+01  0.51100000000E-03 0.  1.
        -12    1    3    3    0    0 -0.37565316827E+01  0.95910561878E+01 -0.37669057914E+01  0.10967655553E+02  0.00000000000E+00 0.  1.
</event>
<event>
 7    1  0.2935819E-010  0.4778726E+02  0.7816164E-02  0.1312668E+00
        -11   -1    0    0    0    0  0.00000000000E+00  0.00000000000E+00  0.45593999997E+02  0.45594000000E+02  0.51100000000E-03 0.  1.
         11   -1    0    0    0    0 -0.00000000000E+00 -0.00000000000E+00 -0.45593999997E+02  0.45594000000E+02  0.51100000000E-03 0. -1.
    9900012    2    1    2    0    0  0.39813306866E+02 -0.87462904180E+01 -0.14900587095E+02  0.47787256971E+02  0.19999935833E+02 0.  0.
        -12    1    1    2    0    0 -0.39813306866E+02  0.87462904180E+01  0.14900587095E+02  0.43400743029E+02  0.00000000000E+00 0.  1.
         11    1    3    3    0    0  0.21419716054E+02 -0.24496109929E+01 -0.17344092490E+02  0.27669882082E+02  0.51100000000E-03 0. -1.
        -11    1    3    3    0    0  0.10793341369E+02 -0.59754627507E+01  0.10282461018E+01  0.12379808694E+02  0.51100000000E-03 0.  1.
         12    1    3    3    0    0  0.76002494433E+01 -0.32121667435E+00  0.14152592938E+01  0.77375661949E+01  0.00000000000E+00 0. -1.
</event>
<event>
 7    1  0.2935819E-010  0.4778727E+02  0.7816164E-02  0.1312668E+00
        -11   -1    0    0    0    0  0.00000000000E+00  0.00000000000E+00  0.45593999997E+02  0.45594000000E+02  0.51100000000E-03 0.  1.
         11   -1    0    0    0    0 -0.00000000000E+00 -0.00000000000E+00 -0.45593999997E+02  0.45594000000E+02  0.51100000000E-03 0. -1.
    9900012    2    1    2    0    0 -0.17962257601E+02 -0.12911679999E+02 -0.37339908957E+02  0.47787274437E+02  0.20000015468E+02 0.  0.
        -12    1    1    2    0    0  0.17962257601E+02  0.12911679999E+02  0.37339908957E+02  0.43400725563E+02  0.00000000000E+00 0.  1.
         11    1    3    3    0    0 -0.11618238466E+02  0.33056635251E+00 -0.20997034702E+02  0.23999337609E+02  0.51100000000E-03 0. -1.
        -11    1    3    3    0    0 -0.27689656533E+00 -0.37541697599E+01 -0.10386813657E+02  0.11047912042E+02  0.51100000000E-03 0.  1.
         12    1    3    3    0    0 -0.60671225697E+01 -0.94880765915E+01 -0.59560605986E+01  0.12740024786E+02  0.00000000000E+00 0. -1.
</event>
<event>
 7    1  0.2935819E-010  0.4778727E+02  0.7816164E-02  0.1312668E+00
        -11   -1    0    0    0    0  0.00000000000E+00  0.00000000000E+00  0.45593999997E+02  0.45594000000E+02  0.51100000000E-03 0.  1.
         11   -1    0    0    0    0 -0.00000000000E+00 -0.00000000000E+00 -0.45593999997E+02  0.45594000000E+02  0.51100000000E-03 0. -1.
    9900012    2    1    2    0    0 -0.34915023459E+01 -0.44598936027E+01 -0.43029553881E+02  0.47787265597E+02  0.19999975161E+02 0.  0.
        -12    1    1    2    0    0  0.34915023459E+01  0.44598936027E+01  0.43029553881E+02  0.43400734403E+02  0.00000000000E+00 0.  1.
         11    1    3    3    0    0 -0.64569289928E+01 -0.67974636594E+00 -0.31839047378E+02  0.32494290657E+02  0.51100000000E-03 0. -1.
        -11    1    3    3    0    0  0.16512212643E+01  0.17566962576E+01  0.33988880017E+00  0.24347562635E+01  0.51100000000E-03 0.  1.
        -12    1    3    3    0    0  0.13142053826E+01 -0.55368434944E+01 -0.11530395303E+02  0.12858218676E+02  0.00000000000E+00 0.  1.
</event>
<event>
 7    1  0.2935819E-010  0.4778726E+02  0.7816164E-02  0.1312668E+00
        -11   -1    0    0    0    0  0.00000000000E+00  0.00000000000E+00  0.45593999997E+02  0.45594000000E+02  0.51100000000E-03 0.  1.
         11   -1    0    0    0    0 -0.00000000000E+00 -0.00000000000E+00 -0.45593999997E+02  0.45594000000E+02  0.51100000000E-03 0. -1.
    9900012    2    1    2    0    0  0.26929579822E+02  0.19710530064E+02 -0.27747376687E+02  0.47787260631E+02  0.19999952519E+02 0.  0.
        -12    1    1    2    0    0 -0.26929579822E+02 -0.19710530064E+02  0.27747376687E+02  0.43400739369E+02  0.00000000000E+00 0.  1.
         11    1    3    3    0    0  0.12058079516E+02  0.93253739687E+01 -0.11727171351E+02  0.19232431709E+02  0.51100000000E-03 0. -1.
        -11    1    3    3    0    0  0.36284600190E+01  0.10924940001E+02 -0.42564282201E+01  0.12273435443E+02  0.51100000000E-03 0.  1.
        -12    1    3    3    0    0  0.11243040287E+02 -0.53978390568E+00 -0.11763777116E+02  0.16281393479E+02  0.00000000000E+00 0.  1.
</event>
<event>
 7    1  0.2935819E-010  0.4778728E+02  0.7816164E-02  0.1312668E+00
        -11   -1    0    0    0    0  0.00000000000E+00  0.00000000000E+00  0.45593999997E+02  0.45594000000E+02  0.51100000000E-03 0.  1.
         11   -1    0    0    0    0 -0.00000000000E+00 -0.00000000000E+00 -0.45593999997E+02  0.45594000000E+02  0.51100000000E-03 0. -1.
    9900012    2    1    2    0    0 -0.19391404337E+02  0.25594489070E+02 -0.29197915423E+02  0.47787277679E+02  0.20000030251E+02 0.  0.
        -12    1    1    2    0    0  0.19391404337E+02 -0.25594489070E+02  0.29197915423E+02  0.43400722321E+02  0.00000000000E+00 0.  1.
         11    1    3    3    0    0 -0.10144866773E+02  0.53663732317E+00 -0.76320754939E+01  0.12706489604E+02  0.51100000000E-03 0. -1.
        -11    1    3    3    0    0 -0.10343229829E+01  0.13022570615E+02 -0.11081536878E+02  0.17130605048E+02  0.51100000000E-03 0.  1.
         12    1    3    3    0    0 -0.82122145807E+01  0.12035281132E+02 -0.10484303051E+02  0.17950183027E+02  0.00000000000E+00 0. -1.
</event>
<event>
 7    1  0.2935819E-010  0.4778727E+02  0.7816164E-02  0.1312668E+00
        -11   -1    0    0    0    0  0.00000000000E+00  0.00000000000E+00  0.45593999997E+02  0.45594000000E+02  0.51100000000E-03 0. -1.
         11   -1    0    0    0    0 -0.00000000000E+00 -0.00000000000E+00 -0.45593999997E+02  0.45594000000E+02  0.51100000000E-03 0.  1.
    9900012    2    1    2    0    0  0.18408422619E+02 -0.27462052886E+02  0.28117409786E+02  0.47787272989E+02  0.20000008868E+02 0.  0.
        -12    1    1    2    0    0 -0.18408422619E+02  0.27462052886E+02 -0.28117409786E+02  0.43400727011E+02  0.00000000000E+00 0.  1.
         11    1    3    3    0    0  0.82061999356E+01 -0.14335445800E+02  0.15866879738E+02  0.22904248439E+02  0.51100000000E-03 0. -1.
        -11    1    3    3    0    0  0.28457634145E+01  0.27646681300E+01  0.10794279489E+01  0.41118030399E+01  0.51100000000E-03 0.  1.
        -12    1    3    3    0    0  0.73564592687E+01 -0.15891275215E+02  0.11171102099E+02  0.20771221511E+02  0.00000000000E+00 0.  1.
</event>
<event>
 7    1  0.2935819E-010  0.4778727E+02  0.7816164E-02  0.1312668E+00
        -11   -1    0    0    0    0  0.00000000000E+00  0.00000000000E+00  0.45593999997E+02  0.45594000000E+02  0.51100000000E-03 0.  1.
         11   -1    0    0    0    0 -0.00000000000E+00 -0.00000000000E+00 -0.45593999997E+02  0.45594000000E+02  0.51100000000E-03 0. -1.
    9900012    2    1    2    0    0  0.98937449237E+00 -0.59758767261E+01 -0.42975960653E+02  0.47787272373E+02  0.20000006056E+02 0.  0.
        -12    1    1    2    0    0 -0.98937449237E+00  0.59758767261E+01  0.42975960653E+02  0.43400727627E+02  0.00000000000E+00 0.  1.
         11    1    3    3    0    0 -0.83868487630E+00 -0.24648188912E+01 -0.37237432641E+02  0.37328341973E+02  0.51100000000E-03 0. -1.
        -11    1    3    3    0    0  0.18349493715E+01 -0.58159212737E+01 -0.53679398713E+01  0.81244543313E+01  0.51100000000E-03 0.  1.
         12    1    3    3    0    0 -0.68900027889E-02  0.23048634387E+01 -0.37058814016E+00  0.23344760682E+01  0.00000000000E+00 0. -1.
</event>
<event>
 7    1  0.2935819E-010  0.4778727E+02  0.7816164E-02  0.1312668E+00
        -11   -1    0    0    0    0  0.00000000000E+00  0.00000000000E+00  0.45593999997E+02  0.45594000000E+02  0.51100000000E-03 0.  1.
         11   -1    0    0    0    0 -0.00000000000E+00 -0.00000000000E+00 -0.45593999997E+02  0.45594000000E+02  0.51100000000E-03 0. -1.
    9900012    2    1    2    0    0 -0.25551604863E+02  0.34587225735E+02 -0.58705060978E+01  0.47787268013E+02  0.19999986180E+02 0.  0.
        -12    1    1    2    0    0  0.25551604863E+02 -0.34587225735E+02  0.58705060978E+01  0.43400731987E+02  0.00000000000E+00 0.  1.
         11    1    3    3    0    0 -0.52407434936E+01  0.26344581509E+01  0.44478711509E+01  0.73613395623E+01  0.51100000000E-03 0. -1.
        -11    1    3    3    0    0 -0.72747243033E+01  0.13003524150E+02  0.71264712951E+00  0.14917141824E+02  0.51100000000E-03 0.  1.
         12    1    3    3    0    0 -0.13036137066E+02  0.18949243434E+02 -0.11031024378E+02  0.25508786627E+02  0.00000000000E+00 0. -1.
</event>
<event>
 7    1  0.2935819E-010  0.4778727E+02  0.7816164E-02  0.1312668E+00
        -11   -1    0    0    0    0  0.00000000000E+00  0.00000000000E+00  0.45593999997E+02  0.45594000000E+02  0.51100000000E-03 0.  1.
         11   -1    0    0    0    0 -0.00000000000E+00 -0.00000000000E+00 -0.45593999997E+02  0.45594000000E+02  0.51100000000E-03 0. -1.
    9900012    2    1    2    0    0  0.21724657155E+02 -0.30667652763E+02 -0.21706168283E+02  0.47787269637E+02  0.19999993584E+02 0.  0.
        -12    1    1    2    0    0 -0.21724657155E+02  0.30667652763E+02  0.21706168283E+02  0.43400730363E+02  0.00000000000E+00 0.  1.
         11    1    3    3    0    0  0.11693471482E+02 -0.57549207076E+01 -0.14257597746E+02  0.19316715078E+02  0.51100000000E-03 0. -1.
        -11    1    3    3    0    0  0.22851144157E+01 -0.12296842657E+02 -0.49784590624E+01  0.13461765936E+02  0.51100000000E-03 0.  1.
         12    1    3    3    0    0  0.77460712576E+01 -0.12615889398E+02 -0.24701114748E+01  0.15008788623E+02  0.00000000000E+00 0. -1.
</event>
<event>
 7    1  0.2935819E-010  0.4778727E+02  0.7816164E-02  0.1312668E+00
        -11   -1    0    0    0    0  0.00000000000E+00  0.00000000000E+00  0.45593999997E+02  0.45594000000E+02  0.51100000000E-03 0. -1.
         11   -1    0    0    0    0 -0.00000000000E+00 -0.00000000000E+00 -0.45593999997E+02  0.45594000000E+02  0.51100000000E-03 0.  1.
    9900012    2    1    2    0    0 -0.16522834043E+02  0.27663544118E+02  0.29074863142E+02  0.47787269768E+02  0.19999994178E+02 0.  0.
        -12    1    1    2    0    0  0.16522834043E+02 -0.27663544118E+02 -0.29074863142E+02  0.43400730232E+02  0.00000000000E+00 0.  1.
         11    1    3    3    0    0 -0.17881486283E+01  0.18079419304E+02  0.19029323284E+02  0.26309276364E+02  0.51100000000E-03 0. -1.
        -11    1    3    3    0    0 -0.11187170375E+02  0.83900734898E+01  0.43169920581E+01  0.14634976421E+02  0.51100000000E-03 0.  1.
         12    1    3    3    0    0 -0.35475150398E+01  0.11940513240E+01  0.57285478002E+01  0.68430169824E+01  0.00000000000E+00 0. -1.
</event>
<event>
 7    1  0.2935819E-010  0.4778727E+02  0.7816164E-02  0.1312668E+00
        -11   -1    0    0    0    0  0.00000000000E+00  0.00000000000E+00  0.45593999997E+02  0.45594000000E+02  0.51100000000E-03 0. -1.
         11   -1    0    0    0    0 -0.00000000000E+00 -0.00000000000E+00 -0.45593999997E+02  0.45594000000E+02  0.51100000000E-03 0.  1.
    9900012    2    1    2    0    0 -0.84611793521E+01  0.19684773715E+01  0.42522428313E+02  0.47787269950E+02  0.19999995012E+02 0.  0.
        -12    1    1    2    0    0  0.84611793521E+01 -0.19684773715E+01 -0.42522428313E+02  0.43400730050E+02  0.00000000000E+00 0.  1.
         11    1    3    3    0    0  0.57607622161E+01  0.18781153418E+01  0.20103136026E+02  0.20996422955E+02  0.51100000000E-03 0. -1.
        -11    1    3    3    0    0 -0.83542467023E+01 -0.15754767156E+01  0.11784397299E+02  0.14530918237E+02  0.51100000000E-03 0.  1.
         12    1    3    3    0    0 -0.58676948659E+01  0.16658387453E+01  0.10634894988E+02  0.12259928759E+02  0.00000000000E+00 0. -1.
</event>
<event>
 7    1  0.2935819E-010  0.4778727E+02  0.7816164E-02  0.1312668E+00
        -11   -1    0    0    0    0  0.00000000000E+00  0.00000000000E+00  0.45593999997E+02  0.45594000000E+02  0.51100000000E-03 0.  1.
         11   -1    0    0    0    0 -0.00000000000E+00 -0.00000000000E+00 -0.45593999997E+02  0.45594000000E+02  0.51100000000E-03 0. -1.
    9900012    2    1    2    0    0 -0.17772501187E+00 -0.14947861816E+02 -0.40744974783E+02  0.47787272712E+02  0.20000007604E+02 0.  0.
        -12    1    1    2    0    0  0.17772501187E+00  0.14947861816E+02  0.40744974783E+02  0.43400727288E+02  0.00000000000E+00 0.  1.
         11    1    3    3    0    0 -0.57543767656E+01 -0.31195715948E+01 -0.15999896240E+02  0.17287025738E+02  0.51100000000E-03 0. -1.
        -11    1    3    3    0    0  0.81405780818E+01 -0.93770471006E+01 -0.11991257942E+02  0.17262337360E+02  0.51100000000E-03 0.  1.
        -12    1    3    3    0    0 -0.25639263280E+01 -0.24512431206E+01 -0.12753820600E+02  0.13237909614E+02  0.00000000000E+00 0.  1.
</event>
<event>
 7    1  0.2935819E-010  0.4778727E+02  0.7816164E-02  0.1312668E+00
        -11   -1    0    0    0    0  0.00000000000E+00  0.00000000000E+00  0.45593999997E+02  0.45594000000E+02  0.51100000000E-03 0. -1.
         11   -1    0    0    0    0 -0.00000000000E+00 -0.00000000000E+00 -0.45593999997E+02  0.45594000000E+02  0.51100000000E-03 0.  1.
    9900012    2    1    2    0    0 -0.25451624258E+02 -0.48388082991E+01  0.34819881217E+02  0.47787269924E+02  0.19999994892E+02 0.  0.
        -12    1    1    2    0    0  0.25451624258E+02  0.48388082991E+01 -0.34819881217E+02  0.43400730076E+02  0.00000000000E+00 0.  1.
         11    1    3    3    0    0 -0.15452336174E+02 -0.21707522072E+01  0.23219542498E+02  0.27975596731E+02  0.51100000000E-03 0. -1.
        -11    1    3    3    0    0 -0.64399067937E+01  0.16041363977E+01 -0.33438390055E+00  0.66451084226E+01  0.51100000000E-03 0.  1.
        -12    1    3    3    0    0 -0.35593812899E+01 -0.42721924896E+01  0.11934722620E+02  0.13166564770E+02  0.00000000000E+00 0.  1.
</event>
<event>
 7    1  0.2935819E-010  0.4778727E+02  0.7816164E-02  0.1312668E+00
        -11   -1    0    0    0    0  0.00000000000E+00  0.00000000000E+00  0.45593999997E+02  0.45594000000E+02  0.51100000000E-03 0.  1.
         11   -1    0    0    0    0 -0.00000000000E+00 -0.00000000000E+00 -0.45593999997E+02  0.45594000000E+02  0.51100000000E-03 0. -1.
    9900012    2    1    2    0    0 -0.93445443251E+00 -0.22342646403E+02 -0.37196190586E+02  0.47787266740E+02  0.19999980373E+02 0.  0.
        -12    1    1    2    0    0  0.93445443251E+00  0.22342646403E+02  0.37196190586E+02  0.43400733260E+02  0.00000000000E+00 0.  1.
         11    1    3    3    0    0  0.50723544881E-01 -0.16050078748E+02 -0.12437791622E+02  0.20305325936E+02  0.51100000000E-03 0. -1.
        -11    1    3    3    0    0  0.24471148241E+01 -0.11567621343E+01 -0.92404085158E+00  0.28601261081E+01  0.51100000000E-03 0.  1.
         12    1    3    3    0    0 -0.34322928015E+01 -0.51358055211E+01 -0.23834358113E+02  0.24621814695E+02  0.00000000000E+00 0. -1.
</event>
<event>
 7    1  0.2935819E-010  0.4778727E+02  0.7816164E-02  0.1312668E+00
        -11   -1    0    0    0    0  0.00000000000E+00  0.00000000000E+00  0.45593999997E+02  0.45594000000E+02  0.51100000000E-03 0.  1.
         11   -1    0    0    0    0 -0.00000000000E+00 -0.00000000000E+00 -0.45593999997E+02  0.45594000000E+02  0.51100000000E-03 0. -1.
    9900012    2    1    2    0    0 -0.15341162335E+02 -0.33624605789E+02 -0.22752098619E+02  0.47787269962E+02  0.19999995066E+02 0.  0.
        -12    1    1    2    0    0  0.15341162335E+02  0.33624605789E+02  0.22752098619E+02  0.43400730038E+02  0.00000000000E+00 0.  1.
         11    1    3    3    0    0 -0.69500021992E+01 -0.17869516347E+02 -0.19218313328E+02  0.27147112415E+02  0.51100000000E-03 0. -1.
        -11    1    3    3    0    0 -0.53709176473E+01 -0.58605324241E+01  0.28949963800E+01  0.84601182597E+01  0.51100000000E-03 0.  1.
        -12    1    3    3    0    0 -0.30202424882E+01 -0.98945570183E+01 -0.64287816704E+01  0.12180039287E+02  0.00000000000E+00 0.  1.
</event>
<event>
 7    1  0.2935819E-010  0.4778727E+02  0.7816164E-02  0.1312668E+00
        -11   -1    0    0    0    0  0.00000000000E+00  0.00000000000E+00  0.45593999997E+02  0.45594000000E+02  0.51100000000E-03 0.  1.
         11   -1    0    0    0    0 -0.00000000000E+00 -0.00000000000E+00 -0.45593999997E+02  0.45594000000E+02  0.51100000000E-03 0. -1.
    9900012    2    1    2    0    0  0.16408197194E+02 -0.30452045795E+02 -0.26211971360E+02  0.47787268775E+02  0.19999989654E+02 0.  0.
        -12    1    1    2    0    0 -0.16408197194E+02  0.30452045795E+02  0.26211971360E+02  0.43400731225E+02  0.00000000000E+00 0.  1.
         11    1    3    3    0    0  0.16294916572E+01 -0.26431389918E+01 -0.96899351426E+01  0.10175277398E+02  0.51100000000E-03 0. -1.
        -11    1    3    3    0    0  0.13457113149E+02 -0.17282545438E+02 -0.60935412541E+01  0.22735688166E+02  0.51100000000E-03 0.  1.
         12    1    3    3    0    0  0.13215923874E+01 -0.10526361366E+02 -0.10428494963E+02  0.14876303211E+02  0.00000000000E+00 0. -1.
</event>
<event>
 7    1  0.2935819E-010  0.4778727E+02  0.7816164E-02  0.1312668E+00
        -11   -1    0    0    0    0  0.00000000000E+00  0.00000000000E+00  0.45593999997E+02  0.45594000000E+02  0.51100000000E-03 0. -1.
         11   -1    0    0    0    0 -0.00000000000E+00 -0.00000000000E+00 -0.45593999997E+02  0.45594000000E+02  0.51100000000E-03 0.  1.
    9900012    2    1    2    0    0  0.30840213008E+02  0.18993920174E+02  0.23910986654E+02  0.47787273915E+02  0.20000013087E+02 0.  0.
        -12    1    1    2    0    0 -0.30840213008E+02 -0.18993920174E+02 -0.23910986654E+02  0.43400726085E+02  0.00000000000E+00 0.  1.
         11    1    3    3    0    0  0.64270098310E+01 -0.18363484658E+01 -0.40070512188E+00  0.66962075767E+01  0.51100000000E-03 0.  1.
        -11    1    3    3    0    0  0.15622812516E+02  0.10440391361E+02  0.18244409877E+02  0.26190313757E+02  0.51100000000E-03 0. -1.
         12    1    3    3    0    0  0.87903906615E+01  0.10389877278E+02  0.60672818991E+01  0.14900752581E+02  0.00000000000E+00 0. -1.
</event>
<event>
 7    1  0.2935819E-010  0.4778727E+02  0.7816164E-02  0.1312668E+00
        -11   -1    0    0    0    0  0.00000000000E+00  0.00000000000E+00  0.45593999997E+02  0.45594000000E+02  0.51100000000E-03 0.  1.
         11   -1    0    0    0    0 -0.00000000000E+00 -0.00000000000E+00 -0.45593999997E+02  0.45594000000E+02  0.51100000000E-03 0. -1.
    9900012    2    1    2    0    0 -0.20001808225E+02 -0.14967931298E+02 -0.35489602739E+02  0.47787271870E+02  0.20000003765E+02 0.  0.
        -12    1    1    2    0    0  0.20001808225E+02  0.14967931298E+02  0.35489602739E+02  0.43400728130E+02  0.00000000000E+00 0.  1.
         11    1    3    3    0    0 -0.89217672245E+01 -0.99153828225E+01 -0.17254817509E+02  0.21809206185E+02  0.51100000000E-03 0. -1.
        -11    1    3    3    0    0 -0.12520448656E+02 -0.66514722280E+01 -0.97053147618E+01  0.17181293672E+02  0.51100000000E-03 0.  1.
         12    1    3    3    0    0  0.14404076553E+01  0.15989237520E+01 -0.85294704683E+01  0.87967720130E+01  0.00000000000E+00 0. -1.
</event>
<event>
 7    1  0.2935819E-010  0.4778727E+02  0.7816164E-02  0.1312668E+00
        -11   -1    0    0    0    0  0.00000000000E+00  0.00000000000E+00  0.45593999997E+02  0.45594000000E+02  0.51100000000E-03 0.  1.
         11   -1    0    0    0    0 -0.00000000000E+00 -0.00000000000E+00 -0.45593999997E+02  0.45594000000E+02  0.51100000000E-03 0. -1.
    9900012    2    1    2    0    0  0.24778030958E+02 -0.35607185083E+02 -0.13418500170E+01  0.47787274094E+02  0.20000013904E+02 0.  0.
        -12    1    1    2    0    0 -0.24778030958E+02  0.35607185083E+02  0.13418500170E+01  0.43400725906E+02  0.00000000000E+00 0.  1.
         11    1    3    3    0    0  0.17094296940E+02 -0.30798371172E+02 -0.77001202359E+01  0.36056157680E+02  0.51100000000E-03 0. -1.
        -11    1    3    3    0    0  0.73521773995E+01 -0.47990754764E+01  0.68514369365E+01  0.11136778093E+02  0.51100000000E-03 0.  1.
         12    1    3    3    0    0  0.33155661829E+00 -0.97384348361E-02 -0.49316671760E+00  0.59433832082E+00  0.00000000000E+00 0. -1.
</event>
<event>
 7    1  0.2935819E-010  0.4778727E+02  0.7816164E-02  0.1312668E+00
        -11   -1    0    0    0    0  0.00000000000E+00  0.00000000000E+00  0.45593999997E+02  0.45594000000E+02  0.51100000000E-03 0. -1.
         11   -1    0    0    0    0 -0.00000000000E+00 -0.00000000000E+00 -0.45593999997E+02  0.45594000000E+02  0.51100000000E-03 0.  1.
    9900012    2    1    2    0    0 -0.22711240637E+02  0.74422396639E+01  0.36227555079E+02  0.47787272708E+02  0.20000007584E+02 0.  0.
        -12    1    1    2    0    0  0.22711240637E+02 -0.74422396639E+01 -0.36227555079E+02  0.43400727292E+02  0.00000000000E+00 0.  1.
         11    1    3    3    0    0 -0.18829949745E+02 -0.21009917485E+01  0.25600702147E+02  0.31849287660E+02  0.51100000000E-03 0. -1.
        -11    1    3    3    0    0 -0.38848573861E+01  0.85596544635E+01  0.58739202002E+01  0.11084346630E+02  0.51100000000E-03 0.  1.
        -12    1    3    3    0    0  0.35664946926E-02  0.98357694887E+00  0.47529327321E+01  0.48536384177E+01  0.00000000000E+00 0.  1.
</event>
<event>
 7    1  0.2935819E-010  0.4778727E+02  0.7816164E-02  0.1312668E+00
        -11   -1    0    0    0    0  0.00000000000E+00  0.00000000000E+00  0.45593999997E+02  0.45594000000E+02  0.51100000000E-03 0.  1.
         11   -1    0    0    0    0 -0.00000000000E+00 -0.00000000000E+00 -0.45593999997E+02  0.45594000000E+02  0.51100000000E-03 0. -1.
    9900012    2    1    2    0    0 -0.17763097751E+02  0.14553797870E+02 -0.36827741424E+02  0.47787271751E+02  0.20000003222E+02 0.  0.
        -12    1    1    2    0    0  0.17763097751E+02 -0.14553797870E+02  0.36827741424E+02  0.43400728249E+02  0.00000000000E+00 0.  1.
         11    1    3    3    0    0 -0.39337589450E+01  0.99662832465E+00 -0.13772857887E+02  0.14358249966E+02  0.51100000000E-03 0. -1.
        -11    1    3    3    0    0 -0.13611762403E+02  0.87284515793E+01 -0.88694830901E+01  0.18442713283E+02  0.51100000000E-03 0.  1.
        -12    1    3    3    0    0 -0.21757640287E+00  0.48287179660E+01 -0.14185400447E+02  0.14986308502E+02  0.00000000000E+00 0.  1.
</event>
<event>
 7    1  0.2935819E-010  0.4778728E+02  0.7816164E-02  0.1312668E+00
        -11   -1    0    0    0    0  0.00000000000E+00  0.00000000000E+00  0.45593999997E+02  0.45594000000E+02  0.51100000000E-03 0.  1.
         11   -1    0    0    0    0 -0.00000000000E+00 -0.00000000000E+00 -0.45593999997E+02  0.45594000000E+02  0.51100000000E-03 0. -1.
    9900012    2    1    2    0    0 -0.11308031087E+02 -0.20313748053E+02 -0.36648368478E+02  0.47787276053E+02  0.20000022837E+02 0.  0.
        -12    1    1    2    0    0  0.11308031087E+02  0.20313748053E+02  0.36648368478E+02  0.43400723947E+02  0.00000000000E+00 0.  1.
         11    1    3    3    0    0 -0.30384267536E+01 -0.56908620152E+01 -0.24906487197E+02  0.25728409442E+02  0.51100000000E-03 0. -1.
        -11    1    3    3    0    0 -0.61784904577E+01 -0.13873765575E+02 -0.67988655621E+01  0.16639702184E+02  0.51100000000E-03 0.  1.
        -12    1    3    3    0    0 -0.20911138754E+01 -0.74912046301E+00 -0.49430157181E+01  0.54191644279E+01  0.00000000000E+00 0.  1.
</event>
<event>
 7    1  0.2935819E-010  0.4778727E+02  0.7816164E-02  0.1312668E+00
        -11   -1    0    0    0    0  0.00000000000E+00  0.00000000000E+00  0.45593999997E+02  0.45594000000E+02  0.51100000000E-03 0. -1.
         11   -1    0    0    0    0 -0.00000000000E+00 -0.00000000000E+00 -0.45593999997E+02  0.45594000000E+02  0.51100000000E-03 0.  1.
    9900012    2    1    2    0    0 -0.63370369174E+01 -0.41481170150E+02  0.11080515903E+02  0.47787270207E+02  0.19999996180E+02 0.  0.
        -12    1    1    2    0    0  0.63370369174E+01  0.41481170150E+02 -0.11080515903E+02  0.43400729793E+02  0.00000000000E+00 0.  1.
         11    1    3    3    0    0 -0.30015571651E+01 -0.10206436184E+01  0.21095029374E+01  0.38080259604E+01  0.51100000000E-03 0. -1.
        -11    1    3    3    0    0 -0.35781024324E+01 -0.39786093666E+02  0.53681102061E+01  0.40305739959E+02  0.51100000000E-03 0.  1.
        -12    1    3    3    0    0  0.24262267999E+00 -0.67443286589E+00  0.36029027592E+01  0.36735042871E+01  0.00000000000E+00 0.  1.
</event>
<event>
 7    1  0.2935819E-010  0.4778727E+02  0.7816164E-02  0.1312668E+00
        -11   -1    0    0    0    0  0.00000000000E+00  0.00000000000E+00  0.45593999997E+02  0.45594000000E+02  0.51100000000E-03 0. -1.
         11   -1    0    0    0    0 -0.00000000000E+00 -0.00000000000E+00 -0.45593999997E+02  0.45594000000E+02  0.51100000000E-03 0.  1.
    9900012    2    1    2    0    0 -0.42015252782E+02 -0.96940075338E+01 -0.49363786317E+01  0.47787273250E+02  0.20000010056E+02 0.  0.
        -12    1    1    2    0    0  0.42015252782E+02  0.96940075338E+01  0.49363786317E+01  0.43400726750E+02  0.00000000000E+00 0.  1.
         11    1    3    3    0    0 -0.60320551123E+01  0.55086228609E+01  0.17676184318E+00  0.81707930895E+01  0.51100000000E-03 0. -1.
        -11    1    3    3    0    0 -0.12285950925E+02 -0.63407500188E+01 -0.35176807213E+01  0.14266176041E+02  0.51100000000E-03 0.  1.
         12    1    3    3    0    0 -0.23697246745E+02 -0.88618803759E+01 -0.15954597535E+01  0.25350304119E+02  0.00000000000E+00 0. -1.
</event>
<event>
 7    1  0.2935819E-010  0.4778727E+02  0.7816164E-02  0.1312668E+00
        -11   -1    0    0    0    0  0.00000000000E+00  0.00000000000E+00  0.45593999997E+02  0.45594000000E+02  0.51100000000E-03 0.  1.
         11   -1    0    0    0    0 -0.00000000000E+00 -0.00000000000E+00 -0.45593999997E+02  0.45594000000E+02  0.51100000000E-03 0. -1.
    9900012    2    1    2    0    0 -0.11689478130E+02  0.31148156406E+02 -0.27870618688E+02  0.47787274978E+02  0.20000017933E+02 0.  0.
        -12    1    1    2    0    0  0.11689478130E+02 -0.31148156406E+02  0.27870618688E+02  0.43400725022E+02  0.00000000000E+00 0.  1.
         11    1    3    3    0    0 -0.93633655516E+01  0.24837964693E+02 -0.15006137698E+02  0.30492314990E+02  0.51100000000E-03 0. -1.
        -11    1    3    3    0    0  0.34358482615E+01  0.10362643563E+01 -0.54479358638E+01  0.65237184588E+01  0.51100000000E-03 0.  1.
         12    1    3    3    0    0 -0.57619608397E+01  0.52739273560E+01 -0.74165451262E+01  0.10771241529E+02  0.00000000000E+00 0. -1.
</event>
<event>
 7    1  0.2935819E-010  0.4778724E+02  0.7816164E-02  0.1312668E+00
        -11   -1    0    0    0    0  0.00000000000E+00  0.00000000000E+00  0.45593999997E+02  0.45594000000E+02  0.51100000000E-03 0.  1.
         11   -1    0    0    0    0 -0.00000000000E+00 -0.00000000000E+00 -0.45593999997E+02  0.45594000000E+02  0.51100000000E-03 0. -1.
    9900012    2    1    2    0    0 -0.37185343572E+02 -0.15046404979E+02 -0.16567495020E+02  0.47787239977E+02  0.19999858351E+02 0.  0.
        -12    1    1    2    0    0  0.37185343572E+02  0.15046404979E+02  0.16567495020E+02  0.43400760023E+02  0.00000000000E+00 0.  1.
         11    1    3    3    0    0 -0.18330479749E+02 -0.18798555972E+01 -0.10544102963E+02  0.21230130768E+02  0.51100000000E-03 0. -1.
        -11    1    3    3    0    0 -0.12441955502E+02 -0.12882275312E+02 -0.23144729900E+00  0.17911137374E+02  0.51100000000E-03 0.  1.
        -12    1    3    3    0    0 -0.64129083210E+01 -0.28427406965E+00 -0.57919447581E+01  0.86459718343E+01  0.00000000000E+00 0.  1.
</event>
<event>
 7    1  0.2935819E-010  0.4778727E+02  0.7816164E-02  0.1312668E+00
        -11   -1    0    0    0    0  0.00000000000E+00  0.00000000000E+00  0.45593999997E+02  0.45594000000E+02  0.51100000000E-03 0.  1.
         11   -1    0    0    0    0 -0.00000000000E+00 -0.00000000000E+00 -0.45593999997E+02  0.45594000000E+02  0.51100000000E-03 0. -1.
    9900012    2    1    2    0    0 -0.42966479876E+01 -0.37275671863E+02 -0.21810230752E+02  0.47787273482E+02  0.20000011115E+02 0.  0.
        -12    1    1    2    0    0  0.42966479876E+01  0.37275671863E+02  0.21810230752E+02  0.43400726518E+02  0.00000000000E+00 0.  1.
         11    1    3    3    0    0  0.14058723659E+00 -0.69542306973E+01  0.18395210880E+01  0.71947847401E+01  0.51100000000E-03 0.  1.
        -11    1    3    3    0    0 -0.18414061673E+01 -0.29251972761E+02 -0.23836285058E+02  0.37778792631E+02  0.51100000000E-03 0. -1.
         12    1    3    3    0    0 -0.25958290569E+01 -0.10694684053E+01  0.18653321767E+00  0.28136961108E+01  0.00000000000E+00 0. -1.
</event>
<event>
 7    1  0.2935819E-010  0.4778727E+02  0.7816164E-02  0.1312668E+00
        -11   -1    0    0    0    0  0.00000000000E+00  0.00000000000E+00  0.45593999997E+02  0.45594000000E+02  0.51100000000E-03 0.  1.
         11   -1    0    0    0    0 -0.00000000000E+00 -0.00000000000E+00 -0.45593999997E+02  0.45594000000E+02  0.51100000000E-03 0. -1.
    9900012    2    1    2    0    0  0.27245866889E+02 -0.27376502052E+02 -0.19794263790E+02  0.47787274129E+02  0.20000014062E+02 0.  0.
        -12    1    1    2    0    0 -0.27245866889E+02  0.27376502052E+02  0.19794263790E+02  0.43400725871E+02  0.00000000000E+00 0.  1.
         11    1    3    3    0    0  0.17736382843E+02 -0.16289667402E+02 -0.28268936515E+01  0.24247141448E+02  0.51100000000E-03 0. -1.
        -11    1    3    3    0    0  0.10315051384E+02 -0.94034717052E+01 -0.12652912097E+02  0.18839367027E+02  0.51100000000E-03 0.  1.
         12    1    3    3    0    0 -0.80556733777E+00 -0.16833629450E+01 -0.43144580416E+01  0.47007656539E+01  0.00000000000E+00 0. -1.
</event>
<event>
 7    1  0.2935819E-010  0.4778726E+02  0.7816164E-02  0.1312668E+00
        -11   -1    0    0    0    0  0.00000000000E+00  0.00000000000E+00  0.45593999997E+02  0.45594000000E+02  0.51100000000E-03 0.  1.
         11   -1    0    0    0    0 -0.00000000000E+00 -0.00000000000E+00 -0.45593999997E+02  0.45594000000E+02  0.51100000000E-03 0. -1.
    9900012    2    1    2    0    0  0.12279772175E+02 -0.32841387944E+02 -0.25578796745E+02  0.47787257959E+02  0.19999940338E+02 0.  0.
        -12    1    1    2    0    0 -0.12279772175E+02  0.32841387944E+02  0.25578796745E+02  0.43400742041E+02  0.00000000000E+00 0.  1.
         11    1    3    3    0    0  0.99559872121E+01 -0.28097034977E+02 -0.24967549785E+02  0.38883718937E+02  0.51100000000E-03 0. -1.
        -11    1    3    3    0    0  0.45746251802E+01 -0.36202681645E+01  0.99574515747E+00  0.59181961612E+01  0.51100000000E-03 0.  1.
        -12    1    3    3    0    0 -0.22508402177E+01 -0.11240848030E+01 -0.16069921180E+01  0.29853428609E+01  0.00000000000E+00 0.  1.
</event>
<event>
 7    1  0.2935819E-010  0.4778727E+02  0.7816164E-02  0.1312668E+00
        -11   -1    0    0    0    0  0.00000000000E+00  0.00000000000E+00  0.45593999997E+02  0.45594000000E+02  0.51100000000E-03 0. -1.
         11   -1    0    0    0    0 -0.00000000000E+00 -0.00000000000E+00 -0.45593999997E+02  0.45594000000E+02  0.51100000000E-03 0.  1.
    9900012    2    1    2    0    0  0.14284272568E+02  0.99856816135E+01  0.39747564422E+02  0.47787272385E+02  0.20000006110E+02 0.  0.
        -12    1    1    2    0    0 -0.14284272568E+02 -0.99856816135E+01 -0.39747564422E+02  0.43400727615E+02  0.00000000000E+00 0.  1.
         11    1    3    3    0    0 -0.25689053708E+01  0.13831618044E+01 -0.44295176345E+00  0.29510367512E+01  0.51100000000E-03 0. -1.
        -11    1    3    3    0    0  0.16110989667E+01  0.22411175644E+01  0.26646162866E+01  0.38364603522E+01  0.51100000000E-03 0.  1.
         12    1    3    3    0    0  0.15242078972E+02  0.63614022446E+01  0.37525899899E+02  0.40999775281E+02  0.00000000000E+00 0. -1.
</event>
<event>
 7    1  0.2935819E-010  0.4778726E+02  0.7816164E-02  0.1312668E+00
        -11   -1    0    0    0    0  0.00000000000E+00  0.00000000000E+00  0.45593999997E+02  0.45594000000E+02  0.51100000000E-03 0.  1.
         11   -1    0    0    0    0 -0.00000000000E+00 -0.00000000000E+00 -0.45593999997E+02  0.45594000000E+02  0.51100000000E-03 0. -1.
    9900012    2    1    2    0    0 -0.21579667526E+02 -0.31639784696E+02 -0.20417292431E+02  0.47787264334E+02  0.19999969405E+02 0.  0.
        -12    1    1    2    0    0  0.21579667526E+02  0.31639784696E+02  0.20417292431E+02  0.43400735666E+02  0.00000000000E+00 0.  1.
         11    1    3    3    0    0  0.91976690438E+00 -0.95102799894E+01 -0.11062745352E+02  0.14617651371E+02  0.51100000000E-03 0. -1.
        -11    1    3    3    0    0 -0.65865073225E+01 -0.40261647002E+01 -0.23604897285E+01  0.80724217508E+01  0.51100000000E-03 0.  1.
         12    1    3    3    0    0 -0.15912927108E+02 -0.18103340006E+02 -0.69940573512E+01  0.25097191212E+02  0.00000000000E+00 0. -1.
</event>
<event>
 7    1  0.2935819E-010  0.4778727E+02  0.7816164E-02  0.1312668E+00
        -11   -1    0    0    0    0  0.00000000000E+00  0.00000000000E+00  0.45593999997E+02  0.45594000000E+02  0.51100000000E-03 0.  1.
         11   -1    0    0    0    0 -0.00000000000E+00 -0.00000000000E+00 -0.45593999997E+02  0.45594000000E+02  0.51100000000E-03 0. -1.
    9900012    2    1    2    0    0  0.12397215732E+02  0.15936370912E+02 -0.38418279433E+02  0.47787273389E+02  0.20000010692E+02 0.  0.
        -12    1    1    2    0    0 -0.12397215732E+02 -0.15936370912E+02  0.38418279433E+02  0.43400726611E+02  0.00000000000E+00 0.  1.
         11    1    3    3    0    0  0.15903455002E+01  0.83136713106E+01 -0.16006412370E+02  0.18106671883E+02  0.51100000000E-03 0. -1.
        -11    1    3    3    0    0  0.33259509728E+01  0.36205820956E+01 -0.20369045217E+02  0.20953963059E+02  0.51100000000E-03 0.  1.
        -12    1    3    3    0    0  0.74809192590E+01  0.40021175060E+01 -0.20428218463E+01  0.87266384471E+01  0.00000000000E+00 0.  1.
</event>
<event>
 7    1  0.2935819E-010  0.4778727E+02  0.7816164E-02  0.1312668E+00
        -11   -1    0    0    0    0  0.00000000000E+00  0.00000000000E+00  0.45593999997E+02  0.45594000000E+02  0.51100000000E-03 0. -1.
         11   -1    0    0    0    0 -0.00000000000E+00 -0.00000000000E+00 -0.45593999997E+02  0.45594000000E+02  0.51100000000E-03 0.  1.
    9900012    2    1    2    0    0 -0.39712774198E+02 -0.16407326458E+02  0.61088837482E+01  0.47787271243E+02  0.20000000904E+02 0.  0.
        -12    1    1    2    0    0  0.39712774198E+02  0.16407326458E+02 -0.61088837482E+01  0.43400728757E+02  0.00000000000E+00 0.  1.
         11    1    3    3    0    0 -0.64493665071E+01  0.34986033846E+01  0.25163392547E+01  0.77567079030E+01  0.51100000000E-03 0.  1.
        -11    1    3    3    0    0 -0.21783198107E+02 -0.16577910956E+02  0.55152304943E+01  0.27924050908E+02  0.51100000000E-03 0. -1.
         12    1    3    3    0    0 -0.11480209584E+02 -0.33280188864E+01 -0.19226860008E+01  0.12106512432E+02  0.00000000000E+00 0. -1.
</event>
<event>
 7    1  0.2935819E-010  0.4778727E+02  0.7816164E-02  0.1312668E+00
        -11   -1    0    0    0    0  0.00000000000E+00  0.00000000000E+00  0.45593999997E+02  0.45594000000E+02  0.51100000000E-03 0. -1.
         11   -1    0    0    0    0 -0.00000000000E+00 -0.00000000000E+00 -0.45593999997E+02  0.45594000000E+02  0.51100000000E-03 0.  1.
    9900012    2    1    2    0    0 -0.18079778660E+00  0.28552285102E+02  0.32685739972E+02  0.47787271090E+02  0.20000000210E+02 0.  0.
        -12    1    1    2    0    0  0.18079778660E+00 -0.28552285102E+02 -0.32685739972E+02  0.43400728910E+02  0.00000000000E+00 0.  1.
         11    1    3    3    0    0  0.17774135281E+00  0.90545473833E+01 -0.60063286582E+00  0.90761875480E+01  0.51100000000E-03 0.  1.
        -11    1    3    3    0    0 -0.88328891637E+00  0.92106055567E+01  0.18576188727E+02  0.20753077890E+02  0.51100000000E-03 0. -1.
        -12    1    3    3    0    0  0.52474977696E+00  0.10287132162E+02  0.14710184110E+02  0.17958005652E+02  0.00000000000E+00 0.  1.
</event>
<event>
 7    1  0.2935819E-010  0.4778727E+02  0.7816164E-02  0.1312668E+00
        -11   -1    0    0    0    0  0.00000000000E+00  0.00000000000E+00  0.45593999997E+02  0.45594000000E+02  0.51100000000E-03 0. -1.
         11   -1    0    0    0    0 -0.00000000000E+00 -0.00000000000E+00 -0.45593999997E+02  0.45594000000E+02  0.51100000000E-03 0.  1.
    9900012    2    1    2    0    0  0.29202495726E+02  0.24677339487E+02  0.20539387765E+02  0.47787270853E+02  0.19999999126E+02 0.  0.
        -12    1    1    2    0    0 -0.29202495726E+02 -0.24677339487E+02 -0.20539387765E+02  0.43400729147E+02  0.00000000000E+00 0.  1.
         11    1    3    3    0    0  0.29326355153E+02  0.14903774998E+02  0.13577391361E+02  0.35587963867E+02  0.51100000000E-03 0. -1.
        -11    1    3    3    0    0 -0.87618528187E+00  0.57298882523E+01  0.31786499073E+01  0.66108347072E+01  0.51100000000E-03 0.  1.
         12    1    3    3    0    0  0.75232585437E+00  0.40436762365E+01  0.37833464961E+01  0.55884722784E+01  0.00000000000E+00 0. -1.
</event>
<event>
 7    1  0.2935819E-010  0.4778727E+02  0.7816164E-02  0.1312668E+00
        -11   -1    0    0    0    0  0.00000000000E+00  0.00000000000E+00  0.45593999997E+02  0.45594000000E+02  0.51100000000E-03 0.  1.
         11   -1    0    0    0    0 -0.00000000000E+00 -0.00000000000E+00 -0.45593999997E+02  0.45594000000E+02  0.51100000000E-03 0. -1.
    9900012    2    1    2    0    0  0.25690436428E+02 -0.92485041387E+01 -0.33735589616E+02  0.47787270059E+02  0.19999995508E+02 0.  0.
        -12    1    1    2    0    0 -0.25690436428E+02  0.92485041387E+01  0.33735589616E+02  0.43400729941E+02  0.00000000000E+00 0.  1.
         11    1    3    3    0    0  0.27386070176E+02 -0.11581005414E+02 -0.29846849904E+02  0.42130167048E+02  0.51100000000E-03 0. -1.
        -11    1    3    3    0    0 -0.21118618169E+01  0.17593495181E+01 -0.14301024899E+01  0.30984616269E+01  0.51100000000E-03 0.  1.
         12    1    3    3    0    0  0.41622806924E+00  0.57315175707E+00 -0.24586372225E+01  0.25586413844E+01  0.00000000000E+00 0. -1.
</event>
<event>
 7    1  0.2935819E-010  0.4778727E+02  0.7816164E-02  0.1312668E+00
        -11   -1    0    0    0    0  0.00000000000E+00  0.00000000000E+00  0.45593999997E+02  0.45594000000E+02  0.51100000000E-03 0.  1.
         11   -1    0    0    0    0 -0.00000000000E+00 -0.00000000000E+00 -0.45593999997E+02  0.45594000000E+02  0.51100000000E-03 0. -1.
    9900012    2    1    2    0    0 -0.14087965181E+02 -0.27804493652E+02 -0.30200372082E+02  0.47787273001E+02  0.20000008921E+02 0.  0.
        -12    1    1    2    0    0  0.14087965181E+02  0.27804493652E+02  0.30200372082E+02  0.43400726999E+02  0.00000000000E+00 0.  1.
         11    1    3    3    0    0 -0.14687052573E+02 -0.12239625143E+02 -0.13750671734E+02  0.23549923786E+02  0.51100000000E-03 0. -1.
        -11    1    3    3    0    0  0.20570334063E+01  0.19099069742E-01 -0.27668501614E+01  0.34477835323E+01  0.51100000000E-03 0.  1.
         12    1    3    3    0    0 -0.14579460146E+01 -0.15583967579E+02 -0.13682850186E+02  0.20789565683E+02  0.00000000000E+00 0. -1.
</event>
<event>
 7    1  0.2935819E-010  0.4778728E+02  0.7816164E-02  0.1312668E+00
        -11   -1    0    0    0    0  0.00000000000E+00  0.00000000000E+00  0.45593999997E+02  0.45594000000E+02  0.51100000000E-03 0.  1.
         11   -1    0    0    0    0 -0.00000000000E+00 -0.00000000000E+00 -0.45593999997E+02  0.45594000000E+02  0.51100000000E-03 0. -1.
    9900012    2    1    2    0    0 -0.17920732686E+02  0.17659080400E+02 -0.35364206060E+02  0.47787275918E+02  0.20000022221E+02 0.  0.
        -12    1    1    2    0    0  0.17920732686E+02 -0.17659080400E+02  0.35364206060E+02  0.43400724082E+02  0.00000000000E+00 0.  1.
         11    1    3    3    0    0 -0.56513156496E+01  0.13378368876E+02 -0.27499904615E+02  0.31099242378E+02  0.51100000000E-03 0. -1.
        -11    1    3    3    0    0 -0.46355378732E+01  0.15940614746E+01 -0.70048336137E+01  0.85496747058E+01  0.51100000000E-03 0.  1.
         12    1    3    3    0    0 -0.76338791632E+01  0.26866500497E+01 -0.85946783109E+00  0.81383588346E+01  0.00000000000E+00 0. -1.
</event>
<event>
 7    1  0.2935819E-010  0.4778727E+02  0.7816164E-02  0.1312668E+00
        -11   -1    0    0    0    0  0.00000000000E+00  0.00000000000E+00  0.45593999997E+02  0.45594000000E+02  0.51100000000E-03 0.  1.
         11   -1    0    0    0    0 -0.00000000000E+00 -0.00000000000E+00 -0.45593999997E+02  0.45594000000E+02  0.51100000000E-03 0. -1.
    9900012    2    1    2    0    0  0.84881270602E+01  0.43785996897E+01 -0.42336779837E+02  0.47787270016E+02  0.19999995310E+02 0.  0.
        -12    1    1    2    0    0 -0.84881270602E+01 -0.43785996897E+01  0.42336779837E+02  0.43400729984E+02  0.00000000000E+00 0.  1.
         11    1    3    3    0    0  0.48134839768E+01 -0.18007461027E+01 -0.25735495051E+02  0.26243628185E+02  0.51100000000E-03 0. -1.
        -11    1    3    3    0    0  0.43425047907E+01  0.89262054924E+01 -0.88711980318E+01  0.13312875239E+02  0.51100000000E-03 0.  1.
        -12    1    3    3    0    0 -0.66786170725E+00 -0.27468597000E+01 -0.77300867541E+01  0.82307665923E+01  0.00000000000E+00 0.  1.
</event>
<event>
 7    1  0.2935819E-010  0.4778727E+02  0.7816164E-02  0.1312668E+00
        -11   -1    0    0    0    0  0.00000000000E+00  0.00000000000E+00  0.45593999997E+02  0.45594000000E+02  0.51100000000E-03 0.  1.
         11   -1    0    0    0    0 -0.00000000000E+00 -0.00000000000E+00 -0.45593999997E+02  0.45594000000E+02  0.51100000000E-03 0. -1.
    9900012    2    1    2    0    0 -0.11087346017E+02 -0.33251221526E+02 -0.25593952370E+02  0.47787269907E+02  0.19999994814E+02 0.  0.
        -12    1    1    2    0    0  0.11087346017E+02  0.33251221526E+02  0.25593952370E+02  0.43400730093E+02  0.00000000000E+00 0.  1.
         11    1    3    3    0    0 -0.46066439083E+01 -0.22611340673E+02 -0.18330952215E+02  0.29470624433E+02  0.51100000000E-03 0. -1.
        -11    1    3    3    0    0 -0.95315870421E+01 -0.60330746979E+01 -0.45891077602E+01  0.12178220401E+02  0.51100000000E-03 0.  1.
         12    1    3    3    0    0  0.30508849330E+01 -0.46068061551E+01 -0.26738923957E+01  0.61384250724E+01  0.00000000000E+00 0. -1.
</event>
<event>
 7    1  0.2935819E-010  0.4778727E+02  0.7816164E-02  0.1312668E+00
        -11   -1    0    0    0    0  0.00000000000E+00  0.00000000000E+00  0.45593999997E+02  0.45594000000E+02  0.51100000000E-03 0.  1.
         11   -1    0    0    0    0 -0.00000000000E+00 -0.00000000000E+00 -0.45593999997E+02  0.45594000000E+02  0.51100000000E-03 0. -1.
    9900012    2    1    2    0    0  0.45552241644E+01 -0.40606112925E+01 -0.42969578771E+02  0.47787270386E+02  0.19999997000E+02 0.  0.
        -12    1    1    2    0    0 -0.45552241644E+01  0.40606112925E+01  0.42969578771E+02  0.43400729614E+02  0.00000000000E+00 0.  1.
         11    1    3    3    0    0 -0.63656752367E+00 -0.85330373970E+01 -0.36474041729E+02  0.37464298549E+02  0.51100000000E-03 0. -1.
        -11    1    3    3    0    0  0.35359072068E+01  0.51339650550E+01 -0.52176272086E+01  0.81291986635E+01  0.51100000000E-03 0.  1.
        -12    1    3    3    0    0  0.16558844813E+01 -0.66153895052E+00 -0.12779098327E+01  0.21937731740E+01  0.00000000000E+00 0.  1.
</event>
<event>
 7    1  0.2935819E-010  0.4778727E+02  0.7816164E-02  0.1312668E+00
        -11   -1    0    0    0    0  0.00000000000E+00  0.00000000000E+00  0.45593999997E+02  0.45594000000E+02  0.51100000000E-03 0. -1.
         11   -1    0    0    0    0 -0.00000000000E+00 -0.00000000000E+00 -0.45593999997E+02  0.45594000000E+02  0.51100000000E-03 0.  1.
    9900012    2    1    2    0    0  0.90213071072E+01 -0.10861387914E+02  0.41039856581E+02  0.47787267776E+02  0.19999985099E+02 0.  0.
        -12    1    1    2    0    0 -0.90213071072E+01  0.10861387914E+02 -0.41039856581E+02  0.43400732224E+02  0.00000000000E+00 0.  1.
         11    1    3    3    0    0  0.55783059859E+01 -0.12996123461E+02  0.34433493907E+02  0.37224752861E+02  0.51100000000E-03 0. -1.
        -11    1    3    3    0    0 -0.33242426889E+00  0.34801872711E+01  0.52958022684E+01  0.63456860357E+01  0.51100000000E-03 0.  1.
         12    1    3    3    0    0  0.37754253902E+01 -0.13454517241E+01  0.13105604059E+01  0.42168288792E+01  0.00000000000E+00 0. -1.
</event>
<event>
 7    1  0.2935819E-010  0.4778727E+02  0.7816164E-02  0.1312668E+00
        -11   -1    0    0    0    0  0.00000000000E+00  0.00000000000E+00  0.45593999997E+02  0.45594000000E+02  0.51100000000E-03 0.  1.
         11   -1    0    0    0    0 -0.00000000000E+00 -0.00000000000E+00 -0.45593999997E+02  0.45594000000E+02  0.51100000000E-03 0. -1.
    9900012    2    1    2    0    0  0.37958761453E+02  0.24952233109E+01 -0.20893282719E+02  0.47787274509E+02  0.20000015795E+02 0.  0.
        -12    1    1    2    0    0 -0.37958761453E+02 -0.24952233109E+01  0.20893282719E+02  0.43400725491E+02  0.00000000000E+00 0.  1.
         11    1    3    3    0    0  0.26019326406E+02  0.47536135644E+01 -0.18046491801E+02  0.32019963384E+02  0.51100000000E-03 0. -1.
        -11    1    3    3    0    0  0.12641030955E+02 -0.42975888468E+01 -0.24685326789E+01  0.13577871238E+02  0.51100000000E-03 0.  1.
         12    1    3    3    0    0 -0.70159590840E+00  0.20391985933E+01 -0.37825823928E+00  0.21894398866E+01  0.00000000000E+00 0. -1.
</event>
<event>
 7    1  0.2935819E-010  0.4778727E+02  0.7816164E-02  0.1312668E+00
        -11   -1    0    0    0    0  0.00000000000E+00  0.00000000000E+00  0.45593999997E+02  0.45594000000E+02  0.51100000000E-03 0.  1.
         11   -1    0    0    0    0 -0.00000000000E+00 -0.00000000000E+00 -0.45593999997E+02  0.45594000000E+02  0.51100000000E-03 0. -1.
    9900012    2    1    2    0    0 -0.33319360316E+01 -0.20118170563E+02 -0.38311625344E+02  0.47787271654E+02  0.20000002778E+02 0.  0.
        -12    1    1    2    0    0  0.33319360316E+01  0.20118170563E+02  0.38311625344E+02  0.43400728346E+02  0.00000000000E+00 0.  1.
         11    1    3    3    0    0  0.24268886815E+01  0.18650117641E+01 -0.12320453135E+02  0.12694944792E+02  0.51100000000E-03 0. -1.
        -11    1    3    3    0    0 -0.56321511945E+01 -0.13960003638E+02 -0.13354480467E+02  0.20123244705E+02  0.51100000000E-03 0.  1.
         12    1    3    3    0    0 -0.12667351864E+00 -0.80231786886E+01 -0.12636691741E+02  0.14969082157E+02  0.00000000000E+00 0. -1.
</event>
<event>
 7    1  0.2935819E-010  0.4778727E+02  0.7816164E-02  0.1312668E+00
        -11   -1    0    0    0    0  0.00000000000E+00  0.00000000000E+00  0.45593999997E+02  0.45594000000E+02  0.51100000000E-03 0. -1.
         11   -1    0    0    0    0 -0.00000000000E+00 -0.00000000000E+00 -0.45593999997E+02  0.45594000000E+02  0.51100000000E-03 0.  1.
    9900012    2    1    2    0    0  0.39920365819E+02  0.43782397302E+01 -0.16456578574E+02  0.47787267649E+02  0.19999984518E+02 0.  0.
        -12    1    1    2    0    0 -0.39920365819E+02 -0.43782397302E+01  0.16456578574E+02  0.43400732351E+02  0.00000000000E+00 0.  1.
         11    1    3    3    0    0  0.15188439301E+02  0.27404284273E+01 -0.12709625931E+00  0.15434208437E+02  0.51100000000E-03 0. -1.
        -11    1    3    3    0    0 -0.10168321360E+00  0.55509814770E+00 -0.50068431662E+01  0.50385466339E+01  0.51100000000E-03 0.  1.
        -12    1    3    3    0    0  0.24833609732E+02  0.10827131551E+01 -0.11322639148E+02  0.27314512578E+02  0.00000000000E+00 0.  1.
</event>
<event>
 7    1  0.2935819E-010  0.4778727E+02  0.7816164E-02  0.1312668E+00
        -11   -1    0    0    0    0  0.00000000000E+00  0.00000000000E+00  0.45593999997E+02  0.45594000000E+02  0.51100000000E-03 0.  1.
         11   -1    0    0    0    0 -0.00000000000E+00 -0.00000000000E+00 -0.45593999997E+02  0.45594000000E+02  0.51100000000E-03 0. -1.
    9900012    2    1    2    0    0 -0.38322235443E+01  0.39089441545E+02 -0.18464916378E+02  0.47787268273E+02  0.19999987366E+02 0.  0.
        -12    1    1    2    0    0  0.38322235443E+01 -0.39089441545E+02  0.18464916378E+02  0.43400731727E+02  0.00000000000E+00 0.  1.
         11    1    3    3    0    0 -0.63386922673E+01  0.24148067964E+02 -0.17503027839E+02  0.30490395042E+02  0.51100000000E-03 0. -1.
        -11    1    3    3    0    0 -0.41265317818E+00  0.25350172597E+00  0.19775343796E+01  0.20359735396E+01  0.51100000000E-03 0.  1.
         12    1    3    3    0    0  0.29191219012E+01  0.14687871855E+02 -0.29394229187E+01  0.15260899692E+02  0.00000000000E+00 0. -1.
</event>
<event>
 7    1  0.2935819E-010  0.4778727E+02  0.7816164E-02  0.1312668E+00
        -11   -1    0    0    0    0  0.00000000000E+00  0.00000000000E+00  0.45593999997E+02  0.45594000000E+02  0.51100000000E-03 0.  1.
         11   -1    0    0    0    0 -0.00000000000E+00 -0.00000000000E+00 -0.45593999997E+02  0.45594000000E+02  0.51100000000E-03 0. -1.
    9900012    2    1    2    0    0 -0.41523938806E+02 -0.35518959225E+01 -0.12114854265E+02  0.47787272443E+02  0.20000006378E+02 0.  0.
        -12    1    1    2    0    0  0.41523938806E+02  0.35518959225E+01  0.12114854265E+02  0.43400727557E+02  0.00000000000E+00 0.  1.
         11    1    3    3    0    0 -0.15025266263E+02  0.37918042607E+01 -0.63622608249E+01  0.16751560193E+02  0.51100000000E-03 0. -1.
        -11    1    3    3    0    0 -0.25474911460E+02 -0.92073776939E+01 -0.76909684268E+01  0.28158443023E+02  0.51100000000E-03 0.  1.
        -12    1    3    3    0    0 -0.10237610828E+01  0.18636775106E+01  0.19383749864E+01  0.28772692273E+01  0.00000000000E+00 0.  1.
</event>
<event>
 7    1  0.2935819E-010  0.4778727E+02  0.7816164E-02  0.1312668E+00
        -11   -1    0    0    0    0  0.00000000000E+00  0.00000000000E+00  0.45593999997E+02  0.45594000000E+02  0.51100000000E-03 0. -1.
         11   -1    0    0    0    0 -0.00000000000E+00 -0.00000000000E+00 -0.45593999997E+02  0.45594000000E+02  0.51100000000E-03 0.  1.
    9900012    2    1    2    0    0 -0.42823993525E+02 -0.68998985745E+01  0.14561864172E+01  0.47787268432E+02  0.19999988088E+02 0.  0.
        -12    1    1    2    0    0  0.42823993525E+02  0.68998985745E+01 -0.14561864172E+01  0.43400731568E+02  0.00000000000E+00 0.  1.
         11    1    3    3    0    0 -0.22914635682E+02 -0.11339392880E+02  0.35147397805E+01  0.25807281052E+02  0.51100000000E-03 0. -1.
        -11    1    3    3    0    0 -0.15866221523E+02  0.23734718744E+01 -0.47127980320E+01  0.16720670432E+02  0.51100000000E-03 0.  1.
         12    1    3    3    0    0 -0.40431363203E+01  0.20660224314E+01  0.26542446687E+01  0.52593169474E+01  0.00000000000E+00 0. -1.
</event>
<event>
 7    1  0.2935819E-010  0.4778727E+02  0.7816164E-02  0.1312668E+00
        -11   -1    0    0    0    0  0.00000000000E+00  0.00000000000E+00  0.45593999997E+02  0.45594000000E+02  0.51100000000E-03 0. -1.
         11   -1    0    0    0    0 -0.00000000000E+00 -0.00000000000E+00 -0.45593999997E+02  0.45594000000E+02  0.51100000000E-03 0.  1.
    9900012    2    1    2    0    0 -0.33080953034E+02 -0.13548398795E+02  0.24611269141E+02  0.47787272676E+02  0.20000007438E+02 0.  0.
        -12    1    1    2    0    0  0.33080953034E+02  0.13548398795E+02 -0.24611269141E+02  0.43400727324E+02  0.00000000000E+00 0.  1.
         11    1    3    3    0    0 -0.12631166927E+01 -0.51843751674E+01  0.69861502092E+01  0.87908762170E+01  0.51100000000E-03 0. -1.
        -11    1    3    3    0    0 -0.26531083469E+02 -0.10060804533E+02  0.11201215446E+02  0.30505497957E+02  0.51100000000E-03 0.  1.
         12    1    3    3    0    0 -0.52867528722E+01  0.16967809050E+01  0.64239034864E+01  0.84908985022E+01  0.00000000000E+00 0. -1.
</event>
<event>
 7    1  0.2935819E-010  0.4778727E+02  0.7816164E-02  0.1312668E+00
        -11   -1    0    0    0    0  0.00000000000E+00  0.00000000000E+00  0.45593999997E+02  0.45594000000E+02  0.51100000000E-03 0. -1.
         11   -1    0    0    0    0 -0.00000000000E+00 -0.00000000000E+00 -0.45593999997E+02  0.45594000000E+02  0.51100000000E-03 0.  1.
    9900012    2    1    2    0    0 -0.82031485220E+01  0.26580689518E+02 -0.33313642537E+02  0.47787268669E+02  0.19999989170E+02 0.  0.
        -12    1    1    2    0    0  0.82031485220E+01 -0.26580689518E+02  0.33313642537E+02  0.43400731331E+02  0.00000000000E+00 0.  1.
         11    1    3    3    0    0  0.33610791419E+00  0.14598236413E+02 -0.74250062250E+01  0.16381458806E+02  0.51100000000E-03 0. -1.
        -11    1    3    3    0    0 -0.10015190843E+02  0.64070639932E+01 -0.15642283494E+02  0.19647787403E+02  0.51100000000E-03 0.  1.
        -12    1    3    3    0    0  0.14759344068E+01  0.55753891121E+01 -0.10246352818E+02  0.11758022461E+02  0.00000000000E+00 0.  1.
</event>
<event>
 7    1  0.2935819E-010  0.4778724E+02  0.7816164E-02  0.1312668E+00
        -11   -1    0    0    0    0  0.00000000000E+00  0.00000000000E+00  0.45593999997E+02  0.45594000000E+02  0.51100000000E-03 0.  1.
         11   -1    0    0    0    0 -0.00000000000E+00 -0.00000000000E+00 -0.45593999997E+02  0.45594000000E+02  0.51100000000E-03 0. -1.
    9900012    2    1    2    0    0  0.36232145288E+02  0.23880363873E+02 -0.76515289536E+00  0.47787244363E+02  0.19999878350E+02 0.  0.
        -12    1    1    2    0    0 -0.36232145288E+02 -0.23880363873E+02  0.76515289536E+00  0.43400755637E+02  0.00000000000E+00 0.  1.
         11    1    3    3    0    0  0.15009170427E+02  0.18722913774E+02  0.40116875885E+01  0.24329330748E+02  0.51100000000E-03 0. -1.
        -11    1    3    3    0    0  0.19022231583E+02  0.65120049432E+01 -0.53611167031E+01  0.20808485657E+02  0.51100000000E-03 0.  1.
        -12    1    3    3    0    0  0.22007432781E+01 -0.13545548445E+01  0.58427621919E+00  0.26494279577E+01  0.00000000000E+00 0.  1.
</event>
<event>
 7    1  0.2935819E-010  0.4778725E+02  0.7816164E-02  0.1312668E+00
        -11   -1    0    0    0    0  0.00000000000E+00  0.00000000000E+00  0.45593999997E+02  0.45594000000E+02  0.51100000000E-03 0. -1.
         11   -1    0    0    0    0 -0.00000000000E+00 -0.00000000000E+00 -0.45593999997E+02  0.45594000000E+02  0.51100000000E-03 0.  1.
    9900012    2    1    2    0    0 -0.55607026755E+01 -0.40930847466E+02 -0.13318008244E+02  0.47787250789E+02  0.19999907647E+02 0.  0.
        -12    1    1    2    0    0  0.55607026755E+01  0.40930847466E+02  0.13318008244E+02  0.43400749211E+02  0.00000000000E+00 0.  1.
         11    1    3    3    0    0 -0.53428539760E+01 -0.16452236025E+02 -0.11720379457E+02  0.20894723107E+02  0.51100000000E-03 0. -1.
        -11    1    3    3    0    0 -0.43660855187E+01 -0.63822311350E+01 -0.29528823943E+01  0.82773843521E+01  0.51100000000E-03 0.  1.
         12    1    3    3    0    0  0.41482368192E+01 -0.18096380305E+02  0.13552536067E+01  0.18615143330E+02  0.00000000000E+00 0. -1.
</event>
<event>
 7    1  0.2935819E-010  0.4778727E+02  0.7816164E-02  0.1312668E+00
        -11   -1    0    0    0    0  0.00000000000E+00  0.00000000000E+00  0.45593999997E+02  0.45594000000E+02  0.51100000000E-03 0.  1.
         11   -1    0    0    0    0 -0.00000000000E+00 -0.00000000000E+00 -0.45593999997E+02  0.45594000000E+02  0.51100000000E-03 0. -1.
    9900012    2    1    2    0    0 -0.22401903031E+02  0.12535384929E+02 -0.34994887224E+02  0.47787271129E+02  0.20000000384E+02 0.  0.
        -12    1    1    2    0    0  0.22401903031E+02 -0.12535384929E+02  0.34994887224E+02  0.43400728871E+02  0.00000000000E+00 0.  1.
         11    1    3    3    0    0 -0.61734465108E+01  0.81422169868E+00 -0.17591695083E+02  0.18661246875E+02  0.51100000000E-03 0. -1.
        -11    1    3    3    0    0 -0.50592852183E+01  0.54403877921E+01  0.10447341394E+00  0.74300135399E+01  0.51100000000E-03 0.  1.
        -12    1    3    3    0    0 -0.11169171302E+02  0.62807754386E+01 -0.17507665555E+02  0.21696010713E+02  0.00000000000E+00 0.  1.
</event>
<event>
 7    1  0.2935819E-010  0.4778727E+02  0.7816164E-02  0.1312668E+00
        -11   -1    0    0    0    0  0.00000000000E+00  0.00000000000E+00  0.45593999997E+02  0.45594000000E+02  0.51100000000E-03 0.  1.
         11   -1    0    0    0    0 -0.00000000000E+00 -0.00000000000E+00 -0.45593999997E+02  0.45594000000E+02  0.51100000000E-03 0. -1.
    9900012    2    1    2    0    0  0.11217243696E+02  0.29312046817E+02 -0.29976668317E+02  0.47787270880E+02  0.19999999251E+02 0.  0.
        -12    1    1    2    0    0 -0.11217243696E+02 -0.29312046817E+02  0.29976668317E+02  0.43400729120E+02  0.00000000000E+00 0.  1.
         11    1    3    3    0    0  0.43456458805E+01  0.88572395012E+01  0.24176321704E+00  0.98688286749E+01  0.51100000000E-03 0. -1.
        -11    1    3    3    0    0  0.14362212873E+01  0.25499573697E+01 -0.76681494776E+00  0.30253957755E+01  0.51100000000E-03 0.  1.
         12    1    3    3    0    0  0.54353765284E+01  0.17904849946E+02 -0.29451616586E+02  0.34893046430E+02  0.00000000000E+00 0. -1.
</event>
<event>
 7    1  0.2935819E-010  0.4778727E+02  0.7816164E-02  0.1312668E+00
        -11   -1    0    0    0    0  0.00000000000E+00  0.00000000000E+00  0.45593999997E+02  0.45594000000E+02  0.51100000000E-03 0.  1.
         11   -1    0    0    0    0 -0.00000000000E+00 -0.00000000000E+00 -0.45593999997E+02  0.45594000000E+02  0.51100000000E-03 0. -1.
    9900012    2    1    2    0    0 -0.20787788513E+02 -0.72593800229E+01 -0.37400435611E+02  0.47787270358E+02  0.19999996870E+02 0.  0.
        -12    1    1    2    0    0  0.20787788513E+02  0.72593800229E+01  0.37400435611E+02  0.43400729642E+02  0.00000000000E+00 0.  1.
         11    1    3    3    0    0 -0.11024835156E+02 -0.43412388972E+01 -0.33515838572E+02  0.35548625583E+02  0.51100000000E-03 0. -1.
        -11    1    3    3    0    0 -0.69508340944E+01 -0.36905695120E+01 -0.66996259502E+00  0.78983066585E+01  0.51100000000E-03 0.  1.
        -12    1    3    3    0    0 -0.28121192624E+01  0.77242838626E+00 -0.32146344444E+01  0.43403381169E+01  0.00000000000E+00 0.  1.
</event>
<event>
 7    1  0.2935819E-010  0.4778728E+02  0.7816164E-02  0.1312668E+00
        -11   -1    0    0    0    0  0.00000000000E+00  0.00000000000E+00  0.45593999997E+02  0.45594000000E+02  0.51100000000E-03 0.  1.
         11   -1    0    0    0    0 -0.00000000000E+00 -0.00000000000E+00 -0.45593999997E+02  0.45594000000E+02  0.51100000000E-03 0. -1.
    9900012    2    1    2    0    0  0.59839618965E+01  0.37253981830E+01 -0.42824483973E+02  0.47787276283E+02  0.20000023886E+02 0.  0.
        -12    1    1    2    0    0 -0.59839618965E+01 -0.37253981830E+01  0.42824483973E+02  0.43400723717E+02  0.00000000000E+00 0.  1.
         11    1    3    3    0    0  0.77959637952E+01  0.15322046307E+01 -0.19942898232E+02  0.21467274924E+02  0.51100000000E-03 0. -1.
        -11    1    3    3    0    0 -0.18706681629E+01 -0.49942515812E+01 -0.63432125145E+01  0.82872367830E+01  0.51100000000E-03 0.  1.
        -12    1    3    3    0    0  0.58666264084E-01  0.71874451335E+01 -0.16538373226E+02  0.18032764576E+02  0.00000000000E+00 0.  1.
</event>
<event>
 7    1  0.2935819E-010  0.4778728E+02  0.7816164E-02  0.1312668E+00
        -11   -1    0    0    0    0  0.00000000000E+00  0.00000000000E+00  0.45593999997E+02  0.45594000000E+02  0.51100000000E-03 0.  1.
         11   -1    0    0    0    0 -0.00000000000E+00 -0.00000000000E+00 -0.45593999997E+02  0.45594000000E+02  0.51100000000E-03 0. -1.
    9900012    2    1    2    0    0 -0.12489138904E+02 -0.20804533110E+02 -0.35983546107E+02  0.47787276747E+02  0.20000026001E+02 0.  0.
        -12    1    1    2    0    0  0.12489138904E+02  0.20804533110E+02  0.35983546107E+02  0.43400723253E+02  0.00000000000E+00 0.  1.
         11    1    3    3    0    0 -0.52763026396E+01 -0.50210134336E+00 -0.11842919849E+02  0.12974830485E+02  0.51100000000E-03 0. -1.
        -11    1    3    3    0    0 -0.34908826584E-01 -0.15705639848E+02 -0.11096008976E+02  0.19229918282E+02  0.51100000000E-03 0.  1.
        -12    1    3    3    0    0 -0.71779274378E+01 -0.45967919182E+01 -0.13044617282E+02  0.15582527981E+02  0.00000000000E+00 0.  1.
</event>
<event>
 7    1  0.2935819E-010  0.4778725E+02  0.7816164E-02  0.1312668E+00
        -11   -1    0    0    0    0  0.00000000000E+00  0.00000000000E+00  0.45593999997E+02  0.45594000000E+02  0.51100000000E-03 0.  1.
         11   -1    0    0    0    0 -0.00000000000E+00 -0.00000000000E+00 -0.45593999997E+02  0.45594000000E+02  0.51100000000E-03 0. -1.
    9900012    2    1    2    0    0 -0.27743091003E+02 -0.32599077884E+02  0.71586299639E+01  0.47787251616E+02  0.19999911419E+02 0.  0.
        -12    1    1    2    0    0  0.27743091003E+02  0.32599077884E+02 -0.71586299639E+01  0.43400748384E+02  0.00000000000E+00 0.  1.
         11    1    3    3    0    0 -0.13627826185E+02 -0.79405048767E+01  0.37595789703E+00  0.15776901116E+02  0.51100000000E-03 0. -1.
        -11    1    3    3    0    0  0.68503629964E+00 -0.63541636958E+01  0.55072349703E+01  0.84364867263E+01  0.51100000000E-03 0.  1.
        -12    1    3    3    0    0 -0.14800301117E+02 -0.18304409312E+02  0.12754370966E+01  0.23573863774E+02  0.00000000000E+00 0.  1.
</event>
<event>
 7    1  0.2935819E-010  0.4778727E+02  0.7816164E-02  0.1312668E+00
        -11   -1    0    0    0    0  0.00000000000E+00  0.00000000000E+00  0.45593999997E+02  0.45594000000E+02  0.51100000000E-03 0.  1.
         11   -1    0    0    0    0 -0.00000000000E+00 -0.00000000000E+00 -0.45593999997E+02  0.45594000000E+02  0.51100000000E-03 0. -1.
    9900012    2    1    2    0    0  0.42148046782E+02  0.10310278631E+02 -0.92930836749E+00  0.47787270662E+02  0.19999998257E+02 0.  0.
        -12    1    1    2    0    0 -0.42148046782E+02 -0.10310278631E+02  0.92930836749E+00  0.43400729338E+02  0.00000000000E+00 0.  1.
         11    1    3    3    0    0  0.13452490682E+02  0.13673369098E+00 -0.65967585072E+01  0.14983505088E+02  0.51100000000E-03 0. -1.
        -11    1    3    3    0    0  0.13607702453E+02  0.10161831255E+02  0.10095430762E+01  0.17013275934E+02  0.51100000000E-03 0.  1.
        -12    1    3    3    0    0  0.15087853647E+02  0.11713685620E-01  0.46579070635E+01  0.15790489640E+02  0.00000000000E+00 0.  1.
</event>
<event>
 7    1  0.2935819E-010  0.4778728E+02  0.7816164E-02  0.1312668E+00
        -11   -1    0    0    0    0  0.00000000000E+00  0.00000000000E+00  0.45593999997E+02  0.45594000000E+02  0.51100000000E-03 0.  1.
         11   -1    0    0    0    0 -0.00000000000E+00 -0.00000000000E+00 -0.45593999997E+02  0.45594000000E+02  0.51100000000E-03 0. -1.
    9900012    2    1    2    0    0 -0.31736908408E+01  0.20294510759E+02 -0.38231967790E+02  0.47787276024E+02  0.20000022706E+02 0.  0.
        -12    1    1    2    0    0  0.31736908408E+01 -0.20294510759E+02  0.38231967790E+02  0.43400723976E+02  0.00000000000E+00 0.  1.
         11    1    3    3    0    0  0.58820230929E+00  0.14203318688E+02 -0.15585208152E+02  0.21094524340E+02  0.51100000000E-03 0. -1.
        -11    1    3    3    0    0 -0.66200015742E+01 -0.80000217243E+00 -0.10788964491E+02  0.12683303173E+02  0.51100000000E-03 0.  1.
        -12    1    3    3    0    0  0.28581084242E+01  0.68911942429E+01 -0.11857795147E+02  0.14009448512E+02  0.00000000000E+00 0.  1.
</event>
<event>
 7    1  0.2935819E-010  0.4778727E+02  0.7816164E-02  0.1312668E+00
        -11   -1    0    0    0    0  0.00000000000E+00  0.00000000000E+00  0.45593999997E+02  0.45594000000E+02  0.51100000000E-03 0.  1.
         11   -1    0    0    0    0 -0.00000000000E+00 -0.00000000000E+00 -0.45593999997E+02  0.45594000000E+02  0.51100000000E-03 0. -1.
    9900012    2    1    2    0    0 -0.36766613428E+02  0.12707804237E+01  0.23026600745E+02  0.47787273189E+02  0.20000009778E+02 0.  0.
        -12    1    1    2    0    0  0.36766613428E+02 -0.12707804237E+01 -0.23026600745E+02  0.43400726811E+02  0.00000000000E+00 0.  1.
         11    1    3    3    0    0 -0.28717058821E+02  0.71181525067E+01  0.13312130564E+02  0.32443032886E+02  0.51100000000E-03 0. -1.
        -11    1    3    3    0    0 -0.65544077526E+01 -0.52631528476E+01  0.10586091125E+02  0.13517631614E+02  0.51100000000E-03 0.  1.
         12    1    3    3    0    0 -0.14951468549E+01 -0.58421923545E+00 -0.87162094418E+00  0.18266086891E+01  0.00000000000E+00 0. -1.
</event>
<event>
 7    1  0.2935819E-010  0.4778727E+02  0.7816164E-02  0.1312668E+00
        -11   -1    0    0    0    0  0.00000000000E+00  0.00000000000E+00  0.45593999997E+02  0.45594000000E+02  0.51100000000E-03 0.  1.
         11   -1    0    0    0    0 -0.00000000000E+00 -0.00000000000E+00 -0.45593999997E+02  0.45594000000E+02  0.51100000000E-03 0. -1.
    9900012    2    1    2    0    0  0.91138876174E+01  0.37015141023E+02 -0.20747037082E+02  0.47787272355E+02  0.20000005975E+02 0.  0.
        -12    1    1    2    0    0 -0.91138876174E+01 -0.37015141023E+02  0.20747037082E+02  0.43400727645E+02  0.00000000000E+00 0.  1.
         11    1    3    3    0    0  0.96981019714E+01  0.21334394634E+02 -0.62481633697E+01  0.24253847571E+02  0.51100000000E-03 0. -1.
        -11    1    3    3    0    0 -0.38778760518E+01  0.13539176333E+02 -0.13433291592E+02  0.19462798918E+02  0.51100000000E-03 0.  1.
        -12    1    3    3    0    0  0.32936616978E+01  0.21415700551E+01 -0.10655821198E+01  0.40706258653E+01  0.00000000000E+00 0.  1.
</event>
<event>
 7    1  0.2935819E-010  0.4778727E+02  0.7816164E-02  0.1312668E+00
        -11   -1    0    0    0    0  0.00000000000E+00  0.00000000000E+00  0.45593999997E+02  0.45594000000E+02  0.51100000000E-03 0.  1.
         11   -1    0    0    0    0 -0.00000000000E+00 -0.00000000000E+00 -0.45593999997E+02  0.45594000000E+02  0.51100000000E-03 0. -1.
    9900012    2    1    2    0    0  0.35385949543E+02  0.19448401461E+02 -0.15912804142E+02  0.47787273277E+02  0.20000010177E+02 0.  0.
        -12    1    1    2    0    0 -0.35385949543E+02 -0.19448401461E+02  0.15912804142E+02  0.43400726723E+02  0.00000000000E+00 0.  1.
         11    1    3    3    0    0  0.11784787325E+02  0.79207347975E+01 -0.85820111072E+01  0.16591267792E+02  0.51100000000E-03 0. -1.
        -11    1    3    3    0    0  0.25464467697E+02  0.11850312392E+02 -0.79769651667E+01  0.29197619636E+02  0.51100000000E-03 0.  1.
        -12    1    3    3    0    0 -0.18633054794E+01 -0.32264572855E+00  0.64617213160E+00  0.19983858485E+01  0.00000000000E+00 0.  1.
</event>
<event>
 7    1  0.2935819E-010  0.4778727E+02  0.7816164E-02  0.1312668E+00
        -11   -1    0    0    0    0  0.00000000000E+00  0.00000000000E+00  0.45593999997E+02  0.45594000000E+02  0.51100000000E-03 0.  1.
         11   -1    0    0    0    0 -0.00000000000E+00 -0.00000000000E+00 -0.45593999997E+02  0.45594000000E+02  0.51100000000E-03 0. -1.
    9900012    2    1    2    0    0  0.13459104385E+02 -0.38634300407E+02 -0.14486772610E+02  0.47787271441E+02  0.20000001809E+02 0.  0.
        -12    1    1    2    0    0 -0.13459104385E+02  0.38634300407E+02  0.14486772610E+02  0.43400728559E+02  0.00000000000E+00 0.  1.
         11    1    3    3    0    0  0.13712839566E+02 -0.22921643794E+02 -0.50964757505E+01  0.27192237652E+02  0.51100000000E-03 0. -1.
        -11    1    3    3    0    0 -0.32087938443E+01 -0.10465348771E+02 -0.21116271715E+01  0.11148042537E+02  0.51100000000E-03 0.  1.
        -12    1    3    3    0    0  0.29550586631E+01 -0.52473078422E+01 -0.72786696885E+01  0.94469912526E+01  0.00000000000E+00 0.  1.
</event>
<event>
 7    1  0.2935819E-010  0.4778727E+02  0.7816164E-02  0.1312668E+00
        -11   -1    0    0    0    0  0.00000000000E+00  0.00000000000E+00  0.45593999997E+02  0.45594000000E+02  0.51100000000E-03 0.  1.
         11   -1    0    0    0    0 -0.00000000000E+00 -0.00000000000E+00 -0.45593999997E+02  0.45594000000E+02  0.51100000000E-03 0. -1.
    9900012    2    1    2    0    0 -0.60955871194E+01 -0.30313624569E+02 -0.30455725880E+02  0.47787271254E+02  0.20000000954E+02 0.  0.
        -12    1    1    2    0    0  0.60955871194E+01  0.30313624569E+02  0.30455725880E+02  0.43400728746E+02  0.00000000000E+00 0.  1.
         11    1    3    3    0    0 -0.10370629314E+02 -0.13327605026E+02 -0.18727096724E+02  0.25216644504E+02  0.51100000000E-03 0. -1.
        -11    1    3    3    0    0  0.56482833809E+01 -0.61597272218E+01 -0.55077587004E+01  0.10009033458E+02  0.51100000000E-03 0.  1.
         12    1    3    3    0    0 -0.13732411863E+01 -0.10826292322E+02 -0.62208704553E+01  0.12561593291E+02  0.00000000000E+00 0. -1.
</event>
<event>
 7    1  0.2935819E-010  0.4778727E+02  0.7816164E-02  0.1312668E+00
        -11   -1    0    0    0    0  0.00000000000E+00  0.00000000000E+00  0.45593999997E+02  0.45594000000E+02  0.51100000000E-03 0. -1.
         11   -1    0    0    0    0 -0.00000000000E+00 -0.00000000000E+00 -0.45593999997E+02  0.45594000000E+02  0.51100000000E-03 0.  1.
    9900012    2    1    2    0    0 -0.13477294678E+02  0.19916272653E+01  0.41207029533E+02  0.47787270353E+02  0.19999996846E+02 0.  0.
        -12    1    1    2    0    0  0.13477294678E+02 -0.19916272653E+01 -0.41207029533E+02  0.43400729647E+02  0.00000000000E+00 0.  1.
         11    1    3    3    0    0 -0.67277496041E+01  0.67482862343E+01  0.29512491446E+02  0.31012725347E+02  0.51100000000E-03 0. -1.
        -11    1    3    3    0    0 -0.78863686979E+01 -0.18633969246E+01  0.10870534494E+02  0.13558598002E+02  0.51100000000E-03 0.  1.
         12    1    3    3    0    0  0.11368236242E+01 -0.28932620444E+01  0.82400359301E+00  0.32159470038E+01  0.00000000000E+00 0. -1.
</event>
<event>
 7    1  0.2935819E-010  0.4778727E+02  0.7816164E-02  0.1312668E+00
        -11   -1    0    0    0    0  0.00000000000E+00  0.00000000000E+00  0.45593999997E+02  0.45594000000E+02  0.51100000000E-03 0.  1.
         11   -1    0    0    0    0 -0.00000000000E+00 -0.00000000000E+00 -0.45593999997E+02  0.45594000000E+02  0.51100000000E-03 0. -1.
    9900012    2    1    2    0    0  0.93942580049E+01 -0.42364330569E+02 -0.79692346658E+00  0.47787266423E+02  0.19999978927E+02 0.  0.
        -12    1    1    2    0    0 -0.93942580049E+01  0.42364330569E+02  0.79692346658E+00  0.43400733577E+02  0.00000000000E+00 0.  1.
         11    1    3    3    0    0  0.47094477569E+01 -0.17910998000E+02  0.62781912717E+01  0.19555010443E+02  0.51100000000E-03 0. -1.
        -11    1    3    3    0    0  0.73795833360E+01 -0.96684426028E+01 -0.45874120674E+01  0.12999283915E+02  0.51100000000E-03 0.  1.
         12    1    3    3    0    0 -0.26947730880E+01 -0.14784889967E+02 -0.24877026709E+01  0.15232972064E+02  0.00000000000E+00 0. -1.
</event>
<event>
 7    1  0.2935819E-010  0.4778730E+02  0.7816164E-02  0.1312668E+00
        -11   -1    0    0    0    0  0.00000000000E+00  0.00000000000E+00  0.45593999997E+02  0.45594000000E+02  0.51100000000E-03 0.  1.
         11   -1    0    0    0    0 -0.00000000000E+00 -0.00000000000E+00 -0.45593999997E+02  0.45594000000E+02  0.51100000000E-03 0. -1.
    9900012    2    1    2    0    0 -0.55702225458E+01  0.20989383878E+02 -0.37577110230E+02  0.47787299222E+02  0.20000128472E+02 0.  0.
        -12    1    1    2    0    0  0.55702225458E+01 -0.20989383878E+02  0.37577110230E+02  0.43400700778E+02  0.00000000000E+00 0.  1.
         11    1    3    3    0    0 -0.40746762656E+01  0.20353463992E+02 -0.23308741550E+02  0.31211599063E+02  0.51100000000E-03 0. -1.
        -11    1    3    3    0    0 -0.32363496440E+01  0.18212177192E+01 -0.13962098337E+02  0.14447525160E+02  0.51100000000E-03 0.  1.
         12    1    3    3    0    0  0.17408033638E+01 -0.11852978335E+01 -0.30627034291E+00  0.21281749995E+01  0.00000000000E+00 0. -1.
</event>
<event>
 7    1  0.2935819E-010  0.4778727E+02  0.7816164E-02  0.1312668E+00
        -11   -1    0    0    0    0  0.00000000000E+00  0.00000000000E+00  0.45593999997E+02  0.45594000000E+02  0.51100000000E-03 0.  1.
         11   -1    0    0    0    0 -0.00000000000E+00 -0.00000000000E+00 -0.45593999997E+02  0.45594000000E+02  0.51100000000E-03 0. -1.
    9900012    2    1    2    0    0 -0.18533802599E+02  0.33754946089E+02  0.20018129032E+02  0.47787265972E+02  0.19999976871E+02 0.  0.
        -12    1    1    2    0    0  0.18533802599E+02 -0.33754946089E+02 -0.20018129032E+02  0.43400734028E+02  0.00000000000E+00 0.  1.
         11    1    3    3    0    0 -0.98812085445E+01  0.16226773123E+02  0.25207370450E+01  0.19165087106E+02  0.51100000000E-03 0. -1.
        -11    1    3    3    0    0  0.46219176702E+00  0.11456001116E+02  0.10994071972E+02  0.15884684498E+02  0.51100000000E-03 0.  1.
        -12    1    3    3    0    0 -0.91147858211E+01  0.60721718501E+01  0.65033200158E+01  0.12737494368E+02  0.00000000000E+00 0.  1.
</event>
<event>
 7    1  0.2935819E-010  0.4778728E+02  0.7816164E-02  0.1312668E+00
        -11   -1    0    0    0    0  0.00000000000E+00  0.00000000000E+00  0.45593999997E+02  0.45594000000E+02  0.51100000000E-03 0.  1.
         11   -1    0    0    0    0 -0.00000000000E+00 -0.00000000000E+00 -0.45593999997E+02  0.45594000000E+02  0.51100000000E-03 0. -1.
    9900012    2    1    2    0    0  0.53974791935E+01  0.85889417684E+01 -0.42198576408E+02  0.47787279347E+02  0.20000037856E+02 0.  0.
        -12    1    1    2    0    0 -0.53974791935E+01 -0.85889417684E+01  0.42198576408E+02  0.43400720653E+02  0.00000000000E+00 0.  1.
         11    1    3    3    0    0  0.98346368808E+01  0.96979147664E+01 -0.17573798745E+02  0.22351913475E+02  0.51100000000E-03 0. -1.
        -11    1    3    3    0    0 -0.26462845028E+01 -0.26802051158E+01 -0.18137494835E+02  0.18524444398E+02  0.51100000000E-03 0.  1.
         12    1    3    3    0    0 -0.17908731846E+01  0.15712321178E+01 -0.64872828276E+01  0.69109214738E+01  0.00000000000E+00 0. -1.
</event>
<event>
 7    1  0.2935819E-010  0.4778726E+02  0.7816164E-02  0.1312668E+00
        -11   -1    0    0    0    0  0.00000000000E+00  0.00000000000E+00  0.45593999997E+02  0.45594000000E+02  0.51100000000E-03 0. -1.
         11   -1    0    0    0    0 -0.00000000000E+00 -0.00000000000E+00 -0.45593999997E+02  0.45594000000E+02  0.51100000000E-03 0.  1.
    9900012    2    1    2    0    0 -0.12454468209E+02 -0.28591928557E+02  0.30182974375E+02  0.47787261537E+02  0.19999956653E+02 0.  0.
        -12    1    1    2    0    0  0.12454468209E+02  0.28591928557E+02 -0.30182974375E+02  0.43400738463E+02  0.00000000000E+00 0.  1.
         11    1    3    3    0    0 -0.32008831023E+01 -0.26812634412E+02  0.18337203143E+02  0.32640711330E+02  0.51100000000E-03 0. -1.
        -11    1    3    3    0    0 -0.83924880696E+01 -0.16716896115E+01  0.10502638752E+02  0.13547465562E+02  0.51100000000E-03 0.  1.
         12    1    3    3    0    0 -0.86109703717E+00 -0.10760453357E+00  0.13431324796E+01  0.15990846447E+01  0.00000000000E+00 0. -1.
</event>
<event>
 7    1  0.2935819E-010  0.4778731E+02  0.7816164E-02  0.1312668E+00
        -11   -1    0    0    0    0  0.00000000000E+00  0.00000000000E+00  0.45593999997E+02  0.45594000000E+02  0.51100000000E-03 0.  1.
         11   -1    0    0    0    0 -0.00000000000E+00 -0.00000000000E+00 -0.45593999997E+02  0.45594000000E+02  0.51100000000E-03 0. -1.
    9900012    2    1    2    0    0 -0.38940576969E+02  0.13819811632E+02  0.13276464523E+02  0.47787306014E+02  0.20000159440E+02 0.  0.
        -12    1    1    2    0    0  0.38940576969E+02 -0.13819811632E+02 -0.13276464523E+02  0.43400693986E+02  0.00000000000E+00 0.  1.
         11    1    3    3    0    0 -0.14038078411E+02  0.83435513280E+01  0.57744393402E+01  0.17321277210E+02  0.51100000000E-03 0. -1.
        -11    1    3    3    0    0 -0.14226115333E+02 -0.90444183911E+00 -0.25412715547E+01  0.14479586799E+02  0.51100000000E-03 0.  1.
        -12    1    3    3    0    0 -0.10676383226E+02  0.63807021426E+01  0.10043296738E+02  0.15986442005E+02  0.00000000000E+00 0.  1.
</event>
<event>
 7    1  0.2935819E-010  0.4778727E+02  0.7816164E-02  0.1312668E+00
        -11   -1    0    0    0    0  0.00000000000E+00  0.00000000000E+00  0.45593999997E+02  0.45594000000E+02  0.51100000000E-03 0.  1.
         11   -1    0    0    0    0 -0.00000000000E+00 -0.00000000000E+00 -0.45593999997E+02  0.45594000000E+02  0.51100000000E-03 0. -1.
    9900012    2    1    2    0    0  0.11832648002E+02  0.15933565053E+02 -0.38597064109E+02  0.47787269455E+02  0.19999992754E+02 0.  0.
        -12    1    1    2    0    0 -0.11832648002E+02 -0.15933565053E+02  0.38597064109E+02  0.43400730545E+02  0.00000000000E+00 0.  1.
         11    1    3    3    0    0  0.10008602007E+02  0.41414444154E+01 -0.28413768126E+02  0.30408319509E+02  0.51100000000E-03 0. -1.
        -11    1    3    3    0    0  0.31409122604E+01  0.76914252878E+01 -0.26839090062E+01  0.87307915220E+01  0.51100000000E-03 0.  1.
         12    1    3    3    0    0 -0.13168662654E+01  0.41006953493E+01 -0.74993869763E+01  0.86481584241E+01  0.00000000000E+00 0. -1.
</event>
<event>
 7    1  0.2935819E-010  0.4778727E+02  0.7816164E-02  0.1312668E+00
        -11   -1    0    0    0    0  0.00000000000E+00  0.00000000000E+00  0.45593999997E+02  0.45594000000E+02  0.51100000000E-03 0. -1.
         11   -1    0    0    0    0 -0.00000000000E+00 -0.00000000000E+00 -0.45593999997E+02  0.45594000000E+02  0.51100000000E-03 0.  1.
    9900012    2    1    2    0    0  0.86695320030E+01  0.41342641529E+02 -0.99623561557E+01  0.47787270353E+02  0.19999996845E+02 0.  0.
        -12    1    1    2    0    0 -0.86695320030E+01 -0.41342641529E+02  0.99623561557E+01  0.43400729647E+02  0.00000000000E+00 0.  1.
         11    1    3    3    0    0  0.82323530710E+01  0.67300300448E+01  0.40385985973E+00  0.10640866719E+02  0.51100000000E-03 0. -1.
        -11    1    3    3    0    0  0.31380703133E+01  0.30182810203E+02 -0.99771208074E+01  0.31943582405E+02  0.51100000000E-03 0.  1.
        -12    1    3    3    0    0 -0.27008913813E+01  0.44298012818E+01 -0.38909520806E+00  0.52028212280E+01  0.00000000000E+00 0.  1.
</event>
<event>
 7    1  0.2935819E-010  0.4778727E+02  0.7816164E-02  0.1312668E+00
        -11   -1    0    0    0    0  0.00000000000E+00  0.00000000000E+00  0.45593999997E+02  0.45594000000E+02  0.51100000000E-03 0. -1.
         11   -1    0    0    0    0 -0.00000000000E+00 -0.00000000000E+00 -0.45593999997E+02  0.45594000000E+02  0.51100000000E-03 0.  1.
    9900012    2    1    2    0    0 -0.10415858495E+02 -0.41474707800E+02 -0.74149946493E+01  0.47787266816E+02  0.19999980719E+02 0.  0.
        -12    1    1    2    0    0  0.10415858495E+02  0.41474707800E+02  0.74149946493E+01  0.43400733184E+02  0.00000000000E+00 0.  1.
         11    1    3    3    0    0  0.48402855753E+01 -0.90734769065E+01  0.22618914634E+01  0.10529601174E+02  0.51100000000E-03 0. -1.
        -11    1    3    3    0    0 -0.12812887852E+02 -0.25136829068E+02 -0.64505969037E+01  0.28942019131E+02  0.51100000000E-03 0.  1.
        -12    1    3    3    0    0 -0.24432562176E+01 -0.72644018257E+01 -0.32262892091E+01  0.83156465107E+01  0.00000000000E+00 0.  1.
</event>
<event>
 7    1  0.2935819E-010  0.4778727E+02  0.7816164E-02  0.1312668E+00
        -11   -1    0    0    0    0  0.00000000000E+00  0.00000000000E+00  0.45593999997E+02  0.45594000000E+02  0.51100000000E-03 0. -1.
         11   -1    0    0    0    0 -0.00000000000E+00 -0.00000000000E+00 -0.45593999997E+02  0.45594000000E+02  0.51100000000E-03 0.  1.
    9900012    2    1    2    0    0 -0.39818343593E+02 -0.15912442608E+02 -0.67020122710E+01  0.47787270920E+02  0.19999999430E+02 0.  0.
        -12    1    1    2    0    0  0.39818343593E+02  0.15912442608E+02  0.67020122710E+01  0.43400729080E+02  0.00000000000E+00 0.  1.
         11    1    3    3    0    0 -0.61959027942E+01 -0.54601405557E+01  0.21404945799E+01  0.85313576663E+01  0.51100000000E-03 0. -1.
        -11    1    3    3    0    0 -0.34353382383E+02 -0.11851881007E+02 -0.73357236281E+01  0.37073370577E+02  0.51100000000E-03 0.  1.
        -12    1    3    3    0    0  0.73094158436E+00  0.13995789549E+01 -0.15067832228E+01  0.21825426757E+01  0.00000000000E+00 0.  1.
</event>
<event>
 7    1  0.2935819E-010  0.4778728E+02  0.7816164E-02  0.1312668E+00
        -11   -1    0    0    0    0  0.00000000000E+00  0.00000000000E+00  0.45593999997E+02  0.45594000000E+02  0.51100000000E-03 0. -1.
         11   -1    0    0    0    0 -0.00000000000E+00 -0.00000000000E+00 -0.45593999997E+02  0.45594000000E+02  0.51100000000E-03 0.  1.
    9900012    2    1    2    0    0  0.39458239415E+02  0.72225857956E+01 -0.16568169238E+02  0.47787278402E+02  0.20000033548E+02 0.  0.
        -12    1    1    2    0    0 -0.39458239415E+02 -0.72225857956E+01  0.16568169238E+02  0.43400721598E+02  0.00000000000E+00 0.  1.
         11    1    3    3    0    0  0.26329305506E+02  0.68366115119E+01 -0.52807699507E+01  0.27710252921E+02  0.51100000000E-03 0. -1.
        -11    1    3    3    0    0  0.84643179833E+01  0.33263227957E+01 -0.20556076472E+01  0.93238739440E+01  0.51100000000E-03 0.  1.
         12    1    3    3    0    0  0.46646159253E+01 -0.29403485120E+01 -0.92317916405E+01  0.10753151538E+02  0.00000000000E+00 0. -1.
</event>
<event>
 7    1  0.2935819E-010  0.4778726E+02  0.7816164E-02  0.1312668E+00
        -11   -1    0    0    0    0  0.00000000000E+00  0.00000000000E+00  0.45593999997E+02  0.45594000000E+02  0.51100000000E-03 0.  1.
         11   -1    0    0    0    0 -0.00000000000E+00 -0.00000000000E+00 -0.45593999997E+02  0.45594000000E+02  0.51100000000E-03 0. -1.
    9900012    2    1    2    0    0  0.16383108782E+02 -0.36674384974E+02 -0.16437976870E+02  0.47787264406E+02  0.19999969731E+02 0.  0.
        -12    1    1    2    0    0 -0.16383108782E+02  0.36674384974E+02  0.16437976870E+02  0.43400735594E+02  0.00000000000E+00 0.  1.
         11    1    3    3    0    0 -0.37956596663E+01 -0.25302383799E+01 -0.35067770863E+01  0.57538356211E+01  0.51100000000E-03 0. -1.
        -11    1    3    3    0    0  0.10072981538E+02 -0.18575257745E+02 -0.43007629419E+01  0.21563898523E+02  0.51100000000E-03 0.  1.
         12    1    3    3    0    0  0.10105786910E+02 -0.15568888849E+02 -0.86304368419E+01  0.20469530262E+02  0.00000000000E+00 0. -1.
</event>
<event>
 7    1  0.2935819E-010  0.4778727E+02  0.7816164E-02  0.1312668E+00
        -11   -1    0    0    0    0  0.00000000000E+00  0.00000000000E+00  0.45593999997E+02  0.45594000000E+02  0.51100000000E-03 0.  1.
         11   -1    0    0    0    0 -0.00000000000E+00 -0.00000000000E+00 -0.45593999997E+02  0.45594000000E+02  0.51100000000E-03 0. -1.
    9900012    2    1    2    0    0  0.19445919844E+02  0.71143396873E+01 -0.38142699652E+02  0.47787272305E+02  0.20000005747E+02 0.  0.
        -12    1    1    2    0    0 -0.19445919844E+02 -0.71143396873E+01  0.38142699652E+02  0.43400727695E+02  0.00000000000E+00 0.  1.
         11    1    3    3    0    0  0.28913597605E+01  0.90786608715E+01 -0.19302133014E+02  0.21525668019E+02  0.51100000000E-03 0. -1.
        -11    1    3    3    0    0  0.16407609274E+02 -0.10839344742E+01 -0.14797771189E+02  0.22121450867E+02  0.51100000000E-03 0.  1.
         12    1    3    3    0    0  0.14695080884E+00 -0.88038670997E+00 -0.40427954480E+01  0.41401534191E+01  0.00000000000E+00 0. -1.
</event>
<event>
 7    1  0.2935819E-010  0.4778727E+02  0.7816164E-02  0.1312668E+00
        -11   -1    0    0    0    0  0.00000000000E+00  0.00000000000E+00  0.45593999997E+02  0.45594000000E+02  0.51100000000E-03 0.  1.
         11   -1    0    0    0    0 -0.00000000000E+00 -0.00000000000E+00 -0.45593999997E+02  0.45594000000E+02  0.51100000000E-03 0. -1.
    9900012    2    1    2    0    0  0.17041344457E+02  0.56324363960E-01 -0.39915070352E+02  0.47787269194E+02  0.19999991563E+02 0.  0.
        -12    1    1    2    0    0 -0.17041344457E+02 -0.56324363960E-01  0.39915070352E+02  0.43400730806E+02  0.00000000000E+00 0.  1.
         11    1    3    3    0    0  0.91887056214E+01  0.86215184354E+01 -0.13630103945E+02  0.18561859415E+02  0.51100000000E-03 0. -1.
        -11    1    3    3    0    0  0.13055223060E+01 -0.52643904137E+01 -0.10374777177E+02  0.11707014848E+02  0.51100000000E-03 0.  1.
         12    1    3    3    0    0  0.65471165291E+01 -0.33008036578E+01 -0.15910189230E+02  0.17518394931E+02  0.00000000000E+00 0. -1.
</event>
<event>
 7    1  0.2935819E-010  0.4778726E+02  0.7816164E-02  0.1312668E+00
        -11   -1    0    0    0    0  0.00000000000E+00  0.00000000000E+00  0.45593999997E+02  0.45594000000E+02  0.51100000000E-03 0.  1.
         11   -1    0    0    0    0 -0.00000000000E+00 -0.00000000000E+00 -0.45593999997E+02  0.45594000000E+02  0.51100000000E-03 0. -1.
    9900012    2    1    2    0    0 -0.30926556482E+01 -0.23054539378E+02 -0.36640795455E+02  0.47787260416E+02  0.19999951540E+02 0.  0.
        -12    1    1    2    0    0  0.30926556482E+01  0.23054539378E+02  0.36640795455E+02  0.43400739584E+02  0.00000000000E+00 0.  1.
         11    1    3    3    0    0 -0.64271198364E+01 -0.90538067110E+01 -0.84559442005E+01  0.13956442166E+02  0.51100000000E-03 0. -1.
        -11    1    3    3    0    0  0.54016989827E+01 -0.46950906642E+01 -0.49093641802E+01  0.86789449336E+01  0.51100000000E-03 0.  1.
         12    1    3    3    0    0 -0.20672347945E+01 -0.93056420028E+01 -0.23275487074E+02  0.25151873316E+02  0.00000000000E+00 0. -1.
</event>
<event>
 7    1  0.2935819E-010  0.4778727E+02  0.7816164E-02  0.1312668E+00
        -11   -1    0    0    0    0  0.00000000000E+00  0.00000000000E+00  0.45593999997E+02  0.45594000000E+02  0.51100000000E-03 0.  1.
         11   -1    0    0    0    0 -0.00000000000E+00 -0.00000000000E+00 -0.45593999997E+02  0.45594000000E+02  0.51100000000E-03 0. -1.
    9900012    2    1    2    0    0 -0.24495816349E+02 -0.35559842113E+02 -0.43675674715E+01  0.47787273792E+02  0.20000012529E+02 0.  0.
        -12    1    1    2    0    0  0.24495816349E+02  0.35559842113E+02  0.43675674715E+01  0.43400726208E+02  0.00000000000E+00 0.  1.
         11    1    3    3    0    0 -0.96196751181E+01 -0.87155574606E+01  0.15397814490E+01  0.13071725915E+02  0.51100000000E-03 0. -1.
        -11    1    3    3    0    0 -0.40902179377E+01 -0.10701991433E+02 -0.96072350314E+01  0.14951972065E+02  0.51100000000E-03 0.  1.
        -12    1    3    3    0    0 -0.10785923293E+02 -0.16142293219E+02  0.36998861109E+01  0.19763575813E+02  0.00000000000E+00 0.  1.
</event>
<event>
 7    1  0.2935819E-010  0.4778726E+02  0.7816164E-02  0.1312668E+00
        -11   -1    0    0    0    0  0.00000000000E+00  0.00000000000E+00  0.45593999997E+02  0.45594000000E+02  0.51100000000E-03 0.  1.
         11   -1    0    0    0    0 -0.00000000000E+00 -0.00000000000E+00 -0.45593999997E+02  0.45594000000E+02  0.51100000000E-03 0. -1.
    9900012    2    1    2    0    0 -0.96223148989E+01  0.20129546241E+02 -0.37226824218E+02  0.47787262481E+02  0.19999960954E+02 0.  0.
        -12    1    1    2    0    0  0.96223148989E+01 -0.20129546241E+02  0.37226824218E+02  0.43400737519E+02  0.00000000000E+00 0.  1.
         11    1    3    3    0    0 -0.11231876687E+02  0.17596886541E+02 -0.21894146685E+02  0.30251597134E+02  0.51100000000E-03 0. -1.
        -11    1    3    3    0    0  0.44493520440E+01  0.33096681199E+01 -0.94348409150E+01  0.10943804641E+02  0.51100000000E-03 0.  1.
         12    1    3    3    0    0 -0.28397902560E+01 -0.77700842030E+00 -0.58978366178E+01  0.65918607050E+01  0.00000000000E+00 0. -1.
</event>
<event>
 7    1  0.2935819E-010  0.4778727E+02  0.7816164E-02  0.1312668E+00
        -11   -1    0    0    0    0  0.00000000000E+00  0.00000000000E+00  0.45593999997E+02  0.45594000000E+02  0.51100000000E-03 0.  1.
         11   -1    0    0    0    0 -0.00000000000E+00 -0.00000000000E+00 -0.45593999997E+02  0.45594000000E+02  0.51100000000E-03 0. -1.
    9900012    2    1    2    0    0 -0.44404174180E+01  0.48534576390E+00 -0.43170250066E+02  0.47787270074E+02  0.19999995573E+02 0.  0.
        -12    1    1    2    0    0  0.44404174180E+01 -0.48534576390E+00  0.43170250066E+02  0.43400729926E+02  0.00000000000E+00 0.  1.
         11    1    3    3    0    0 -0.67372783041E+01 -0.25412950126E+01 -0.60448480133E+01  0.94015576929E+01  0.51100000000E-03 0. -1.
        -11    1    3    3    0    0  0.77803485145E-01 -0.88937896830E+00 -0.29624660080E+02  0.29638109478E+02  0.51100000000E-03 0.  1.
        -12    1    3    3    0    0  0.22190574009E+01  0.39160197448E+01 -0.75007419735E+01  0.87476029027E+01  0.00000000000E+00 0.  1.
</event>
<event>
 7    1  0.2935819E-010  0.4778727E+02  0.7816164E-02  0.1312668E+00
        -11   -1    0    0    0    0  0.00000000000E+00  0.00000000000E+00  0.45593999997E+02  0.45594000000E+02  0.51100000000E-03 0. -1.
         11   -1    0    0    0    0 -0.00000000000E+00 -0.00000000000E+00 -0.45593999997E+02  0.45594000000E+02  0.51100000000E-03 0.  1.
    9900012    2    1    2    0    0  0.22189493899E+02  0.37019513032E+02  0.45612586210E+01  0.47787273452E+02  0.20000010978E+02 0.  0.
        -12    1    1    2    0    0 -0.22189493899E+02 -0.37019513032E+02 -0.45612586210E+01  0.43400726548E+02  0.00000000000E+00 0.  1.
         11    1    3    3    0    0  0.20841317010E+02  0.32309629543E+02 -0.22339903480E+01  0.38513158389E+02  0.51100000000E-03 0. -1.
        -11    1    3    3    0    0  0.23508231615E+01  0.17214980156E+01  0.45542480072E+01  0.54065793369E+01  0.51100000000E-03 0.  1.
         12    1    3    3    0    0 -0.10026462724E+01  0.29883854736E+01  0.22410009618E+01  0.38675357267E+01  0.00000000000E+00 0. -1.
</event>
<event>
 7    1  0.2935819E-010  0.4778727E+02  0.7816164E-02  0.1312668E+00
        -11   -1    0    0    0    0  0.00000000000E+00  0.00000000000E+00  0.45593999997E+02  0.45594000000E+02  0.51100000000E-03 0.  1.
         11   -1    0    0    0    0 -0.00000000000E+00 -0.00000000000E+00 -0.45593999997E+02  0.45594000000E+02  0.51100000000E-03 0. -1.
    9900012    2    1    2    0    0  0.28462299082E+02  0.29956549553E+02 -0.13271256332E+02  0.47787267578E+02  0.19999984195E+02 0.  0.
        -12    1    1    2    0    0 -0.28462299082E+02 -0.29956549553E+02  0.13271256332E+02  0.43400732422E+02  0.00000000000E+00 0.  1.
         11    1    3    3    0    0  0.14489181665E+02  0.13541907963E+02 -0.45964635056E+00  0.19837614061E+02  0.51100000000E-03 0. -1.
        -11    1    3    3    0    0  0.15881946405E+02  0.11681633254E+02 -0.10641636204E+02  0.22404044243E+02  0.51100000000E-03 0.  1.
        -12    1    3    3    0    0 -0.19088289890E+01  0.47330083355E+01 -0.21699737780E+01  0.55456092732E+01  0.00000000000E+00 0.  1.
</event>
<event>
 7    1  0.2935819E-010  0.4778727E+02  0.7816164E-02  0.1312668E+00
        -11   -1    0    0    0    0  0.00000000000E+00  0.00000000000E+00  0.45593999997E+02  0.45594000000E+02  0.51100000000E-03 0.  1.
         11   -1    0    0    0    0 -0.00000000000E+00 -0.00000000000E+00 -0.45593999997E+02  0.45594000000E+02  0.51100000000E-03 0. -1.
    9900012    2    1    2    0    0  0.31045421372E+02  0.17569259071E+02 -0.24720967468E+02  0.47787270916E+02  0.19999999415E+02 0.  0.
        -12    1    1    2    0    0 -0.31045421372E+02 -0.17569259071E+02  0.24720967468E+02  0.43400729084E+02  0.00000000000E+00 0.  1.
         11    1    3    3    0    0  0.58474042173E+01 -0.17080275181E+01  0.57583588412E-01  0.60920284154E+01  0.51100000000E-03 0. -1.
        -11    1    3    3    0    0  0.69072790046E+01  0.62273924410E+01 -0.16420337754E+01  0.94438972381E+01  0.51100000000E-03 0.  1.
         12    1    3    3    0    0  0.18290738150E+02  0.13049894148E+02 -0.23136517281E+02  0.32251345263E+02  0.00000000000E+00 0. -1.
</event>
<event>
 7    1  0.2935819E-010  0.4778727E+02  0.7816164E-02  0.1312668E+00
        -11   -1    0    0    0    0  0.00000000000E+00  0.00000000000E+00  0.45593999997E+02  0.45594000000E+02  0.51100000000E-03 0.  1.
         11   -1    0    0    0    0 -0.00000000000E+00 -0.00000000000E+00 -0.45593999997E+02  0.45594000000E+02  0.51100000000E-03 0. -1.
    9900012    2    1    2    0    0 -0.50514011459E+01  0.28820047569E+02 -0.32054821783E+02  0.47787269649E+02  0.19999993640E+02 0.  0.
        -12    1    1    2    0    0  0.50514011459E+01 -0.28820047569E+02  0.32054821783E+02  0.43400730351E+02  0.00000000000E+00 0.  1.
         11    1    3    3    0    0 -0.13367917442E+01  0.10148804422E+02 -0.18336531514E+02  0.21000324559E+02  0.51100000000E-03 0. -1.
        -11    1    3    3    0    0 -0.80231311140E+01  0.75843990890E+01 -0.55441053390E+01  0.12354385727E+02  0.51100000000E-03 0.  1.
        -12    1    3    3    0    0  0.43085217123E+01  0.11086844058E+02 -0.81741849300E+01  0.14432559364E+02  0.00000000000E+00 0.  1.
</event>
<event>
 7    1  0.2935819E-010  0.4778724E+02  0.7816164E-02  0.1312668E+00
        -11   -1    0    0    0    0  0.00000000000E+00  0.00000000000E+00  0.45593999997E+02  0.45594000000E+02  0.51100000000E-03 0.  1.
         11   -1    0    0    0    0 -0.00000000000E+00 -0.00000000000E+00 -0.45593999997E+02  0.45594000000E+02  0.51100000000E-03 0. -1.
    9900012    2    1    2    0    0 -0.30057895679E+02 -0.21552670292E+02 -0.22707511289E+02  0.47787242422E+02  0.19999869500E+02 0.  0.
        -12    1    1    2    0    0  0.30057895679E+02  0.21552670292E+02  0.22707511289E+02  0.43400757578E+02  0.00000000000E+00 0.  1.
         11    1    3    3    0    0 -0.87042579842E+01 -0.15554271861E+02 -0.13380629323E+02  0.22287680936E+02  0.51100000000E-03 0. -1.
        -11    1    3    3    0    0 -0.51241599007E+01 -0.19438354727E+01  0.13629602501E+01  0.56474039998E+01  0.51100000000E-03 0.  1.
         12    1    3    3    0    0 -0.16229477794E+02 -0.40545629584E+01 -0.10689842216E+02  0.19852157486E+02  0.00000000000E+00 0. -1.
</event>
<event>
 7    1  0.2935819E-010  0.4778727E+02  0.7816164E-02  0.1312668E+00
        -11   -1    0    0    0    0  0.00000000000E+00  0.00000000000E+00  0.45593999997E+02  0.45594000000E+02  0.51100000000E-03 0.  1.
         11   -1    0    0    0    0 -0.00000000000E+00 -0.00000000000E+00 -0.45593999997E+02  0.45594000000E+02  0.51100000000E-03 0. -1.
    9900012    2    1    2    0    0 -0.21465492894E+02 -0.37569399361E+02  0.33757907639E+01  0.47787272854E+02  0.20000008250E+02 0.  0.
        -12    1    1    2    0    0  0.21465492894E+02  0.37569399361E+02 -0.33757907639E+01  0.43400727146E+02  0.00000000000E+00 0.  1.
         11    1    3    3    0    0 -0.56649180574E+00 -0.18032515284E+02 -0.11529709224E+00  0.18041779683E+02  0.51100000000E-03 0. -1.
        -11    1    3    3    0    0 -0.77758071794E+01 -0.39879373902E+01 -0.13194428334E+01  0.88378589925E+01  0.51100000000E-03 0.  1.
         12    1    3    3    0    0 -0.13123193909E+02 -0.15548946687E+02  0.48105306896E+01  0.20907634179E+02  0.00000000000E+00 0. -1.
</event>
<event>
 7    1  0.2935819E-010  0.4778727E+02  0.7816164E-02  0.1312668E+00
        -11   -1    0    0    0    0  0.00000000000E+00  0.00000000000E+00  0.45593999997E+02  0.45594000000E+02  0.51100000000E-03 0.  1.
         11   -1    0    0    0    0 -0.00000000000E+00 -0.00000000000E+00 -0.45593999997E+02  0.45594000000E+02  0.51100000000E-03 0. -1.
    9900012    2    1    2    0    0  0.36142277851E+02  0.16003353972E+02 -0.17923492876E+02  0.47787272086E+02  0.20000004748E+02 0.  0.
        -12    1    1    2    0    0 -0.36142277851E+02 -0.16003353972E+02  0.17923492876E+02  0.43400727914E+02  0.00000000000E+00 0.  1.
         11    1    3    3    0    0  0.26239017842E+02  0.16968912421E+02 -0.17023240102E+02  0.35583995699E+02  0.51100000000E-03 0. -1.
        -11    1    3    3    0    0  0.61724337253E+01 -0.37628023160E+01 -0.18105926569E+01  0.74522389517E+01  0.51100000000E-03 0.  1.
        -12    1    3    3    0    0  0.37308262834E+01  0.27972438668E+01  0.91033988301E+00  0.47510374351E+01  0.00000000000E+00 0.  1.
</event>
<event>
 7    1  0.2935819E-010  0.4778727E+02  0.7816164E-02  0.1312668E+00
        -11   -1    0    0    0    0  0.00000000000E+00  0.00000000000E+00  0.45593999997E+02  0.45594000000E+02  0.51100000000E-03 0.  1.
         11   -1    0    0    0    0 -0.00000000000E+00 -0.00000000000E+00 -0.45593999997E+02  0.45594000000E+02  0.51100000000E-03 0. -1.
    9900012    2    1    2    0    0  0.35633813290E+02 -0.42333121363E+01 -0.24411753408E+02  0.47787270908E+02  0.19999999377E+02 0.  0.
        -12    1    1    2    0    0 -0.35633813290E+02  0.42333121363E+01  0.24411753408E+02  0.43400729092E+02  0.00000000000E+00 0.  1.
         11    1    3    3    0    0  0.23254230590E+02 -0.49218177940E+01 -0.22675314131E+02  0.32850470346E+02  0.51100000000E-03 0. -1.
        -11    1    3    3    0    0  0.11925613261E+02  0.10970951948E+01  0.11083842733E+01  0.12027152010E+02  0.51100000000E-03 0.  1.
        -12    1    3    3    0    0  0.45396943915E+00 -0.40858953713E+00 -0.28448235502E+01  0.29096485515E+01  0.00000000000E+00 0.  1.
</event>
<event>
 7    1  0.2935819E-010  0.4778727E+02  0.7816164E-02  0.1312668E+00
        -11   -1    0    0    0    0  0.00000000000E+00  0.00000000000E+00  0.45593999997E+02  0.45594000000E+02  0.51100000000E-03 0.  1.
         11   -1    0    0    0    0 -0.00000000000E+00 -0.00000000000E+00 -0.45593999997E+02  0.45594000000E+02  0.51100000000E-03 0. -1.
    9900012    2    1    2    0    0 -0.59594389196E+01 -0.41281339804E+02  0.11998300933E+02  0.47787272431E+02  0.20000006324E+02 0.  0.
        -12    1    1    2    0    0  0.59594389196E+01  0.41281339804E+02 -0.11998300933E+02  0.43400727569E+02  0.00000000000E+00 0.  1.
         11    1    3    3    0    0 -0.12808438616E+01 -0.25486466821E+02  0.73530621241E+01  0.26556883757E+02  0.51100000000E-03 0. -1.
        -11    1    3    3    0    0 -0.24721587555E+01 -0.34532079130E+01  0.72715604019E+01  0.84209147213E+01  0.51100000000E-03 0.  1.
        -12    1    3    3    0    0 -0.22064363025E+01 -0.12341665070E+02 -0.26263215934E+01  0.12809473953E+02  0.00000000000E+00 0.  1.
</event>
<event>
 7    1  0.2935819E-010  0.4778726E+02  0.7816164E-02  0.1312668E+00
        -11   -1    0    0    0    0  0.00000000000E+00  0.00000000000E+00  0.45593999997E+02  0.45594000000E+02  0.51100000000E-03 0.  1.
         11   -1    0    0    0    0 -0.00000000000E+00 -0.00000000000E+00 -0.45593999997E+02  0.45594000000E+02  0.51100000000E-03 0. -1.
    9900012    2    1    2    0    0  0.94625856511E+01 -0.39068823495E+02 -0.16361859074E+02  0.47787263499E+02  0.19999965597E+02 0.  0.
        -12    1    1    2    0    0 -0.94625856511E+01  0.39068823495E+02  0.16361859074E+02  0.43400736501E+02  0.00000000000E+00 0.  1.
         11    1    3    3    0    0  0.88475140832E+01 -0.95216401263E+01 -0.27526829065E+01  0.13285985082E+02  0.51100000000E-03 0. -1.
        -11    1    3    3    0    0 -0.12687637379E-01 -0.25321280002E+02 -0.63939875365E+01  0.26116095780E+02  0.51100000000E-03 0.  1.
        -12    1    3    3    0    0  0.62775920525E+00 -0.42259033665E+01 -0.72151886305E+01  0.83851826370E+01  0.00000000000E+00 0.  1.
</event>
<event>
 7    1  0.2935819E-010  0.4778727E+02  0.7816164E-02  0.1312668E+00
        -11   -1    0    0    0    0  0.00000000000E+00  0.00000000000E+00  0.45593999997E+02  0.45594000000E+02  0.51100000000E-03 0.  1.
         11   -1    0    0    0    0 -0.00000000000E+00 -0.00000000000E+00 -0.45593999997E+02  0.45594000000E+02  0.51100000000E-03 0. -1.
    9900012    2    1    2    0    0  0.21985616897E+02  0.11394821025E+01 -0.37402638637E+02  0.47787272508E+02  0.20000006674E+02 0.  0.
        -12    1    1    2    0    0 -0.21985616897E+02 -0.11394821025E+01  0.37402638637E+02  0.43400727492E+02  0.00000000000E+00 0.  1.
         11    1    3    3    0    0  0.17202832994E+02 -0.37895335464E+01 -0.20873279976E+02  0.27312851274E+02  0.51100000000E-03 0. -1.
        -11    1    3    3    0    0  0.17027194701E+01  0.30805578841E+01  0.40112143776E-01  0.35200425730E+01  0.51100000000E-03 0.  1.
         12    1    3    3    0    0  0.30800644328E+01  0.18484577648E+01 -0.16569470805E+02  0.16954378661E+02  0.00000000000E+00 0. -1.
</event>
<event>
 7    1  0.2935819E-010  0.4778727E+02  0.7816164E-02  0.1312668E+00
        -11   -1    0    0    0    0  0.00000000000E+00  0.00000000000E+00  0.45593999997E+02  0.45594000000E+02  0.51100000000E-03 0.  1.
         11   -1    0    0    0    0 -0.00000000000E+00 -0.00000000000E+00 -0.45593999997E+02  0.45594000000E+02  0.51100000000E-03 0. -1.
    9900012    2    1    2    0    0 -0.30043228450E+02 -0.28243437997E+02 -0.13540174053E+02  0.47787266377E+02  0.19999978721E+02 0.  0.
        -12    1    1    2    0    0  0.30043228450E+02  0.28243437997E+02  0.13540174053E+02  0.43400733623E+02  0.00000000000E+00 0.  1.
         11    1    3    3    0    0 -0.27395511878E+02 -0.14577633208E+02 -0.87562892355E+01  0.32244287284E+02  0.51100000000E-03 0. -1.
        -11    1    3    3    0    0 -0.83483986839E+00 -0.71374082882E+01  0.10674418952E+00  0.71868594853E+01  0.51100000000E-03 0.  1.
        -12    1    3    3    0    0 -0.18128767034E+01 -0.65283965015E+01 -0.48906290071E+01  0.83561196083E+01  0.00000000000E+00 0.  1.
</event>
<event>
 7    1  0.2935819E-010  0.4778727E+02  0.7816164E-02  0.1312668E+00
        -11   -1    0    0    0    0  0.00000000000E+00  0.00000000000E+00  0.45593999997E+02  0.45594000000E+02  0.51100000000E-03 0.  1.
         11   -1    0    0    0    0 -0.00000000000E+00 -0.00000000000E+00 -0.45593999997E+02  0.45594000000E+02  0.51100000000E-03 0. -1.
    9900012    2    1    2    0    0 -0.24343618047E+02 -0.13955062332E+02 -0.33109936663E+02  0.47787269474E+02  0.19999992841E+02 0.  0.
        -12    1    1    2    0    0  0.24343618047E+02  0.13955062332E+02  0.33109936663E+02  0.43400730526E+02  0.00000000000E+00 0.  1.
         11    1    3    3    0    0  0.10285905209E+00  0.15305118846E+01 -0.19197248949E+01  0.24573136850E+01  0.51100000000E-03 0. -1.
        -11    1    3    3    0    0 -0.15588921417E+02 -0.16827486805E+01 -0.10253526291E+02  0.18734484667E+02  0.51100000000E-03 0.  1.
        -12    1    3    3    0    0 -0.88575556822E+01 -0.13802825536E+02 -0.20936685477E+02  0.26595471122E+02  0.00000000000E+00 0.  1.
</event>
<event>
 7    1  0.2935819E-010  0.4778727E+02  0.7816164E-02  0.1312668E+00
        -11   -1    0    0    0    0  0.00000000000E+00  0.00000000000E+00  0.45593999997E+02  0.45594000000E+02  0.51100000000E-03 0. -1.
         11   -1    0    0    0    0 -0.00000000000E+00 -0.00000000000E+00 -0.45593999997E+02  0.45594000000E+02  0.51100000000E-03 0.  1.
    9900012    2    1    2    0    0  0.58786052201E+01 -0.21068410837E+01  0.42949114855E+02  0.47787271371E+02  0.20000001490E+02 0.  0.
        -12    1    1    2    0    0 -0.58786052201E+01  0.21068410837E+01 -0.42949114855E+02  0.43400728629E+02  0.00000000000E+00 0.  1.
         11    1    3    3    0    0  0.80122067456E+00  0.69956281431E+01  0.26669293432E+02  0.27583182922E+02  0.51100000000E-03 0. -1.
        -11    1    3    3    0    0  0.61532536880E+00  0.65586245254E+00  0.28476688448E+00  0.94333096301E+00  0.51100000000E-03 0.  1.
         12    1    3    3    0    0  0.44620591767E+01 -0.97583316793E+01  0.15995054538E+02  0.19260757486E+02  0.00000000000E+00 0. -1.
</event>
<event>
 7    1  0.2935819E-010  0.4778728E+02  0.7816164E-02  0.1312668E+00
        -11   -1    0    0    0    0  0.00000000000E+00  0.00000000000E+00  0.45593999997E+02  0.45594000000E+02  0.51100000000E-03 0. -1.
         11   -1    0    0    0    0 -0.00000000000E+00 -0.00000000000E+00 -0.45593999997E+02  0.45594000000E+02  0.51100000000E-03 0.  1.
    9900012    2    1    2    0    0  0.41409848997E+02 -0.12991756787E+02  0.24689693220E+00  0.47787282305E+02  0.20000051341E+02 0.  0.
        -12    1    1    2    0    0 -0.41409848997E+02  0.12991756787E+02 -0.24689693220E+00  0.43400717695E+02  0.00000000000E+00 0.  1.
         11    1    3    3    0    0  0.21036948410E+02 -0.74138948043E+01  0.90326547294E+01  0.24064660527E+02  0.51100000000E-03 0. -1.
        -11    1    3    3    0    0  0.78344256469E+01 -0.41359566830E+01 -0.62694139335E+01  0.10853106202E+02  0.51100000000E-03 0.  1.
         12    1    3    3    0    0  0.12538474940E+02 -0.14419052998E+01 -0.25163438637E+01  0.12869515576E+02  0.00000000000E+00 0. -1.
</event>
<event>
 7    1  0.2935819E-010  0.4778726E+02  0.7816164E-02  0.1312668E+00
        -11   -1    0    0    0    0  0.00000000000E+00  0.00000000000E+00  0.45593999997E+02  0.45594000000E+02  0.51100000000E-03 0.  1.
         11   -1    0    0    0    0 -0.00000000000E+00 -0.00000000000E+00 -0.45593999997E+02  0.45594000000E+02  0.51100000000E-03 0. -1.
    9900012    2    1    2    0    0 -0.32043002829E+01 -0.19472598790E+02 -0.38654554654E+02  0.47787259921E+02  0.19999949283E+02 0.  0.
        -12    1    1    2    0    0  0.32043002829E+01  0.19472598790E+02  0.38654554654E+02  0.43400740079E+02  0.00000000000E+00 0.  1.
         11    1    3    3    0    0 -0.66275401546E+01 -0.85794371541E+01 -0.29811442709E+02  0.31721493456E+02  0.51100000000E-03 0. -1.
        -11    1    3    3    0    0  0.46536320041E+01 -0.67022501702E+01 -0.28352968661E+01  0.86380181033E+01  0.51100000000E-03 0.  1.
        -12    1    3    3    0    0 -0.12303921325E+01 -0.41909114660E+01 -0.60078150781E+01  0.74277483620E+01  0.00000000000E+00 0.  1.
</event>
<event>
 7    1  0.2935819E-010  0.4778729E+02  0.7816164E-02  0.1312668E+00
        -11   -1    0    0    0    0  0.00000000000E+00  0.00000000000E+00  0.45593999997E+02  0.45594000000E+02  0.51100000000E-03 0.  1.
         11   -1    0    0    0    0 -0.00000000000E+00 -0.00000000000E+00 -0.45593999997E+02  0.45594000000E+02  0.51100000000E-03 0. -1.
    9900012    2    1    2    0    0  0.24986348369E+02 -0.16720745546E+02 -0.31300483772E+02  0.47787294697E+02  0.20000107843E+02 0.  0.
        -12    1    1    2    0    0 -0.24986348369E+02  0.16720745546E+02  0.31300483772E+02  0.43400705303E+02  0.00000000000E+00 0.  1.
         11    1    3    3    0    0  0.50776322614E+01  0.20399037941E+01 -0.21267982363E+01  0.58708455839E+01  0.51100000000E-03 0. -1.
        -11    1    3    3    0    0  0.12876918233E+02 -0.19101271964E+02 -0.23005113854E+02  0.32556241759E+02  0.51100000000E-03 0.  1.
        -12    1    3    3    0    0  0.70317978746E+01  0.34062262345E+00 -0.61685716818E+01  0.93602073543E+01  0.00000000000E+00 0.  1.
</event>
<event>
 7    1  0.2935819E-010  0.4778727E+02  0.7816164E-02  0.1312668E+00
        -11   -1    0    0    0    0  0.00000000000E+00  0.00000000000E+00  0.45593999997E+02  0.45594000000E+02  0.51100000000E-03 0. -1.
         11   -1    0    0    0    0 -0.00000000000E+00 -0.00000000000E+00 -0.45593999997E+02  0.45594000000E+02  0.51100000000E-03 0.  1.
    9900012    2    1    2    0    0 -0.41782806786E+01  0.41598903514E+02  0.11648873769E+02  0.47787273473E+02  0.20000011073E+02 0.  0.
        -12    1    1    2    0    0  0.41782806786E+01 -0.41598903514E+02 -0.11648873769E+02  0.43400726527E+02  0.00000000000E+00 0.  1.
         11    1    3    3    0    0 -0.43994983336E+01  0.22059615327E+02  0.64372275792E-01  0.22494140526E+02  0.51100000000E-03 0. -1.
        -11    1    3    3    0    0  0.36019419822E+01  0.18040258693E+02  0.11287299373E+02  0.21583049996E+02  0.51100000000E-03 0.  1.
        -12    1    3    3    0    0 -0.33807243272E+01  0.14990294943E+01  0.29720212062E+00  0.37100829508E+01  0.00000000000E+00 0.  1.
</event>
<event>
 7    1  0.2935819E-010  0.4778727E+02  0.7816164E-02  0.1312668E+00
        -11   -1    0    0    0    0  0.00000000000E+00  0.00000000000E+00  0.45593999997E+02  0.45594000000E+02  0.51100000000E-03 0.  1.
         11   -1    0    0    0    0 -0.00000000000E+00 -0.00000000000E+00 -0.45593999997E+02  0.45594000000E+02  0.51100000000E-03 0. -1.
    9900012    2    1    2    0    0 -0.13183174247E+02  0.34387896752E+02 -0.22963011039E+02  0.47787269565E+02  0.19999993255E+02 0.  0.
        -12    1    1    2    0    0  0.13183174247E+02 -0.34387896752E+02  0.22963011039E+02  0.43400730435E+02  0.00000000000E+00 0.  1.
         11    1    3    3    0    0 -0.70597172248E+01  0.13325690099E+02 -0.13579436075E+02  0.20293218283E+02  0.51100000000E-03 0. -1.
        -11    1    3    3    0    0 -0.92999871573E+01  0.88121347221E+01 -0.70566550624E+01  0.14626683165E+02  0.51100000000E-03 0.  1.
        -12    1    3    3    0    0  0.31765301348E+01  0.12250071931E+02 -0.23269199020E+01  0.12867368117E+02  0.00000000000E+00 0.  1.
</event>
<event>
 7    1  0.2935819E-010  0.4778727E+02  0.7816164E-02  0.1312668E+00
        -11   -1    0    0    0    0  0.00000000000E+00  0.00000000000E+00  0.45593999997E+02  0.45594000000E+02  0.51100000000E-03 0.  1.
         11   -1    0    0    0    0 -0.00000000000E+00 -0.00000000000E+00 -0.45593999997E+02  0.45594000000E+02  0.51100000000E-03 0. -1.
    9900012    2    1    2    0    0  0.14508614548E+02 -0.23202258682E+02 -0.33686471282E+02  0.47787273606E+02  0.20000011681E+02 0.  0.
        -12    1    1    2    0    0 -0.14508614548E+02  0.23202258682E+02  0.33686471282E+02  0.43400726394E+02  0.00000000000E+00 0.  1.
         11    1    3    3    0    0  0.98810033435E+01 -0.16185535224E+02 -0.26426941782E+02  0.32526743301E+02  0.51100000000E-03 0. -1.
        -11    1    3    3    0    0  0.27791151508E+01  0.24917943513E+01 -0.21886204634E+01  0.43269596606E+01  0.51100000000E-03 0.  1.
        -12    1    3    3    0    0  0.18484960533E+01 -0.95085178093E+01 -0.50709090373E+01  0.10933570645E+02  0.00000000000E+00 0.  1.
</event>
<event>
 7    1  0.2935819E-010  0.4778727E+02  0.7816164E-02  0.1312668E+00
        -11   -1    0    0    0    0  0.00000000000E+00  0.00000000000E+00  0.45593999997E+02  0.45594000000E+02  0.51100000000E-03 0.  1.
         11   -1    0    0    0    0 -0.00000000000E+00 -0.00000000000E+00 -0.45593999997E+02  0.45594000000E+02  0.51100000000E-03 0. -1.
    9900012    2    1    2    0    0 -0.19953777710E+02  0.15074993752E+02 -0.35471324712E+02  0.47787267767E+02  0.19999985056E+02 0.  0.
        -12    1    1    2    0    0  0.19953777710E+02 -0.15074993752E+02  0.35471324712E+02  0.43400732233E+02  0.00000000000E+00 0.  1.
         11    1    3    3    0    0 -0.12141925578E+02  0.85266002596E+01 -0.29368959493E+02  0.32903875922E+02  0.51100000000E-03 0. -1.
        -11    1    3    3    0    0 -0.43017542076E+01  0.92668120413E+00 -0.69251429687E+01  0.82049639070E+01  0.51100000000E-03 0.  1.
         12    1    3    3    0    0 -0.35100979246E+01  0.56217122882E+01  0.82277774953E+00  0.66784279375E+01  0.00000000000E+00 0. -1.
</event>
<event>
 7    1  0.2935819E-010  0.4778726E+02  0.7816164E-02  0.1312668E+00
        -11   -1    0    0    0    0  0.00000000000E+00  0.00000000000E+00  0.45593999997E+02  0.45594000000E+02  0.51100000000E-03 0.  1.
         11   -1    0    0    0    0 -0.00000000000E+00 -0.00000000000E+00 -0.45593999997E+02  0.45594000000E+02  0.51100000000E-03 0. -1.
    9900012    2    1    2    0    0  0.83607945046E+01  0.78901044107E+01 -0.41850537321E+02  0.47787261453E+02  0.19999956268E+02 0.  0.
        -12    1    1    2    0    0 -0.83607945046E+01 -0.78901044107E+01  0.41850537321E+02  0.43400738547E+02  0.00000000000E+00 0.  1.
         11    1    3    3    0    0  0.78604817086E+00 -0.46511828663E+01 -0.22189586524E+02  0.22685438593E+02  0.51100000000E-03 0. -1.
        -11    1    3    3    0    0  0.75355877965E+01  0.11973343188E+02 -0.19954937403E+02  0.24461102950E+02  0.51100000000E-03 0.  1.
        -12    1    3    3    0    0  0.39158537198E-01  0.56794408931E+00  0.29398660482E+00  0.64071991028E+00  0.00000000000E+00 0.  1.
</event>
<event>
 7    1  0.2935819E-010  0.4778728E+02  0.7816164E-02  0.1312668E+00
        -11   -1    0    0    0    0  0.00000000000E+00  0.00000000000E+00  0.45593999997E+02  0.45594000000E+02  0.51100000000E-03 0.  1.
         11   -1    0    0    0    0 -0.00000000000E+00 -0.00000000000E+00 -0.45593999997E+02  0.45594000000E+02  0.51100000000E-03 0. -1.
    9900012    2    1    2    0    0  0.32704083740E+01 -0.21402208771E+02 -0.37614792838E+02  0.47787277063E+02  0.20000027442E+02 0.  0.
        -12    1    1    2    0    0 -0.32704083740E+01  0.21402208771E+02  0.37614792838E+02  0.43400722937E+02  0.00000000000E+00 0.  1.
         11    1    3    3    0    0  0.12844291089E+01 -0.17190384974E+02 -0.11071673401E+02  0.20487582724E+02  0.51100000000E-03 0. -1.
        -11    1    3    3    0    0  0.13332198831E+01 -0.26885412629E+01 -0.24432893658E+02  0.24616498982E+02  0.51100000000E-03 0.  1.
        -12    1    3    3    0    0  0.65275938206E+00 -0.15232825335E+01 -0.21102257793E+01  0.26831953577E+01  0.00000000000E+00 0.  1.
</event>
<event>
 7    1  0.2935819E-010  0.4778727E+02  0.7816164E-02  0.1312668E+00
        -11   -1    0    0    0    0  0.00000000000E+00  0.00000000000E+00  0.45593999997E+02  0.45594000000E+02  0.51100000000E-03 0.  1.
         11   -1    0    0    0    0 -0.00000000000E+00 -0.00000000000E+00 -0.45593999997E+02  0.45594000000E+02  0.51100000000E-03 0. -1.
    9900012    2    1    2    0    0 -0.13669646066E+02 -0.34910286310E+02 -0.21864029511E+02  0.47787273044E+02  0.20000009117E+02 0.  0.
        -12    1    1    2    0    0  0.13669646066E+02  0.34910286310E+02  0.21864029511E+02  0.43400726956E+02  0.00000000000E+00 0.  1.
         11    1    3    3    0    0 -0.17606046537E+02 -0.22017413101E+02 -0.14547404324E+02  0.31723277371E+02  0.51100000000E-03 0. -1.
        -11    1    3    3    0    0  0.45452189514E+01 -0.76623019640E+01 -0.35526582912E+01  0.95912078435E+01  0.51100000000E-03 0.  1.
         12    1    3    3    0    0 -0.60881848018E+00 -0.52305712453E+01 -0.37639668959E+01  0.64727878296E+01  0.00000000000E+00 0. -1.
</event>
<event>
 7    1  0.2935819E-010  0.4778727E+02  0.7816164E-02  0.1312668E+00
        -11   -1    0    0    0    0  0.00000000000E+00  0.00000000000E+00  0.45593999997E+02  0.45594000000E+02  0.51100000000E-03 0.  1.
         11   -1    0    0    0    0 -0.00000000000E+00 -0.00000000000E+00 -0.45593999997E+02  0.45594000000E+02  0.51100000000E-03 0. -1.
    9900012    2    1    2    0    0 -0.33317175643E+02 -0.52832864494E+01 -0.27307069789E+02  0.47787269948E+02  0.19999995001E+02 0.  0.
        -12    1    1    2    0    0  0.33317175643E+02  0.52832864494E+01  0.27307069789E+02  0.43400730052E+02  0.00000000000E+00 0.  1.
         11    1    3    3    0    0 -0.16492040740E+02  0.47240580836E+01 -0.86502998680E+01  0.19212803560E+02  0.51100000000E-03 0. -1.
        -11    1    3    3    0    0  0.58142622881E+00  0.91563253059E+00 -0.11176097539E+01  0.15573988615E+01  0.51100000000E-03 0.  1.
         12    1    3    3    0    0 -0.17406561132E+02 -0.10922977064E+02 -0.17539160168E+02  0.27017067527E+02  0.00000000000E+00 0. -1.
</event>
<event>
 7    1  0.2935819E-010  0.4778727E+02  0.7816164E-02  0.1312668E+00
        -11   -1    0    0    0    0  0.00000000000E+00  0.00000000000E+00  0.45593999997E+02  0.45594000000E+02  0.51100000000E-03 0. -1.
         11   -1    0    0    0    0 -0.00000000000E+00 -0.00000000000E+00 -0.45593999997E+02  0.45594000000E+02  0.51100000000E-03 0.  1.
    9900012    2    1    2    0    0  0.14058036698E+02 -0.16667405550E+02  0.37525888562E+02  0.47787272864E+02  0.20000008296E+02 0.  0.
        -12    1    1    2    0    0 -0.14058036698E+02  0.16667405550E+02 -0.37525888562E+02  0.43400727136E+02  0.00000000000E+00 0.  1.
         11    1    3    3    0    0  0.13126421801E+02 -0.97842390480E+01  0.11274250345E+02  0.19878204249E+02  0.51100000000E-03 0. -1.
        -11    1    3    3    0    0 -0.26344969284E+01 -0.34051265304E+01  0.94492163216E+01  0.10383792665E+02  0.51100000000E-03 0.  1.
        -12    1    3    3    0    0  0.35661118255E+01 -0.34780399714E+01  0.16802421895E+02  0.17525275950E+02  0.00000000000E+00 0.  1.
</event>
<event>
 7    1  0.2935819E-010  0.4778727E+02  0.7816164E-02  0.1312668E+00
        -11   -1    0    0    0    0  0.00000000000E+00  0.00000000000E+00  0.45593999997E+02  0.45594000000E+02  0.51100000000E-03 0.  1.
         11   -1    0    0    0    0 -0.00000000000E+00 -0.00000000000E+00 -0.45593999997E+02  0.45594000000E+02  0.51100000000E-03 0. -1.
    9900012    2    1    2    0    0 -0.22913868742E+02 -0.18106294238E+02 -0.32105139415E+02  0.47787271335E+02  0.20000001327E+02 0.  0.
        -12    1    1    2    0    0  0.22913868742E+02  0.18106294238E+02  0.32105139415E+02  0.43400728665E+02  0.00000000000E+00 0.  1.
         11    1    3    3    0    0 -0.10177105979E+02 -0.31769312385E+01 -0.19306191100E+02  0.22054373563E+02  0.51100000000E-03 0. -1.
        -11    1    3    3    0    0 -0.47606530547E+01 -0.13006008126E+02 -0.99267328883E+01  0.17039955721E+02  0.51100000000E-03 0.  1.
         12    1    3    3    0    0 -0.79761097085E+01 -0.19233548730E+01 -0.28722154270E+01  0.86929420514E+01  0.00000000000E+00 0. -1.
</event>
<event>
 7    1  0.2935819E-010  0.4778726E+02  0.7816164E-02  0.1312668E+00
        -11   -1    0    0    0    0  0.00000000000E+00  0.00000000000E+00  0.45593999997E+02  0.45594000000E+02  0.51100000000E-03 0.  1.
         11   -1    0    0    0    0 -0.00000000000E+00 -0.00000000000E+00 -0.45593999997E+02  0.45594000000E+02  0.51100000000E-03 0. -1.
    9900012    2    1    2    0    0 -0.25449984863E+02  0.29980847206E+02 -0.18359499477E+02  0.47787260953E+02  0.19999953991E+02 0.  0.
        -12    1    1    2    0    0  0.25449984863E+02 -0.29980847206E+02  0.18359499477E+02  0.43400739047E+02  0.00000000000E+00 0.  1.
         11    1    3    3    0    0  0.14682440931E+01  0.27561648279E+00 -0.13687744553E+01  0.20261413902E+01  0.51100000000E-03 0. -1.
        -11    1    3    3    0    0 -0.20895248071E+02  0.27807086868E+02 -0.18312987929E+02  0.39309171947E+02  0.51100000000E-03 0.  1.
        -12    1    3    3    0    0 -0.60229808857E+01  0.18981438548E+01  0.13222629070E+01  0.64519476159E+01  0.00000000000E+00 0.  1.
</event>
<event>
 7    1  0.2935819E-010  0.4778727E+02  0.7816164E-02  0.1312668E+00
        -11   -1    0    0    0    0  0.00000000000E+00  0.00000000000E+00  0.45593999997E+02  0.45594000000E+02  0.51100000000E-03 0.  1.
         11   -1    0    0    0    0 -0.00000000000E+00 -0.00000000000E+00 -0.45593999997E+02  0.45594000000E+02  0.51100000000E-03 0. -1.
    9900012    2    1    2    0    0 -0.64187769454E+00  0.30960515831E+02 -0.30408185821E+02  0.47787270601E+02  0.19999997976E+02 0.  0.
        -12    1    1    2    0    0  0.64187769454E+00 -0.30960515831E+02  0.30408185821E+02  0.43400729399E+02  0.00000000000E+00 0.  1.
         11    1    3    3    0    0 -0.38080316963E+01  0.30781918790E+02 -0.21693903898E+02  0.37850404177E+02  0.51100000000E-03 0. -1.
        -11    1    3    3    0    0  0.19432541124E+01 -0.84917472006E+00 -0.16300696424E+01  0.26747825240E+01  0.51100000000E-03 0.  1.
         12    1    3    3    0    0  0.12228998894E+01  0.10277717614E+01 -0.70842122799E+01  0.72620838993E+01  0.00000000000E+00 0. -1.
</event>
<event>
 7    1  0.2935819E-010  0.4778727E+02  0.7816164E-02  0.1312668E+00
        -11   -1    0    0    0    0  0.00000000000E+00  0.00000000000E+00  0.45593999997E+02  0.45594000000E+02  0.51100000000E-03 0.  1.
         11   -1    0    0    0    0 -0.00000000000E+00 -0.00000000000E+00 -0.45593999997E+02  0.45594000000E+02  0.51100000000E-03 0. -1.
    9900012    2    1    2    0    0  0.34688939861E+02  0.26010544120E+02  0.19370434581E+01  0.47787273146E+02  0.20000009583E+02 0.  0.
        -12    1    1    2    0    0 -0.34688939861E+02 -0.26010544120E+02 -0.19370434581E+01  0.43400726854E+02  0.00000000000E+00 0.  1.
         11    1    3    3    0    0  0.18598872062E+02  0.18528910742E+02 -0.47339420970E+01  0.26676746115E+02  0.51100000000E-03 0. -1.
        -11    1    3    3    0    0  0.10429993438E+02  0.84984287388E+01  0.17992981738E+01  0.13573707244E+02  0.51100000000E-03 0.  1.
         12    1    3    3    0    0  0.56600743600E+01 -0.10167953606E+01  0.48716873813E+01  0.75368197873E+01  0.00000000000E+00 0. -1.
</event>
<event>
 7    1  0.2935819E-010  0.4778725E+02  0.7816164E-02  0.1312668E+00
        -11   -1    0    0    0    0  0.00000000000E+00  0.00000000000E+00  0.45593999997E+02  0.45594000000E+02  0.51100000000E-03 0. -1.
         11   -1    0    0    0    0 -0.00000000000E+00 -0.00000000000E+00 -0.45593999997E+02  0.45594000000E+02  0.51100000000E-03 0.  1.
    9900012    2    1    2    0    0 -0.58174461657E+01  0.28014192990E+02  0.32634149556E+02  0.47787246480E+02  0.19999888002E+02 0.  0.
        -12    1    1    2    0    0  0.58174461657E+01 -0.28014192990E+02 -0.32634149556E+02  0.43400753520E+02  0.00000000000E+00 0.  1.
         11    1    3    3    0    0 -0.51118295250E+01  0.20588846205E+01 -0.87150831422E-01  0.55115698763E+01  0.51100000000E-03 0.  1.
        -11    1    3    3    0    0  0.18572302238E+01  0.20543106214E+02  0.23365626784E+02  0.31167627954E+02  0.51100000000E-03 0. -1.
        -12    1    3    3    0    0 -0.25628468645E+01  0.54122021563E+01  0.93556736036E+01  0.11108048650E+02  0.00000000000E+00 0.  1.
</event>
<event>
 7    1  0.2935819E-010  0.4778727E+02  0.7816164E-02  0.1312668E+00
        -11   -1    0    0    0    0  0.00000000000E+00  0.00000000000E+00  0.45593999997E+02  0.45594000000E+02  0.51100000000E-03 0. -1.
         11   -1    0    0    0    0 -0.00000000000E+00 -0.00000000000E+00 -0.45593999997E+02  0.45594000000E+02  0.51100000000E-03 0.  1.
    9900012    2    1    2    0    0  0.27737743164E+02 -0.22160918189E+02 -0.24962665599E+02  0.47787269999E+02  0.19999995232E+02 0.  0.
        -12    1    1    2    0    0 -0.27737743164E+02  0.22160918189E+02  0.24962665599E+02  0.43400730001E+02  0.00000000000E+00 0.  1.
         11    1    3    3    0    0  0.16647076979E+02 -0.14622564790E+02 -0.66271486392E+01  0.23127119845E+02  0.51100000000E-03 0. -1.
        -11    1    3    3    0    0  0.19906275080E+01 -0.58232149976E+00  0.90929145329E+00  0.22646208100E+01  0.51100000000E-03 0.  1.
         12    1    3    3    0    0  0.91000386773E+01 -0.69560318991E+01 -0.19244808414E+02  0.22395529344E+02  0.00000000000E+00 0. -1.
</event>
<event>
 7    1  0.2935819E-010  0.4778727E+02  0.7816164E-02  0.1312668E+00
        -11   -1    0    0    0    0  0.00000000000E+00  0.00000000000E+00  0.45593999997E+02  0.45594000000E+02  0.51100000000E-03 0.  1.
         11   -1    0    0    0    0 -0.00000000000E+00 -0.00000000000E+00 -0.45593999997E+02  0.45594000000E+02  0.51100000000E-03 0. -1.
    9900012    2    1    2    0    0  0.22418296519E+02 -0.21512276843E+02 -0.30302896023E+02  0.47787267504E+02  0.19999983859E+02 0.  0.
        -12    1    1    2    0    0 -0.22418296519E+02  0.21512276843E+02  0.30302896023E+02  0.43400732496E+02  0.00000000000E+00 0.  1.
         11    1    3    3    0    0  0.79944358653E+01 -0.76805564053E+01 -0.12548199007E+02  0.16743931739E+02  0.51100000000E-03 0. -1.
        -11    1    3    3    0    0  0.15625451976E+01 -0.82395062126E+01 -0.14335022494E+02  0.16607946299E+02  0.51100000000E-03 0.  1.
        -12    1    3    3    0    0  0.12861315456E+02 -0.55922142256E+01 -0.34196745225E+01  0.14435389466E+02  0.00000000000E+00 0.  1.
</event>
<event>
 7    1  0.2935819E-010  0.4778728E+02  0.7816164E-02  0.1312668E+00
        -11   -1    0    0    0    0  0.00000000000E+00  0.00000000000E+00  0.45593999997E+02  0.45594000000E+02  0.51100000000E-03 0.  1.
         11   -1    0    0    0    0 -0.00000000000E+00 -0.00000000000E+00 -0.45593999997E+02  0.45594000000E+02  0.51100000000E-03 0. -1.
    9900012    2    1    2    0    0  0.42765520652E+02 -0.60460185640E+01  0.42635937727E+01  0.47787281930E+02  0.20000049633E+02 0.  0.
        -12    1    1    2    0    0 -0.42765520652E+02  0.60460185640E+01 -0.42635937727E+01  0.43400718070E+02  0.00000000000E+00 0.  1.
         11    1    3    3    0    0  0.72968010846E+01 -0.85449730041E+01  0.16266966038E+01  0.11353678338E+02  0.51100000000E-03 0. -1.
        -11    1    3    3    0    0  0.16087358579E+02  0.22494125070E+01  0.47799114735E+01  0.16932528359E+02  0.51100000000E-03 0.  1.
         12    1    3    3    0    0  0.19381360988E+02  0.24954193314E+00 -0.21430143046E+01  0.19501075233E+02  0.00000000000E+00 0. -1.
</event>
<event>
 7    1  0.2935819E-010  0.4778727E+02  0.7816164E-02  0.1312668E+00
        -11   -1    0    0    0    0  0.00000000000E+00  0.00000000000E+00  0.45593999997E+02  0.45594000000E+02  0.51100000000E-03 0. -1.
         11   -1    0    0    0    0 -0.00000000000E+00 -0.00000000000E+00 -0.45593999997E+02  0.45594000000E+02  0.51100000000E-03 0.  1.
    9900012    2    1    2    0    0 -0.38578005539E+02  0.18398901365E+01  0.19798380112E+02  0.47787267723E+02  0.19999984858E+02 0.  0.
        -12    1    1    2    0    0  0.38578005539E+02 -0.18398901365E+01 -0.19798380112E+02  0.43400732277E+02  0.00000000000E+00 0.  1.
         11    1    3    3    0    0 -0.40662175227E+02  0.23599942137E+01  0.18859942132E+02  0.44885181122E+02  0.51100000000E-03 0. -1.
        -11    1    3    3    0    0  0.11120140533E+01 -0.58792539250E+00 -0.33198750882E+00  0.13009410014E+01  0.51100000000E-03 0.  1.
         12    1    3    3    0    0  0.97215563466E+00  0.67821315303E-01  0.12704254889E+01  0.16011455998E+01  0.00000000000E+00 0. -1.
</event>
<event>
 7    1  0.2935819E-010  0.4778726E+02  0.7816164E-02  0.1312668E+00
        -11   -1    0    0    0    0  0.00000000000E+00  0.00000000000E+00  0.45593999997E+02  0.45594000000E+02  0.51100000000E-03 0.  1.
         11   -1    0    0    0    0 -0.00000000000E+00 -0.00000000000E+00 -0.45593999997E+02  0.45594000000E+02  0.51100000000E-03 0. -1.
    9900012    2    1    2    0    0 -0.97233374819E+01  0.42083852851E+02  0.42461560299E+01  0.47787264941E+02  0.19999972173E+02 0.  0.
        -12    1    1    2    0    0  0.97233374819E+01 -0.42083852851E+02 -0.42461560299E+01  0.43400735059E+02  0.00000000000E+00 0.  1.
         11    1    3    3    0    0 -0.15569713655E+01  0.40402024558E+01 -0.81508047250E+00  0.44058770017E+01  0.51100000000E-03 0. -1.
        -11    1    3    3    0    0 -0.10618050703E+02  0.36644635239E+02  0.66599769251E+00  0.38157775692E+02  0.51100000000E-03 0.  1.
        -12    1    3    3    0    0  0.24516845867E+01  0.13990151564E+01  0.43952388099E+01  0.52236122479E+01  0.00000000000E+00 0.  1.
</event>
<event>
 7    1  0.2935819E-010  0.4778729E+02  0.7816164E-02  0.1312668E+00
        -11   -1    0    0    0    0  0.00000000000E+00  0.00000000000E+00  0.45593999997E+02  0.45594000000E+02  0.51100000000E-03 0.  1.
         11   -1    0    0    0    0 -0.00000000000E+00 -0.00000000000E+00 -0.45593999997E+02  0.45594000000E+02  0.51100000000E-03 0. -1.
    9900012    2    1    2    0    0  0.41834301577E+02  0.93260003319E+01 -0.68219238363E+01  0.47787288998E+02  0.20000081859E+02 0.  0.
        -12    1    1    2    0    0 -0.41834301577E+02 -0.93260003319E+01  0.68219238363E+01  0.43400711002E+02  0.00000000000E+00 0.  1.
         11    1    3    3    0    0  0.20908394773E+02 -0.35424664505E+01 -0.45558758127E+01  0.21690229257E+02  0.51100000000E-03 0. -1.
        -11    1    3    3    0    0  0.15415647308E+01  0.53465616769E+00  0.21519640065E+01  0.27005977826E+01  0.51100000000E-03 0.  1.
         12    1    3    3    0    0  0.19384342073E+02  0.12333810615E+02 -0.44180120302E+01  0.23396461958E+02  0.00000000000E+00 0. -1.
</event>
<event>
 7    1  0.3025406E-010  0.4778727E+02  0.7816164E-02  0.1312668E+00
        -11   -1    0    0    0    0  0.00000000000E+00  0.00000000000E+00  0.45593999997E+02  0.45594000000E+02  0.51100000000E-03 0. -1.
         11   -1    0    0    0    0 -0.00000000000E+00 -0.00000000000E+00 -0.45593999997E+02  0.45594000000E+02  0.51100000000E-03 0.  1.
    9900012    2    1    2    0    0 -0.59280641468E+01 -0.64249354906E+01  0.42511193670E+02  0.47787270423E+02  0.19999997167E+02 0.  0.
        -12    1    1    2    0    0  0.59280641468E+01  0.64249354906E+01 -0.42511193670E+02  0.43400729577E+02  0.00000000000E+00 0.  1.
         11    1    3    3    0    0  0.43726709140E+01 -0.64805252088E+01  0.19445471919E+02  0.20958144868E+02  0.51100000000E-03 0. -1.
        -11    1    3    3    0    0 -0.31886320302E+01 -0.50486298824E-01  0.57501218498E+00  0.32404571227E+01  0.51100000000E-03 0.  1.
         12    1    3    3    0    0 -0.71121030306E+01  0.10607601704E+00  0.22490709566E+02  0.23588668433E+02  0.00000000000E+00 0. -1.
</event>
<event>
 7    1  0.2935819E-010  0.4778727E+02  0.7816164E-02  0.1312668E+00
        -11   -1    0    0    0    0  0.00000000000E+00  0.00000000000E+00  0.45593999997E+02  0.45594000000E+02  0.51100000000E-03 0.  1.
         11   -1    0    0    0    0 -0.00000000000E+00 -0.00000000000E+00 -0.45593999997E+02  0.45594000000E+02  0.51100000000E-03 0. -1.
    9900012    2    1    2    0    0  0.33659557899E+01 -0.43071185078E+02  0.41433068875E+01  0.47787266891E+02  0.19999981065E+02 0.  0.
        -12    1    1    2    0    0 -0.33659557899E+01  0.43071185078E+02 -0.41433068875E+01  0.43400733109E+02  0.00000000000E+00 0.  1.
         11    1    3    3    0    0  0.12110110260E+00 -0.31929775471E+02 -0.16862033296E+01  0.31974497792E+02  0.51100000000E-03 0. -1.
        -11    1    3    3    0    0  0.55564939663E+01 -0.78616185056E+01  0.66715754176E+01  0.11712795974E+02  0.51100000000E-03 0.  1.
        -12    1    3    3    0    0 -0.23116392791E+01 -0.32797911012E+01 -0.84206520048E+00  0.40999731250E+01  0.00000000000E+00 0.  1.
</event>
<event>
 7    1  0.2935819E-010  0.4778727E+02  0.7816164E-02  0.1312668E+00
        -11   -1    0    0    0    0  0.00000000000E+00  0.00000000000E+00  0.45593999997E+02  0.45594000000E+02  0.51100000000E-03 0.  1.
         11   -1    0    0    0    0 -0.00000000000E+00 -0.00000000000E+00 -0.45593999997E+02  0.45594000000E+02  0.51100000000E-03 0. -1.
    9900012    2    1    2    0    0 -0.11770181554E+02  0.38498930246E+02 -0.16214761056E+02  0.47787270974E+02  0.19999999681E+02 0.  0.
        -12    1    1    2    0    0  0.11770181554E+02 -0.38498930246E+02  0.16214761056E+02  0.43400729026E+02  0.00000000000E+00 0.  1.
         11    1    3    3    0    0 -0.78257974408E+01  0.14408258713E+02  0.29435856800E+01  0.16658502983E+02  0.51100000000E-03 0. -1.
        -11    1    3    3    0    0 -0.20416812437E+01  0.85052230399E+01 -0.81282025853E+01  0.11940475652E+02  0.51100000000E-03 0.  1.
         12    1    3    3    0    0 -0.19027028695E+01  0.15585448493E+02 -0.11030144150E+02  0.19188292339E+02  0.00000000000E+00 0. -1.
</event>
<event>
 7    1  0.2935819E-010  0.4778727E+02  0.7816164E-02  0.1312668E+00
        -11   -1    0    0    0    0  0.00000000000E+00  0.00000000000E+00  0.45593999997E+02  0.45594000000E+02  0.51100000000E-03 0. -1.
         11   -1    0    0    0    0 -0.00000000000E+00 -0.00000000000E+00 -0.45593999997E+02  0.45594000000E+02  0.51100000000E-03 0.  1.
    9900012    2    1    2    0    0  0.35846103714E+02 -0.22846001181E+02  0.87601770088E+01  0.47787267026E+02  0.19999981678E+02 0.  0.
        -12    1    1    2    0    0 -0.35846103714E+02  0.22846001181E+02 -0.87601770088E+01  0.43400732974E+02  0.00000000000E+00 0.  1.
         11    1    3    3    0    0  0.18013866032E+02 -0.88383882928E+01  0.67207919246E+01  0.21160943301E+02  0.51100000000E-03 0. -1.
        -11    1    3    3    0    0  0.51485144861E+01  0.17415587094E+01  0.33120032848E+01  0.63647147754E+01  0.51100000000E-03 0.  1.
        -12    1    3    3    0    0  0.12683723196E+02 -0.15749171598E+02 -0.12726182006E+01  0.20261608949E+02  0.00000000000E+00 0.  1.
</event>
<event>
 7    1  0.2935819E-010  0.4778726E+02  0.7816164E-02  0.1312668E+00
        -11   -1    0    0    0    0  0.00000000000E+00  0.00000000000E+00  0.45593999997E+02  0.45594000000E+02  0.51100000000E-03 0.  1.
         11   -1    0    0    0    0 -0.00000000000E+00 -0.00000000000E+00 -0.45593999997E+02  0.45594000000E+02  0.51100000000E-03 0. -1.
    9900012    2    1    2    0    0  0.33361180587E+02 -0.13642614269E+02 -0.24177154450E+02  0.47787261624E+02  0.19999957050E+02 0.  0.
        -12    1    1    2    0    0 -0.33361180587E+02  0.13642614269E+02  0.24177154450E+02  0.43400738376E+02  0.00000000000E+00 0.  1.
         11    1    3    3    0    0  0.27350440917E+02 -0.29262765822E+01 -0.21807010606E+02  0.35102071518E+02  0.51100000000E-03 0. -1.
        -11    1    3    3    0    0  0.34011805404E+01 -0.64169034351E+01 -0.36785140821E+00  0.72718631508E+01  0.51100000000E-03 0.  1.
         12    1    3    3    0    0  0.26095591297E+01 -0.42994342516E+01 -0.20022924355E+01  0.54133269560E+01  0.00000000000E+00 0. -1.
</event>
<event>
 7    1  0.2935819E-010  0.4778727E+02  0.7816164E-02  0.1312668E+00
        -11   -1    0    0    0    0  0.00000000000E+00  0.00000000000E+00  0.45593999997E+02  0.45594000000E+02  0.51100000000E-03 0. -1.
         11   -1    0    0    0    0 -0.00000000000E+00 -0.00000000000E+00 -0.45593999997E+02  0.45594000000E+02  0.51100000000E-03 0.  1.
    9900012    2    1    2    0    0  0.99407275264E+01 -0.23201158388E+02  0.35305968303E+02  0.47787271756E+02  0.20000003245E+02 0.  0.
        -12    1    1    2    0    0 -0.99407275264E+01  0.23201158388E+02 -0.35305968303E+02  0.43400728244E+02  0.00000000000E+00 0.  1.
         11    1    3    3    0    0  0.17094516382E+01 -0.14516745610E+02  0.89866356173E+01  0.17158605654E+02  0.51100000000E-03 0. -1.
        -11    1    3    3    0    0 -0.72233167524E+00 -0.41689315098E+01  0.14619713233E+02  0.15219650728E+02  0.51100000000E-03 0.  1.
         12    1    3    3    0    0  0.89536075634E+01 -0.45154812677E+01  0.11699619453E+02  0.15409015375E+02  0.00000000000E+00 0. -1.
</event>
<event>
 7    1  0.2935819E-010  0.4778727E+02  0.7816164E-02  0.1312668E+00
        -11   -1    0    0    0    0  0.00000000000E+00  0.00000000000E+00  0.45593999997E+02  0.45594000000E+02  0.51100000000E-03 0.  1.
         11   -1    0    0    0    0 -0.00000000000E+00 -0.00000000000E+00 -0.45593999997E+02  0.45594000000E+02  0.51100000000E-03 0. -1.
    9900012    2    1    2    0    0  0.52620433733E+00 -0.63974922009E+01 -0.42923405447E+02  0.47787268064E+02  0.19999986409E+02 0.  0.
        -12    1    1    2    0    0 -0.52620433733E+00  0.63974922009E+01  0.42923405447E+02  0.43400731936E+02  0.00000000000E+00 0.  1.
         11    1    3    3    0    0 -0.41733240956E+01 -0.54229302720E+01 -0.12434783864E+02  0.14193260962E+02  0.51100000000E-03 0. -1.
        -11    1    3    3    0    0  0.24947934741E+01 -0.69418470184E+01 -0.12507216324E+02  0.14520457807E+02  0.51100000000E-03 0.  1.
         12    1    3    3    0    0  0.22047349588E+01  0.59672850895E+01 -0.17981405259E+02  0.19073549294E+02  0.00000000000E+00 0. -1.
</event>
<event>
 7    1  0.2935819E-010  0.4778727E+02  0.7816164E-02  0.1312668E+00
        -11   -1    0    0    0    0  0.00000000000E+00  0.00000000000E+00  0.45593999997E+02  0.45594000000E+02  0.51100000000E-03 0. -1.
         11   -1    0    0    0    0 -0.00000000000E+00 -0.00000000000E+00 -0.45593999997E+02  0.45594000000E+02  0.51100000000E-03 0.  1.
    9900012    2    1    2    0    0 -0.20356930685E+02  0.29877443587E+02  0.24011601666E+02  0.47787271011E+02  0.19999999848E+02 0.  0.
        -12    1    1    2    0    0  0.20356930685E+02 -0.29877443587E+02 -0.24011601666E+02  0.43400728989E+02  0.00000000000E+00 0.  1.
         11    1    3    3    0    0 -0.12845131348E+02  0.52063090242E+01  0.50415042977E+01  0.14748553110E+02  0.51100000000E-03 0. -1.
        -11    1    3    3    0    0  0.19727208023E+00  0.11221257253E+02  0.54843173881E+01  0.12491327715E+02  0.51100000000E-03 0.  1.
         12    1    3    3    0    0 -0.77090714175E+01  0.13449877310E+02  0.13485779980E+02  0.20547390185E+02  0.00000000000E+00 0. -1.
</event>
<event>
 7    1  0.2935819E-010  0.4778727E+02  0.7816164E-02  0.1312668E+00
        -11   -1    0    0    0    0  0.00000000000E+00  0.00000000000E+00  0.45593999997E+02  0.45594000000E+02  0.51100000000E-03 0.  1.
         11   -1    0    0    0    0 -0.00000000000E+00 -0.00000000000E+00 -0.45593999997E+02  0.45594000000E+02  0.51100000000E-03 0. -1.
    9900012    2    1    2    0    0  0.42166546176E+02 -0.97054291013E+01 -0.33779173058E+01  0.47787270792E+02  0.19999998848E+02 0.  0.
        -12    1    1    2    0    0 -0.42166546176E+02  0.97054291013E+01  0.33779173058E+01  0.43400729208E+02  0.00000000000E+00 0.  1.
         11    1    3    3    0    0  0.36913412876E+02 -0.12514437216E+02  0.17188046743E+01  0.39014939174E+02  0.51100000000E-03 0. -1.
        -11    1    3    3    0    0  0.41162797210E+01  0.78815938072E+00 -0.48962334089E+01  0.64450023899E+01  0.51100000000E-03 0.  1.
         12    1    3    3    0    0  0.11368535794E+01  0.20208487340E+01 -0.20048857120E+00  0.23273292277E+01  0.00000000000E+00 0. -1.
</event>
<event>
 7    1  0.2935819E-010  0.4778727E+02  0.7816164E-02  0.1312668E+00
        -11   -1    0    0    0    0  0.00000000000E+00  0.00000000000E+00  0.45593999997E+02  0.45594000000E+02  0.51100000000E-03 0. -1.
         11   -1    0    0    0    0 -0.00000000000E+00 -0.00000000000E+00 -0.45593999997E+02  0.45594000000E+02  0.51100000000E-03 0.  1.
    9900012    2    1    2    0    0  0.18433980397E+01 -0.24444656774E+02  0.35814574548E+02  0.47787272919E+02  0.20000008545E+02 0.  0.
        -12    1    1    2    0    0 -0.18433980397E+01  0.24444656774E+02 -0.35814574548E+02  0.43400727081E+02  0.00000000000E+00 0.  1.
         11    1    3    3    0    0  0.16125558630E+01 -0.14691668384E+02  0.85006754926E+01  0.17050130217E+02  0.51100000000E-03 0. -1.
        -11    1    3    3    0    0 -0.47109157463E+01 -0.37967611838E+01  0.88890197928E+01  0.10752804090E+02  0.51100000000E-03 0.  1.
         12    1    3    3    0    0  0.49417579231E+01 -0.59562272059E+01  0.18424879263E+02  0.19984338612E+02  0.00000000000E+00 0. -1.
</event>
<event>
 7    1  0.2935819E-010  0.4778727E+02  0.7816164E-02  0.1312668E+00
        -11   -1    0    0    0    0  0.00000000000E+00  0.00000000000E+00  0.45593999997E+02  0.45594000000E+02  0.51100000000E-03 0.  1.
         11   -1    0    0    0    0 -0.00000000000E+00 -0.00000000000E+00 -0.45593999997E+02  0.45594000000E+02  0.51100000000E-03 0. -1.
    9900012    2    1    2    0    0 -0.65183599400E+01  0.98972312613E+01 -0.41751398668E+02  0.47787268512E+02  0.19999988455E+02 0.  0.
        -12    1    1    2    0    0  0.65183599400E+01 -0.98972312613E+01  0.41751398668E+02  0.43400731488E+02  0.00000000000E+00 0.  1.
         11    1    3    3    0    0  0.39348569992E+01  0.79002604826E+01 -0.20704298307E+02  0.22507002998E+02  0.51100000000E-03 0. -1.
        -11    1    3    3    0    0 -0.69596828675E+01  0.24153186511E+00 -0.45320658504E+01  0.83087390373E+01  0.51100000000E-03 0.  1.
        -12    1    3    3    0    0 -0.34935340718E+01  0.17554389136E+01 -0.16515034511E+02  0.16971526478E+02  0.00000000000E+00 0.  1.
</event>
<event>
 7    1  0.2935819E-010  0.4778727E+02  0.7816164E-02  0.1312668E+00
        -11   -1    0    0    0    0  0.00000000000E+00  0.00000000000E+00  0.45593999997E+02  0.45594000000E+02  0.51100000000E-03 0. -1.
         11   -1    0    0    0    0 -0.00000000000E+00 -0.00000000000E+00 -0.45593999997E+02  0.45594000000E+02  0.51100000000E-03 0.  1.
    9900012    2    1    2    0    0  0.12994486054E+01  0.10119758559E+01  0.43369469675E+02  0.47787267728E+02  0.19999984881E+02 0.  0.
        -12    1    1    2    0    0 -0.12994486054E+01 -0.10119758559E+01 -0.43369469675E+02  0.43400732272E+02  0.00000000000E+00 0.  1.
         11    1    3    3    0    0  0.74531371730E+01 -0.54279772927E+01  0.22483041742E+02  0.24300192539E+02  0.51100000000E-03 0. -1.
        -11    1    3    3    0    0 -0.24786779091E+00 -0.92536029782E+00  0.42688867383E+01  0.43750570703E+01  0.51100000000E-03 0.  1.
         12    1    3    3    0    0 -0.59058207767E+01  0.73653134464E+01  0.16617541195E+02  0.19112018119E+02  0.00000000000E+00 0. -1.
</event>
<event>
 7    1  0.2935819E-010  0.4778727E+02  0.7816164E-02  0.1312668E+00
        -11   -1    0    0    0    0  0.00000000000E+00  0.00000000000E+00  0.45593999997E+02  0.45594000000E+02  0.51100000000E-03 0. -1.
         11   -1    0    0    0    0 -0.00000000000E+00 -0.00000000000E+00 -0.45593999997E+02  0.45594000000E+02  0.51100000000E-03 0.  1.
    9900012    2    1    2    0    0  0.32238192492E+02  0.14582104404E+02  0.25133338250E+02  0.47787268260E+02  0.19999987305E+02 0.  0.
        -12    1    1    2    0    0 -0.32238192492E+02 -0.14582104404E+02 -0.25133338250E+02  0.43400731740E+02  0.00000000000E+00 0.  1.
         11    1    3    3    0    0  0.20677866965E+02  0.83518316340E+01  0.16040202858E+02  0.27470263593E+02  0.51100000000E-03 0. -1.
        -11    1    3    3    0    0 -0.32028496567E-01  0.31134403127E+01  0.76091894070E+01  0.82215752808E+01  0.51100000000E-03 0.  1.
        -12    1    3    3    0    0  0.11592354023E+02  0.31168324572E+01  0.14839459854E+01  0.12095429386E+02  0.00000000000E+00 0.  1.
</event>
<event>
 7    1  0.2935819E-010  0.4778727E+02  0.7816164E-02  0.1312668E+00
        -11   -1    0    0    0    0  0.00000000000E+00  0.00000000000E+00  0.45593999997E+02  0.45594000000E+02  0.51100000000E-03 0.  1.
         11   -1    0    0    0    0 -0.00000000000E+00 -0.00000000000E+00 -0.45593999997E+02  0.45594000000E+02  0.51100000000E-03 0. -1.
    9900012    2    1    2    0    0 -0.39172024513E+02 -0.10773905835E+02 -0.15267565372E+02  0.47787273004E+02  0.20000008936E+02 0.  0.
        -12    1    1    2    0    0  0.39172024513E+02  0.10773905835E+02  0.15267565372E+02  0.43400726996E+02  0.00000000000E+00 0.  1.
         11    1    3    3    0    0 -0.45811491981E+01 -0.84944424280E+01 -0.55413717054E+01  0.11128759175E+02  0.51100000000E-03 0. -1.
        -11    1    3    3    0    0 -0.55196950111E+00 -0.62863590294E+00 -0.13123325531E+01  0.15563002344E+01  0.51100000000E-03 0.  1.
         12    1    3    3    0    0 -0.34038905813E+02 -0.16508275037E+01 -0.84138611139E+01  0.35102213595E+02  0.00000000000E+00 0. -1.
</event>
<event>
 7    1  0.2935819E-010  0.4778727E+02  0.7816164E-02  0.1312668E+00
        -11   -1    0    0    0    0  0.00000000000E+00  0.00000000000E+00  0.45593999997E+02  0.45594000000E+02  0.51100000000E-03 0.  1.
         11   -1    0    0    0    0 -0.00000000000E+00 -0.00000000000E+00 -0.45593999997E+02  0.45594000000E+02  0.51100000000E-03 0. -1.
    9900012    2    1    2    0    0 -0.27180365057E+02 -0.30435790691E+02 -0.14782217387E+02  0.47787267858E+02  0.19999985471E+02 0.  0.
        -12    1    1    2    0    0  0.27180365057E+02  0.30435790691E+02  0.14782217387E+02  0.43400732142E+02  0.00000000000E+00 0.  1.
         11    1    3    3    0    0 -0.20348260119E+02 -0.21597128071E+02 -0.15686295171E+02  0.33564080313E+02  0.51100000000E-03 0. -1.
        -11    1    3    3    0    0  0.73333948232E+00 -0.59805293550E+01  0.11409265368E+01  0.61323920118E+01  0.51100000000E-03 0.  1.
         12    1    3    3    0    0 -0.75654444197E+01 -0.28581332646E+01 -0.23684875316E+00  0.80907955331E+01  0.00000000000E+00 0. -1.
</event>
<event>
 7    1  0.2935819E-010  0.4778727E+02  0.7816164E-02  0.1312668E+00
        -11   -1    0    0    0    0  0.00000000000E+00  0.00000000000E+00  0.45593999997E+02  0.45594000000E+02  0.51100000000E-03 0. -1.
         11   -1    0    0    0    0 -0.00000000000E+00 -0.00000000000E+00 -0.45593999997E+02  0.45594000000E+02  0.51100000000E-03 0.  1.
    9900012    2    1    2    0    0  0.27413324505E+02 -0.31990883629E+02  0.10426721832E+02  0.47787268164E+02  0.19999986865E+02 0.  0.
        -12    1    1    2    0    0 -0.27413324505E+02  0.31990883629E+02 -0.10426721832E+02  0.43400731836E+02  0.00000000000E+00 0.  1.
         11    1    3    3    0    0  0.19688716539E+02 -0.28031752309E+02  0.88808445415E+01  0.35387767611E+02  0.51100000000E-03 0. -1.
        -11    1    3    3    0    0  0.36951015405E+01 -0.13548327781E+01 -0.36213972449E+01  0.53482581760E+01  0.51100000000E-03 0.  1.
         12    1    3    3    0    0  0.40295064250E+01 -0.26042985420E+01  0.51672745359E+01  0.70512423766E+01  0.00000000000E+00 0. -1.
</event>
<event>
 7    1  0.2935819E-010  0.4778727E+02  0.7816164E-02  0.1312668E+00
        -11   -1    0    0    0    0  0.00000000000E+00  0.00000000000E+00  0.45593999997E+02  0.45594000000E+02  0.51100000000E-03 0.  1.
         11   -1    0    0    0    0 -0.00000000000E+00 -0.00000000000E+00 -0.45593999997E+02  0.45594000000E+02  0.51100000000E-03 0. -1.
    9900012    2    1    2    0    0  0.19538526379E+01 -0.28353660203E+02 -0.32800540451E+02  0.47787273728E+02  0.20000012237E+02 0.  0.
        -12    1    1    2    0    0 -0.19538526379E+01  0.28353660203E+02  0.32800540451E+02  0.43400726272E+02  0.00000000000E+00 0.  1.
         11    1    3    3    0    0 -0.17677127432E+01 -0.22977350441E+02 -0.21704368920E+02  0.31656959300E+02  0.51100000000E-03 0. -1.
        -11    1    3    3    0    0  0.70203771747E+01 -0.41982877510E+01 -0.72810973102E+01  0.10951059036E+02  0.51100000000E-03 0.  1.
         12    1    3    3    0    0 -0.32988117936E+01 -0.11780220106E+01 -0.38150742207E+01  0.51792553922E+01  0.00000000000E+00 0. -1.
</event>
<event>
 7    1  0.2935819E-010  0.4778727E+02  0.7816164E-02  0.1312668E+00
        -11   -1    0    0    0    0  0.00000000000E+00  0.00000000000E+00  0.45593999997E+02  0.45594000000E+02  0.51100000000E-03 0.  1.
         11   -1    0    0    0    0 -0.00000000000E+00 -0.00000000000E+00 -0.45593999997E+02  0.45594000000E+02  0.51100000000E-03 0. -1.
    9900012    2    1    2    0    0 -0.40557973019E+02 -0.15366385925E+02  0.15962628980E+01  0.47787273658E+02  0.20000011917E+02 0.  0.
        -12    1    1    2    0    0  0.40557973019E+02  0.15366385925E+02 -0.15962628980E+01  0.43400726342E+02  0.00000000000E+00 0.  1.
         11    1    3    3    0    0 -0.34431447076E+02 -0.12869532002E+02  0.37097791306E+01  0.36944713602E+02  0.51100000000E-03 0. -1.
        -11    1    3    3    0    0  0.65020038887E+00 -0.36860273192E+01 -0.98476567184E+00  0.38703128598E+01  0.51100000000E-03 0.  1.
         12    1    3    3    0    0 -0.67767263316E+01  0.11891733959E+01 -0.11287505607E+01  0.69722471964E+01  0.00000000000E+00 0. -1.
</event>
<event>
 7    1  0.2935819E-010  0.4778727E+02  0.7816164E-02  0.1312668E+00
        -11   -1    0    0    0    0  0.00000000000E+00  0.00000000000E+00  0.45593999997E+02  0.45594000000E+02  0.51100000000E-03 0. -1.
         11   -1    0    0    0    0 -0.00000000000E+00 -0.00000000000E+00 -0.45593999997E+02  0.45594000000E+02  0.51100000000E-03 0.  1.
    9900012    2    1    2    0    0  0.24674301671E+02 -0.27480860849E+02  0.22794838709E+02  0.47787267890E+02  0.19999985616E+02 0.  0.
        -12    1    1    2    0    0 -0.24674301671E+02  0.27480860849E+02 -0.22794838709E+02  0.43400732110E+02  0.00000000000E+00 0.  1.
         11    1    3    3    0    0  0.32010452244E+01 -0.12392754333E+02  0.17565469464E+01  0.12919462370E+02  0.51100000000E-03 0. -1.
        -11    1    3    3    0    0  0.14905131306E+02 -0.11533125823E+02  0.19731841602E+02  0.27285921348E+02  0.51100000000E-03 0.  1.
        -12    1    3    3    0    0  0.65681251401E+01 -0.35549806918E+01  0.13064501608E+01  0.75818841720E+01  0.00000000000E+00 0.  1.
</event>
<event>
 7    1  0.2935819E-010  0.4778727E+02  0.7816164E-02  0.1312668E+00
        -11   -1    0    0    0    0  0.00000000000E+00  0.00000000000E+00  0.45593999997E+02  0.45594000000E+02  0.51100000000E-03 0.  1.
         11   -1    0    0    0    0 -0.00000000000E+00 -0.00000000000E+00 -0.45593999997E+02  0.45594000000E+02  0.51100000000E-03 0. -1.
    9900012    2    1    2    0    0 -0.24618709510E+01  0.42623263585E+02 -0.77986952586E+01  0.47787273567E+02  0.20000011500E+02 0.  0.
        -12    1    1    2    0    0  0.24618709510E+01 -0.42623263585E+02  0.77986952586E+01  0.43400726433E+02  0.00000000000E+00 0.  1.
         11    1    3    3    0    0 -0.28764954036E+01  0.22492039578E+02  0.34249383386E+01  0.22932428417E+02  0.51100000000E-03 0. -1.
        -11    1    3    3    0    0 -0.29073097642E+01  0.16134300942E+01 -0.11785564608E+01  0.35276907923E+01  0.51100000000E-03 0.  1.
         12    1    3    3    0    0  0.33219342167E+01  0.18517793912E+02 -0.10045077136E+02  0.21327154358E+02  0.00000000000E+00 0. -1.
</event>
<event>
 7    1  0.2935819E-010  0.4778727E+02  0.7816164E-02  0.1312668E+00
        -11   -1    0    0    0    0  0.00000000000E+00  0.00000000000E+00  0.45593999997E+02  0.45594000000E+02  0.51100000000E-03 0.  1.
         11   -1    0    0    0    0 -0.00000000000E+00 -0.00000000000E+00 -0.45593999997E+02  0.45594000000E+02  0.51100000000E-03 0. -1.
    9900012    2    1    2    0    0 -0.77873887031E+01  0.25540159245E+02 -0.34215204599E+02  0.47787269790E+02  0.19999994279E+02 0.  0.
        -12    1    1    2    0    0  0.77873887031E+01 -0.25540159245E+02  0.34215204599E+02  0.43400730210E+02  0.00000000000E+00 0.  1.
         11    1    3    3    0    0 -0.15167957907E+01 -0.44532253201E+00 -0.22308153164E+01  0.27341395109E+01  0.51100000000E-03 0. -1.
        -11    1    3    3    0    0 -0.46824656346E+01 -0.90272878030E+00 -0.54827738974E+01  0.72664443534E+01  0.51100000000E-03 0.  1.
        -12    1    3    3    0    0 -0.15881272778E+01  0.26888210557E+02 -0.26501615385E+02  0.37786685925E+02  0.00000000000E+00 0.  1.
</event>
<event>
 7    1  0.2935819E-010  0.4778725E+02  0.7816164E-02  0.1312668E+00
        -11   -1    0    0    0    0  0.00000000000E+00  0.00000000000E+00  0.45593999997E+02  0.45594000000E+02  0.51100000000E-03 0.  1.
         11   -1    0    0    0    0 -0.00000000000E+00 -0.00000000000E+00 -0.45593999997E+02  0.45594000000E+02  0.51100000000E-03 0. -1.
    9900012    2    1    2    0    0 -0.99965910469E+01 -0.56439245108E+00 -0.42230020450E+02  0.47787251175E+02  0.19999909407E+02 0.  0.
        -12    1    1    2    0    0  0.99965910469E+01  0.56439245108E+00  0.42230020450E+02  0.43400748825E+02  0.00000000000E+00 0.  1.
         11    1    3    3    0    0 -0.83359809101E+01 -0.74378855303E+01 -0.19618027476E+02  0.22576043081E+02  0.51100000000E-03 0.  1.
        -11    1    3    3    0    0 -0.24020145168E+01  0.80531465544E+01 -0.22231590965E+02  0.23766919873E+02  0.51100000000E-03 0. -1.
         12    1    3    3    0    0  0.74140438002E+00 -0.11796534752E+01 -0.38040200885E+00  0.14442882208E+01  0.00000000000E+00 0. -1.
</event>
<event>
 7    1  0.2935819E-010  0.4778726E+02  0.7816164E-02  0.1312668E+00
        -11   -1    0    0    0    0  0.00000000000E+00  0.00000000000E+00  0.45593999997E+02  0.45594000000E+02  0.51100000000E-03 0. -1.
         11   -1    0    0    0    0 -0.00000000000E+00 -0.00000000000E+00 -0.45593999997E+02  0.45594000000E+02  0.51100000000E-03 0.  1.
    9900012    2    1    2    0    0 -0.11606097024E+02  0.15522980572E+01  0.41791299884E+02  0.47787264253E+02  0.19999969033E+02 0.  0.
        -12    1    1    2    0    0  0.11606097024E+02 -0.15522980572E+01 -0.41791299884E+02  0.43400735747E+02  0.00000000000E+00 0.  1.
         11    1    3    3    0    0 -0.58018300256E+01  0.58842149217E+01  0.13986235857E+02  0.16244999557E+02  0.51100000000E-03 0. -1.
        -11    1    3    3    0    0 -0.30589257120E+01 -0.87308938880E+01  0.21307960301E+02  0.23229608414E+02  0.51100000000E-03 0.  1.
        -12    1    3    3    0    0 -0.27453412867E+01  0.43989770235E+01  0.64971037258E+01  0.83126562817E+01  0.00000000000E+00 0.  1.
</event>
<event>
 7    1  0.2935819E-010  0.4778727E+02  0.7816164E-02  0.1312668E+00
        -11   -1    0    0    0    0  0.00000000000E+00  0.00000000000E+00  0.45593999997E+02  0.45594000000E+02  0.51100000000E-03 0. -1.
         11   -1    0    0    0    0 -0.00000000000E+00 -0.00000000000E+00 -0.45593999997E+02  0.45594000000E+02  0.51100000000E-03 0.  1.
    9900012    2    1    2    0    0  0.25620172464E+01  0.40408156973E+02 -0.15628185420E+02  0.47787271183E+02  0.20000000632E+02 0.  0.
        -12    1    1    2    0    0 -0.25620172464E+01 -0.40408156973E+02  0.15628185420E+02  0.43400728817E+02  0.00000000000E+00 0.  1.
         11    1    3    3    0    0  0.32873821030E+01  0.27499978636E+02 -0.17049502908E+02  0.32522934303E+02  0.51100000000E-03 0. -1.
        -11    1    3    3    0    0 -0.19254177476E+01  0.19977153198E+01  0.31001667216E+01  0.41604247337E+01  0.51100000000E-03 0.  1.
        -12    1    3    3    0    0  0.12000528910E+01  0.10910463017E+02 -0.16788492340E+01  0.11103912146E+02  0.00000000000E+00 0.  1.
</event>
<event>
 7    1  0.2935819E-010  0.4778726E+02  0.7816164E-02  0.1312668E+00
        -11   -1    0    0    0    0  0.00000000000E+00  0.00000000000E+00  0.45593999997E+02  0.45594000000E+02  0.51100000000E-03 0.  1.
         11   -1    0    0    0    0 -0.00000000000E+00 -0.00000000000E+00 -0.45593999997E+02  0.45594000000E+02  0.51100000000E-03 0. -1.
    9900012    2    1    2    0    0  0.10347899128E+02  0.40010450013E+02 -0.13255533218E+02  0.47787259367E+02  0.19999946757E+02 0.  0.
        -12    1    1    2    0    0 -0.10347899128E+02 -0.40010450013E+02  0.13255533218E+02  0.43400740633E+02  0.00000000000E+00 0.  1.
         11    1    3    3    0    0  0.53805576256E+01  0.18139280380E+02 -0.12078291766E+02  0.22447027093E+02  0.51100000000E-03 0. -1.
        -11    1    3    3    0    0  0.78378523257E+01  0.20680110404E+02 -0.32610952860E+00  0.22117984607E+02  0.51100000000E-03 0.  1.
        -12    1    3    3    0    0 -0.28705108232E+01  0.11910592293E+01 -0.85113192316E+00  0.32222476665E+01  0.00000000000E+00 0.  1.
</event>
<event>
 7    1  0.2935819E-010  0.4778726E+02  0.7816164E-02  0.1312668E+00
        -11   -1    0    0    0    0  0.00000000000E+00  0.00000000000E+00  0.45593999997E+02  0.45594000000E+02  0.51100000000E-03 0.  1.
         11   -1    0    0    0    0 -0.00000000000E+00 -0.00000000000E+00 -0.45593999997E+02  0.45594000000E+02  0.51100000000E-03 0. -1.
    9900012    2    1    2    0    0  0.23902204862E+00 -0.12022356347E+02 -0.41701680470E+02  0.47787258789E+02  0.19999944121E+02 0.  0.
        -12    1    1    2    0    0 -0.23902204862E+00  0.12022356347E+02  0.41701680470E+02  0.43400741211E+02  0.00000000000E+00 0.  1.
         11    1    3    3    0    0 -0.38245913898E+01  0.35657100030E+00 -0.19753239604E+02  0.20123248180E+02  0.51100000000E-03 0. -1.
        -11    1    3    3    0    0 -0.73357534930E+00  0.68060954618E+00  0.60147592517E+00  0.11675340240E+01  0.51100000000E-03 0.  1.
         12    1    3    3    0    0  0.47971887877E+01 -0.13059536894E+02 -0.22549916791E+02  0.26496476585E+02  0.00000000000E+00 0. -1.
</event>
<event>
 7    1  0.2935819E-010  0.4778727E+02  0.7816164E-02  0.1312668E+00
        -11   -1    0    0    0    0  0.00000000000E+00  0.00000000000E+00  0.45593999997E+02  0.45594000000E+02  0.51100000000E-03 0.  1.
         11   -1    0    0    0    0 -0.00000000000E+00 -0.00000000000E+00 -0.45593999997E+02  0.45594000000E+02  0.51100000000E-03 0. -1.
    9900012    2    1    2    0    0 -0.40656406940E+02  0.15034529431E+02 -0.21546539225E+01  0.47787273808E+02  0.20000012601E+02 0.  0.
        -12    1    1    2    0    0  0.40656406940E+02 -0.15034529431E+02  0.21546539225E+01  0.43400726192E+02  0.00000000000E+00 0.  1.
         11    1    3    3    0    0 -0.12602150712E+02  0.65129465037E+01  0.38159214061E+01  0.14689926180E+02  0.51100000000E-03 0. -1.
        -11    1    3    3    0    0 -0.31355112369E+01 -0.80841320944E+00  0.35799670401E+01  0.48271240820E+01  0.51100000000E-03 0.  1.
        -12    1    3    3    0    0 -0.24918744990E+02  0.93299961371E+01 -0.95505423687E+01  0.28270223546E+02  0.00000000000E+00 0.  1.
</event>
<event>
 7    1  0.2935819E-010  0.4778728E+02  0.7816164E-02  0.1312668E+00
        -11   -1    0    0    0    0  0.00000000000E+00  0.00000000000E+00  0.45593999997E+02  0.45594000000E+02  0.51100000000E-03 0.  1.
         11   -1    0    0    0    0 -0.00000000000E+00 -0.00000000000E+00 -0.45593999997E+02  0.45594000000E+02  0.51100000000E-03 0. -1.
    9900012    2    1    2    0    0  0.23244210733E+02  0.93714629942E+01 -0.35433109255E+02  0.47787275550E+02  0.20000020545E+02 0.  0.
        -12    1    1    2    0    0 -0.23244210733E+02 -0.93714629942E+01  0.35433109255E+02  0.43400724450E+02  0.00000000000E+00 0.  1.
         11    1    3    3    0    0  0.11851337819E+02  0.12019243300E+02 -0.19052398341E+02  0.25454082195E+02  0.51100000000E-03 0. -1.
        -11    1    3    3    0    0  0.12205677517E+01  0.28343328582E+01 -0.13356784875E+01  0.33626277925E+01  0.51100000000E-03 0.  1.
         12    1    3    3    0    0  0.10172305162E+02 -0.54821131636E+01 -0.15045032426E+02  0.18970565563E+02  0.00000000000E+00 0. -1.
</event>
<event>
 7    1  0.2935819E-010  0.4778727E+02  0.7816164E-02  0.1312668E+00
        -11   -1    0    0    0    0  0.00000000000E+00  0.00000000000E+00  0.45593999997E+02  0.45594000000E+02  0.51100000000E-03 0. -1.
         11   -1    0    0    0    0 -0.00000000000E+00 -0.00000000000E+00 -0.45593999997E+02  0.45594000000E+02  0.51100000000E-03 0.  1.
    9900012    2    1    2    0    0  0.24197889849E+02  0.35937812041E+02  0.25610316053E+01  0.47787273159E+02  0.20000009640E+02 0.  0.
        -12    1    1    2    0    0 -0.24197889849E+02 -0.35937812041E+02 -0.25610316053E+01  0.43400726841E+02  0.00000000000E+00 0.  1.
         11    1    3    3    0    0  0.16776998146E+02  0.19411034993E+02  0.32217906531E+01  0.25857994539E+02  0.51100000000E-03 0. -1.
        -11    1    3    3    0    0  0.48769904207E+00  0.11996487113E+02  0.37075365383E+01  0.12565802038E+02  0.51100000000E-03 0.  1.
        -12    1    3    3    0    0  0.69331926612E+01  0.45302899343E+01 -0.43682955860E+01  0.93634765816E+01  0.00000000000E+00 0.  1.
</event>
<event>
 7    1  0.2935819E-010  0.4778728E+02  0.7816164E-02  0.1312668E+00
        -11   -1    0    0    0    0  0.00000000000E+00  0.00000000000E+00  0.45593999997E+02  0.45594000000E+02  0.51100000000E-03 0.  1.
         11   -1    0    0    0    0 -0.00000000000E+00 -0.00000000000E+00 -0.45593999997E+02  0.45594000000E+02  0.51100000000E-03 0. -1.
    9900012    2    1    2    0    0  0.28500903397E+01 -0.30807142630E+02 -0.30437146236E+02  0.47787275087E+02  0.20000018432E+02 0.  0.
        -12    1    1    2    0    0 -0.28500903397E+01  0.30807142630E+02  0.30437146236E+02  0.43400724913E+02  0.00000000000E+00 0.  1.
         11    1    3    3    0    0  0.15219029343E+01 -0.15041995771E+02 -0.13554450220E+02  0.20305195058E+02  0.51100000000E-03 0. -1.
        -11    1    3    3    0    0 -0.51223863179E+01 -0.14130745979E+02 -0.11671534020E+02  0.19030016557E+02  0.51100000000E-03 0.  1.
        -12    1    3    3    0    0  0.64505737234E+01 -0.16344008808E+01 -0.52111619953E+01  0.84520634724E+01  0.00000000000E+00 0.  1.
</event>
<event>
 7    1  0.2935819E-010  0.4778728E+02  0.7816164E-02  0.1312668E+00
        -11   -1    0    0    0    0  0.00000000000E+00  0.00000000000E+00  0.45593999997E+02  0.45594000000E+02  0.51100000000E-03 0.  1.
         11   -1    0    0    0    0 -0.00000000000E+00 -0.00000000000E+00 -0.45593999997E+02  0.45594000000E+02  0.51100000000E-03 0. -1.
    9900012    2    1    2    0    0  0.24928147639E+02 -0.27021427185E+02 -0.23066267067E+02  0.47787277100E+02  0.20000027610E+02 0.  0.
        -12    1    1    2    0    0 -0.24928147639E+02  0.27021427185E+02  0.23066267067E+02  0.43400722900E+02  0.00000000000E+00 0.  1.
         11    1    3    3    0    0 -0.20113879950E+00 -0.63634840223E+00  0.20241940951E+01  0.21313746975E+01  0.51100000000E-03 0. -1.
        -11    1    3    3    0    0 -0.15424399545E-01 -0.57950508949E+00  0.10104847900E+01  0.11649651638E+01  0.51100000000E-03 0.  1.
         12    1    3    3    0    0  0.25144710838E+02 -0.25805573693E+02 -0.26100945952E+02  0.44490937239E+02  0.00000000000E+00 0. -1.
</event>
<event>
 7    1  0.2935819E-010  0.4778728E+02  0.7816164E-02  0.1312668E+00
        -11   -1    0    0    0    0  0.00000000000E+00  0.00000000000E+00  0.45593999997E+02  0.45594000000E+02  0.51100000000E-03 0.  1.
         11   -1    0    0    0    0 -0.00000000000E+00 -0.00000000000E+00 -0.45593999997E+02  0.45594000000E+02  0.51100000000E-03 0. -1.
    9900012    2    1    2    0    0 -0.34047350797E+02 -0.23044591145E+02 -0.13904931368E+02  0.47787281185E+02  0.20000046234E+02 0.  0.
        -12    1    1    2    0    0  0.34047350797E+02  0.23044591145E+02  0.13904931368E+02  0.43400718815E+02  0.00000000000E+00 0.  1.
         11    1    3    3    0    0 -0.11433275267E+02 -0.16780634717E+02 -0.68850008951E+01  0.21440912350E+02  0.51100000000E-03 0. -1.
        -11    1    3    3    0    0 -0.68822841526E+01  0.18137043581E+01  0.48853567740E+00  0.71340049078E+01  0.51100000000E-03 0.  1.
        -12    1    3    3    0    0 -0.15731791377E+02 -0.80776607863E+01 -0.75084661504E+01  0.19212363927E+02  0.00000000000E+00 0.  1.
</event>
<event>
 7    1  0.2935819E-010  0.4778727E+02  0.7816164E-02  0.1312668E+00
        -11   -1    0    0    0    0  0.00000000000E+00  0.00000000000E+00  0.45593999997E+02  0.45594000000E+02  0.51100000000E-03 0.  1.
         11   -1    0    0    0    0 -0.00000000000E+00 -0.00000000000E+00 -0.45593999997E+02  0.45594000000E+02  0.51100000000E-03 0. -1.
    9900012    2    1    2    0    0  0.27018321980E+02 -0.33965178250E+02 -0.73219252241E-02  0.47787272935E+02  0.20000008620E+02 0.  0.
        -12    1    1    2    0    0 -0.27018321980E+02  0.33965178250E+02  0.73219252241E-02  0.43400727065E+02  0.00000000000E+00 0.  1.
         11    1    3    3    0    0  0.17418282343E+02 -0.13814726601E+02 -0.26548287839E+01  0.22389536551E+02  0.51100000000E-03 0. -1.
        -11    1    3    3    0    0  0.21817574072E+01 -0.16397167099E+02 -0.39059203040E+00  0.16546290117E+02  0.51100000000E-03 0.  1.
        -12    1    3    3    0    0  0.74182822298E+01 -0.37532845499E+01  0.30380988891E+01  0.88514462668E+01  0.00000000000E+00 0.  1.
</event>
<event>
 7    1  0.2935819E-010  0.4778727E+02  0.7816164E-02  0.1312668E+00
        -11   -1    0    0    0    0  0.00000000000E+00  0.00000000000E+00  0.45593999997E+02  0.45594000000E+02  0.51100000000E-03 0.  1.
         11   -1    0    0    0    0 -0.00000000000E+00 -0.00000000000E+00 -0.45593999997E+02  0.45594000000E+02  0.51100000000E-03 0. -1.
    9900012    2    1    2    0    0  0.36033095919E+01 -0.42066953905E+02 -0.10050406949E+02  0.47787272693E+02  0.20000007518E+02 0.  0.
        -12    1    1    2    0    0 -0.36033095919E+01  0.42066953905E+02  0.10050406949E+02  0.43400727307E+02  0.00000000000E+00 0.  1.
         11    1    3    3    0    0 -0.47789156283E+01 -0.15807201916E+02 -0.26850211552E+01  0.16730660652E+02  0.51100000000E-03 0. -1.
        -11    1    3    3    0    0  0.96809208324E+01 -0.12900838943E+02 -0.88847952541E+00  0.16153676663E+02  0.51100000000E-03 0.  1.
         12    1    3    3    0    0 -0.12986956122E+01 -0.13358913046E+02 -0.64769062688E+01  0.14902935378E+02  0.00000000000E+00 0. -1.
</event>
<event>
 7    1  0.2935819E-010  0.4778727E+02  0.7816164E-02  0.1312668E+00
        -11   -1    0    0    0    0  0.00000000000E+00  0.00000000000E+00  0.45593999997E+02  0.45594000000E+02  0.51100000000E-03 0. -1.
         11   -1    0    0    0    0 -0.00000000000E+00 -0.00000000000E+00 -0.45593999997E+02  0.45594000000E+02  0.51100000000E-03 0.  1.
    9900012    2    1    2    0    0 -0.22176683114E+02 -0.29549554132E+02  0.22773716836E+02  0.47787267266E+02  0.19999982771E+02 0.  0.
        -12    1    1    2    0    0  0.22176683114E+02  0.29549554132E+02 -0.22773716836E+02  0.43400732734E+02  0.00000000000E+00 0.  1.
         11    1    3    3    0    0 -0.76221360165E+01 -0.11702517373E+02  0.13568399539E+02  0.19471706054E+02  0.51100000000E-03 0. -1.
        -11    1    3    3    0    0  0.85955976471E+00 -0.83786470467E+01  0.11047812240E+01  0.84947696341E+01  0.51100000000E-03 0.  1.
        -12    1    3    3    0    0 -0.15414106862E+02 -0.94683897125E+01  0.81005360728E+01  0.19820791578E+02  0.00000000000E+00 0.  1.
</event>
<event>
 7    1  0.2935819E-010  0.4778728E+02  0.7816164E-02  0.1312668E+00
        -11   -1    0    0    0    0  0.00000000000E+00  0.00000000000E+00  0.45593999997E+02  0.45594000000E+02  0.51100000000E-03 0.  1.
         11   -1    0    0    0    0 -0.00000000000E+00 -0.00000000000E+00 -0.45593999997E+02  0.45594000000E+02  0.51100000000E-03 0. -1.
    9900012    2    1    2    0    0  0.18021950747E+02  0.54681953669E+01 -0.39101546586E+02  0.47787276334E+02  0.20000024116E+02 0.  0.
        -12    1    1    2    0    0 -0.18021950747E+02 -0.54681953669E+01  0.39101546586E+02  0.43400723666E+02  0.00000000000E+00 0.  1.
         11    1    3    3    0    0  0.36543037889E+01  0.36309977346E+01 -0.26737039312E+02  0.27228796377E+02  0.51100000000E-03 0. -1.
        -11    1    3    3    0    0  0.66281037242E+01 -0.45372306267E+00 -0.11517105518E+01  0.67427042833E+01  0.51100000000E-03 0.  1.
         12    1    3    3    0    0  0.77395432342E+01  0.22909206950E+01 -0.11212796723E+02  0.13815775673E+02  0.00000000000E+00 0. -1.
</event>
<event>
 7    1  0.2935819E-010  0.4778726E+02  0.7816164E-02  0.1312668E+00
        -11   -1    0    0    0    0  0.00000000000E+00  0.00000000000E+00  0.45593999997E+02  0.45594000000E+02  0.51100000000E-03 0.  1.
         11   -1    0    0    0    0 -0.00000000000E+00 -0.00000000000E+00 -0.45593999997E+02  0.45594000000E+02  0.51100000000E-03 0. -1.
    9900012    2    1    2    0    0 -0.15628182160E+02  0.38336390885E+02 -0.13027083217E+02  0.47787264513E+02  0.19999970220E+02 0.  0.
        -12    1    1    2    0    0  0.15628182160E+02 -0.38336390885E+02  0.13027083217E+02  0.43400735487E+02  0.00000000000E+00 0.  1.
         11    1    3    3    0    0  0.12507245599E+01  0.17114479050E+02 -0.11316132039E+02  0.20555401958E+02  0.51100000000E-03 0. -1.
        -11    1    3    3    0    0 -0.11758060840E+02  0.13416416746E+02 -0.13178936203E+01  0.17888238507E+02  0.51100000000E-03 0.  1.
         12    1    3    3    0    0 -0.51208458796E+01  0.78054950882E+01 -0.39305755761E+00  0.93436240473E+01  0.00000000000E+00 0. -1.
</event>
<event>
 7    1  0.2935819E-010  0.4778727E+02  0.7816164E-02  0.1312668E+00
        -11   -1    0    0    0    0  0.00000000000E+00  0.00000000000E+00  0.45593999997E+02  0.45594000000E+02  0.51100000000E-03 0. -1.
         11   -1    0    0    0    0 -0.00000000000E+00 -0.00000000000E+00 -0.45593999997E+02  0.45594000000E+02  0.51100000000E-03 0.  1.
    9900012    2    1    2    0    0  0.19249614885E+02 -0.47905771316E+01  0.38602150398E+02  0.47787270538E+02  0.19999997691E+02 0.  0.
        -12    1    1    2    0    0 -0.19249614885E+02  0.47905771316E+01 -0.38602150398E+02  0.43400729462E+02  0.00000000000E+00 0.  1.
         11    1    3    3    0    0  0.70516468870E+01 -0.76672178244E+01  0.24473472997E+02  0.26598173505E+02  0.51100000000E-03 0. -1.
        -11    1    3    3    0    0  0.60066057350E+01 -0.20121678878E+01  0.18583701684E+01  0.66016416147E+01  0.51100000000E-03 0.  1.
         12    1    3    3    0    0  0.61913622627E+01  0.48888085806E+01  0.12270307233E+02  0.14587455419E+02  0.00000000000E+00 0. -1.
</event>
<event>
 7    1  0.2935819E-010  0.4778727E+02  0.7816164E-02  0.1312668E+00
        -11   -1    0    0    0    0  0.00000000000E+00  0.00000000000E+00  0.45593999997E+02  0.45594000000E+02  0.51100000000E-03 0. -1.
         11   -1    0    0    0    0 -0.00000000000E+00 -0.00000000000E+00 -0.45593999997E+02  0.45594000000E+02  0.51100000000E-03 0.  1.
    9900012    2    1    2    0    0  0.39384132124E+02 -0.81821727766E+01  0.16296171636E+02  0.47787273917E+02  0.20000013097E+02 0.  0.
        -12    1    1    2    0    0 -0.39384132124E+02  0.81821727766E+01 -0.16296171636E+02  0.43400726083E+02  0.00000000000E+00 0.  1.
         11    1    3    3    0    0  0.26954987836E+02 -0.11580913052E+02  0.17613003319E+02  0.34218515493E+02  0.51100000000E-03 0. -1.
        -11    1    3    3    0    0  0.46571801205E+01  0.31258731927E+01 -0.14406599417E+01  0.57910198774E+01  0.51100000000E-03 0.  1.
         12    1    3    3    0    0  0.77719641676E+01  0.27286708232E+00  0.12382825942E+00  0.77777385470E+01  0.00000000000E+00 0. -1.
</event>
<event>
 7    1  0.2935819E-010  0.4778726E+02  0.7816164E-02  0.1312668E+00
        -11   -1    0    0    0    0  0.00000000000E+00  0.00000000000E+00  0.45593999997E+02  0.45594000000E+02  0.51100000000E-03 0. -1.
         11   -1    0    0    0    0 -0.00000000000E+00 -0.00000000000E+00 -0.45593999997E+02  0.45594000000E+02  0.51100000000E-03 0.  1.
    9900012    2    1    2    0    0  0.37499580236E+02  0.21109303149E+02  0.56394151247E+01  0.47787260372E+02  0.19999951339E+02 0.  0.
        -12    1    1    2    0    0 -0.37499580236E+02 -0.21109303149E+02 -0.56394151247E+01  0.43400739628E+02  0.00000000000E+00 0.  1.
         11    1    3    3    0    0  0.45659144145E+01 -0.18619384626E+01  0.38797750555E+01  0.62743162194E+01  0.51100000000E-03 0. -1.
        -11    1    3    3    0    0  0.31920522675E+02  0.23781098584E+02  0.65724071583E+00  0.39810706893E+02  0.51100000000E-03 0.  1.
        -12    1    3    3    0    0  0.10131431472E+01 -0.80985697292E+00  0.11023993534E+01  0.17022372595E+01  0.00000000000E+00 0.  1.
</event>
<event>
 7    1  0.2935819E-010  0.4778727E+02  0.7816164E-02  0.1312668E+00
        -11   -1    0    0    0    0  0.00000000000E+00  0.00000000000E+00  0.45593999997E+02  0.45594000000E+02  0.51100000000E-03 0.  1.
         11   -1    0    0    0    0 -0.00000000000E+00 -0.00000000000E+00 -0.45593999997E+02  0.45594000000E+02  0.51100000000E-03 0. -1.
    9900012    2    1    2    0    0  0.20240456714E+02 -0.94506574361E+01 -0.37210648188E+02  0.47787270139E+02  0.19999995870E+02 0.  0.
        -12    1    1    2    0    0 -0.20240456714E+02  0.94506574361E+01  0.37210648188E+02  0.43400729861E+02  0.00000000000E+00 0.  1.
         11    1    3    3    0    0  0.10029793605E+01 -0.13020974027E+01 -0.19217720634E+02  0.19287877329E+02  0.51100000000E-03 0. -1.
        -11    1    3    3    0    0  0.15373347615E+02 -0.73782658558E+01 -0.17653973019E+02  0.24544681452E+02  0.51100000000E-03 0.  1.
        -12    1    3    3    0    0  0.38641297377E+01 -0.77029417760E+00 -0.33895453510E+00  0.39547113582E+01  0.00000000000E+00 0.  1.
</event>
<event>
 7    1  0.2935819E-010  0.4778727E+02  0.7816164E-02  0.1312668E+00
        -11   -1    0    0    0    0  0.00000000000E+00  0.00000000000E+00  0.45593999997E+02  0.45594000000E+02  0.51100000000E-03 0.  1.
         11   -1    0    0    0    0 -0.00000000000E+00 -0.00000000000E+00 -0.45593999997E+02  0.45594000000E+02  0.51100000000E-03 0. -1.
    9900012    2    1    2    0    0  0.37914175985E+02  0.59928025885E+01 -0.20254010521E+02  0.47787269987E+02  0.19999995177E+02 0.  0.
        -12    1    1    2    0    0 -0.37914175985E+02 -0.59928025885E+01  0.20254010521E+02  0.43400730013E+02  0.00000000000E+00 0.  1.
         11    1    3    3    0    0  0.34752679081E+02  0.41317746358E+01 -0.12746927877E+02  0.37246535886E+02  0.51100000000E-03 0. -1.
        -11    1    3    3    0    0 -0.14058001318E+00  0.32816226945E+01 -0.16680650945E+01  0.36839179782E+01  0.51100000000E-03 0.  1.
         12    1    3    3    0    0  0.33020769172E+01 -0.14205947418E+01 -0.58390175497E+01  0.68568161221E+01  0.00000000000E+00 0. -1.
</event>
<event>
 7    1  0.2935819E-010  0.4778727E+02  0.7816164E-02  0.1312668E+00
        -11   -1    0    0    0    0  0.00000000000E+00  0.00000000000E+00  0.45593999997E+02  0.45594000000E+02  0.51100000000E-03 0.  1.
         11   -1    0    0    0    0 -0.00000000000E+00 -0.00000000000E+00 -0.45593999997E+02  0.45594000000E+02  0.51100000000E-03 0. -1.
    9900012    2    1    2    0    0  0.70149743010E+01 -0.19492727849E+02 -0.38137217428E+02  0.47787266635E+02  0.19999979897E+02 0.  0.
        -12    1    1    2    0    0 -0.70149743010E+01  0.19492727849E+02  0.38137217428E+02  0.43400733365E+02  0.00000000000E+00 0.  1.
         11    1    3    3    0    0 -0.22907105851E+01  0.21944585199E+01 -0.14144911966E+01  0.34732965302E+01  0.51100000000E-03 0. -1.
        -11    1    3    3    0    0  0.46474096405E+01 -0.10106580380E+02 -0.10616133301E+02  0.15376724940E+02  0.51100000000E-03 0.  1.
         12    1    3    3    0    0  0.46582752456E+01 -0.11580605989E+02 -0.26106592931E+02  0.28937245166E+02  0.00000000000E+00 0. -1.
</event>
<event>
 7    1  0.2935819E-010  0.4778729E+02  0.7816164E-02  0.1312668E+00
        -11   -1    0    0    0    0  0.00000000000E+00  0.00000000000E+00  0.45593999997E+02  0.45594000000E+02  0.51100000000E-03 0.  1.
         11   -1    0    0    0    0 -0.00000000000E+00 -0.00000000000E+00 -0.45593999997E+02  0.45594000000E+02  0.51100000000E-03 0. -1.
    9900012    2    1    2    0    0 -0.42676613437E+01  0.32030437733E+02 -0.28973437254E+02  0.47787286399E+02  0.20000070009E+02 0.  0.
        -12    1    1    2    0    0  0.42676613437E+01 -0.32030437733E+02  0.28973437254E+02  0.43400713601E+02  0.00000000000E+00 0.  1.
         11    1    3    3    0    0 -0.28061849871E+01  0.88665447485E+01 -0.15945927122E+02  0.18459763866E+02  0.51100000000E-03 0. -1.
        -11    1    3    3    0    0  0.38799985374E+01  0.19146823314E+02 -0.10526296166E+02  0.22191397948E+02  0.51100000000E-03 0.  1.
        -12    1    3    3    0    0 -0.53414748941E+01  0.40170696706E+01 -0.25012139667E+01  0.71361245848E+01  0.00000000000E+00 0.  1.
</event>
<event>
 7    1  0.2935819E-010  0.4778727E+02  0.7816164E-02  0.1312668E+00
        -11   -1    0    0    0    0  0.00000000000E+00  0.00000000000E+00  0.45593999997E+02  0.45594000000E+02  0.51100000000E-03 0. -1.
         11   -1    0    0    0    0 -0.00000000000E+00 -0.00000000000E+00 -0.45593999997E+02  0.45594000000E+02  0.51100000000E-03 0.  1.
    9900012    2    1    2    0    0 -0.26669754946E+02 -0.27739652115E+01  0.34127008150E+02  0.47787269624E+02  0.19999993524E+02 0.  0.
        -12    1    1    2    0    0  0.26669754946E+02  0.27739652115E+01 -0.34127008150E+02  0.43400730376E+02  0.00000000000E+00 0.  1.
         11    1    3    3    0    0 -0.30469224860E+01 -0.30721581995E+01  0.66541459575E+01  0.79372256692E+01  0.51100000000E-03 0. -1.
        -11    1    3    3    0    0 -0.25750616213E+02 -0.15590157474E+01  0.26142407151E+02  0.36728057631E+02  0.51100000000E-03 0.  1.
        -12    1    3    3    0    0  0.21277837531E+01  0.18572087355E+01  0.13304550416E+01  0.31219863236E+01  0.00000000000E+00 0.  1.
</event>
<event>
 7    1  0.2935819E-010  0.4778727E+02  0.7816164E-02  0.1312668E+00
        -11   -1    0    0    0    0  0.00000000000E+00  0.00000000000E+00  0.45593999997E+02  0.45594000000E+02  0.51100000000E-03 0. -1.
         11   -1    0    0    0    0 -0.00000000000E+00 -0.00000000000E+00 -0.45593999997E+02  0.45594000000E+02  0.51100000000E-03 0.  1.
    9900012    2    1    2    0    0 -0.36444681046E+02  0.20216017933E+02  0.12112856780E+02  0.47787268935E+02  0.19999990382E+02 0.  0.
        -12    1    1    2    0    0  0.36444681046E+02 -0.20216017933E+02 -0.12112856780E+02  0.43400731065E+02  0.00000000000E+00 0.  1.
         11    1    3    3    0    0 -0.22406830359E+02  0.16729689751E+02  0.16514876179E+02  0.32475986534E+02  0.51100000000E-03 0. -1.
        -11    1    3    3    0    0 -0.53983414163E+01  0.20235531289E+01 -0.27781874246E+01  0.63996236561E+01  0.51100000000E-03 0.  1.
         12    1    3    3    0    0 -0.86395092711E+01  0.14627750526E+01 -0.16238319747E+01  0.89116587447E+01  0.00000000000E+00 0. -1.
</event>
<event>
 7    1  0.2935819E-010  0.4778727E+02  0.7816164E-02  0.1312668E+00
        -11   -1    0    0    0    0  0.00000000000E+00  0.00000000000E+00  0.45593999997E+02  0.45594000000E+02  0.51100000000E-03 0. -1.
         11   -1    0    0    0    0 -0.00000000000E+00 -0.00000000000E+00 -0.45593999997E+02  0.45594000000E+02  0.51100000000E-03 0.  1.
    9900012    2    1    2    0    0 -0.18488061109E+02  0.88928408997E+00  0.39255877546E+02  0.47787272453E+02  0.20000006422E+02 0.  0.
        -12    1    1    2    0    0  0.18488061109E+02 -0.88928408997E+00 -0.39255877546E+02  0.43400727547E+02  0.00000000000E+00 0.  1.
         11    1    3    3    0    0  0.12957780074E+00  0.28188241146E+01 -0.77020576958E+00  0.29250259801E+01  0.51100000000E-03 0.  1.
        -11    1    3    3    0    0 -0.50962769507E+01 -0.19588772768E+01  0.19753285195E+02  0.20493938499E+02  0.51100000000E-03 0. -1.
        -12    1    3    3    0    0 -0.13521361959E+02  0.29337252124E-01  0.20272798120E+02  0.24368307974E+02  0.00000000000E+00 0.  1.
</event>
<event>
 7    1  0.2935819E-010  0.4778727E+02  0.7816164E-02  0.1312668E+00
        -11   -1    0    0    0    0  0.00000000000E+00  0.00000000000E+00  0.45593999997E+02  0.45594000000E+02  0.51100000000E-03 0.  1.
         11   -1    0    0    0    0 -0.00000000000E+00 -0.00000000000E+00 -0.45593999997E+02  0.45594000000E+02  0.51100000000E-03 0. -1.
    9900012    2    1    2    0    0  0.10807431795E+02  0.33649570494E+01 -0.41898684327E+02  0.47787271131E+02  0.20000000397E+02 0.  0.
        -12    1    1    2    0    0 -0.10807431795E+02 -0.33649570494E+01  0.41898684327E+02  0.43400728869E+02  0.00000000000E+00 0.  1.
         11    1    3    3    0    0 -0.18055072729E+01 -0.20074495816E+01 -0.26440326796E+02  0.26577821425E+02  0.51100000000E-03 0. -1.
        -11    1    3    3    0    0  0.77556767021E+01  0.57010768886E+01 -0.96377921167E+01  0.13621300817E+02  0.51100000000E-03 0.  1.
         12    1    3    3    0    0  0.48572623660E+01 -0.32867025759E+00 -0.58205654148E+01  0.75881488901E+01  0.00000000000E+00 0. -1.
</event>
<event>
 7    1  0.2935819E-010  0.4778727E+02  0.7816164E-02  0.1312668E+00
        -11   -1    0    0    0    0  0.00000000000E+00  0.00000000000E+00  0.45593999997E+02  0.45594000000E+02  0.51100000000E-03 0. -1.
         11   -1    0    0    0    0 -0.00000000000E+00 -0.00000000000E+00 -0.45593999997E+02  0.45594000000E+02  0.51100000000E-03 0.  1.
    9900012    2    1    2    0    0  0.35403271465E+02 -0.10932127265E+02  0.22599125802E+02  0.47787268163E+02  0.19999986864E+02 0.  0.
        -12    1    1    2    0    0 -0.35403271465E+02  0.10932127265E+02 -0.22599125802E+02  0.43400731837E+02  0.00000000000E+00 0.  1.
         11    1    3    3    0    0  0.30883995844E+02 -0.13959389852E+02  0.16121253893E+02  0.37531061691E+02  0.51100000000E-03 0. -1.
        -11    1    3    3    0    0  0.55278227703E+01  0.30219595339E+01  0.67279849611E+01  0.92170953072E+01  0.51100000000E-03 0.  1.
         12    1    3    3    0    0 -0.10085471490E+01  0.53030533519E-02 -0.25011305243E+00  0.10391111649E+01  0.00000000000E+00 0. -1.
</event>
<event>
 7    1  0.2935819E-010  0.4778729E+02  0.7816164E-02  0.1312668E+00
        -11   -1    0    0    0    0  0.00000000000E+00  0.00000000000E+00  0.45593999997E+02  0.45594000000E+02  0.51100000000E-03 0.  1.
         11   -1    0    0    0    0 -0.00000000000E+00 -0.00000000000E+00 -0.45593999997E+02  0.45594000000E+02  0.51100000000E-03 0. -1.
    9900012    2    1    2    0    0 -0.18024428564E+02 -0.13348400685E+02 -0.37155911353E+02  0.47787290623E+02  0.20000089268E+02 0.  0.
        -12    1    1    2    0    0  0.18024428564E+02  0.13348400685E+02  0.37155911353E+02  0.43400709377E+02  0.00000000000E+00 0.  1.
         11    1    3    3    0    0 -0.12031450756E+02 -0.13439883695E+02 -0.28438210138E+02  0.33676669627E+02  0.51100000000E-03 0. -1.
        -11    1    3    3    0    0  0.17745660298E+01  0.23769866572E+01 -0.28270603687E+01  0.40977336116E+01  0.51100000000E-03 0.  1.
        -12    1    3    3    0    0 -0.77675438385E+01 -0.22855036472E+01 -0.58906408463E+01  0.10012887385E+02  0.00000000000E+00 0.  1.
</event>
<event>
 7    1  0.2935819E-010  0.4778727E+02  0.7816164E-02  0.1312668E+00
        -11   -1    0    0    0    0  0.00000000000E+00  0.00000000000E+00  0.45593999997E+02  0.45594000000E+02  0.51100000000E-03 0.  1.
         11   -1    0    0    0    0 -0.00000000000E+00 -0.00000000000E+00 -0.45593999997E+02  0.45594000000E+02  0.51100000000E-03 0. -1.
    9900012    2    1    2    0    0 -0.20307123904E+02  0.36733603017E+02 -0.11040225522E+02  0.47787268999E+02  0.19999990674E+02 0.  0.
        -12    1    1    2    0    0  0.20307123904E+02 -0.36733603017E+02  0.11040225522E+02  0.43400731001E+02  0.00000000000E+00 0.  1.
         11    1    3    3    0    0 -0.12884799984E+02  0.31841211872E+02 -0.46397505689E+01  0.34661334794E+02  0.51100000000E-03 0. -1.
        -11    1    3    3    0    0  0.17752028432E+00 -0.14167976504E+01 -0.14713694163E+00  0.14354367189E+01  0.51100000000E-03 0.  1.
         12    1    3    3    0    0 -0.75998442045E+01  0.63091887952E+01 -0.62533380113E+01  0.11690497486E+02  0.00000000000E+00 0. -1.
</event>
<event>
 7    1  0.2935819E-010  0.4778727E+02  0.7816164E-02  0.1312668E+00
        -11   -1    0    0    0    0  0.00000000000E+00  0.00000000000E+00  0.45593999997E+02  0.45594000000E+02  0.51100000000E-03 0.  1.
         11   -1    0    0    0    0 -0.00000000000E+00 -0.00000000000E+00 -0.45593999997E+02  0.45594000000E+02  0.51100000000E-03 0. -1.
    9900012    2    1    2    0    0 -0.14954377136E+01  0.15520206183E+02 -0.40503214035E+02  0.47787268657E+02  0.19999989114E+02 0.  0.
        -12    1    1    2    0    0  0.14954377136E+01 -0.15520206183E+02  0.40503214035E+02  0.43400731343E+02  0.00000000000E+00 0.  1.
         11    1    3    3    0    0 -0.20725521686E+01  0.12668104021E+02 -0.30885652222E+02  0.33446970647E+02  0.51100000000E-03 0. -1.
        -11    1    3    3    0    0  0.44315440194E+01  0.21326360897E+01 -0.12119360548E+01  0.50651266863E+01  0.51100000000E-03 0.  1.
        -12    1    3    3    0    0 -0.38544295644E+01  0.71946607227E+00 -0.84056257582E+01  0.92751713237E+01  0.00000000000E+00 0.  1.
</event>
<event>
 7    1  0.2935819E-010  0.4778727E+02  0.7816164E-02  0.1312668E+00
        -11   -1    0    0    0    0  0.00000000000E+00  0.00000000000E+00  0.45593999997E+02  0.45594000000E+02  0.51100000000E-03 0.  1.
         11   -1    0    0    0    0 -0.00000000000E+00 -0.00000000000E+00 -0.45593999997E+02  0.45594000000E+02  0.51100000000E-03 0. -1.
    9900012    2    1    2    0    0 -0.91808097070E+01  0.12138520315E+01 -0.42401209559E+02  0.47787271024E+02  0.19999999906E+02 0.  0.
        -12    1    1    2    0    0  0.91808097070E+01 -0.12138520315E+01  0.42401209559E+02  0.43400728976E+02  0.00000000000E+00 0.  1.
         11    1    3    3    0    0 -0.96412864598E+01  0.50999173736E+01 -0.25541772640E+02  0.27773111307E+02  0.51100000000E-03 0. -1.
        -11    1    3    3    0    0 -0.24631266091E+00 -0.61668057304E+01 -0.50752922667E+01  0.79905415772E+01  0.51100000000E-03 0.  1.
         12    1    3    3    0    0  0.70678941369E+00  0.22807403883E+01 -0.11784144652E+02  0.12023618139E+02  0.00000000000E+00 0. -1.
</event>
<event>
 7    1  0.2935819E-010  0.4778727E+02  0.7816164E-02  0.1312668E+00
        -11   -1    0    0    0    0  0.00000000000E+00  0.00000000000E+00  0.45593999997E+02  0.45594000000E+02  0.51100000000E-03 0.  1.
         11   -1    0    0    0    0 -0.00000000000E+00 -0.00000000000E+00 -0.45593999997E+02  0.45594000000E+02  0.51100000000E-03 0. -1.
    9900012    2    1    2    0    0  0.98198747108E+00 -0.34823022769E+01 -0.43249654138E+02  0.47787270610E+02  0.19999998018E+02 0.  0.
        -12    1    1    2    0    0 -0.98198747108E+00  0.34823022769E+01  0.43249654138E+02  0.43400729390E+02  0.00000000000E+00 0.  1.
         11    1    3    3    0    0  0.32340826379E+01  0.41073719375E+01 -0.17372287880E+02  0.18141835111E+02  0.51100000000E-03 0. -1.
        -11    1    3    3    0    0  0.20708555133E+01 -0.94465884986E+01 -0.15816787449E+02  0.18539073394E+02  0.51100000000E-03 0.  1.
        -12    1    3    3    0    0 -0.43229506801E+01  0.18569142842E+01 -0.10060578809E+02  0.11106362105E+02  0.00000000000E+00 0.  1.
</event>
<event>
 7    1  0.2935819E-010  0.4778727E+02  0.7816164E-02  0.1312668E+00
        -11   -1    0    0    0    0  0.00000000000E+00  0.00000000000E+00  0.45593999997E+02  0.45594000000E+02  0.51100000000E-03 0.  1.
         11   -1    0    0    0    0 -0.00000000000E+00 -0.00000000000E+00 -0.45593999997E+02  0.45594000000E+02  0.51100000000E-03 0. -1.
    9900012    2    1    2    0    0  0.30564298972E+02  0.11464380218E+02 -0.28600953649E+02  0.47787274948E+02  0.20000017797E+02 0.  0.
        -12    1    1    2    0    0 -0.30564298972E+02 -0.11464380218E+02  0.28600953649E+02  0.43400725052E+02  0.00000000000E+00 0.  1.
         11    1    3    3    0    0  0.11316805510E+02  0.40433058444E+01 -0.73580905134E+00  0.12039926259E+02  0.51100000000E-03 0. -1.
        -11    1    3    3    0    0  0.51966194716E+01  0.20938084179E+01 -0.14835655119E+02  0.15858295958E+02  0.51100000000E-03 0.  1.
         12    1    3    3    0    0  0.14050873990E+02  0.53272659560E+01 -0.13029489478E+02  0.19889052731E+02  0.00000000000E+00 0. -1.
</event>
<event>
 7    1  0.2935819E-010  0.4778727E+02  0.7816164E-02  0.1312668E+00
        -11   -1    0    0    0    0  0.00000000000E+00  0.00000000000E+00  0.45593999997E+02  0.45594000000E+02  0.51100000000E-03 0.  1.
         11   -1    0    0    0    0 -0.00000000000E+00 -0.00000000000E+00 -0.45593999997E+02  0.45594000000E+02  0.51100000000E-03 0. -1.
    9900012    2    1    2    0    0 -0.16528874301E+02 -0.68372729291E+01 -0.39543283911E+02  0.47787270868E+02  0.19999999193E+02 0.  0.
        -12    1    1    2    0    0  0.16528874301E+02  0.68372729291E+01  0.39543283911E+02  0.43400729132E+02  0.00000000000E+00 0.  1.
         11    1    3    3    0    0 -0.10023182210E+02 -0.22024684555E+01 -0.78413555431E+01  0.12915181219E+02  0.51100000000E-03 0. -1.
        -11    1    3    3    0    0  0.23468656724E+01 -0.40954848757E+01 -0.17524790197E+02  0.18149353888E+02  0.51100000000E-03 0.  1.
         12    1    3    3    0    0 -0.88525577639E+01 -0.53931959795E+00 -0.14177138171E+02  0.16722735760E+02  0.00000000000E+00 0. -1.
</event>
<event>
 7    1  0.2935819E-010  0.4778727E+02  0.7816164E-02  0.1312668E+00
        -11   -1    0    0    0    0  0.00000000000E+00  0.00000000000E+00  0.45593999997E+02  0.45594000000E+02  0.51100000000E-03 0. -1.
         11   -1    0    0    0    0 -0.00000000000E+00 -0.00000000000E+00 -0.45593999997E+02  0.45594000000E+02  0.51100000000E-03 0.  1.
    9900012    2    1    2    0    0  0.46240190549E+01  0.37033149159E+02  0.22153727865E+02  0.47787270200E+02  0.19999996151E+02 0.  0.
        -12    1    1    2    0    0 -0.46240190549E+01 -0.37033149159E+02 -0.22153727865E+02  0.43400729800E+02  0.00000000000E+00 0.  1.
         11    1    3    3    0    0 -0.32202948474E+01  0.57813147282E+01  0.41436593654E+01  0.78079326385E+01  0.51100000000E-03 0. -1.
        -11    1    3    3    0    0  0.66298090190E+01  0.12469986341E+02  0.28504922873E+00  0.14125727602E+02  0.51100000000E-03 0.  1.
        -12    1    3    3    0    0  0.12145048832E+01  0.18781848090E+02  0.17725019271E+02  0.25853609960E+02  0.00000000000E+00 0.  1.
</event>
<event>
 7    1  0.2935819E-010  0.4778727E+02  0.7816164E-02  0.1312668E+00
        -11   -1    0    0    0    0  0.00000000000E+00  0.00000000000E+00  0.45593999997E+02  0.45594000000E+02  0.51100000000E-03 0.  1.
         11   -1    0    0    0    0 -0.00000000000E+00 -0.00000000000E+00 -0.45593999997E+02  0.45594000000E+02  0.51100000000E-03 0. -1.
    9900012    2    1    2    0    0 -0.22485544787E+01 -0.37446459848E+01 -0.43180377802E+02  0.47787269615E+02  0.19999993484E+02 0.  0.
        -12    1    1    2    0    0  0.22485544787E+01  0.37446459848E+01  0.43180377802E+02  0.43400730385E+02  0.00000000000E+00 0.  1.
         11    1    3    3    0    0 -0.65477944649E+01 -0.88191169201E+00 -0.16263465869E+02  0.17554250281E+02  0.51100000000E-03 0. -1.
        -11    1    3    3    0    0  0.53951576365E+01 -0.36384211307E+01 -0.27848592477E+02  0.28598775105E+02  0.51100000000E-03 0.  1.
        -12    1    3    3    0    0 -0.10959176503E+01  0.77568683790E+00  0.93168054440E+00  0.16342442301E+01  0.00000000000E+00 0.  1.
</event>
<event>
 7    1  0.2935819E-010  0.4778727E+02  0.7816164E-02  0.1312668E+00
        -11   -1    0    0    0    0  0.00000000000E+00  0.00000000000E+00  0.45593999997E+02  0.45594000000E+02  0.51100000000E-03 0. -1.
         11   -1    0    0    0    0 -0.00000000000E+00 -0.00000000000E+00 -0.45593999997E+02  0.45594000000E+02  0.51100000000E-03 0.  1.
    9900012    2    1    2    0    0  0.12036672559E+02 -0.41693039435E+02  0.65746178686E+00  0.47787270978E+02  0.19999999698E+02 0.  0.
        -12    1    1    2    0    0 -0.12036672559E+02  0.41693039435E+02 -0.65746178686E+00  0.43400729022E+02  0.00000000000E+00 0.  1.
         11    1    3    3    0    0  0.24404149616E+01 -0.83288305449E+01  0.20305186443E+01  0.89133635434E+01  0.51100000000E-03 0. -1.
        -11    1    3    3    0    0  0.73057669695E+01 -0.28751993183E+02  0.56159977920E+01  0.30192561575E+02  0.51100000000E-03 0.  1.
        -12    1    3    3    0    0  0.22904906274E+01 -0.46122157074E+01 -0.69890546494E+01  0.86813458599E+01  0.00000000000E+00 0.  1.
</event>
<event>
 7    1  0.2935819E-010  0.4778727E+02  0.7816164E-02  0.1312668E+00
        -11   -1    0    0    0    0  0.00000000000E+00  0.00000000000E+00  0.45593999997E+02  0.45594000000E+02  0.51100000000E-03 0. -1.
         11   -1    0    0    0    0 -0.00000000000E+00 -0.00000000000E+00 -0.45593999997E+02  0.45594000000E+02  0.51100000000E-03 0.  1.
    9900012    2    1    2    0    0  0.30636330698E+02 -0.11487700394E+02  0.28514413197E+02  0.47787265225E+02  0.19999973468E+02 0.  0.
        -12    1    1    2    0    0 -0.30636330698E+02  0.11487700394E+02 -0.28514413197E+02  0.43400734775E+02  0.00000000000E+00 0.  1.
         11    1    3    3    0    0  0.23436602347E+01 -0.47522374976E+01  0.10954429979E+02  0.12168649924E+02  0.51100000000E-03 0. -1.
        -11    1    3    3    0    0  0.23593143870E+02 -0.60964434214E+01  0.18728880692E+02  0.30733923152E+02  0.51100000000E-03 0.  1.
        -12    1    3    3    0    0  0.46995265935E+01 -0.63901947461E+00 -0.11688974741E+01  0.48846921497E+01  0.00000000000E+00 0.  1.
</event>
<event>
 7    1  0.2935819E-010  0.4778727E+02  0.7816164E-02  0.1312668E+00
        -11   -1    0    0    0    0  0.00000000000E+00  0.00000000000E+00  0.45593999997E+02  0.45594000000E+02  0.51100000000E-03 0.  1.
         11   -1    0    0    0    0 -0.00000000000E+00 -0.00000000000E+00 -0.45593999997E+02  0.45594000000E+02  0.51100000000E-03 0. -1.
    9900012    2    1    2    0    0 -0.22953448804E+02  0.24128587944E+01 -0.36755142932E+02  0.47787271532E+02  0.20000002225E+02 0.  0.
        -12    1    1    2    0    0  0.22953448804E+02 -0.24128587944E+01  0.36755142932E+02  0.43400728468E+02  0.00000000000E+00 0.  1.
         11    1    3    3    0    0 -0.16295737116E+02 -0.19044367516E+01 -0.22578804646E+02  0.27910219401E+02  0.51100000000E-03 0. -1.
        -11    1    3    3    0    0 -0.55588264519E+01  0.81689110427E+01 -0.10805396303E+02  0.14642002891E+02  0.51100000000E-03 0.  1.
        -12    1    3    3    0    0 -0.10988852366E+01 -0.38516154967E+01 -0.33709419833E+01  0.52350492407E+01  0.00000000000E+00 0.  1.
</event>
<event>
 7    1  0.2935819E-010  0.4778727E+02  0.7816164E-02  0.1312668E+00
        -11   -1    0    0    0    0  0.00000000000E+00  0.00000000000E+00  0.45593999997E+02  0.45594000000E+02  0.51100000000E-03 0.  1.
         11   -1    0    0    0    0 -0.00000000000E+00 -0.00000000000E+00 -0.45593999997E+02  0.45594000000E+02  0.51100000000E-03 0. -1.
    9900012    2    1    2    0    0  0.23586731261E+02  0.28334723117E+02 -0.22900496999E+02  0.47787272028E+02  0.20000004483E+02 0.  0.
        -12    1    1    2    0    0 -0.23586731261E+02 -0.28334723117E+02  0.22900496999E+02  0.43400727972E+02  0.00000000000E+00 0.  1.
         11    1    3    3    0    0  0.17001736054E+02  0.26678609922E+02 -0.12225836539E+02  0.33915753502E+02  0.51100000000E-03 0. -1.
        -11    1    3    3    0    0  0.73094882258E+01  0.15800697053E+01 -0.74143064328E+01  0.10530772932E+02  0.51100000000E-03 0.  1.
        -12    1    3    3    0    0 -0.72449301834E+00  0.76043489549E-01 -0.32603540267E+01  0.33407455942E+01  0.00000000000E+00 0.  1.
</event>
<event>
 7    1  0.2935819E-010  0.4778727E+02  0.7816164E-02  0.1312668E+00
        -11   -1    0    0    0    0  0.00000000000E+00  0.00000000000E+00  0.45593999997E+02  0.45594000000E+02  0.51100000000E-03 0.  1.
         11   -1    0    0    0    0 -0.00000000000E+00 -0.00000000000E+00 -0.45593999997E+02  0.45594000000E+02  0.51100000000E-03 0. -1.
    9900012    2    1    2    0    0 -0.42508326010E+02 -0.48998704740E+01 -0.72565028802E+01  0.47787270226E+02  0.19999996269E+02 0.  0.
        -12    1    1    2    0    0  0.42508326010E+02  0.48998704740E+01  0.72565028802E+01  0.43400729774E+02  0.00000000000E+00 0.  1.
         11    1    3    3    0    0 -0.70477675859E+01 -0.82497301764E+01 -0.15169512754E+01  0.10955830291E+02  0.51100000000E-03 0. -1.
        -11    1    3    3    0    0 -0.32591071770E+02  0.18996596621E+01 -0.33343673713E+01  0.32816225743E+02  0.51100000000E-03 0.  1.
        -12    1    3    3    0    0 -0.28694866539E+01  0.14502000403E+01 -0.24051842335E+01  0.40152141923E+01  0.00000000000E+00 0.  1.
</event>
<event>
 7    1  0.2935819E-010  0.4778727E+02  0.7816164E-02  0.1312668E+00
        -11   -1    0    0    0    0  0.00000000000E+00  0.00000000000E+00  0.45593999997E+02  0.45594000000E+02  0.51100000000E-03 0.  1.
         11   -1    0    0    0    0 -0.00000000000E+00 -0.00000000000E+00 -0.45593999997E+02  0.45594000000E+02  0.51100000000E-03 0. -1.
    9900012    2    1    2    0    0  0.12507601914E+02  0.34556096830E+02 -0.23088075379E+02  0.47787272374E+02  0.20000006062E+02 0.  0.
        -12    1    1    2    0    0 -0.12507601914E+02 -0.34556096830E+02  0.23088075379E+02  0.43400727626E+02  0.00000000000E+00 0.  1.
         11    1    3    3    0    0  0.56223231312E+01  0.81611403596E+01 -0.95653174613E+01  0.13773526337E+02  0.51100000000E-03 0. -1.
        -11    1    3    3    0    0  0.42046507875E+00  0.24372842787E+02 -0.96975549770E+01  0.26234611283E+02  0.51100000000E-03 0.  1.
        -12    1    3    3    0    0  0.64648137042E+01  0.20221136837E+01 -0.38252029407E+01  0.77791347537E+01  0.00000000000E+00 0.  1.
</event>
<event>
 7    1  0.2935819E-010  0.4778727E+02  0.7816164E-02  0.1312668E+00
        -11   -1    0    0    0    0  0.00000000000E+00  0.00000000000E+00  0.45593999997E+02  0.45594000000E+02  0.51100000000E-03 0. -1.
         11   -1    0    0    0    0 -0.00000000000E+00 -0.00000000000E+00 -0.45593999997E+02  0.45594000000E+02  0.51100000000E-03 0.  1.
    9900012    2    1    2    0    0 -0.30254952721E+02 -0.25664247382E+01  0.31010882101E+02  0.47787268338E+02  0.19999987661E+02 0.  0.
        -12    1    1    2    0    0  0.30254952721E+02  0.25664247382E+01 -0.31010882101E+02  0.43400731662E+02  0.00000000000E+00 0.  1.
         11    1    3    3    0    0 -0.11914010526E+02  0.36058260090E+01  0.17891431015E+02  0.21795617266E+02  0.51100000000E-03 0. -1.
        -11    1    3    3    0    0 -0.66795998019E+01 -0.80053015067E+01  0.79185191990E+01  0.13092167593E+02  0.51100000000E-03 0.  1.
        -12    1    3    3    0    0 -0.11661342394E+02  0.18330507595E+01  0.52009318872E+01  0.12899483478E+02  0.00000000000E+00 0.  1.
</event>
<event>
 7    1  0.2935819E-010  0.4778727E+02  0.7816164E-02  0.1312668E+00
        -11   -1    0    0    0    0  0.00000000000E+00  0.00000000000E+00  0.45593999997E+02  0.45594000000E+02  0.51100000000E-03 0. -1.
         11   -1    0    0    0    0 -0.00000000000E+00 -0.00000000000E+00 -0.45593999997E+02  0.45594000000E+02  0.51100000000E-03 0.  1.
    9900012    2    1    2    0    0 -0.36261350467E+02  0.18589199068E+02 -0.14939193131E+02  0.47787270154E+02  0.19999995942E+02 0.  0.
        -12    1    1    2    0    0  0.36261350467E+02 -0.18589199068E+02  0.14939193131E+02  0.43400729846E+02  0.00000000000E+00 0.  1.
         11    1    3    3    0    0 -0.80921388336E+01  0.49653167585E+01 -0.11064046014E+02  0.14579101340E+02  0.51100000000E-03 0. -1.
        -11    1    3    3    0    0 -0.59027249340E+01  0.78956323613E+01  0.19033932103E+00  0.98599899264E+01  0.51100000000E-03 0.  1.
         12    1    3    3    0    0 -0.22266486700E+02  0.57282499484E+01 -0.40654864385E+01  0.23348178888E+02  0.00000000000E+00 0. -1.
</event>
<event>
 7    1  0.2935819E-010  0.4778727E+02  0.7816164E-02  0.1312668E+00
        -11   -1    0    0    0    0  0.00000000000E+00  0.00000000000E+00  0.45593999997E+02  0.45594000000E+02  0.51100000000E-03 0.  1.
         11   -1    0    0    0    0 -0.00000000000E+00 -0.00000000000E+00 -0.45593999997E+02  0.45594000000E+02  0.51100000000E-03 0. -1.
    9900012    2    1    2    0    0  0.42666927553E+02  0.56911257646E+01  0.55468594896E+01  0.47787271095E+02  0.20000000230E+02 0.  0.
        -12    1    1    2    0    0 -0.42666927553E+02 -0.56911257646E+01 -0.55468594896E+01  0.43400728905E+02  0.00000000000E+00 0.  1.
         11    1    3    3    0    0  0.18003274068E+02 -0.41635558023E+01 -0.46676182075E+01  0.19058849232E+02  0.51100000000E-03 0. -1.
        -11    1    3    3    0    0  0.35559374186E+01  0.18274940841E+01  0.13981300816E+00  0.40004966555E+01  0.51100000000E-03 0.  1.
         12    1    3    3    0    0  0.21107716067E+02  0.80271874829E+01  0.10074664689E+02  0.24727925207E+02  0.00000000000E+00 0. -1.
</event>
<event>
 7    1  0.2935819E-010  0.4778727E+02  0.7816164E-02  0.1312668E+00
        -11   -1    0    0    0    0  0.00000000000E+00  0.00000000000E+00  0.45593999997E+02  0.45594000000E+02  0.51100000000E-03 0.  1.
         11   -1    0    0    0    0 -0.00000000000E+00 -0.00000000000E+00 -0.45593999997E+02  0.45594000000E+02  0.51100000000E-03 0. -1.
    9900012    2    1    2    0    0 -0.78811450054E+01  0.41359386329E+02 -0.10531464513E+02  0.47787273866E+02  0.20000012866E+02 0.  0.
        -12    1    1    2    0    0  0.78811450054E+01 -0.41359386329E+02  0.10531464513E+02  0.43400726134E+02  0.00000000000E+00 0.  1.
         11    1    3    3    0    0 -0.10332108708E+02  0.26978147643E+02 -0.61823163533E+01  0.29543086439E+02  0.51100000000E-03 0. -1.
        -11    1    3    3    0    0 -0.35316989801E+01  0.27757994540E+01 -0.22353646821E+01  0.50174511276E+01  0.51100000000E-03 0.  1.
         12    1    3    3    0    0  0.59826626826E+01  0.11605439232E+02 -0.21137834778E+01  0.13226736299E+02  0.00000000000E+00 0. -1.
</event>
<event>
 7    1  0.2935819E-010  0.4778727E+02  0.7816164E-02  0.1312668E+00
        -11   -1    0    0    0    0  0.00000000000E+00  0.00000000000E+00  0.45593999997E+02  0.45594000000E+02  0.51100000000E-03 0. -1.
         11   -1    0    0    0    0 -0.00000000000E+00 -0.00000000000E+00 -0.45593999997E+02  0.45594000000E+02  0.51100000000E-03 0.  1.
    9900012    2    1    2    0    0 -0.92828225379E+01  0.37484657591E+02 -0.19807906149E+02  0.47787268498E+02  0.19999988388E+02 0.  0.
        -12    1    1    2    0    0  0.92828225379E+01 -0.37484657591E+02  0.19807906149E+02  0.43400731502E+02  0.00000000000E+00 0.  1.
         11    1    3    3    0    0 -0.98290960795E+01  0.31137006992E+02 -0.15773979553E+02  0.36262139559E+02  0.51100000000E-03 0. -1.
        -11    1    3    3    0    0  0.35125290223E+01  0.67207324899E+01 -0.39123572098E+01  0.85330325519E+01  0.51100000000E-03 0.  1.
         12    1    3    3    0    0 -0.29662554807E+01 -0.37308189128E+00 -0.12156938555E+00  0.29920963871E+01  0.00000000000E+00 0. -1.
</event>
<event>
 7    1  0.2935819E-010  0.4778727E+02  0.7816164E-02  0.1312668E+00
        -11   -1    0    0    0    0  0.00000000000E+00  0.00000000000E+00  0.45593999997E+02  0.45594000000E+02  0.51100000000E-03 0.  1.
         11   -1    0    0    0    0 -0.00000000000E+00 -0.00000000000E+00 -0.45593999997E+02  0.45594000000E+02  0.51100000000E-03 0. -1.
    9900012    2    1    2    0    0  0.24965755118E+02 -0.32639347854E+02 -0.13964494118E+02  0.47787273590E+02  0.20000011606E+02 0.  0.
        -12    1    1    2    0    0 -0.24965755118E+02  0.32639347854E+02  0.13964494118E+02  0.43400726410E+02  0.00000000000E+00 0.  1.
         11    1    3    3    0    0  0.47350747647E+01  0.16395753503E+01 -0.33834217040E+00  0.50223118225E+01  0.51100000000E-03 0. -1.
        -11    1    3    3    0    0  0.10402345176E+01 -0.83607341519E+00  0.84667697303E+00  0.15804963666E+01  0.51100000000E-03 0.  1.
         12    1    3    3    0    0  0.19190445835E+02 -0.33442849789E+02 -0.14472828921E+02  0.41184465401E+02  0.00000000000E+00 0. -1.
</event>
<event>
 7    1  0.2935819E-010  0.4778728E+02  0.7816164E-02  0.1312668E+00
        -11   -1    0    0    0    0  0.00000000000E+00  0.00000000000E+00  0.45593999997E+02  0.45594000000E+02  0.51100000000E-03 0. -1.
         11   -1    0    0    0    0 -0.00000000000E+00 -0.00000000000E+00 -0.45593999997E+02  0.45594000000E+02  0.51100000000E-03 0.  1.
    9900012    2    1    2    0    0 -0.23270634151E+02  0.15350076813E+02  0.33263725316E+02  0.47787277727E+02  0.20000030467E+02 0.  0.
        -12    1    1    2    0    0  0.23270634151E+02 -0.15350076813E+02 -0.33263725316E+02  0.43400722273E+02  0.00000000000E+00 0.  1.
         11    1    3    3    0    0 -0.81668268055E+01  0.90677243179E+01  0.15750284534E+02  0.19924661793E+02  0.51100000000E-03 0. -1.
        -11    1    3    3    0    0 -0.23211915816E+01  0.53421372571E+01 -0.39736157988E+00  0.58381724297E+01  0.51100000000E-03 0.  1.
        -12    1    3    3    0    0 -0.12782615763E+02  0.94021523835E+00  0.17910802361E+02  0.22024443504E+02  0.00000000000E+00 0.  1.
</event>
<event>
 7    1  0.2935819E-010  0.4778728E+02  0.7816164E-02  0.1312668E+00
        -11   -1    0    0    0    0  0.00000000000E+00  0.00000000000E+00  0.45593999997E+02  0.45594000000E+02  0.51100000000E-03 0.  1.
         11   -1    0    0    0    0 -0.00000000000E+00 -0.00000000000E+00 -0.45593999997E+02  0.45594000000E+02  0.51100000000E-03 0. -1.
    9900012    2    1    2    0    0  0.20096960732E+01  0.25144727794E+01 -0.43281185623E+02  0.47787280183E+02  0.20000041668E+02 0.  0.
        -12    1    1    2    0    0 -0.20096960732E+01 -0.25144727794E+01  0.43281185623E+02  0.43400719817E+02  0.00000000000E+00 0.  1.
         11    1    3    3    0    0 -0.53302048913E+01  0.21724290775E+01 -0.34630682405E+02  0.35105764432E+02  0.51100000000E-03 0. -1.
        -11    1    3    3    0    0  0.68134637910E+01  0.10822346763E+01 -0.40660556869E+01  0.80079541604E+01  0.51100000000E-03 0.  1.
         12    1    3    3    0    0  0.52643717343E+00 -0.74019097433E+00 -0.45844475310E+01  0.46735615905E+01  0.00000000000E+00 0. -1.
</event>
<event>
 7    1  0.2935819E-010  0.4778727E+02  0.7816164E-02  0.1312668E+00
        -11   -1    0    0    0    0  0.00000000000E+00  0.00000000000E+00  0.45593999997E+02  0.45594000000E+02  0.51100000000E-03 0.  1.
         11   -1    0    0    0    0 -0.00000000000E+00 -0.00000000000E+00 -0.45593999997E+02  0.45594000000E+02  0.51100000000E-03 0. -1.
    9900012    2    1    2    0    0  0.18789525465E+02 -0.38938321354E+02  0.37926491756E+01  0.47787270457E+02  0.19999997323E+02 0.  0.
        -12    1    1    2    0    0 -0.18789525465E+02  0.38938321354E+02 -0.37926491756E+01  0.43400729543E+02  0.00000000000E+00 0.  1.
         11    1    3    3    0    0 -0.32644412664E+01 -0.99309038379E+01  0.66429380042E+00  0.10474765598E+02  0.51100000000E-03 0. -1.
        -11    1    3    3    0    0  0.11558631622E+02 -0.19555067309E+02  0.43750787398E+01  0.23133178266E+02  0.51100000000E-03 0.  1.
         12    1    3    3    0    0  0.10495335110E+02 -0.94523502069E+01 -0.12467233647E+01  0.14179326594E+02  0.00000000000E+00 0. -1.
</event>
<event>
 7    1  0.2935819E-010  0.4778727E+02  0.7816164E-02  0.1312668E+00
        -11   -1    0    0    0    0  0.00000000000E+00  0.00000000000E+00  0.45593999997E+02  0.45594000000E+02  0.51100000000E-03 0.  1.
         11   -1    0    0    0    0 -0.00000000000E+00 -0.00000000000E+00 -0.45593999997E+02  0.45594000000E+02  0.51100000000E-03 0. -1.
    9900012    2    1    2    0    0 -0.12259310042E+02 -0.14960721687E+02 -0.38852405328E+02  0.47787271022E+02  0.19999999896E+02 0.  0.
        -12    1    1    2    0    0  0.12259310042E+02  0.14960721687E+02  0.38852405328E+02  0.43400728978E+02  0.00000000000E+00 0.  1.
         11    1    3    3    0    0 -0.66375412901E+01 -0.26293507680E+01 -0.11760461528E+02  0.13757866675E+02  0.51100000000E-03 0. -1.
        -11    1    3    3    0    0 -0.54302234302E+01 -0.85144636644E+01 -0.43960954234E+01  0.11014039823E+02  0.51100000000E-03 0.  1.
        -12    1    3    3    0    0 -0.19154532127E+00 -0.38169072543E+01 -0.22695848377E+02  0.23015364523E+02  0.00000000000E+00 0.  1.
</event>
<event>
 7    1  0.2935819E-010  0.4778728E+02  0.7816164E-02  0.1312668E+00
        -11   -1    0    0    0    0  0.00000000000E+00  0.00000000000E+00  0.45593999997E+02  0.45594000000E+02  0.51100000000E-03 0. -1.
         11   -1    0    0    0    0 -0.00000000000E+00 -0.00000000000E+00 -0.45593999997E+02  0.45594000000E+02  0.51100000000E-03 0.  1.
    9900012    2    1    2    0    0  0.10173748961E+02 -0.36399467167E+02  0.21335329850E+02  0.47787277912E+02  0.20000031312E+02 0.  0.
        -12    1    1    2    0    0 -0.10173748961E+02  0.36399467167E+02 -0.21335329850E+02  0.43400722088E+02  0.00000000000E+00 0.  1.
         11    1    3    3    0    0 -0.45859507498E+01 -0.16935303874E+02  0.89704492783E+01  0.19705441434E+02  0.51100000000E-03 0. -1.
        -11    1    3    3    0    0  0.12911551231E+02 -0.18119821349E+02  0.12921872667E+02  0.25729571982E+02  0.51100000000E-03 0.  1.
         12    1    3    3    0    0  0.18481484796E+01 -0.13443419441E+01 -0.55699209557E+00  0.23522644961E+01  0.00000000000E+00 0. -1.
</event>
<event>
 7    1  0.2935819E-010  0.4778727E+02  0.7816164E-02  0.1312668E+00
        -11   -1    0    0    0    0  0.00000000000E+00  0.00000000000E+00  0.45593999997E+02  0.45594000000E+02  0.51100000000E-03 0.  1.
         11   -1    0    0    0    0 -0.00000000000E+00 -0.00000000000E+00 -0.45593999997E+02  0.45594000000E+02  0.51100000000E-03 0. -1.
    9900012    2    1    2    0    0  0.28775378160E+02 -0.27810569071E+02  0.16798020606E+02  0.47787266866E+02  0.19999980948E+02 0.  0.
        -12    1    1    2    0    0 -0.28775378160E+02  0.27810569071E+02 -0.16798020606E+02  0.43400733134E+02  0.00000000000E+00 0.  1.
         11    1    3    3    0    0  0.19203950571E+02 -0.29136853528E+02  0.11980020413E+02  0.36895376952E+02  0.51100000000E-03 0. -1.
        -11    1    3    3    0    0  0.50632825787E+01  0.10206591585E+01  0.18530481549E+01  0.54874733088E+01  0.51100000000E-03 0.  1.
         12    1    3    3    0    0  0.45081450103E+01  0.30562529831E+00  0.29649520382E+01  0.54044166054E+01  0.00000000000E+00 0. -1.
</event>
<event>
 7    1  0.2935819E-010  0.4778727E+02  0.7816164E-02  0.1312668E+00
        -11   -1    0    0    0    0  0.00000000000E+00  0.00000000000E+00  0.45593999997E+02  0.45594000000E+02  0.51100000000E-03 0.  1.
         11   -1    0    0    0    0 -0.00000000000E+00 -0.00000000000E+00 -0.45593999997E+02  0.45594000000E+02  0.51100000000E-03 0. -1.
    9900012    2    1    2    0    0  0.17674821964E+01  0.13131556830E+02 -0.41328701883E+02  0.47787269851E+02  0.19999994559E+02 0.  0.
        -12    1    1    2    0    0 -0.17674821964E+01 -0.13131556830E+02  0.41328701883E+02  0.43400730149E+02  0.00000000000E+00 0.  1.
         11    1    3    3    0    0 -0.15641740265E+01  0.13725115250E+02 -0.14892555085E+02  0.20312893104E+02  0.51100000000E-03 0. -1.
        -11    1    3    3    0    0  0.63080890225E+00 -0.15935728108E+01 -0.22662775871E+02  0.22727490064E+02  0.51100000000E-03 0.  1.
        -12    1    3    3    0    0  0.27008473206E+01  0.10000143909E+01 -0.37733709265E+01  0.47468866829E+01  0.00000000000E+00 0.  1.
</event>
<event>
 7    1  0.2935819E-010  0.4778728E+02  0.7816164E-02  0.1312668E+00
        -11   -1    0    0    0    0  0.00000000000E+00  0.00000000000E+00  0.45593999997E+02  0.45594000000E+02  0.51100000000E-03 0.  1.
         11   -1    0    0    0    0 -0.00000000000E+00 -0.00000000000E+00 -0.45593999997E+02  0.45594000000E+02  0.51100000000E-03 0. -1.
    9900012    2    1    2    0    0 -0.13922106722E+02  0.33337712321E+02  0.24049834127E+02  0.47787278347E+02  0.20000033297E+02 0.  0.
        -12    1    1    2    0    0  0.13922106722E+02 -0.33337712321E+02 -0.24049834127E+02  0.43400721653E+02  0.00000000000E+00 0.  1.
         11    1    3    3    0    0 -0.43858323903E+01  0.44940435674E+01  0.27802854928E+01  0.68674552073E+01  0.51100000000E-03 0. -1.
        -11    1    3    3    0    0 -0.73881136399E+01  0.22730291718E+02  0.64657358297E+01  0.24759970210E+02  0.51100000000E-03 0.  1.
        -12    1    3    3    0    0 -0.21481606922E+01  0.61133770360E+01  0.14803812805E+02  0.16159852930E+02  0.00000000000E+00 0.  1.
</event>
<event>
 7    1  0.2935819E-010  0.4778727E+02  0.7816164E-02  0.1312668E+00
        -11   -1    0    0    0    0  0.00000000000E+00  0.00000000000E+00  0.45593999997E+02  0.45594000000E+02  0.51100000000E-03 0.  1.
         11   -1    0    0    0    0 -0.00000000000E+00 -0.00000000000E+00 -0.45593999997E+02  0.45594000000E+02  0.51100000000E-03 0. -1.
    9900012    2    1    2    0    0  0.13490950751E+02  0.39248680309E+02 -0.12694824300E+02  0.47787271640E+02  0.20000002715E+02 0.  0.
        -12    1    1    2    0    0 -0.13490950751E+02 -0.39248680309E+02  0.12694824300E+02  0.43400728360E+02  0.00000000000E+00 0.  1.
         11    1    3    3    0    0  0.11387505064E+02  0.19842149509E+02 -0.37603878700E+01  0.23184621755E+02  0.51100000000E-03 0. -1.
        -11    1    3    3    0    0 -0.20600807184E+01  0.37197365856E+01 -0.70912660366E+01  0.82683993067E+01  0.51100000000E-03 0.  1.
         12    1    3    3    0    0  0.41635264054E+01  0.15686794214E+02 -0.18431703935E+01  0.16334250578E+02  0.00000000000E+00 0. -1.
</event>
<event>
 7    1  0.2935819E-010  0.4778727E+02  0.7816164E-02  0.1312668E+00
        -11   -1    0    0    0    0  0.00000000000E+00  0.00000000000E+00  0.45593999997E+02  0.45594000000E+02  0.51100000000E-03 0.  1.
         11   -1    0    0    0    0 -0.00000000000E+00 -0.00000000000E+00 -0.45593999997E+02  0.45594000000E+02  0.51100000000E-03 0. -1.
    9900012    2    1    2    0    0  0.18047107429E+02  0.38622697484E+02 -0.81371009805E+01  0.47787271206E+02  0.20000000738E+02 0.  0.
        -12    1    1    2    0    0 -0.18047107429E+02 -0.38622697484E+02  0.81371009805E+01  0.43400728794E+02  0.00000000000E+00 0.  1.
         11    1    3    3    0    0  0.13522513147E+02  0.30762935129E+02 -0.51542248370E+00  0.33607769938E+02  0.51100000000E-03 0. -1.
        -11    1    3    3    0    0  0.28744782705E+01  0.92452519131E+01 -0.69657410066E+01  0.11927231711E+02  0.51100000000E-03 0.  1.
         12    1    3    3    0    0  0.16501160111E+01 -0.13854895588E+01 -0.65593749023E+00  0.22522695573E+01  0.00000000000E+00 0. -1.
</event>
<event>
 7    1  0.2935819E-010  0.4778728E+02  0.7816164E-02  0.1312668E+00
        -11   -1    0    0    0    0  0.00000000000E+00  0.00000000000E+00  0.45593999997E+02  0.45594000000E+02  0.51100000000E-03 0.  1.
         11   -1    0    0    0    0 -0.00000000000E+00 -0.00000000000E+00 -0.45593999997E+02  0.45594000000E+02  0.51100000000E-03 0. -1.
    9900012    2    1    2    0    0 -0.10563235103E+02  0.25426637643E+02 -0.33548870937E+02  0.47787279052E+02  0.20000036510E+02 0.  0.
        -12    1    1    2    0    0  0.10563235103E+02 -0.25426637643E+02  0.33548870937E+02  0.43400720948E+02  0.00000000000E+00 0.  1.
         11    1    3    3    0    0  0.50726334272E+01  0.21784827878E+01 -0.66377340440E+01  0.86334761622E+01  0.51100000000E-03 0. -1.
        -11    1    3    3    0    0 -0.88977211388E+01  0.11240972018E+02 -0.10726956352E+02  0.17905208354E+02  0.51100000000E-03 0.  1.
         12    1    3    3    0    0 -0.67381473919E+01  0.12007182837E+02 -0.16184180541E+02  0.21248594536E+02  0.00000000000E+00 0. -1.
</event>
<event>
 7    1  0.2935819E-010  0.4778727E+02  0.7816164E-02  0.1312668E+00
        -11   -1    0    0    0    0  0.00000000000E+00  0.00000000000E+00  0.45593999997E+02  0.45594000000E+02  0.51100000000E-03 0.  1.
         11   -1    0    0    0    0 -0.00000000000E+00 -0.00000000000E+00 -0.45593999997E+02  0.45594000000E+02  0.51100000000E-03 0. -1.
    9900012    2    1    2    0    0 -0.26601336874E+02  0.23355742433E+02 -0.25109786444E+02  0.47787271857E+02  0.20000003704E+02 0.  0.
        -12    1    1    2    0    0  0.26601336874E+02 -0.23355742433E+02  0.25109786444E+02  0.43400728143E+02  0.00000000000E+00 0.  1.
         11    1    3    3    0    0 -0.44291199323E+01  0.33350063705E+01 -0.63241154434E+01  0.84103393076E+01  0.51100000000E-03 0. -1.
        -11    1    3    3    0    0 -0.14584343517E+02  0.22214375501E+02 -0.12983203808E+02  0.29576090615E+02  0.51100000000E-03 0.  1.
        -12    1    3    3    0    0 -0.75878734242E+01 -0.21936394379E+01 -0.58024671932E+01  0.98008419339E+01  0.00000000000E+00 0.  1.
</event>
<event>
 7    1  0.2935819E-010  0.4778727E+02  0.7816164E-02  0.1312668E+00
        -11   -1    0    0    0    0  0.00000000000E+00  0.00000000000E+00  0.45593999997E+02  0.45594000000E+02  0.51100000000E-03 0. -1.
         11   -1    0    0    0    0 -0.00000000000E+00 -0.00000000000E+00 -0.45593999997E+02  0.45594000000E+02  0.51100000000E-03 0.  1.
    9900012    2    1    2    0    0 -0.11267361057E+02  0.41617264682E+02 -0.49671761102E+01  0.47787274392E+02  0.20000015263E+02 0.  0.
        -12    1    1    2    0    0  0.11267361057E+02 -0.41617264682E+02  0.49671761102E+01  0.43400725608E+02  0.00000000000E+00 0.  1.
         11    1    3    3    0    0 -0.90646799626E+01  0.37253522533E+02 -0.45525073962E+01  0.38609826311E+02  0.51100000000E-03 0. -1.
        -11    1    3    3    0    0 -0.26959111403E+01  0.65675223380E+00  0.30190601995E+01  0.41004859617E+01  0.51100000000E-03 0.  1.
        -12    1    3    3    0    0  0.49323004542E+00  0.37069899148E+01 -0.34337289135E+01  0.50769621189E+01  0.00000000000E+00 0.  1.
</event>
<event>
 7    1  0.2935819E-010  0.4778724E+02  0.7816164E-02  0.1312668E+00
        -11   -1    0    0    0    0  0.00000000000E+00  0.00000000000E+00  0.45593999997E+02  0.45594000000E+02  0.51100000000E-03 0.  1.
         11   -1    0    0    0    0 -0.00000000000E+00 -0.00000000000E+00 -0.45593999997E+02  0.45594000000E+02  0.51100000000E-03 0. -1.
    9900012    2    1    2    0    0  0.32640679852E+01  0.40206569533E+02  0.16012606967E+02  0.47787240153E+02  0.19999859154E+02 0.  0.
        -12    1    1    2    0    0 -0.32640679852E+01 -0.40206569533E+02 -0.16012606967E+02  0.43400759847E+02  0.00000000000E+00 0.  1.
         11    1    3    3    0    0 -0.28937424983E+01  0.82934675525E+01  0.10295608569E+02  0.13533473529E+02  0.51100000000E-03 0. -1.
        -11    1    3    3    0    0  0.82320006804E+01  0.19173838466E+02  0.35418731632E+01  0.21164753305E+02  0.51100000000E-03 0.  1.
         12    1    3    3    0    0 -0.20741901970E+01  0.12739263515E+02  0.21751252341E+01  0.13089013319E+02  0.00000000000E+00 0. -1.
</event>
<event>
 7    1  0.2935819E-010  0.4778727E+02  0.7816164E-02  0.1312668E+00
        -11   -1    0    0    0    0  0.00000000000E+00  0.00000000000E+00  0.45593999997E+02  0.45594000000E+02  0.51100000000E-03 0. -1.
         11   -1    0    0    0    0 -0.00000000000E+00 -0.00000000000E+00 -0.45593999997E+02  0.45594000000E+02  0.51100000000E-03 0.  1.
    9900012    2    1    2    0    0 -0.28086306339E+02 -0.10665062872E+02  0.31321546912E+02  0.47787268776E+02  0.19999989656E+02 0.  0.
        -12    1    1    2    0    0  0.28086306339E+02  0.10665062872E+02 -0.31321546912E+02  0.43400731224E+02  0.00000000000E+00 0.  1.
         11    1    3    3    0    0 -0.42603712134E+01 -0.24661566145E+01  0.37411218900E+01  0.61829349487E+01  0.51100000000E-03 0. -1.
        -11    1    3    3    0    0 -0.21180496711E+02 -0.13160594894E+02  0.25339275162E+02  0.35551280777E+02  0.51100000000E-03 0.  1.
        -12    1    3    3    0    0 -0.26454384142E+01  0.49616886365E+01  0.22411498600E+01  0.60530530498E+01  0.00000000000E+00 0.  1.
</event>
<event>
 7    1  0.2935819E-010  0.4778722E+02  0.7816164E-02  0.1312668E+00
        -11   -1    0    0    0    0  0.00000000000E+00  0.00000000000E+00  0.45593999997E+02  0.45594000000E+02  0.51100000000E-03 0.  1.
         11   -1    0    0    0    0 -0.00000000000E+00 -0.00000000000E+00 -0.45593999997E+02  0.45594000000E+02  0.51100000000E-03 0. -1.
    9900012    2    1    2    0    0  0.25545547083E+02  0.22145065649E+02 -0.27214862220E+02  0.47787220813E+02  0.19999770974E+02 0.  0.
        -12    1    1    2    0    0 -0.25545547083E+02 -0.22145065649E+02  0.27214862220E+02  0.43400779187E+02  0.00000000000E+00 0.  1.
         11    1    3    3    0    0  0.71350144256E+01  0.16061736757E+02 -0.20721996960E+02  0.27171473585E+02  0.51100000000E-03 0. -1.
        -11    1    3    3    0    0  0.73383532551E+01  0.11901949614E+01 -0.29996558707E+01  0.80166032799E+01  0.51100000000E-03 0.  1.
         12    1    3    3    0    0  0.11072179403E+02  0.48931339301E+01 -0.34932093891E+01  0.12599143948E+02  0.00000000000E+00 0. -1.
</event>
<event>
 7    1  0.2935819E-010  0.4778727E+02  0.7816164E-02  0.1312668E+00
        -11   -1    0    0    0    0  0.00000000000E+00  0.00000000000E+00  0.45593999997E+02  0.45594000000E+02  0.51100000000E-03 0.  1.
         11   -1    0    0    0    0 -0.00000000000E+00 -0.00000000000E+00 -0.45593999997E+02  0.45594000000E+02  0.51100000000E-03 0. -1.
    9900012    2    1    2    0    0 -0.11136867929E+02  0.36872364501E+02 -0.20000549607E+02  0.47787273327E+02  0.20000010407E+02 0.  0.
        -12    1    1    2    0    0  0.11136867929E+02 -0.36872364501E+02  0.20000549607E+02  0.43400726673E+02  0.00000000000E+00 0.  1.
         11    1    3    3    0    0 -0.72838792490E+01  0.29138920175E+01 -0.69767994594E+00  0.78760663514E+01  0.51100000000E-03 0. -1.
        -11    1    3    3    0    0 -0.43302013039E+01  0.94432819215E+01 -0.50699589775E+01  0.11559874613E+02  0.51100000000E-03 0.  1.
         12    1    3    3    0    0  0.47721262425E+00  0.24515190562E+02 -0.14232910684E+02  0.28351332362E+02  0.00000000000E+00 0. -1.
</event>
<event>
 7    1  0.2935819E-010  0.4778726E+02  0.7816164E-02  0.1312668E+00
        -11   -1    0    0    0    0  0.00000000000E+00  0.00000000000E+00  0.45593999997E+02  0.45594000000E+02  0.51100000000E-03 0.  1.
         11   -1    0    0    0    0 -0.00000000000E+00 -0.00000000000E+00 -0.45593999997E+02  0.45594000000E+02  0.51100000000E-03 0. -1.
    9900012    2    1    2    0    0 -0.40881812719E+02  0.24090573250E+01 -0.14370028691E+02  0.47787263913E+02  0.19999967483E+02 0.  0.
        -12    1    1    2    0    0  0.40881812719E+02 -0.24090573250E+01  0.14370028691E+02  0.43400736087E+02  0.00000000000E+00 0.  1.
         11    1    3    3    0    0 -0.27482282600E+02 -0.64421317541E+01 -0.98056863075E+01  0.29881907614E+02  0.51100000000E-03 0. -1.
        -11    1    3    3    0    0 -0.10397037351E+02  0.91527834605E+01 -0.52456905096E+01  0.14811789222E+02  0.51100000000E-03 0.  1.
        -12    1    3    3    0    0 -0.30024927673E+01 -0.30159438134E+00  0.68134812651E+00  0.30935670767E+01  0.00000000000E+00 0.  1.
</event>
<event>
 7    1  0.2935819E-010  0.4778726E+02  0.7816164E-02  0.1312668E+00
        -11   -1    0    0    0    0  0.00000000000E+00  0.00000000000E+00  0.45593999997E+02  0.45594000000E+02  0.51100000000E-03 0.  1.
         11   -1    0    0    0    0 -0.00000000000E+00 -0.00000000000E+00 -0.45593999997E+02  0.45594000000E+02  0.51100000000E-03 0. -1.
    9900012    2    1    2    0    0  0.42114798429E+02  0.66480524268E+01 -0.81099583215E+01  0.47787259548E+02  0.19999947584E+02 0.  0.
        -12    1    1    2    0    0 -0.42114798429E+02 -0.66480524268E+01  0.81099583215E+01  0.43400740452E+02  0.00000000000E+00 0.  1.
         11    1    3    3    0    0  0.23319846359E+02  0.38765683847E+01 -0.44212879245E+01  0.24049756835E+02  0.51100000000E-03 0. -1.
        -11    1    3    3    0    0  0.46546381345E+01 -0.63291571116E+00  0.49475403797E+01  0.68223452369E+01  0.51100000000E-03 0.  1.
        -12    1    3    3    0    0  0.14140313936E+02  0.34043997533E+01 -0.86362107767E+01  0.16915157477E+02  0.00000000000E+00 0.  1.
</event>
<event>
 7    1  0.2935819E-010  0.4778727E+02  0.7816164E-02  0.1312668E+00
        -11   -1    0    0    0    0  0.00000000000E+00  0.00000000000E+00  0.45593999997E+02  0.45594000000E+02  0.51100000000E-03 0. -1.
         11   -1    0    0    0    0 -0.00000000000E+00 -0.00000000000E+00 -0.45593999997E+02  0.45594000000E+02  0.51100000000E-03 0.  1.
    9900012    2    1    2    0    0  0.54670959383E+01  0.38812067313E+02  0.18637534378E+02  0.47787269652E+02  0.19999993650E+02 0.  0.
        -12    1    1    2    0    0 -0.54670959383E+01 -0.38812067313E+02 -0.18637534378E+02  0.43400730348E+02  0.00000000000E+00 0.  1.
         11    1    3    3    0    0  0.19097044029E+00 -0.55664250346E+00  0.49267609505E+00  0.76749630714E+00  0.51100000000E-03 0. -1.
        -11    1    3    3    0    0  0.11512345362E+02  0.26798887406E+02  0.10226016226E+02  0.30907699203E+02  0.51100000000E-03 0.  1.
        -12    1    3    3    0    0 -0.62362198636E+01  0.12569822410E+02  0.79188420573E+01  0.16112074142E+02  0.00000000000E+00 0.  1.
</event>
<event>
 7    1  0.2935819E-010  0.4778727E+02  0.7816164E-02  0.1312668E+00
        -11   -1    0    0    0    0  0.00000000000E+00  0.00000000000E+00  0.45593999997E+02  0.45594000000E+02  0.51100000000E-03 0. -1.
         11   -1    0    0    0    0 -0.00000000000E+00 -0.00000000000E+00 -0.45593999997E+02  0.45594000000E+02  0.51100000000E-03 0.  1.
    9900012    2    1    2    0    0 -0.42232405684E+02  0.26997858823E+01 -0.96311354322E+01  0.47787266096E+02  0.19999977439E+02 0.  0.
        -12    1    1    2    0    0  0.42232405684E+02 -0.26997858823E+01  0.96311354322E+01  0.43400733904E+02  0.00000000000E+00 0.  1.
         11    1    3    3    0    0 -0.14222953007E+02 -0.74849963171E+01 -0.77866269087E+00  0.16091111768E+02  0.51100000000E-03 0.  1.
        -11    1    3    3    0    0 -0.18713901971E+02  0.78829326905E+01 -0.31464156060E+01  0.20548739285E+02  0.51100000000E-03 0. -1.
        -12    1    3    3    0    0 -0.92955507071E+01  0.23018495088E+01 -0.57060571354E+01  0.11147415043E+02  0.00000000000E+00 0.  1.
</event>
<event>
 7    1  0.2935819E-010  0.4778727E+02  0.7816164E-02  0.1312668E+00
        -11   -1    0    0    0    0  0.00000000000E+00  0.00000000000E+00  0.45593999997E+02  0.45594000000E+02  0.51100000000E-03 0. -1.
         11   -1    0    0    0    0 -0.00000000000E+00 -0.00000000000E+00 -0.45593999997E+02  0.45594000000E+02  0.51100000000E-03 0.  1.
    9900012    2    1    2    0    0  0.13508073858E+02  0.19862942624E+02  0.36147184712E+02  0.47787268305E+02  0.19999987509E+02 0.  0.
        -12    1    1    2    0    0 -0.13508073858E+02 -0.19862942624E+02 -0.36147184712E+02  0.43400731695E+02  0.00000000000E+00 0.  1.
         11    1    3    3    0    0  0.16835148852E+02  0.96386320757E+01  0.21197799794E+02  0.28734512029E+02  0.51100000000E-03 0. -1.
        -11    1    3    3    0    0 -0.18433118246E+01  0.70273662735E+01  0.59594896418E+01  0.93966585697E+01  0.51100000000E-03 0.  1.
         12    1    3    3    0    0 -0.14837631690E+01  0.31969442748E+01  0.89898952763E+01  0.96560977064E+01  0.00000000000E+00 0. -1.
</event>
<event>
 7    1  0.2935819E-010  0.4778727E+02  0.7816164E-02  0.1312668E+00
        -11   -1    0    0    0    0  0.00000000000E+00  0.00000000000E+00  0.45593999997E+02  0.45594000000E+02  0.51100000000E-03 0.  1.
         11   -1    0    0    0    0 -0.00000000000E+00 -0.00000000000E+00 -0.45593999997E+02  0.45594000000E+02  0.51100000000E-03 0. -1.
    9900012    2    1    2    0    0 -0.22735033572E+02  0.23659729922E+02 -0.28407020247E+02  0.47787269927E+02  0.19999994907E+02 0.  0.
        -12    1    1    2    0    0  0.22735033572E+02 -0.23659729922E+02  0.28407020247E+02  0.43400730073E+02  0.00000000000E+00 0.  1.
         11    1    3    3    0    0 -0.54785716284E+01  0.11182268644E+02 -0.25296614445E+01  0.12706575715E+02  0.51100000000E-03 0. -1.
        -11    1    3    3    0    0 -0.32228848848E+01  0.35658495772E+01 -0.13571669055E+02  0.14397655066E+02  0.51100000000E-03 0.  1.
        -12    1    3    3    0    0 -0.14033577059E+02  0.89116117010E+01 -0.12305689747E+02  0.20683039146E+02  0.00000000000E+00 0.  1.
</event>
<event>
 7    1  0.2935819E-010  0.4778727E+02  0.7816164E-02  0.1312668E+00
        -11   -1    0    0    0    0  0.00000000000E+00  0.00000000000E+00  0.45593999997E+02  0.45594000000E+02  0.51100000000E-03 0. -1.
         11   -1    0    0    0    0 -0.00000000000E+00 -0.00000000000E+00 -0.45593999997E+02  0.45594000000E+02  0.51100000000E-03 0.  1.
    9900012    2    1    2    0    0  0.32185176814E+02  0.21705295146E+02  0.19406642716E+02  0.47787271603E+02  0.20000002546E+02 0.  0.
        -12    1    1    2    0    0 -0.32185176814E+02 -0.21705295146E+02 -0.19406642716E+02  0.43400728397E+02  0.00000000000E+00 0.  1.
         11    1    3    3    0    0  0.33333296470E+02  0.15344113767E+02  0.18918179230E+02  0.41284960779E+02  0.51100000000E-03 0. -1.
        -11    1    3    3    0    0 -0.78062544315E+00  0.29728755362E+01  0.14891994587E+00  0.30772621676E+01  0.51100000000E-03 0.  1.
         12    1    3    3    0    0 -0.36749421337E+00  0.33883058428E+01  0.33954353945E+00  0.34250486561E+01  0.00000000000E+00 0. -1.
</event>
<event>
 7    1  0.2935819E-010  0.4778726E+02  0.7816164E-02  0.1312668E+00
        -11   -1    0    0    0    0  0.00000000000E+00  0.00000000000E+00  0.45593999997E+02  0.45594000000E+02  0.51100000000E-03 0.  1.
         11   -1    0    0    0    0 -0.00000000000E+00 -0.00000000000E+00 -0.45593999997E+02  0.45594000000E+02  0.51100000000E-03 0. -1.
    9900012    2    1    2    0    0 -0.29039085684E+02 -0.24192705794E+02 -0.21332348052E+02  0.47787255947E+02  0.19999931165E+02 0.  0.
        -12    1    1    2    0    0  0.29039085684E+02  0.24192705794E+02  0.21332348052E+02  0.43400744053E+02  0.00000000000E+00 0.  1.
         11    1    3    3    0    0 -0.20828872149E+02 -0.59052524741E+01 -0.63079564184E+01  0.22550038497E+02  0.51100000000E-03 0. -1.
        -11    1    3    3    0    0 -0.68315485366E+00 -0.46487544921E+01 -0.33702443683E+01  0.57824014255E+01  0.51100000000E-03 0.  1.
         12    1    3    3    0    0 -0.75270586813E+01 -0.13638698827E+02 -0.11654147265E+02  0.19454816025E+02  0.00000000000E+00 0. -1.
</event>
<event>
 7    1  0.2935819E-010  0.4778727E+02  0.7816164E-02  0.1312668E+00
        -11   -1    0    0    0    0  0.00000000000E+00  0.00000000000E+00  0.45593999997E+02  0.45594000000E+02  0.51100000000E-03 0.  1.
         11   -1    0    0    0    0 -0.00000000000E+00 -0.00000000000E+00 -0.45593999997E+02  0.45594000000E+02  0.51100000000E-03 0. -1.
    9900012    2    1    2    0    0 -0.20267097592E+02 -0.31874300058E+01 -0.38245368089E+02  0.47787272643E+02  0.20000007288E+02 0.  0.
        -12    1    1    2    0    0  0.20267097592E+02  0.31874300058E+01  0.38245368089E+02  0.43400727357E+02  0.00000000000E+00 0.  1.
         11    1    3    3    0    0 -0.13603523505E+02 -0.16828597779E+01 -0.25264992796E+02  0.28743829426E+02  0.51100000000E-03 0. -1.
        -11    1    3    3    0    0 -0.26841983738E+01  0.32175672938E+01  0.49614315930E+00  0.42194571328E+01  0.51100000000E-03 0.  1.
        -12    1    3    3    0    0 -0.39793757128E+01 -0.47221375216E+01 -0.13476518452E+02  0.14823986084E+02  0.00000000000E+00 0.  1.
</event>
<event>
 7    1  0.2935819E-010  0.4778727E+02  0.7816164E-02  0.1312668E+00
        -11   -1    0    0    0    0  0.00000000000E+00  0.00000000000E+00  0.45593999997E+02  0.45594000000E+02  0.51100000000E-03 0. -1.
         11   -1    0    0    0    0 -0.00000000000E+00 -0.00000000000E+00 -0.45593999997E+02  0.45594000000E+02  0.51100000000E-03 0.  1.
    9900012    2    1    2    0    0  0.34469328750E+02  0.18923101015E+02 -0.18368586698E+02  0.47787270123E+02  0.19999995800E+02 0.  0.
        -12    1    1    2    0    0 -0.34469328750E+02 -0.18923101015E+02  0.18368586698E+02  0.43400729877E+02  0.00000000000E+00 0.  1.
         11    1    3    3    0    0  0.20250822078E+02  0.10606367448E+02 -0.18818043358E+01  0.22937567724E+02  0.51100000000E-03 0. -1.
        -11    1    3    3    0    0  0.12688962055E+02  0.29767199490E+01 -0.11812674615E+02  0.17590051209E+02  0.51100000000E-03 0.  1.
        -12    1    3    3    0    0  0.15295446175E+01  0.53400136183E+01 -0.46741077471E+01  0.72596511908E+01  0.00000000000E+00 0.  1.
</event>
<event>
 7    1  0.2935819E-010  0.4778726E+02  0.7816164E-02  0.1312668E+00
        -11   -1    0    0    0    0  0.00000000000E+00  0.00000000000E+00  0.45593999997E+02  0.45594000000E+02  0.51100000000E-03 0.  1.
         11   -1    0    0    0    0 -0.00000000000E+00 -0.00000000000E+00 -0.45593999997E+02  0.45594000000E+02  0.51100000000E-03 0. -1.
    9900012    2    1    2    0    0 -0.16349890207E+02  0.30415646380E+02 -0.26290569918E+02  0.47787256676E+02  0.19999934488E+02 0.  0.
        -12    1    1    2    0    0  0.16349890207E+02 -0.30415646380E+02  0.26290569918E+02  0.43400743324E+02  0.00000000000E+00 0.  1.
         11    1    3    3    0    0 -0.92861402468E+01  0.78671471192E+01 -0.38218343946E+01  0.12756599189E+02  0.51100000000E-03 0. -1.
        -11    1    3    3    0    0 -0.21047003590E+01  0.16229374666E+02 -0.21380141911E+02  0.26924576767E+02  0.51100000000E-03 0.  1.
        -12    1    3    3    0    0 -0.49590496006E+01  0.63191245946E+01 -0.10885936125E+01  0.81060807199E+01  0.00000000000E+00 0.  1.
</event>
<event>
 7    1  0.2935819E-010  0.4778727E+02  0.7816164E-02  0.1312668E+00
        -11   -1    0    0    0    0  0.00000000000E+00  0.00000000000E+00  0.45593999997E+02  0.45594000000E+02  0.51100000000E-03 0. -1.
         11   -1    0    0    0    0 -0.00000000000E+00 -0.00000000000E+00 -0.45593999997E+02  0.45594000000E+02  0.51100000000E-03 0.  1.
    9900012    2    1    2    0    0 -0.19374432364E+02 -0.34023702808E+02 -0.18725445604E+02  0.47787270798E+02  0.19999998877E+02 0.  0.
        -12    1    1    2    0    0  0.19374432364E+02  0.34023702808E+02  0.18725445604E+02  0.43400729202E+02  0.00000000000E+00 0.  1.
         11    1    3    3    0    0 -0.60620430135E+01 -0.24095016357E+02 -0.13634454155E+02  0.28341074769E+02  0.51100000000E-03 0. -1.
        -11    1    3    3    0    0 -0.13472838095E+02 -0.88832180738E+01 -0.67386683347E+01  0.17488241217E+02  0.51100000000E-03 0.  1.
         12    1    3    3    0    0  0.16044874368E+00 -0.10454683773E+01  0.16476768856E+01  0.19579548122E+01  0.00000000000E+00 0. -1.
</event>
<event>
 7    1  0.2935819E-010  0.4778726E+02  0.7816164E-02  0.1312668E+00
        -11   -1    0    0    0    0  0.00000000000E+00  0.00000000000E+00  0.45593999997E+02  0.45594000000E+02  0.51100000000E-03 0.  1.
         11   -1    0    0    0    0 -0.00000000000E+00 -0.00000000000E+00 -0.45593999997E+02  0.45594000000E+02  0.51100000000E-03 0. -1.
    9900012    2    1    2    0    0 -0.58472645287E+01  0.37420155342E+02 -0.21193526238E+02  0.47787261727E+02  0.19999957517E+02 0.  0.
        -12    1    1    2    0    0  0.58472645287E+01 -0.37420155342E+02  0.21193526238E+02  0.43400738273E+02  0.00000000000E+00 0.  1.
         11    1    3    3    0    0 -0.54956870841E+01  0.17331414068E+02 -0.90339000178E+01  0.20302508217E+02  0.51100000000E-03 0. -1.
        -11    1    3    3    0    0  0.66282482355E+01  0.13513778172E+02 -0.77661613388E+01  0.16937211617E+02  0.51100000000E-03 0.  1.
        -12    1    3    3    0    0 -0.69798256801E+01  0.65749631014E+01 -0.43934648811E+01  0.10547541892E+02  0.00000000000E+00 0.  1.
</event>
<event>
 7    1  0.2935819E-010  0.4778727E+02  0.7816164E-02  0.1312668E+00
        -11   -1    0    0    0    0  0.00000000000E+00  0.00000000000E+00  0.45593999997E+02  0.45594000000E+02  0.51100000000E-03 0. -1.
         11   -1    0    0    0    0 -0.00000000000E+00 -0.00000000000E+00 -0.45593999997E+02  0.45594000000E+02  0.51100000000E-03 0.  1.
    9900012    2    1    2    0    0 -0.17667556639E+02  0.23623371004E+02  0.31834214823E+02  0.47787269032E+02  0.19999990824E+02 0.  0.
        -12    1    1    2    0    0  0.17667556639E+02 -0.23623371004E+02 -0.31834214823E+02  0.43400730968E+02  0.00000000000E+00 0.  1.
         11    1    3    3    0    0 -0.82980597390E+01  0.17241678117E+02  0.28098036297E+02  0.33994601097E+02  0.51100000000E-03 0. -1.
        -11    1    3    3    0    0 -0.35347263062E+01  0.39309088346E+01 -0.15907730880E+01  0.55205881575E+01  0.51100000000E-03 0.  1.
         12    1    3    3    0    0 -0.58347705934E+01  0.24507840522E+01  0.53269516139E+01  0.82720797775E+01  0.00000000000E+00 0. -1.
</event>
<event>
 7    1  0.2935819E-010  0.4778728E+02  0.7816164E-02  0.1312668E+00
        -11   -1    0    0    0    0  0.00000000000E+00  0.00000000000E+00  0.45593999997E+02  0.45594000000E+02  0.51100000000E-03 0.  1.
         11   -1    0    0    0    0 -0.00000000000E+00 -0.00000000000E+00 -0.45593999997E+02  0.45594000000E+02  0.51100000000E-03 0. -1.
    9900012    2    1    2    0    0 -0.10307361518E+02 -0.93908071082E+01 -0.41099799391E+02  0.47787280310E+02  0.20000042248E+02 0.  0.
        -12    1    1    2    0    0  0.10307361518E+02  0.93908071082E+01  0.41099799391E+02  0.43400719690E+02  0.00000000000E+00 0.  1.
         11    1    3    3    0    0  0.12468075653E+01 -0.12155799904E+01 -0.19579868234E+02  0.19657146389E+02  0.51100000000E-03 0. -1.
        -11    1    3    3    0    0 -0.10141712426E+01  0.27441892615E+01 -0.38986791214E+01  0.48743017105E+01  0.51100000000E-03 0.  1.
         12    1    3    3    0    0 -0.10539997841E+02 -0.10919416379E+02 -0.17621252035E+02  0.23255832211E+02  0.00000000000E+00 0. -1.
</event>
<event>
 7    1  0.2935819E-010  0.4778727E+02  0.7816164E-02  0.1312668E+00
        -11   -1    0    0    0    0  0.00000000000E+00  0.00000000000E+00  0.45593999997E+02  0.45594000000E+02  0.51100000000E-03 0.  1.
         11   -1    0    0    0    0 -0.00000000000E+00 -0.00000000000E+00 -0.45593999997E+02  0.45594000000E+02  0.51100000000E-03 0. -1.
    9900012    2    1    2    0    0  0.28589706772E+02 -0.18308210032E+01 -0.32602148106E+02  0.47787270744E+02  0.19999998628E+02 0.  0.
        -12    1    1    2    0    0 -0.28589706772E+02  0.18308210032E+01  0.32602148106E+02  0.43400729256E+02  0.00000000000E+00 0.  1.
         11    1    3    3    0    0  0.21617612326E+02  0.17581335716E+00 -0.30137472670E+02  0.37089342569E+02  0.51100000000E-03 0. -1.
        -11    1    3    3    0    0  0.26766882013E+01  0.15344311474E+01  0.19005374709E+01  0.36236972297E+01  0.51100000000E-03 0.  1.
        -12    1    3    3    0    0  0.42954062447E+01 -0.35410655078E+01 -0.43652129070E+01  0.70742309449E+01  0.00000000000E+00 0.  1.
</event>
<event>
 7    1  0.2935819E-010  0.4778727E+02  0.7816164E-02  0.1312668E+00
        -11   -1    0    0    0    0  0.00000000000E+00  0.00000000000E+00  0.45593999997E+02  0.45594000000E+02  0.51100000000E-03 0. -1.
         11   -1    0    0    0    0 -0.00000000000E+00 -0.00000000000E+00 -0.45593999997E+02  0.45594000000E+02  0.51100000000E-03 0.  1.
    9900012    2    1    2    0    0 -0.90452683921E+01  0.35918958533E+02  0.22619349227E+02  0.47787269340E+02  0.19999992229E+02 0.  0.
        -12    1    1    2    0    0  0.90452683921E+01 -0.35918958533E+02 -0.22619349227E+02  0.43400730660E+02  0.00000000000E+00 0.  1.
         11    1    3    3    0    0  0.37755112522E+01  0.72577219150E+01  0.17279258065E+01  0.83615034811E+01  0.51100000000E-03 0. -1.
        -11    1    3    3    0    0  0.20293540030E+01  0.21502242050E+01  0.10636443437E+01  0.31421459788E+01  0.51100000000E-03 0.  1.
         12    1    3    3    0    0 -0.14850133647E+02  0.26511012413E+02  0.19827779077E+02  0.36283619880E+02  0.00000000000E+00 0. -1.
</event>
<event>
 7    1  0.2935819E-010  0.4778727E+02  0.7816164E-02  0.1312668E+00
        -11   -1    0    0    0    0  0.00000000000E+00  0.00000000000E+00  0.45593999997E+02  0.45594000000E+02  0.51100000000E-03 0.  1.
         11   -1    0    0    0    0 -0.00000000000E+00 -0.00000000000E+00 -0.45593999997E+02  0.45594000000E+02  0.51100000000E-03 0. -1.
    9900012    2    1    2    0    0 -0.74447538048E+01 -0.39718649734E+02 -0.15831227289E+02  0.47787271281E+02  0.20000001077E+02 0.  0.
        -12    1    1    2    0    0  0.74447538048E+01  0.39718649734E+02  0.15831227289E+02  0.43400728719E+02  0.00000000000E+00 0.  1.
         11    1    3    3    0    0  0.43499020060E+01 -0.27131248162E+01 -0.23821388310E+01  0.56530769853E+01  0.51100000000E-03 0. -1.
        -11    1    3    3    0    0  0.37678896522E+00 -0.11287648868E+01 -0.23867822445E+01  0.26669851589E+01  0.51100000000E-03 0.  1.
         12    1    3    3    0    0 -0.12171444776E+02 -0.35876760031E+02 -0.11062306213E+02  0.39467209136E+02  0.00000000000E+00 0. -1.
</event>
<event>
 7    1  0.2935819E-010  0.4778727E+02  0.7816164E-02  0.1312668E+00
        -11   -1    0    0    0    0  0.00000000000E+00  0.00000000000E+00  0.45593999997E+02  0.45594000000E+02  0.51100000000E-03 0.  1.
         11   -1    0    0    0    0 -0.00000000000E+00 -0.00000000000E+00 -0.45593999997E+02  0.45594000000E+02  0.51100000000E-03 0. -1.
    9900012    2    1    2    0    0 -0.18751828801E+02  0.21825184523E+02 -0.32490822657E+02  0.47787270516E+02  0.19999997589E+02 0.  0.
        -12    1    1    2    0    0  0.18751828801E+02 -0.21825184523E+02  0.32490822657E+02  0.43400729484E+02  0.00000000000E+00 0.  1.
         11    1    3    3    0    0  0.16954545050E+01 -0.13781360088E+01 -0.14147701639E+01  0.26029597990E+01  0.51100000000E-03 0.  1.
        -11    1    3    3    0    0 -0.20008614154E+02  0.22874936511E+02 -0.31986351081E+02  0.44121808853E+02  0.51100000000E-03 0. -1.
         12    1    3    3    0    0 -0.43866915219E+00  0.32838402066E+00  0.91029858817E+00  0.10625018634E+01  0.00000000000E+00 0. -1.
</event>
<event>
 7    1  0.2935819E-010  0.4778726E+02  0.7816164E-02  0.1312668E+00
        -11   -1    0    0    0    0  0.00000000000E+00  0.00000000000E+00  0.45593999997E+02  0.45594000000E+02  0.51100000000E-03 0. -1.
         11   -1    0    0    0    0 -0.00000000000E+00 -0.00000000000E+00 -0.45593999997E+02  0.45594000000E+02  0.51100000000E-03 0.  1.
    9900012    2    1    2    0    0  0.37041176719E+02 -0.13578655979E+02  0.18088553984E+02  0.47787257424E+02  0.19999937898E+02 0.  0.
        -12    1    1    2    0    0 -0.37041176719E+02  0.13578655979E+02 -0.18088553984E+02  0.43400742576E+02  0.00000000000E+00 0.  1.
         11    1    3    3    0    0  0.22465768325E+02 -0.75887694170E+01  0.15428395727E+02  0.28290202591E+02  0.51100000000E-03 0. -1.
        -11    1    3    3    0    0  0.21768964814E+01 -0.35945341529E+01 -0.34794591744E+01  0.54558400338E+01  0.51100000000E-03 0.  1.
        -12    1    3    3    0    0  0.12398511913E+02 -0.23953524090E+01  0.61396174313E+01  0.14041214799E+02  0.00000000000E+00 0.  1.
</event>
<event>
 7    1  0.2935819E-010  0.4778727E+02  0.7816164E-02  0.1312668E+00
        -11   -1    0    0    0    0  0.00000000000E+00  0.00000000000E+00  0.45593999997E+02  0.45594000000E+02  0.51100000000E-03 0.  1.
         11   -1    0    0    0    0 -0.00000000000E+00 -0.00000000000E+00 -0.45593999997E+02  0.45594000000E+02  0.51100000000E-03 0. -1.
    9900012    2    1    2    0    0 -0.18101499943E+02  0.39362938356E+02 -0.25530789675E+01  0.47787269264E+02  0.19999991882E+02 0.  0.
        -12    1    1    2    0    0  0.18101499943E+02 -0.39362938356E+02  0.25530789675E+01  0.43400730736E+02  0.00000000000E+00 0.  1.
         11    1    3    3    0    0 -0.11174505324E+02  0.33182859352E+02 -0.54989536654E+01  0.35443055959E+02  0.51100000000E-03 0. -1.
        -11    1    3    3    0    0 -0.83609418080E+01  0.38528571581E+01  0.18003107590E+01  0.93803504885E+01  0.51100000000E-03 0.  1.
         12    1    3    3    0    0  0.14339471884E+01  0.23272218458E+01  0.11455639389E+01  0.29638628168E+01  0.00000000000E+00 0. -1.
</event>
<event>
 7    1  0.2935819E-010  0.4778727E+02  0.7816164E-02  0.1312668E+00
        -11   -1    0    0    0    0  0.00000000000E+00  0.00000000000E+00  0.45593999997E+02  0.45594000000E+02  0.51100000000E-03 0.  1.
         11   -1    0    0    0    0 -0.00000000000E+00 -0.00000000000E+00 -0.45593999997E+02  0.45594000000E+02  0.51100000000E-03 0. -1.
    9900012    2    1    2    0    0 -0.10138535001E+02 -0.16179373169E+02 -0.38975136913E+02  0.47787270680E+02  0.19999998339E+02 0.  0.
        -12    1    1    2    0    0  0.10138535001E+02  0.16179373169E+02  0.38975136913E+02  0.43400729320E+02  0.00000000000E+00 0.  1.
         11    1    3    3    0    0 -0.56723839917E+01 -0.25990750165E+01 -0.73808089350E+01  0.96647541038E+01  0.51100000000E-03 0. -1.
        -11    1    3    3    0    0 -0.64243385975E+01 -0.87909233414E+01 -0.68965523668E+01  0.12888556724E+02  0.51100000000E-03 0.  1.
        -12    1    3    3    0    0  0.19581875882E+01 -0.47893748116E+01 -0.24697775611E+02  0.25233959853E+02  0.00000000000E+00 0.  1.
</event>
<event>
 7    1  0.2935819E-010  0.4778728E+02  0.7816164E-02  0.1312668E+00
        -11   -1    0    0    0    0  0.00000000000E+00  0.00000000000E+00  0.45593999997E+02  0.45594000000E+02  0.51100000000E-03 0.  1.
         11   -1    0    0    0    0 -0.00000000000E+00 -0.00000000000E+00 -0.45593999997E+02  0.45594000000E+02  0.51100000000E-03 0. -1.
    9900012    2    1    2    0    0 -0.13706777324E+02 -0.40132977392E+02 -0.92244756403E+01  0.47787279156E+02  0.20000036982E+02 0.  0.
        -12    1    1    2    0    0  0.13706777324E+02  0.40132977392E+02  0.92244756403E+01  0.43400720844E+02  0.00000000000E+00 0.  1.
         11    1    3    3    0    0 -0.13935797802E+02 -0.18948498807E+02 -0.14813591650E-01  0.23521315591E+02  0.51100000000E-03 0. -1.
        -11    1    3    3    0    0 -0.28644383945E+01 -0.50848608502E+01 -0.39561252854E+01  0.70506556232E+01  0.51100000000E-03 0.  1.
         12    1    3    3    0    0  0.30934588721E+01 -0.16099617735E+02 -0.52535367632E+01  0.17215307942E+02  0.00000000000E+00 0. -1.
</event>
<event>
 7    1  0.2935819E-010  0.4778726E+02  0.7816164E-02  0.1312668E+00
        -11   -1    0    0    0    0  0.00000000000E+00  0.00000000000E+00  0.45593999997E+02  0.45594000000E+02  0.51100000000E-03 0.  1.
         11   -1    0    0    0    0 -0.00000000000E+00 -0.00000000000E+00 -0.45593999997E+02  0.45594000000E+02  0.51100000000E-03 0. -1.
    9900012    2    1    2    0    0  0.34734289047E+02  0.16178232954E+01 -0.25971829488E+02  0.47787261356E+02  0.19999955828E+02 0.  0.
        -12    1    1    2    0    0 -0.34734289047E+02 -0.16178232954E+01  0.25971829488E+02  0.43400738644E+02  0.00000000000E+00 0.  1.
         11    1    3    3    0    0  0.54171685356E+01 -0.30098134809E+01 -0.23107931875E+01  0.66139592945E+01  0.51100000000E-03 0. -1.
        -11    1    3    3    0    0 -0.76700739475E+00  0.34758507552E+01 -0.30531938777E+01  0.46895449600E+01  0.51100000000E-03 0.  1.
        -12    1    3    3    0    0  0.30084127906E+02  0.11517860211E+01 -0.20607842423E+02  0.36483757102E+02  0.00000000000E+00 0.  1.
</event>
<event>
 7    1  0.2935819E-010  0.4778727E+02  0.7816164E-02  0.1312668E+00
        -11   -1    0    0    0    0  0.00000000000E+00  0.00000000000E+00  0.45593999997E+02  0.45594000000E+02  0.51100000000E-03 0. -1.
         11   -1    0    0    0    0 -0.00000000000E+00 -0.00000000000E+00 -0.45593999997E+02  0.45594000000E+02  0.51100000000E-03 0.  1.
    9900012    2    1    2    0    0  0.56303529358E+01  0.23055115889E+02  0.36337086604E+02  0.47787272982E+02  0.20000008834E+02 0.  0.
        -12    1    1    2    0    0 -0.56303529358E+01 -0.23055115889E+02 -0.36337086604E+02  0.43400727018E+02  0.00000000000E+00 0.  1.
         11    1    3    3    0    0  0.40720423089E+01  0.19605613120E+02  0.12948668813E+02  0.23845956023E+02  0.51100000000E-03 0. -1.
        -11    1    3    3    0    0 -0.61759966683E+00 -0.90233940843E-01  0.10643067342E+01  0.12338235685E+01  0.51100000000E-03 0.  1.
         12    1    3    3    0    0  0.21759102937E+01  0.35397367096E+01  0.22324111057E+02  0.22707493391E+02  0.00000000000E+00 0. -1.
</event>
<event>
 7    1  0.2935819E-010  0.4778727E+02  0.7816164E-02  0.1312668E+00
        -11   -1    0    0    0    0  0.00000000000E+00  0.00000000000E+00  0.45593999997E+02  0.45594000000E+02  0.51100000000E-03 0. -1.
         11   -1    0    0    0    0 -0.00000000000E+00 -0.00000000000E+00 -0.45593999997E+02  0.45594000000E+02  0.51100000000E-03 0.  1.
    9900012    2    1    2    0    0  0.25288432985E+02  0.39483103000E+01  0.35050382954E+02  0.47787270257E+02  0.19999996408E+02 0.  0.
        -12    1    1    2    0    0 -0.25288432985E+02 -0.39483103000E+01 -0.35050382954E+02  0.43400729743E+02  0.00000000000E+00 0.  1.
         11    1    3    3    0    0  0.18786213649E+02  0.75642327868E+01  0.15147226374E+02  0.25289877580E+02  0.51100000000E-03 0. -1.
        -11    1    3    3    0    0 -0.25278298799E+00 -0.36340610304E+01  0.84287749755E+01  0.91822952828E+01  0.51100000000E-03 0.  1.
         12    1    3    3    0    0  0.67550023233E+01  0.18138543510E-01  0.11474381604E+02  0.13315097394E+02  0.00000000000E+00 0. -1.
</event>
<event>
 7    1  0.2935819E-010  0.4778729E+02  0.7816164E-02  0.1312668E+00
        -11   -1    0    0    0    0  0.00000000000E+00  0.00000000000E+00  0.45593999997E+02  0.45594000000E+02  0.51100000000E-03 0.  1.
         11   -1    0    0    0    0 -0.00000000000E+00 -0.00000000000E+00 -0.45593999997E+02  0.45594000000E+02  0.51100000000E-03 0. -1.
    9900012    2    1    2    0    0  0.10049524978E+02 -0.12588542764E+02 -0.40300836911E+02  0.47787287830E+02  0.20000076530E+02 0.  0.
        -12    1    1    2    0    0 -0.10049524978E+02  0.12588542764E+02  0.40300836911E+02  0.43400712170E+02  0.00000000000E+00 0.  1.
         11    1    3    3    0    0  0.15584924327E+01 -0.78529746412E+00  0.14646425683E+01  0.22783258950E+01  0.51100000000E-03 0.  1.
        -11    1    3    3    0    0  0.38703156139E+01 -0.23481914012E+01 -0.27000654885E+02  0.27377521990E+02  0.51100000000E-03 0. -1.
        -12    1    3    3    0    0  0.46207169315E+01 -0.94550538986E+01 -0.14764824594E+02  0.18131439945E+02  0.00000000000E+00 0.  1.
</event>
<event>
 7    1  0.2935819E-010  0.4778727E+02  0.7816164E-02  0.1312668E+00
        -11   -1    0    0    0    0  0.00000000000E+00  0.00000000000E+00  0.45593999997E+02  0.45594000000E+02  0.51100000000E-03 0. -1.
         11   -1    0    0    0    0 -0.00000000000E+00 -0.00000000000E+00 -0.45593999997E+02  0.45594000000E+02  0.51100000000E-03 0.  1.
    9900012    2    1    2    0    0  0.31240212740E+02  0.60534959832E+01  0.29513172428E+02  0.47787273596E+02  0.20000011632E+02 0.  0.
        -12    1    1    2    0    0 -0.31240212740E+02 -0.60534959832E+01 -0.29513172428E+02  0.43400726404E+02  0.00000000000E+00 0.  1.
         11    1    3    3    0    0  0.29889229324E+01  0.26994922172E+01  0.20758075667E+01  0.45309928097E+01  0.51100000000E-03 0. -1.
        -11    1    3    3    0    0  0.15636481329E+02  0.91449697320E+01  0.21621167290E+02  0.28206469027E+02  0.51100000000E-03 0.  1.
        -12    1    3    3    0    0  0.12614808479E+02 -0.57909659660E+01  0.58161975715E+01  0.15049811758E+02  0.00000000000E+00 0.  1.
</event>
<event>
 7    1  0.2935819E-010  0.4778729E+02  0.7816164E-02  0.1312668E+00
        -11   -1    0    0    0    0  0.00000000000E+00  0.00000000000E+00  0.45593999997E+02  0.45594000000E+02  0.51100000000E-03 0.  1.
         11   -1    0    0    0    0 -0.00000000000E+00 -0.00000000000E+00 -0.45593999997E+02  0.45594000000E+02  0.51100000000E-03 0. -1.
    9900012    2    1    2    0    0 -0.55033811500E+01 -0.42916886031E+02  0.33875742890E+01  0.47787286063E+02  0.20000068475E+02 0.  0.
        -12    1    1    2    0    0  0.55033811500E+01  0.42916886031E+02 -0.33875742890E+01  0.43400713937E+02  0.00000000000E+00 0.  1.
         11    1    3    3    0    0  0.31862525876E+01 -0.25217796322E+02  0.18409050749E+01  0.25484865874E+02  0.51100000000E-03 0. -1.
        -11    1    3    3    0    0 -0.88133452724E+01 -0.86784442869E+01  0.39177111854E+01  0.12974548598E+02  0.51100000000E-03 0.  1.
         12    1    3    3    0    0  0.12371153482E+00 -0.90206454224E+01 -0.23710419713E+01  0.93278715906E+01  0.00000000000E+00 0. -1.
</event>
<event>
 7    1  0.2935819E-010  0.4778726E+02  0.7816164E-02  0.1312668E+00
        -11   -1    0    0    0    0  0.00000000000E+00  0.00000000000E+00  0.45593999997E+02  0.45594000000E+02  0.51100000000E-03 0.  1.
         11   -1    0    0    0    0 -0.00000000000E+00 -0.00000000000E+00 -0.45593999997E+02  0.45594000000E+02  0.51100000000E-03 0. -1.
    9900012    2    1    2    0    0 -0.33740522919E+02 -0.15255560788E+02 -0.22637778600E+02  0.47787262198E+02  0.19999959665E+02 0.  0.
        -12    1    1    2    0    0  0.33740522919E+02  0.15255560788E+02  0.22637778600E+02  0.43400737802E+02  0.00000000000E+00 0.  1.
         11    1    3    3    0    0 -0.32259575576E+02 -0.16104543003E+02 -0.24384882919E+02  0.43527681272E+02  0.51100000000E-03 0. -1.
        -11    1    3    3    0    0 -0.13707162754E+01  0.23706083837E-03  0.26697628273E+01  0.30010826345E+01  0.51100000000E-03 0.  1.
         12    1    3    3    0    0 -0.11023106763E+00  0.84874515448E+00 -0.92265850842E+00  0.12584982911E+01  0.00000000000E+00 0. -1.
</event>
<event>
 7    1  0.2935819E-010  0.4778728E+02  0.7816164E-02  0.1312668E+00
        -11   -1    0    0    0    0  0.00000000000E+00  0.00000000000E+00  0.45593999997E+02  0.45594000000E+02  0.51100000000E-03 0.  1.
         11   -1    0    0    0    0 -0.00000000000E+00 -0.00000000000E+00 -0.45593999997E+02  0.45594000000E+02  0.51100000000E-03 0. -1.
    9900012    2    1    2    0    0  0.10072138489E+02 -0.32041133540E+02 -0.27487097549E+02  0.47787277149E+02  0.20000027835E+02 0.  0.
        -12    1    1    2    0    0 -0.10072138489E+02  0.32041133540E+02  0.27487097549E+02  0.43400722851E+02  0.00000000000E+00 0.  1.
         11    1    3    3    0    0  0.15219662282E+01 -0.26364345220E+01 -0.59499042993E+01  0.66834519240E+01  0.51100000000E-03 0.  1.
        -11    1    3    3    0    0  0.95170857668E+01 -0.30202404281E+02 -0.23029402643E+02  0.39154993707E+02  0.51100000000E-03 0. -1.
        -12    1    3    3    0    0 -0.96691350582E+00  0.79770526310E+00  0.14922093929E+01  0.19488315183E+01  0.00000000000E+00 0.  1.
</event>
<event>
 7    1  0.2935819E-010  0.4778726E+02  0.7816164E-02  0.1312668E+00
        -11   -1    0    0    0    0  0.00000000000E+00  0.00000000000E+00  0.45593999997E+02  0.45594000000E+02  0.51100000000E-03 0.  1.
         11   -1    0    0    0    0 -0.00000000000E+00 -0.00000000000E+00 -0.45593999997E+02  0.45594000000E+02  0.51100000000E-03 0. -1.
    9900012    2    1    2    0    0 -0.88372036834E+01  0.40254583938E+02 -0.13605015110E+02  0.47787261146E+02  0.19999954868E+02 0.  0.
        -12    1    1    2    0    0  0.88372036834E+01 -0.40254583938E+02  0.13605015110E+02  0.43400738854E+02  0.00000000000E+00 0.  1.
         11    1    3    3    0    0 -0.68355928910E+01  0.25268923069E+02 -0.13117209313E+02  0.29279770895E+02  0.51100000000E-03 0. -1.
        -11    1    3    3    0    0  0.40955136120E+01  0.87686410546E+01  0.77349367953E+00  0.97087893387E+01  0.51100000000E-03 0.  1.
        -12    1    3    3    0    0 -0.60971244043E+01  0.62170198139E+01 -0.12612994765E+01  0.87987009120E+01  0.00000000000E+00 0.  1.
</event>
<event>
 7    1  0.2935819E-010  0.4778727E+02  0.7816164E-02  0.1312668E+00
        -11   -1    0    0    0    0  0.00000000000E+00  0.00000000000E+00  0.45593999997E+02  0.45594000000E+02  0.51100000000E-03 0.  1.
         11   -1    0    0    0    0 -0.00000000000E+00 -0.00000000000E+00 -0.45593999997E+02  0.45594000000E+02  0.51100000000E-03 0. -1.
    9900012    2    1    2    0    0  0.26617135995E+02  0.19059610849E+02 -0.28493549472E+02  0.47787273557E+02  0.20000011455E+02 0.  0.
        -12    1    1    2    0    0 -0.26617135995E+02 -0.19059610849E+02  0.28493549472E+02  0.43400726443E+02  0.00000000000E+00 0.  1.
         11    1    3    3    0    0  0.25498850268E+02  0.13506073436E+02 -0.16143289260E+02  0.33063744087E+02  0.51100000000E-03 0. -1.
        -11    1    3    3    0    0  0.40525555906E+00  0.26202777671E+01 -0.11173194122E+02  0.11483481823E+02  0.51100000000E-03 0.  1.
         12    1    3    3    0    0  0.71303016790E+00  0.29332596464E+01 -0.11770660902E+01  0.32400476469E+01  0.00000000000E+00 0. -1.
</event>
<event>
 7    1  0.2935819E-010  0.4778727E+02  0.7816164E-02  0.1312668E+00
        -11   -1    0    0    0    0  0.00000000000E+00  0.00000000000E+00  0.45593999997E+02  0.45594000000E+02  0.51100000000E-03 0.  1.
         11   -1    0    0    0    0 -0.00000000000E+00 -0.00000000000E+00 -0.45593999997E+02  0.45594000000E+02  0.51100000000E-03 0. -1.
    9900012    2    1    2    0    0 -0.15155129111E+02 -0.25963197763E+02 -0.31302676356E+02  0.47787272777E+02  0.20000007898E+02 0.  0.
        -12    1    1    2    0    0  0.15155129111E+02  0.25963197763E+02  0.31302676356E+02  0.43400727223E+02  0.00000000000E+00 0.  1.
         11    1    3    3    0    0 -0.27743616909E+01 -0.12527865178E+02 -0.62891153228E+01  0.14289767686E+02  0.51100000000E-03 0. -1.
        -11    1    3    3    0    0 -0.12203485581E+02 -0.51788872518E+01 -0.10976435432E+02  0.17211277365E+02  0.51100000000E-03 0.  1.
        -12    1    3    3    0    0 -0.17728183990E+00 -0.82564453336E+01 -0.14037125601E+02  0.16286227726E+02  0.00000000000E+00 0.  1.
</event>
<event>
 7    1  0.2935819E-010  0.4778727E+02  0.7816164E-02  0.1312668E+00
        -11   -1    0    0    0    0  0.00000000000E+00  0.00000000000E+00  0.45593999997E+02  0.45594000000E+02  0.51100000000E-03 0. -1.
         11   -1    0    0    0    0 -0.00000000000E+00 -0.00000000000E+00 -0.45593999997E+02  0.45594000000E+02  0.51100000000E-03 0.  1.
    9900012    2    1    2    0    0  0.72002013679E+01  0.10748842684E+02  0.41427558338E+02  0.47787272948E+02  0.20000008678E+02 0.  0.
        -12    1    1    2    0    0 -0.72002013679E+01 -0.10748842684E+02 -0.41427558338E+02  0.43400727052E+02  0.00000000000E+00 0.  1.
         11    1    3    3    0    0 -0.76053189905E+00  0.47562230333E+01  0.14763972582E+02  0.15529808530E+02  0.51100000000E-03 0. -1.
        -11    1    3    3    0    0  0.74913992886E+01  0.23913135272E+01  0.31600334536E+01  0.84749781932E+01  0.51100000000E-03 0.  1.
        -12    1    3    3    0    0  0.46933397836E+00  0.36013061237E+01  0.23503552303E+02  0.23782486225E+02  0.00000000000E+00 0.  1.
</event>
<event>
 7    1  0.2935819E-010  0.4778727E+02  0.7816164E-02  0.1312668E+00
        -11   -1    0    0    0    0  0.00000000000E+00  0.00000000000E+00  0.45593999997E+02  0.45594000000E+02  0.51100000000E-03 0. -1.
         11   -1    0    0    0    0 -0.00000000000E+00 -0.00000000000E+00 -0.45593999997E+02  0.45594000000E+02  0.51100000000E-03 0.  1.
    9900012    2    1    2    0    0  0.21631692509E+02 -0.37413852533E+02 -0.39870768426E+01  0.47787271159E+02  0.20000000521E+02 0.  0.
        -12    1    1    2    0    0 -0.21631692509E+02  0.37413852533E+02  0.39870768426E+01  0.43400728841E+02  0.00000000000E+00 0.  1.
         11    1    3    3    0    0  0.18002122390E+02 -0.35396779925E+02 -0.36497052915E+01  0.39878926623E+02  0.51100000000E-03 0. -1.
        -11    1    3    3    0    0  0.24128783559E+00  0.21333193636E+01  0.10264400282E+01  0.23796744986E+01  0.51100000000E-03 0.  1.
        -12    1    3    3    0    0  0.33882822840E+01 -0.41503919716E+01 -0.13638115793E+01  0.55286700370E+01  0.00000000000E+00 0.  1.
</event>
<event>
 7    1  0.2935819E-010  0.4778727E+02  0.7816164E-02  0.1312668E+00
        -11   -1    0    0    0    0  0.00000000000E+00  0.00000000000E+00  0.45593999997E+02  0.45594000000E+02  0.51100000000E-03 0.  1.
         11   -1    0    0    0    0 -0.00000000000E+00 -0.00000000000E+00 -0.45593999997E+02  0.45594000000E+02  0.51100000000E-03 0. -1.
    9900012    2    1    2    0    0  0.86415317669E+00 -0.12042891854E+02 -0.41687472479E+02  0.47787269977E+02  0.19999995132E+02 0.  0.
        -12    1    1    2    0    0 -0.86415317669E+00  0.12042891854E+02  0.41687472479E+02  0.43400730023E+02  0.00000000000E+00 0.  1.
         11    1    3    3    0    0  0.79812606404E+01 -0.85712096437E+01 -0.16942437370E+02  0.20596415719E+02  0.51100000000E-03 0. -1.
        -11    1    3    3    0    0 -0.78651186772E+01 -0.40720129593E+01 -0.15156823805E+02  0.17554791068E+02  0.51100000000E-03 0.  1.
        -12    1    3    3    0    0  0.74801121352E+00  0.60033074942E+00 -0.95882113040E+01  0.96360631896E+01  0.00000000000E+00 0.  1.
</event>
<event>
 7    1  0.2935819E-010  0.4778726E+02  0.7816164E-02  0.1312668E+00
        -11   -1    0    0    0    0  0.00000000000E+00  0.00000000000E+00  0.45593999997E+02  0.45594000000E+02  0.51100000000E-03 0.  1.
         11   -1    0    0    0    0 -0.00000000000E+00 -0.00000000000E+00 -0.45593999997E+02  0.45594000000E+02  0.51100000000E-03 0. -1.
    9900012    2    1    2    0    0  0.42019524488E+02 -0.10721136887E+02  0.17439690508E+01  0.47787255279E+02  0.19999928118E+02 0.  0.
        -12    1    1    2    0    0 -0.42019524488E+02  0.10721136887E+02 -0.17439690508E+01  0.43400744721E+02  0.00000000000E+00 0.  1.
         11    1    3    3    0    0  0.14991348615E+02 -0.34910508044E+01 -0.44615834236E+01  0.16026031821E+02  0.51100000000E-03 0. -1.
        -11    1    3    3    0    0  0.12355120438E+02 -0.78106201425E+01  0.84844518367E+01  0.16900908594E+02  0.51100000000E-03 0.  1.
        -12    1    3    3    0    0  0.14673055434E+02  0.58053406026E+00 -0.22788993623E+01  0.14860314864E+02  0.00000000000E+00 0.  1.
</event>
<event>
 7    1  0.4007604E-010  0.4778728E+02  0.7816164E-02  0.1312668E+00
        -11   -1    0    0    0    0  0.00000000000E+00  0.00000000000E+00  0.45593999997E+02  0.45594000000E+02  0.51100000000E-03 0. -1.
         11   -1    0    0    0    0 -0.00000000000E+00 -0.00000000000E+00 -0.45593999997E+02  0.45594000000E+02  0.51100000000E-03 0.  1.
    9900012    2    1    2    0    0  0.43098582381E+02 -0.30043545004E+01 -0.41362110903E+01  0.47787283515E+02  0.20000056859E+02 0.  0.
        -12    1    1    2    0    0 -0.43098582381E+02  0.30043545004E+01  0.41362110903E+01  0.43400716485E+02  0.00000000000E+00 0.  1.
         11    1    3    3    0    0  0.21865189120E+02 -0.17895244241E+01  0.23716234505E+01  0.22066116355E+02  0.51100000000E-03 0. -1.
        -11    1    3    3    0    0 -0.15129738747E+01  0.10231503228E+01 -0.13997258231E+01  0.23011212853E+01  0.51100000000E-03 0.  1.
        -12    1    3    3    0    0  0.22746367135E+02 -0.22379803991E+01 -0.51081087177E+01  0.23420045875E+02  0.00000000000E+00 0.  1.
</event>
<event>
 7    1  0.2935819E-010  0.4778727E+02  0.7816164E-02  0.1312668E+00
        -11   -1    0    0    0    0  0.00000000000E+00  0.00000000000E+00  0.45593999997E+02  0.45594000000E+02  0.51100000000E-03 0. -1.
         11   -1    0    0    0    0 -0.00000000000E+00 -0.00000000000E+00 -0.45593999997E+02  0.45594000000E+02  0.51100000000E-03 0.  1.
    9900012    2    1    2    0    0  0.36945965929E+02  0.13664858146E+02 -0.18217864582E+02  0.47787270323E+02  0.19999996709E+02 0.  0.
        -12    1    1    2    0    0 -0.36945965929E+02 -0.13664858146E+02  0.18217864582E+02  0.43400729677E+02  0.00000000000E+00 0.  1.
         11    1    3    3    0    0  0.54637862455E+01  0.49797468832E+01  0.28517277831E+01  0.79235844646E+01  0.51100000000E-03 0. -1.
        -11    1    3    3    0    0  0.18305587353E+02  0.72875075229E+01 -0.16941781132E+02  0.25985115786E+02  0.51100000000E-03 0.  1.
        -12    1    3    3    0    0  0.13176592331E+02  0.13976037399E+01 -0.41278112332E+01  0.13878570072E+02  0.00000000000E+00 0.  1.
</event>
<event>
 7    1  0.2935819E-010  0.4778727E+02  0.7816164E-02  0.1312668E+00
        -11   -1    0    0    0    0  0.00000000000E+00  0.00000000000E+00  0.45593999997E+02  0.45594000000E+02  0.51100000000E-03 0. -1.
         11   -1    0    0    0    0 -0.00000000000E+00 -0.00000000000E+00 -0.45593999997E+02  0.45594000000E+02  0.51100000000E-03 0.  1.
    9900012    2    1    2    0    0  0.11672107596E+02  0.39477077469E+02 -0.13745739150E+02  0.47787273208E+02  0.20000009867E+02 0.  0.
        -12    1    1    2    0    0 -0.11672107596E+02 -0.39477077469E+02  0.13745739150E+02  0.43400726792E+02  0.00000000000E+00 0.  1.
         11    1    3    3    0    0  0.85786777602E+01  0.36293402963E+02 -0.13053792114E+02  0.39512103203E+02  0.51100000000E-03 0. -1.
        -11    1    3    3    0    0  0.30694171046E+01 -0.48915124130E+00  0.20223401783E+01  0.37081599691E+01  0.51100000000E-03 0.  1.
        -12    1    3    3    0    0  0.24012731283E-01  0.36728257475E+01 -0.27142872148E+01  0.45670100358E+01  0.00000000000E+00 0.  1.
</event>
<event>
 7    1  0.2935819E-010  0.4778727E+02  0.7816164E-02  0.1312668E+00
        -11   -1    0    0    0    0  0.00000000000E+00  0.00000000000E+00  0.45593999997E+02  0.45594000000E+02  0.51100000000E-03 0.  1.
         11   -1    0    0    0    0 -0.00000000000E+00 -0.00000000000E+00 -0.45593999997E+02  0.45594000000E+02  0.51100000000E-03 0. -1.
    9900012    2    1    2    0    0  0.27765160759E+02 -0.25378913938E+02  0.21647858289E+02  0.47787271974E+02  0.20000004240E+02 0.  0.
        -12    1    1    2    0    0 -0.27765160759E+02  0.25378913938E+02 -0.21647858289E+02  0.43400728026E+02  0.00000000000E+00 0.  1.
         11    1    3    3    0    0  0.17444349447E+02 -0.15098777992E+02  0.46747609444E+01  0.23540004559E+02  0.51100000000E-03 0. -1.
        -11    1    3    3    0    0  0.36103750855E+01 -0.95231380401E+01  0.76607349308E+01  0.12744089859E+02  0.51100000000E-03 0.  1.
         12    1    3    3    0    0  0.67104362267E+01 -0.75699790656E+00  0.93123624135E+01  0.11503177557E+02  0.00000000000E+00 0. -1.
</event>
<event>
 7    1  0.2935819E-010  0.4778727E+02  0.7816164E-02  0.1312668E+00
        -11   -1    0    0    0    0  0.00000000000E+00  0.00000000000E+00  0.45593999997E+02  0.45594000000E+02  0.51100000000E-03 0.  1.
         11   -1    0    0    0    0 -0.00000000000E+00 -0.00000000000E+00 -0.45593999997E+02  0.45594000000E+02  0.51100000000E-03 0. -1.
    9900012    2    1    2    0    0 -0.42420129440E+02  0.73234124014E+01  0.55248137545E+01  0.47787270537E+02  0.19999997685E+02 0.  0.
        -12    1    1    2    0    0  0.42420129440E+02 -0.73234124014E+01 -0.55248137545E+01  0.43400729463E+02  0.00000000000E+00 0.  1.
         11    1    3    3    0    0 -0.31791525507E+02  0.29624158918E+01  0.41061055108E+01  0.32192190120E+02  0.51100000000E-03 0. -1.
        -11    1    3    3    0    0 -0.34314975015E+01  0.66608269890E+01 -0.12209774427E+01  0.75916123095E+01  0.51100000000E-03 0.  1.
        -12    1    3    3    0    0 -0.71971064313E+01 -0.22998304794E+01  0.26396856864E+01  0.80034681071E+01  0.00000000000E+00 0.  1.
</event>
<event>
 7    1  0.2935819E-010  0.4778727E+02  0.7816164E-02  0.1312668E+00
        -11   -1    0    0    0    0  0.00000000000E+00  0.00000000000E+00  0.45593999997E+02  0.45594000000E+02  0.51100000000E-03 0. -1.
         11   -1    0    0    0    0 -0.00000000000E+00 -0.00000000000E+00 -0.45593999997E+02  0.45594000000E+02  0.51100000000E-03 0.  1.
    9900012    2    1    2    0    0  0.28183600369E+02 -0.27419900264E+02  0.18369999540E+02  0.47787272548E+02  0.20000006855E+02 0.  0.
        -12    1    1    2    0    0 -0.28183600369E+02  0.27419900264E+02 -0.18369999540E+02  0.43400727452E+02  0.00000000000E+00 0.  1.
         11    1    3    3    0    0  0.94851101454E+01 -0.12646403589E+02  0.15510550969E+02  0.22146693429E+02  0.51100000000E-03 0. -1.
        -11    1    3    3    0    0  0.17731838881E+02 -0.10702244382E+02  0.44145701770E+01  0.21176509982E+02  0.51100000000E-03 0.  1.
        -12    1    3    3    0    0  0.96665134339E+00 -0.40712522930E+01 -0.15551216060E+01  0.44640691373E+01  0.00000000000E+00 0.  1.
</event>
<event>
 7    1  0.2935819E-010  0.4778727E+02  0.7816164E-02  0.1312668E+00
        -11   -1    0    0    0    0  0.00000000000E+00  0.00000000000E+00  0.45593999997E+02  0.45594000000E+02  0.51100000000E-03 0.  1.
         11   -1    0    0    0    0 -0.00000000000E+00 -0.00000000000E+00 -0.45593999997E+02  0.45594000000E+02  0.51100000000E-03 0. -1.
    9900012    2    1    2    0    0 -0.14399498853E+02  0.14981006001E+02 -0.38103111065E+02  0.47787272116E+02  0.20000004886E+02 0.  0.
        -12    1    1    2    0    0  0.14399498853E+02 -0.14981006001E+02  0.38103111065E+02  0.43400727884E+02  0.00000000000E+00 0.  1.
         11    1    3    3    0    0 -0.15971791152E+02  0.90719632768E+01 -0.32856929860E+02  0.37642747912E+02  0.51100000000E-03 0. -1.
        -11    1    3    3    0    0  0.35701844021E+01  0.17334424419E+01 -0.31314197821E+01  0.50553762943E+01  0.51100000000E-03 0.  1.
         12    1    3    3    0    0 -0.19978921031E+01  0.41756002820E+01 -0.21147614236E+01  0.50891479100E+01  0.00000000000E+00 0. -1.
</event>
<event>
 7    1  0.3013580E-010  0.4778728E+02  0.7816164E-02  0.1312668E+00
        -11   -1    0    0    0    0  0.00000000000E+00  0.00000000000E+00  0.45593999997E+02  0.45594000000E+02  0.51100000000E-03 0. -1.
         11   -1    0    0    0    0 -0.00000000000E+00 -0.00000000000E+00 -0.45593999997E+02  0.45594000000E+02  0.51100000000E-03 0.  1.
    9900012    2    1    2    0    0  0.28020914441E+02  0.32710828900E+02 -0.53340583527E+01  0.47787283970E+02  0.20000058931E+02 0.  0.
        -12    1    1    2    0    0 -0.28020914441E+02 -0.32710828900E+02  0.53340583527E+01  0.43400716030E+02  0.00000000000E+00 0.  1.
         11    1    3    3    0    0  0.27452406514E+02  0.24930657789E+02 -0.71873434117E+01  0.37773406343E+02  0.51100000000E-03 0. -1.
        -11    1    3    3    0    0 -0.18652968954E+00  0.12749591353E+01  0.30912158586E+01  0.33490192396E+01  0.51100000000E-03 0.  1.
         12    1    3    3    0    0  0.75503761674E+00  0.65052119756E+01 -0.12379307997E+01  0.66648583867E+01  0.00000000000E+00 0. -1.
</event>
<event>
 7    1  0.2935819E-010  0.4778727E+02  0.7816164E-02  0.1312668E+00
        -11   -1    0    0    0    0  0.00000000000E+00  0.00000000000E+00  0.45593999997E+02  0.45594000000E+02  0.51100000000E-03 0. -1.
         11   -1    0    0    0    0 -0.00000000000E+00 -0.00000000000E+00 -0.45593999997E+02  0.45594000000E+02  0.51100000000E-03 0.  1.
    9900012    2    1    2    0    0  0.21696013564E+02 -0.36874150611E+02  0.72940521684E+01  0.47787272070E+02  0.20000004676E+02 0.  0.
        -12    1    1    2    0    0 -0.21696013564E+02  0.36874150611E+02 -0.72940521684E+01  0.43400727930E+02  0.00000000000E+00 0.  1.
         11    1    3    3    0    0  0.23169314963E+02 -0.28791037054E+02  0.82062462227E+01  0.37856088649E+02  0.51100000000E-03 0. -1.
        -11    1    3    3    0    0 -0.25459485513E+01 -0.10767553073E+01 -0.64300182675E+00  0.28380816810E+01  0.51100000000E-03 0.  1.
         12    1    3    3    0    0  0.10726471522E+01 -0.70063582499E+01 -0.26919222765E+00  0.70931017400E+01  0.00000000000E+00 0. -1.
</event>
<event>
 7    1  0.2935819E-010  0.4778728E+02  0.7816164E-02  0.1312668E+00
        -11   -1    0    0    0    0  0.00000000000E+00  0.00000000000E+00  0.45593999997E+02  0.45594000000E+02  0.51100000000E-03 0.  1.
         11   -1    0    0    0    0 -0.00000000000E+00 -0.00000000000E+00 -0.45593999997E+02  0.45594000000E+02  0.51100000000E-03 0. -1.
    9900012    2    1    2    0    0 -0.52426204457E+01  0.20989222311E+02 -0.37624332461E+02  0.47787275173E+02  0.20000018825E+02 0.  0.
        -12    1    1    2    0    0  0.52426204457E+01 -0.20989222311E+02  0.37624332461E+02  0.43400724827E+02  0.00000000000E+00 0.  1.
         11    1    3    3    0    0 -0.10581698894E+02  0.10313389518E+02 -0.19801565859E+02  0.24707091402E+02  0.51100000000E-03 0. -1.
        -11    1    3    3    0    0  0.70699576966E+01  0.75400040285E+01 -0.16033320538E+02  0.19076250426E+02  0.51100000000E-03 0.  1.
        -12    1    3    3    0    0 -0.17308792488E+01  0.31358287651E+01 -0.17894460637E+01  0.40039333452E+01  0.00000000000E+00 0.  1.
</event>
<event>
 7    1  0.2935819E-010  0.4778727E+02  0.7816164E-02  0.1312668E+00
        -11   -1    0    0    0    0  0.00000000000E+00  0.00000000000E+00  0.45593999997E+02  0.45594000000E+02  0.51100000000E-03 0.  1.
         11   -1    0    0    0    0 -0.00000000000E+00 -0.00000000000E+00 -0.45593999997E+02  0.45594000000E+02  0.51100000000E-03 0. -1.
    9900012    2    1    2    0    0 -0.24526855039E+01 -0.40918004654E+02 -0.14259192491E+02  0.47787270265E+02  0.19999996445E+02 0.  0.
        -12    1    1    2    0    0  0.24526855039E+01  0.40918004654E+02  0.14259192491E+02  0.43400729735E+02  0.00000000000E+00 0.  1.
         11    1    3    3    0    0  0.85354289426E+00 -0.29745334072E+02 -0.12457572973E+02  0.32259952870E+02  0.51100000000E-03 0. -1.
        -11    1    3    3    0    0 -0.33509530184E+00  0.17145921350E+00 -0.36381914746E+01  0.36576118698E+01  0.51100000000E-03 0.  1.
         12    1    3    3    0    0 -0.29711330963E+01 -0.11344129796E+02  0.18365719566E+01  0.11869705525E+02  0.00000000000E+00 0. -1.
</event>
<event>
 7    1  0.2935819E-010  0.4778727E+02  0.7816164E-02  0.1312668E+00
        -11   -1    0    0    0    0  0.00000000000E+00  0.00000000000E+00  0.45593999997E+02  0.45594000000E+02  0.51100000000E-03 0. -1.
         11   -1    0    0    0    0 -0.00000000000E+00 -0.00000000000E+00 -0.45593999997E+02  0.45594000000E+02  0.51100000000E-03 0.  1.
    9900012    2    1    2    0    0  0.32072970994E+02  0.24406028706E+02  0.16102597736E+02  0.47787270059E+02  0.19999995507E+02 0.  0.
        -12    1    1    2    0    0 -0.32072970994E+02 -0.24406028706E+02 -0.16102597736E+02  0.43400729941E+02  0.00000000000E+00 0.  1.
         11    1    3    3    0    0  0.13366387310E+02  0.19904047336E+02  0.85240164501E+01  0.25445830047E+02  0.51100000000E-03 0. -1.
        -11    1    3    3    0    0  0.99227321135E+01  0.21736395598E+00 -0.79311561026E-01  0.99254294754E+01  0.51100000000E-03 0.  1.
        -12    1    3    3    0    0  0.87838515708E+01  0.42846174138E+01  0.76578928468E+01  0.12416010537E+02  0.00000000000E+00 0.  1.
</event>
<event>
 7    1  0.2935819E-010  0.4778727E+02  0.7816164E-02  0.1312668E+00
        -11   -1    0    0    0    0  0.00000000000E+00  0.00000000000E+00  0.45593999997E+02  0.45594000000E+02  0.51100000000E-03 0.  1.
         11   -1    0    0    0    0 -0.00000000000E+00 -0.00000000000E+00 -0.45593999997E+02  0.45594000000E+02  0.51100000000E-03 0. -1.
    9900012    2    1    2    0    0  0.48157705838E+01  0.38089079763E+02 -0.20239896291E+02  0.47787273676E+02  0.20000012000E+02 0.  0.
        -12    1    1    2    0    0 -0.48157705838E+01 -0.38089079763E+02  0.20239896291E+02  0.43400726324E+02  0.00000000000E+00 0.  1.
         11    1    3    3    0    0  0.28785478811E+01  0.12668238847E+02 -0.10108820478E+02  0.16460819090E+02  0.51100000000E-03 0. -1.
        -11    1    3    3    0    0  0.68770589106E+01  0.15255690896E+02 -0.10944577729E+02  0.19995345106E+02  0.51100000000E-03 0.  1.
        -12    1    3    3    0    0 -0.49398362079E+01  0.10165150020E+02  0.81350191606E+00  0.11331109481E+02  0.00000000000E+00 0.  1.
</event>
<event>
 7    1  0.2935819E-010  0.4778727E+02  0.7816164E-02  0.1312668E+00
        -11   -1    0    0    0    0  0.00000000000E+00  0.00000000000E+00  0.45593999997E+02  0.45594000000E+02  0.51100000000E-03 0. -1.
         11   -1    0    0    0    0 -0.00000000000E+00 -0.00000000000E+00 -0.45593999997E+02  0.45594000000E+02  0.51100000000E-03 0.  1.
    9900012    2    1    2    0    0  0.22408327455E+02 -0.51103693962E+01  0.36815411341E+02  0.47787268129E+02  0.19999986707E+02 0.  0.
        -12    1    1    2    0    0 -0.22408327455E+02  0.51103693962E+01 -0.36815411341E+02  0.43400731871E+02  0.00000000000E+00 0.  1.
         11    1    3    3    0    0  0.19370487065E+02  0.92712046333E+00  0.32761685961E+02  0.38071030834E+02  0.51100000000E-03 0. -1.
        -11    1    3    3    0    0  0.28623222043E+01 -0.69247800677E+01  0.24649771464E+01  0.78880656679E+01  0.51100000000E-03 0.  1.
         12    1    3    3    0    0  0.17551818574E+00  0.88729020816E+00  0.15887482338E+01  0.18281716269E+01  0.00000000000E+00 0. -1.
</event>
<event>
 7    1  0.2935819E-010  0.4778727E+02  0.7816164E-02  0.1312668E+00
        -11   -1    0    0    0    0  0.00000000000E+00  0.00000000000E+00  0.45593999997E+02  0.45594000000E+02  0.51100000000E-03 0. -1.
         11   -1    0    0    0    0 -0.00000000000E+00 -0.00000000000E+00 -0.45593999997E+02  0.45594000000E+02  0.51100000000E-03 0.  1.
    9900012    2    1    2    0    0 -0.51653263240E+01  0.59423886268E+01  0.42680565440E+02  0.47787271378E+02  0.20000001523E+02 0.  0.
        -12    1    1    2    0    0  0.51653263240E+01 -0.59423886268E+01 -0.42680565440E+02  0.43400728622E+02  0.00000000000E+00 0.  1.
         11    1    3    3    0    0 -0.34739527809E+01 -0.67303144081E+01  0.14515659128E+02  0.16372838488E+02  0.51100000000E-03 0. -1.
        -11    1    3    3    0    0 -0.78953799445E-01  0.10545077536E+02  0.17599687881E+02  0.20517161297E+02  0.51100000000E-03 0.  1.
         12    1    3    3    0    0 -0.16124197437E+01  0.21276254992E+01  0.10565218431E+02  0.10897271593E+02  0.00000000000E+00 0. -1.
</event>
<event>
 7    1  0.2935819E-010  0.4778728E+02  0.7816164E-02  0.1312668E+00
        -11   -1    0    0    0    0  0.00000000000E+00  0.00000000000E+00  0.45593999997E+02  0.45594000000E+02  0.51100000000E-03 0.  1.
         11   -1    0    0    0    0 -0.00000000000E+00 -0.00000000000E+00 -0.45593999997E+02  0.45594000000E+02  0.51100000000E-03 0. -1.
    9900012    2    1    2    0    0  0.13430679469E+01  0.15951522259E+02 -0.40340648534E+02  0.47787276296E+02  0.20000023944E+02 0.  0.
        -12    1    1    2    0    0 -0.13430679469E+01 -0.15951522259E+02  0.40340648534E+02  0.43400723704E+02  0.00000000000E+00 0.  1.
         11    1    3    3    0    0  0.75616218307E+01  0.61217785845E+01 -0.14251763087E+02  0.17255927941E+02  0.51100000000E-03 0. -1.
        -11    1    3    3    0    0 -0.55863566349E+01  0.72950820190E+01 -0.77876988647E+01  0.12044660891E+02  0.51100000000E-03 0.  1.
        -12    1    3    3    0    0 -0.63219724894E+00  0.25346616552E+01 -0.18301186583E+02  0.18486687464E+02  0.00000000000E+00 0.  1.
</event>
<event>
 7    1  0.2935819E-010  0.4778727E+02  0.7816164E-02  0.1312668E+00
        -11   -1    0    0    0    0  0.00000000000E+00  0.00000000000E+00  0.45593999997E+02  0.45594000000E+02  0.51100000000E-03 0.  1.
         11   -1    0    0    0    0 -0.00000000000E+00 -0.00000000000E+00 -0.45593999997E+02  0.45594000000E+02  0.51100000000E-03 0. -1.
    9900012    2    1    2    0    0  0.95532811253E+01 -0.34547819202E+02 -0.24470516892E+02  0.47787272024E+02  0.20000004468E+02 0.  0.
        -12    1    1    2    0    0 -0.95532811253E+01  0.34547819202E+02  0.24470516892E+02  0.43400727976E+02  0.00000000000E+00 0.  1.
         11    1    3    3    0    0  0.34965738486E+01 -0.28587687723E+02 -0.18224124945E+02  0.34082262957E+02  0.51100000000E-03 0. -1.
        -11    1    3    3    0    0  0.34000435721E+01  0.44777370933E+00 -0.58198598021E+01  0.67551140600E+01  0.51100000000E-03 0.  1.
        -12    1    3    3    0    0  0.26566637047E+01 -0.64079051880E+01 -0.42653214542E+00  0.69498950071E+01  0.00000000000E+00 0.  1.
</event>
<event>
 7    1  0.2935819E-010  0.4778727E+02  0.7816164E-02  0.1312668E+00
        -11   -1    0    0    0    0  0.00000000000E+00  0.00000000000E+00  0.45593999997E+02  0.45594000000E+02  0.51100000000E-03 0.  1.
         11   -1    0    0    0    0 -0.00000000000E+00 -0.00000000000E+00 -0.45593999997E+02  0.45594000000E+02  0.51100000000E-03 0. -1.
    9900012    2    1    2    0    0  0.57853671050E+01 -0.27713304321E+02 -0.32895681829E+02  0.47787267380E+02  0.19999983294E+02 0.  0.
        -12    1    1    2    0    0 -0.57853671050E+01  0.27713304321E+02  0.32895681829E+02  0.43400732620E+02  0.00000000000E+00 0.  1.
         11    1    3    3    0    0  0.86346454337E+01 -0.22791493473E+02 -0.24651031727E+02  0.34665294489E+02  0.51100000000E-03 0. -1.
        -11    1    3    3    0    0  0.27162348697E+01 -0.88161818186E+00 -0.75522017969E+00  0.29539025486E+01  0.51100000000E-03 0.  1.
         12    1    3    3    0    0 -0.55655131984E+01 -0.40401926656E+01 -0.74894299222E+01  0.10168070343E+02  0.00000000000E+00 0. -1.
</event>
<event>
 7    1  0.2935819E-010  0.4778727E+02  0.7816164E-02  0.1312668E+00
        -11   -1    0    0    0    0  0.00000000000E+00  0.00000000000E+00  0.45593999997E+02  0.45594000000E+02  0.51100000000E-03 0.  1.
         11   -1    0    0    0    0 -0.00000000000E+00 -0.00000000000E+00 -0.45593999997E+02  0.45594000000E+02  0.51100000000E-03 0. -1.
    9900012    2    1    2    0    0 -0.25493358486E+02  0.17287611897E+02 -0.30575328676E+02  0.47787267568E+02  0.19999984149E+02 0.  0.
        -12    1    1    2    0    0  0.25493358486E+02 -0.17287611897E+02  0.30575328676E+02  0.43400732432E+02  0.00000000000E+00 0.  1.
         11    1    3    3    0    0 -0.18333718810E+02  0.16312247817E+02 -0.21924890477E+02  0.32907681427E+02  0.51100000000E-03 0. -1.
        -11    1    3    3    0    0 -0.27601403219E+00 -0.14720890385E+01 -0.72974770295E+01  0.74495906694E+01  0.51100000000E-03 0.  1.
         12    1    3    3    0    0 -0.68836256438E+01  0.24474531193E+01 -0.13529611693E+01  0.74299954711E+01  0.00000000000E+00 0. -1.
</event>
<event>
 7    1  0.2935819E-010  0.4778727E+02  0.7816164E-02  0.1312668E+00
        -11   -1    0    0    0    0  0.00000000000E+00  0.00000000000E+00  0.45593999997E+02  0.45594000000E+02  0.51100000000E-03 0. -1.
         11   -1    0    0    0    0 -0.00000000000E+00 -0.00000000000E+00 -0.45593999997E+02  0.45594000000E+02  0.51100000000E-03 0.  1.
    9900012    2    1    2    0    0  0.18708537102E+02  0.34007404396E+02  0.19419326064E+02  0.47787272598E+02  0.20000007082E+02 0.  0.
        -12    1    1    2    0    0 -0.18708537102E+02 -0.34007404396E+02 -0.19419326064E+02  0.43400727402E+02  0.00000000000E+00 0.  1.
         11    1    3    3    0    0  0.54129695508E+01  0.82928932631E+01  0.36515297869E+01  0.10554903509E+02  0.51100000000E-03 0. -1.
        -11    1    3    3    0    0  0.33805124215E+01  0.22947058929E+02  0.88298315118E+01  0.24818567697E+02  0.51100000000E-03 0.  1.
        -12    1    3    3    0    0  0.99150551293E+01  0.27674522042E+01  0.69379647656E+01  0.12413801392E+02  0.00000000000E+00 0.  1.
</event>
<event>
 7    1  0.2935819E-010  0.4778727E+02  0.7816164E-02  0.1312668E+00
        -11   -1    0    0    0    0  0.00000000000E+00  0.00000000000E+00  0.45593999997E+02  0.45594000000E+02  0.51100000000E-03 0.  1.
         11   -1    0    0    0    0 -0.00000000000E+00 -0.00000000000E+00 -0.45593999997E+02  0.45594000000E+02  0.51100000000E-03 0. -1.
    9900012    2    1    2    0    0 -0.13496214898E+02 -0.40089618121E+01 -0.41053669148E+02  0.47787270260E+02  0.19999996425E+02 0.  0.
        -12    1    1    2    0    0  0.13496214898E+02  0.40089618121E+01  0.41053669148E+02  0.43400729740E+02  0.00000000000E+00 0.  1.
         11    1    3    3    0    0 -0.39408556916E+01  0.66244616320E+01 -0.77668019027E+01  0.10942442486E+02  0.51100000000E-03 0. -1.
        -11    1    3    3    0    0 -0.24211967644E+01 -0.67682047998E+01 -0.11134430872E+02  0.13253163437E+02  0.51100000000E-03 0.  1.
         12    1    3    3    0    0 -0.71341624422E+01 -0.38652186444E+01 -0.22152436374E+02  0.23591664338E+02  0.00000000000E+00 0. -1.
</event>
<event>
 7    1  0.2935819E-010  0.4778723E+02  0.7816164E-02  0.1312668E+00
        -11   -1    0    0    0    0  0.00000000000E+00  0.00000000000E+00  0.45593999997E+02  0.45594000000E+02  0.51100000000E-03 0.  1.
         11   -1    0    0    0    0 -0.00000000000E+00 -0.00000000000E+00 -0.45593999997E+02  0.45594000000E+02  0.51100000000E-03 0. -1.
    9900012    2    1    2    0    0  0.42020063814E+02  0.10022206182E+02  0.41829261229E+01  0.47787225230E+02  0.19999791112E+02 0.  0.
        -12    1    1    2    0    0 -0.42020063814E+02 -0.10022206182E+02 -0.41829261229E+01  0.43400774770E+02  0.00000000000E+00 0.  1.
         11    1    3    3    0    0  0.10733342720E+02  0.64173712742E+01 -0.31325719454E+01  0.12891869813E+02  0.51100000000E-03 0. -1.
        -11    1    3    3    0    0  0.23513070107E+02  0.26092458067E+01  0.11169760878E+02  0.26161731362E+02  0.51100000000E-03 0.  1.
        -12    1    3    3    0    0  0.77736509865E+01  0.99558910068E+00 -0.38542628095E+01  0.87336240543E+01  0.00000000000E+00 0.  1.
</event>
<event>
 7    1  0.2935819E-010  0.4778727E+02  0.7816164E-02  0.1312668E+00
        -11   -1    0    0    0    0  0.00000000000E+00  0.00000000000E+00  0.45593999997E+02  0.45594000000E+02  0.51100000000E-03 0.  1.
         11   -1    0    0    0    0 -0.00000000000E+00 -0.00000000000E+00 -0.45593999997E+02  0.45594000000E+02  0.51100000000E-03 0. -1.
    9900012    2    1    2    0    0 -0.39919604979E+02 -0.12018173182E+02 -0.12066977142E+02  0.47787270909E+02  0.19999999382E+02 0.  0.
        -12    1    1    2    0    0  0.39919604979E+02  0.12018173182E+02  0.12066977142E+02  0.43400729091E+02  0.00000000000E+00 0.  1.
         11    1    3    3    0    0 -0.37985092716E+02 -0.13876784983E+02 -0.12610082384E+02  0.42360908962E+02  0.51100000000E-03 0. -1.
        -11    1    3    3    0    0 -0.25203454943E+01  0.30107955842E+01  0.10062227896E+01  0.40533339393E+01  0.51100000000E-03 0.  1.
         12    1    3    3    0    0  0.58583323163E+00 -0.11521837835E+01 -0.46311754788E+00  0.13730280075E+01  0.00000000000E+00 0. -1.
</event>
<event>
 7    1  0.2935819E-010  0.4778726E+02  0.7816164E-02  0.1312668E+00
        -11   -1    0    0    0    0  0.00000000000E+00  0.00000000000E+00  0.45593999997E+02  0.45594000000E+02  0.51100000000E-03 0. -1.
         11   -1    0    0    0    0 -0.00000000000E+00 -0.00000000000E+00 -0.45593999997E+02  0.45594000000E+02  0.51100000000E-03 0.  1.
    9900012    2    1    2    0    0  0.42687794620E+02  0.77186477547E+01  0.13412222487E+01  0.47787260263E+02  0.19999950841E+02 0.  0.
        -12    1    1    2    0    0 -0.42687794620E+02 -0.77186477547E+01 -0.13412222487E+01  0.43400739737E+02  0.00000000000E+00 0.  1.
         11    1    3    3    0    0  0.19867914815E+01 -0.31710898636E+01  0.35913982728E+01  0.51866456529E+01  0.51100000000E-03 0. -1.
        -11    1    3    3    0    0  0.58363832033E+00  0.45553250124E+00 -0.84674464372E+00  0.11247756672E+01  0.51100000000E-03 0.  1.
         12    1    3    3    0    0  0.40117364818E+02  0.10434205117E+02 -0.14034313804E+01  0.41475838942E+02  0.00000000000E+00 0. -1.
</event>
<event>
 7    1  0.2935819E-010  0.4778730E+02  0.7816164E-02  0.1312668E+00
        -11   -1    0    0    0    0  0.00000000000E+00  0.00000000000E+00  0.45593999997E+02  0.45594000000E+02  0.51100000000E-03 0.  1.
         11   -1    0    0    0    0 -0.00000000000E+00 -0.00000000000E+00 -0.45593999997E+02  0.45594000000E+02  0.51100000000E-03 0. -1.
    9900012    2    1    2    0    0  0.36634831022E+02 -0.21604066330E+02 -0.86472199130E+01  0.47787297953E+02  0.20000122685E+02 0.  0.
        -12    1    1    2    0    0 -0.36634831022E+02  0.21604066330E+02  0.86472199130E+01  0.43400702047E+02  0.00000000000E+00 0.  1.
         11    1    3    3    0    0  0.12554735386E+02 -0.17239748932E+00 -0.72468464867E+01  0.14497168198E+02  0.51100000000E-03 0. -1.
        -11    1    3    3    0    0 -0.15496997529E+00 -0.11350990147E+01 -0.12262152756E+01  0.16781149036E+01  0.51100000000E-03 0.  1.
         12    1    3    3    0    0  0.24235065611E+02 -0.20296569826E+02 -0.17415815063E+00  0.31612014851E+02  0.00000000000E+00 0. -1.
</event>
<event>
 7    1  0.2935819E-010  0.4778727E+02  0.7816164E-02  0.1312668E+00
        -11   -1    0    0    0    0  0.00000000000E+00  0.00000000000E+00  0.45593999997E+02  0.45594000000E+02  0.51100000000E-03 0. -1.
         11   -1    0    0    0    0 -0.00000000000E+00 -0.00000000000E+00 -0.45593999997E+02  0.45594000000E+02  0.51100000000E-03 0.  1.
    9900012    2    1    2    0    0  0.96715251006E+01  0.34428899442E+02  0.24591382584E+02  0.47787267149E+02  0.19999982240E+02 0.  0.
        -12    1    1    2    0    0 -0.96715251006E+01 -0.34428899442E+02 -0.24591382584E+02  0.43400732851E+02  0.00000000000E+00 0.  1.
         11    1    3    3    0    0 -0.11227564460E+01  0.23939669822E+02  0.17989124029E+02  0.29966263645E+02  0.51100000000E-03 0. -1.
        -11    1    3    3    0    0  0.75852191577E+01  0.25723147507E+01  0.31071592153E+01  0.85910879111E+01  0.51100000000E-03 0.  1.
         12    1    3    3    0    0  0.32090623889E+01  0.79169148692E+01  0.34950993403E+01  0.92299155934E+01  0.00000000000E+00 0. -1.
</event>
<event>
 7    1  0.2935819E-010  0.4778728E+02  0.7816164E-02  0.1312668E+00
        -11   -1    0    0    0    0  0.00000000000E+00  0.00000000000E+00  0.45593999997E+02  0.45594000000E+02  0.51100000000E-03 0.  1.
         11   -1    0    0    0    0 -0.00000000000E+00 -0.00000000000E+00 -0.45593999997E+02  0.45594000000E+02  0.51100000000E-03 0. -1.
    9900012    2    1    2    0    0 -0.82686589031E+01  0.95671414513E+01 -0.41517731261E+02  0.47787275067E+02  0.20000018342E+02 0.  0.
        -12    1    1    2    0    0  0.82686589031E+01 -0.95671414513E+01  0.41517731261E+02  0.43400724933E+02  0.00000000000E+00 0.  1.
         11    1    3    3    0    0 -0.61335644206E+01 -0.28579738506E+01 -0.26044185624E+02  0.26908887604E+02  0.51100000000E-03 0. -1.
        -11    1    3    3    0    0 -0.11307794208E+01  0.53338249686E+01 -0.23698242361E+01  0.59451171616E+01  0.51100000000E-03 0.  1.
         12    1    3    3    0    0 -0.10043150616E+01  0.70912903333E+01 -0.13103721401E+02  0.14933270301E+02  0.00000000000E+00 0. -1.
</event>
<event>
 7    1  0.2935819E-010  0.4778727E+02  0.7816164E-02  0.1312668E+00
        -11   -1    0    0    0    0  0.00000000000E+00  0.00000000000E+00  0.45593999997E+02  0.45594000000E+02  0.51100000000E-03 0.  1.
         11   -1    0    0    0    0 -0.00000000000E+00 -0.00000000000E+00 -0.45593999997E+02  0.45594000000E+02  0.51100000000E-03 0. -1.
    9900012    2    1    2    0    0 -0.13450286604E+02 -0.91891058118E+01 -0.40227768589E+02  0.47787271423E+02  0.20000001727E+02 0.  0.
        -12    1    1    2    0    0  0.13450286604E+02  0.91891058118E+01  0.40227768589E+02  0.43400728577E+02  0.00000000000E+00 0.  1.
         11    1    3    3    0    0 -0.14655407975E+02 -0.66598497225E+01 -0.28244159942E+02  0.32509493265E+02  0.51100000000E-03 0. -1.
        -11    1    3    3    0    0  0.69290141720E+00  0.31848729143E+01 -0.68215682622E+01  0.75602461382E+01  0.51100000000E-03 0.  1.
         12    1    3    3    0    0  0.51221995367E+00 -0.57141290036E+01 -0.51620403844E+01  0.77175320201E+01  0.00000000000E+00 0. -1.
</event>
<event>
 7    1  0.2935819E-010  0.4778727E+02  0.7816164E-02  0.1312668E+00
        -11   -1    0    0    0    0  0.00000000000E+00  0.00000000000E+00  0.45593999997E+02  0.45594000000E+02  0.51100000000E-03 0.  1.
         11   -1    0    0    0    0 -0.00000000000E+00 -0.00000000000E+00 -0.45593999997E+02  0.45594000000E+02  0.51100000000E-03 0. -1.
    9900012    2    1    2    0    0 -0.40661636707E+01 -0.30747136083E+02 -0.30359563397E+02  0.47787272426E+02  0.20000006299E+02 0.  0.
        -12    1    1    2    0    0  0.40661636707E+01  0.30747136083E+02  0.30359563397E+02  0.43400727574E+02  0.00000000000E+00 0.  1.
         11    1    3    3    0    0 -0.10260622509E+02 -0.24729596696E+02 -0.16909644743E+02  0.31666534585E+02  0.51100000000E-03 0. -1.
        -11    1    3    3    0    0  0.55408390925E+01 -0.45198953849E+01 -0.98950584341E+01  0.12208297744E+02  0.51100000000E-03 0.  1.
         12    1    3    3    0    0  0.65361974593E+00 -0.14976440025E+01 -0.35548602199E+01  0.39124400971E+01  0.00000000000E+00 0. -1.
</event>
<event>
 7    1  0.2935819E-010  0.4778722E+02  0.7816164E-02  0.1312668E+00
        -11   -1    0    0    0    0  0.00000000000E+00  0.00000000000E+00  0.45593999997E+02  0.45594000000E+02  0.51100000000E-03 0. -1.
         11   -1    0    0    0    0 -0.00000000000E+00 -0.00000000000E+00 -0.45593999997E+02  0.45594000000E+02  0.51100000000E-03 0.  1.
    9900012    2    1    2    0    0  0.41056914639E+02  0.45217030874E+01 -0.13323361135E+02  0.47787216708E+02  0.19999752255E+02 0.  0.
        -12    1    1    2    0    0 -0.41056914639E+02 -0.45217030874E+01  0.13323361135E+02  0.43400783292E+02  0.00000000000E+00 0.  1.
         11    1    3    3    0    0  0.11158606676E+02  0.21504879812E+01 -0.49999651925E+01  0.12415262933E+02  0.51100000000E-03 0. -1.
        -11    1    3    3    0    0  0.23808683866E+02  0.39897855782E+01  0.95119717000E+00  0.24159399676E+02  0.51100000000E-03 0.  1.
        -12    1    3    3    0    0  0.60896240966E+01 -0.16185704720E+01 -0.92745931126E+01  0.11212554099E+02  0.00000000000E+00 0.  1.
</event>
<event>
 7    1  0.2935819E-010  0.4778727E+02  0.7816164E-02  0.1312668E+00
        -11   -1    0    0    0    0  0.00000000000E+00  0.00000000000E+00  0.45593999997E+02  0.45594000000E+02  0.51100000000E-03 0.  1.
         11   -1    0    0    0    0 -0.00000000000E+00 -0.00000000000E+00 -0.45593999997E+02  0.45594000000E+02  0.51100000000E-03 0. -1.
    9900012    2    1    2    0    0 -0.39189514193E+02  0.18296953198E+02 -0.36092805453E+01  0.47787269302E+02  0.19999992057E+02 0.  0.
        -12    1    1    2    0    0  0.39189514193E+02 -0.18296953198E+02  0.36092805453E+01  0.43400730698E+02  0.00000000000E+00 0.  1.
         11    1    3    3    0    0 -0.51021473195E+01 -0.18985275610E+01  0.27347761784E+01  0.60922340054E+01  0.51100000000E-03 0. -1.
        -11    1    3    3    0    0 -0.11736759284E+02  0.10761801570E+02  0.19807167053E+01  0.16046530168E+02  0.51100000000E-03 0.  1.
         12    1    3    3    0    0 -0.22350607590E+02  0.94336791893E+01 -0.83247734290E+01  0.25648505129E+02  0.00000000000E+00 0. -1.
</event>
<event>
 7    1  0.2935819E-010  0.4778727E+02  0.7816164E-02  0.1312668E+00
        -11   -1    0    0    0    0  0.00000000000E+00  0.00000000000E+00  0.45593999997E+02  0.45594000000E+02  0.51100000000E-03 0.  1.
         11   -1    0    0    0    0 -0.00000000000E+00 -0.00000000000E+00 -0.45593999997E+02  0.45594000000E+02  0.51100000000E-03 0. -1.
    9900012    2    1    2    0    0  0.22243669054E+02 -0.36034537888E+02 -0.95054946040E+01  0.47787272340E+02  0.20000005906E+02 0.  0.
        -12    1    1    2    0    0 -0.22243669054E+02  0.36034537888E+02  0.95054946040E+01  0.43400727660E+02  0.00000000000E+00 0.  1.
         11    1    3    3    0    0  0.13494153700E+02 -0.34010575123E+02 -0.87937179182E+01  0.37631647312E+02  0.51100000000E-03 0. -1.
        -11    1    3    3    0    0  0.51109928781E+01  0.11805573799E+00  0.15807605168E+01  0.53511671092E+01  0.51100000000E-03 0.  1.
         12    1    3    3    0    0  0.36385224754E+01 -0.21420185025E+01 -0.22925372026E+01  0.48044579189E+01  0.00000000000E+00 0. -1.
</event>
<event>
 7    1  0.2935819E-010  0.4778729E+02  0.7816164E-02  0.1312668E+00
        -11   -1    0    0    0    0  0.00000000000E+00  0.00000000000E+00  0.45593999997E+02  0.45594000000E+02  0.51100000000E-03 0. -1.
         11   -1    0    0    0    0 -0.00000000000E+00 -0.00000000000E+00 -0.45593999997E+02  0.45594000000E+02  0.51100000000E-03 0.  1.
    9900012    2    1    2    0    0 -0.13898432291E+01 -0.39374512280E+02  0.18202677140E+02  0.47787293363E+02  0.20000101758E+02 0.  0.
        -12    1    1    2    0    0  0.13898432291E+01  0.39374512280E+02 -0.18202677140E+02  0.43400706637E+02  0.00000000000E+00 0.  1.
         11    1    3    3    0    0  0.34514716869E+01 -0.26327898270E+02  0.14206539261E+02  0.30114724673E+02  0.51100000000E-03 0. -1.
        -11    1    3    3    0    0  0.27941196219E+01 -0.63751813902E+01  0.26328640679E+01  0.74419094109E+01  0.51100000000E-03 0.  1.
         12    1    3    3    0    0 -0.76354345379E+01 -0.66714326207E+01  0.13632738112E+01  0.10230659279E+02  0.00000000000E+00 0. -1.
</event>
<event>
 7    1  0.2935819E-010  0.4778726E+02  0.7816164E-02  0.1312668E+00
        -11   -1    0    0    0    0  0.00000000000E+00  0.00000000000E+00  0.45593999997E+02  0.45594000000E+02  0.51100000000E-03 0.  1.
         11   -1    0    0    0    0 -0.00000000000E+00 -0.00000000000E+00 -0.45593999997E+02  0.45594000000E+02  0.51100000000E-03 0. -1.
    9900012    2    1    2    0    0 -0.35765419524E+02 -0.24554517816E+02  0.12388119868E+01  0.47787259982E+02  0.19999949563E+02 0.  0.
        -12    1    1    2    0    0  0.35765419524E+02  0.24554517816E+02 -0.12388119868E+01  0.43400740018E+02  0.00000000000E+00 0.  1.
         11    1    3    3    0    0 -0.19037175398E+02 -0.21809669042E+02  0.57277638019E+01  0.29510726682E+02  0.51100000000E-03 0. -1.
        -11    1    3    3    0    0 -0.54759898840E+01  0.14267172721E+01 -0.75819816397E+00  0.57093652975E+01  0.51100000000E-03 0.  1.
         12    1    3    3    0    0 -0.11252254242E+02 -0.41715660467E+01 -0.37307536511E+01  0.12567168003E+02  0.00000000000E+00 0. -1.
</event>
<event>
 7    1  0.2935819E-010  0.4778726E+02  0.7816164E-02  0.1312668E+00
        -11   -1    0    0    0    0  0.00000000000E+00  0.00000000000E+00  0.45593999997E+02  0.45594000000E+02  0.51100000000E-03 0.  1.
         11   -1    0    0    0    0 -0.00000000000E+00 -0.00000000000E+00 -0.45593999997E+02  0.45594000000E+02  0.51100000000E-03 0. -1.
    9900012    2    1    2    0    0 -0.31491120197E+01  0.42475698543E+02 -0.83379990760E+01  0.47787261507E+02  0.19999956513E+02 0.  0.
        -12    1    1    2    0    0  0.31491120197E+01 -0.42475698543E+02  0.83379990760E+01  0.43400738493E+02  0.00000000000E+00 0.  1.
         11    1    3    3    0    0  0.57716072508E+01  0.11273598085E+02 -0.65549964928E+01  0.14260906119E+02  0.51100000000E-03 0. -1.
        -11    1    3    3    0    0 -0.25309345898E+01  0.16393881359E+02  0.26541725909E+01  0.16799095461E+02  0.51100000000E-03 0.  1.
         12    1    3    3    0    0 -0.63897846807E+01  0.14808219098E+02 -0.44371751741E+01  0.16727259927E+02  0.00000000000E+00 0. -1.
</event>
<event>
 7    1  0.2935819E-010  0.4778727E+02  0.7816164E-02  0.1312668E+00
        -11   -1    0    0    0    0  0.00000000000E+00  0.00000000000E+00  0.45593999997E+02  0.45594000000E+02  0.51100000000E-03 0. -1.
         11   -1    0    0    0    0 -0.00000000000E+00 -0.00000000000E+00 -0.45593999997E+02  0.45594000000E+02  0.51100000000E-03 0.  1.
    9900012    2    1    2    0    0  0.21066028357E+02  0.30437820045E+02  0.22658000201E+02  0.47787269442E+02  0.19999992694E+02 0.  0.
        -12    1    1    2    0    0 -0.21066028357E+02 -0.30437820045E+02 -0.22658000201E+02  0.43400730558E+02  0.00000000000E+00 0.  1.
         11    1    3    3    0    0  0.67350787179E+01  0.52213405478E+01  0.53547640361E+00  0.85387597279E+01  0.51100000000E-03 0. -1.
        -11    1    3    3    0    0  0.14930969346E+02  0.16245666781E+02  0.20488513553E+02  0.30110375665E+02  0.51100000000E-03 0.  1.
        -12    1    3    3    0    0 -0.60001970643E+00  0.89708127157E+01  0.16340102445E+01  0.91381340496E+01  0.00000000000E+00 0.  1.
</event>
<event>
 7    1  0.2935819E-010  0.4778727E+02  0.7816164E-02  0.1312668E+00
        -11   -1    0    0    0    0  0.00000000000E+00  0.00000000000E+00  0.45593999997E+02  0.45594000000E+02  0.51100000000E-03 0.  1.
         11   -1    0    0    0    0 -0.00000000000E+00 -0.00000000000E+00 -0.45593999997E+02  0.45594000000E+02  0.51100000000E-03 0. -1.
    9900012    2    1    2    0    0 -0.11273989370E+02 -0.27839371155E+02 -0.31328740148E+02  0.47787269800E+02  0.19999994328E+02 0.  0.
        -12    1    1    2    0    0  0.11273989370E+02  0.27839371155E+02  0.31328740148E+02  0.43400730200E+02  0.00000000000E+00 0.  1.
         11    1    3    3    0    0 -0.75024536687E+01 -0.21544009665E+02 -0.23961537194E+02  0.33084534581E+02  0.51100000000E-03 0. -1.
        -11    1    3    3    0    0 -0.53250833682E+01  0.79330595752E+00 -0.39741949578E+01  0.66917914675E+01  0.51100000000E-03 0.  1.
        -12    1    3    3    0    0  0.15535476672E+01 -0.70886674470E+01 -0.33930079962E+01  0.80109437516E+01  0.00000000000E+00 0.  1.
</event>
<event>
 7    1  0.2935819E-010  0.4778727E+02  0.7816164E-02  0.1312668E+00
        -11   -1    0    0    0    0  0.00000000000E+00  0.00000000000E+00  0.45593999997E+02  0.45594000000E+02  0.51100000000E-03 0.  1.
         11   -1    0    0    0    0 -0.00000000000E+00 -0.00000000000E+00 -0.45593999997E+02  0.45594000000E+02  0.51100000000E-03 0. -1.
    9900012    2    1    2    0    0 -0.91841723259E+00 -0.23733764739E+02 -0.36324755866E+02  0.47787274573E+02  0.20000016086E+02 0.  0.
        -12    1    1    2    0    0  0.91841723259E+00  0.23733764739E+02  0.36324755866E+02  0.43400725427E+02  0.00000000000E+00 0.  1.
         11    1    3    3    0    0 -0.83241710140E+01 -0.18218949483E+02 -0.29208883509E+02  0.35417239015E+02  0.51100000000E-03 0. -1.
        -11    1    3    3    0    0  0.46011097110E+01 -0.56753288970E+01 -0.50028943256E+01  0.88548585848E+01  0.51100000000E-03 0.  1.
         12    1    3    3    0    0  0.28046440704E+01  0.16051364053E+00 -0.21129780310E+01  0.35151769728E+01  0.00000000000E+00 0. -1.
</event>
<event>
 7    1  0.2935819E-010  0.4778728E+02  0.7816164E-02  0.1312668E+00
        -11   -1    0    0    0    0  0.00000000000E+00  0.00000000000E+00  0.45593999997E+02  0.45594000000E+02  0.51100000000E-03 0. -1.
         11   -1    0    0    0    0 -0.00000000000E+00 -0.00000000000E+00 -0.45593999997E+02  0.45594000000E+02  0.51100000000E-03 0.  1.
    9900012    2    1    2    0    0  0.20746300006E+02  0.13461559394E+02  0.35665104125E+02  0.47787283445E+02  0.20000056540E+02 0.  0.
        -12    1    1    2    0    0 -0.20746300006E+02 -0.13461559394E+02 -0.35665104125E+02  0.43400716555E+02  0.00000000000E+00 0.  1.
         11    1    3    3    0    0  0.11656409284E+02  0.97272855235E+00  0.67617746350E+01  0.13510724434E+02  0.51100000000E-03 0. -1.
        -11    1    3    3    0    0  0.13370112032E+01  0.78526827608E+01  0.70792348386E+01  0.10656819022E+02  0.51100000000E-03 0.  1.
         12    1    3    3    0    0  0.77528795180E+01  0.46361480805E+01  0.21824094651E+02  0.23619739990E+02  0.00000000000E+00 0. -1.
</event>
<event>
 7    1  0.2935819E-010  0.4778727E+02  0.7816164E-02  0.1312668E+00
        -11   -1    0    0    0    0  0.00000000000E+00  0.00000000000E+00  0.45593999997E+02  0.45594000000E+02  0.51100000000E-03 0. -1.
         11   -1    0    0    0    0 -0.00000000000E+00 -0.00000000000E+00 -0.45593999997E+02  0.45594000000E+02  0.51100000000E-03 0.  1.
    9900012    2    1    2    0    0 -0.14383888594E+02 -0.40789786401E+02 -0.35944412915E+01  0.47787274961E+02  0.20000017857E+02 0.  0.
        -12    1    1    2    0    0  0.14383888594E+02  0.40789786401E+02  0.35944412915E+01  0.43400725039E+02  0.00000000000E+00 0.  1.
         11    1    3    3    0    0 -0.35065038277E+01 -0.86845741926E+01  0.55781013213E+01  0.10901037226E+02  0.51100000000E-03 0. -1.
        -11    1    3    3    0    0 -0.84246001636E+01 -0.98882410823E+01 -0.60040335123E+01  0.14310821720E+02  0.51100000000E-03 0.  1.
        -12    1    3    3    0    0 -0.24527846027E+01 -0.22216971126E+02 -0.31685091006E+01  0.22575416015E+02  0.00000000000E+00 0.  1.
</event>
<event>
 7    1  0.2935819E-010  0.4778728E+02  0.7816164E-02  0.1312668E+00
        -11   -1    0    0    0    0  0.00000000000E+00  0.00000000000E+00  0.45593999997E+02  0.45594000000E+02  0.51100000000E-03 0. -1.
         11   -1    0    0    0    0 -0.00000000000E+00 -0.00000000000E+00 -0.45593999997E+02  0.45594000000E+02  0.51100000000E-03 0.  1.
    9900012    2    1    2    0    0  0.31784567139E+02 -0.15921361933E+02  0.24897275159E+02  0.47787276684E+02  0.20000025714E+02 0.  0.
        -12    1    1    2    0    0 -0.31784567139E+02  0.15921361933E+02 -0.24897275159E+02  0.43400723316E+02  0.00000000000E+00 0.  1.
         11    1    3    3    0    0  0.23774557062E+02 -0.13911749692E+02  0.16772400754E+02  0.32250267756E+02  0.51100000000E-03 0. -1.
        -11    1    3    3    0    0  0.14461431420E+01  0.27816739663E+01 -0.10258393676E+01  0.32986946981E+01  0.51100000000E-03 0.  1.
         12    1    3    3    0    0  0.65638669342E+01 -0.47912862075E+01  0.91507137729E+01  0.12238314231E+02  0.00000000000E+00 0. -1.
</event>
<event>
 7    1  0.2935819E-010  0.4778726E+02  0.7816164E-02  0.1312668E+00
        -11   -1    0    0    0    0  0.00000000000E+00  0.00000000000E+00  0.45593999997E+02  0.45594000000E+02  0.51100000000E-03 0.  1.
         11   -1    0    0    0    0 -0.00000000000E+00 -0.00000000000E+00 -0.45593999997E+02  0.45594000000E+02  0.51100000000E-03 0. -1.
    9900012    2    1    2    0    0 -0.33822062285E+02 -0.26651770712E+02  0.54199026394E+01  0.47787261252E+02  0.19999955352E+02 0.  0.
        -12    1    1    2    0    0  0.33822062285E+02  0.26651770712E+02 -0.54199026394E+01  0.43400738748E+02  0.00000000000E+00 0.  1.
         11    1    3    3    0    0 -0.19586265666E+02 -0.21410306792E+02  0.10794310392E+02  0.30960300011E+02  0.51100000000E-03 0. -1.
        -11    1    3    3    0    0 -0.10880794441E+02 -0.26720195840E+01 -0.19168839731E+01  0.11366873834E+02  0.51100000000E-03 0.  1.
         12    1    3    3    0    0 -0.33550021782E+01 -0.25694443358E+01 -0.34575237798E+01  0.54600874076E+01  0.00000000000E+00 0. -1.
</event>
<event>
 7    1  0.2935819E-010  0.4778724E+02  0.7816164E-02  0.1312668E+00
        -11   -1    0    0    0    0  0.00000000000E+00  0.00000000000E+00  0.45593999997E+02  0.45594000000E+02  0.51100000000E-03 0.  1.
         11   -1    0    0    0    0 -0.00000000000E+00 -0.00000000000E+00 -0.45593999997E+02  0.45594000000E+02  0.51100000000E-03 0. -1.
    9900012    2    1    2    0    0 -0.28446425226E+02 -0.15988288287E+02 -0.28614706387E+02  0.47787240881E+02  0.19999862471E+02 0.  0.
        -12    1    1    2    0    0  0.28446425226E+02  0.15988288287E+02  0.28614706387E+02  0.43400759119E+02  0.00000000000E+00 0.  1.
         11    1    3    3    0    0 -0.18131887713E+02 -0.39706881477E+01 -0.12990375289E+02  0.22655718193E+02  0.51100000000E-03 0. -1.
        -11    1    3    3    0    0  0.13024288157E+01 -0.67428302222E+01 -0.64046336167E+01  0.93904958469E+01  0.51100000000E-03 0.  1.
        -12    1    3    3    0    0 -0.11616966329E+02 -0.52747699175E+01 -0.92196974811E+01  0.15741026841E+02  0.00000000000E+00 0.  1.
</event>
<event>
 7    1  0.2935819E-010  0.4778727E+02  0.7816164E-02  0.1312668E+00
        -11   -1    0    0    0    0  0.00000000000E+00  0.00000000000E+00  0.45593999997E+02  0.45594000000E+02  0.51100000000E-03 0.  1.
         11   -1    0    0    0    0 -0.00000000000E+00 -0.00000000000E+00 -0.45593999997E+02  0.45594000000E+02  0.51100000000E-03 0. -1.
    9900012    2    1    2    0    0  0.37341807069E+02 -0.48772899973E+01 -0.21573702565E+02  0.47787272411E+02  0.20000006232E+02 0.  0.
        -12    1    1    2    0    0 -0.37341807069E+02  0.48772899973E+01  0.21573702565E+02  0.43400727589E+02  0.00000000000E+00 0.  1.
         11    1    3    3    0    0  0.37933871391E+02 -0.63859267763E+01 -0.21787635318E+02  0.44209271794E+02  0.51100000000E-03 0. -1.
        -11    1    3    3    0    0 -0.17967439027E+00  0.23296020291E+01 -0.52996510893E+00  0.23958697331E+01  0.51100000000E-03 0.  1.
         12    1    3    3    0    0 -0.41238993218E+00 -0.82096525010E+00  0.74389786230E+00  0.11821308843E+01  0.00000000000E+00 0. -1.
</event>
<event>
 7    1  0.2935819E-010  0.4778727E+02  0.7816164E-02  0.1312668E+00
        -11   -1    0    0    0    0  0.00000000000E+00  0.00000000000E+00  0.45593999997E+02  0.45594000000E+02  0.51100000000E-03 0.  1.
         11   -1    0    0    0    0 -0.00000000000E+00 -0.00000000000E+00 -0.45593999997E+02  0.45594000000E+02  0.51100000000E-03 0. -1.
    9900012    2    1    2    0    0  0.35395370841E+02 -0.76718837430E+01 -0.23915126901E+02  0.47787269916E+02  0.19999994857E+02 0.  0.
        -12    1    1    2    0    0 -0.35395370841E+02  0.76718837430E+01  0.23915126901E+02  0.43400730084E+02  0.00000000000E+00 0.  1.
         11    1    3    3    0    0  0.24718958485E+02 -0.55269433454E+01 -0.79322254775E+01  0.26542309859E+02  0.51100000000E-03 0. -1.
        -11    1    3    3    0    0  0.55791371434E+01  0.30662213867E+01 -0.98006024048E+01  0.11686757147E+02  0.51100000000E-03 0.  1.
         12    1    3    3    0    0  0.50972752119E+01 -0.52111617843E+01 -0.61822990183E+01  0.95582029106E+01  0.00000000000E+00 0. -1.
</event>
<event>
 7    1  0.3007952E-010  0.4778727E+02  0.7816164E-02  0.1312668E+00
        -11   -1    0    0    0    0  0.00000000000E+00  0.00000000000E+00  0.45593999997E+02  0.45594000000E+02  0.51100000000E-03 0.  1.
         11   -1    0    0    0    0 -0.00000000000E+00 -0.00000000000E+00 -0.45593999997E+02  0.45594000000E+02  0.51100000000E-03 0. -1.
    9900012    2    1    2    0    0 -0.37203644875E+02 -0.15665459664E+02 -0.15940683261E+02  0.47787271881E+02  0.20000003813E+02 0.  0.
        -12    1    1    2    0    0  0.37203644875E+02  0.15665459664E+02  0.15940683261E+02  0.43400728119E+02  0.00000000000E+00 0.  1.
         11    1    3    3    0    0 -0.27222885857E+02 -0.12191932286E+02 -0.90437162628E+01  0.31169175981E+02  0.51100000000E-03 0. -1.
        -11    1    3    3    0    0  0.17716082888E+00 -0.23703597845E+01  0.19717521832E+01  0.30883326246E+01  0.51100000000E-03 0.  1.
        -12    1    3    3    0    0 -0.10157919846E+02 -0.11031675936E+01 -0.88687191816E+01  0.13529763275E+02  0.00000000000E+00 0.  1.
</event>
<event>
 7    1  0.3124906E-010  0.4778727E+02  0.7816164E-02  0.1312668E+00
        -11   -1    0    0    0    0  0.00000000000E+00  0.00000000000E+00  0.45593999997E+02  0.45594000000E+02  0.51100000000E-03 0. -1.
         11   -1    0    0    0    0 -0.00000000000E+00 -0.00000000000E+00 -0.45593999997E+02  0.45594000000E+02  0.51100000000E-03 0.  1.
    9900012    2    1    2    0    0  0.15216957679E+02  0.29049833943E+02  0.28428411542E+02  0.47787271481E+02  0.20000001991E+02 0.  0.
        -12    1    1    2    0    0 -0.15216957679E+02 -0.29049833943E+02 -0.28428411542E+02  0.43400728519E+02  0.00000000000E+00 0.  1.
         11    1    3    3    0    0  0.11084779138E+02  0.13869874052E+02  0.11169037591E+02  0.20976013342E+02  0.51100000000E-03 0. -1.
        -11    1    3    3    0    0 -0.11185040078E+01  0.15141636976E+02  0.11732731658E+02  0.19187944495E+02  0.51100000000E-03 0.  1.
        -12    1    3    3    0    0  0.52506825493E+01  0.38322915461E-01  0.55266422934E+01  0.76233136443E+01  0.00000000000E+00 0.  1.
</event>
<event>
 7    1  0.2935819E-010  0.4778727E+02  0.7816164E-02  0.1312668E+00
        -11   -1    0    0    0    0  0.00000000000E+00  0.00000000000E+00  0.45593999997E+02  0.45594000000E+02  0.51100000000E-03 0.  1.
         11   -1    0    0    0    0 -0.00000000000E+00 -0.00000000000E+00 -0.45593999997E+02  0.45594000000E+02  0.51100000000E-03 0. -1.
    9900012    2    1    2    0    0  0.16948980984E+02  0.39739137260E+02 -0.41420136266E+01  0.47787271165E+02  0.20000000549E+02 0.  0.
        -12    1    1    2    0    0 -0.16948980984E+02 -0.39739137260E+02  0.41420136266E+01  0.43400728835E+02  0.00000000000E+00 0.  1.
         11    1    3    3    0    0  0.11755713458E+02  0.10163102949E+02 -0.56633846788E+01  0.16539630792E+02  0.51100000000E-03 0. -1.
        -11    1    3    3    0    0  0.22655938619E+01  0.73837475889E+01 -0.32175995784E+01  0.83669344034E+01  0.51100000000E-03 0.  1.
         12    1    3    3    0    0  0.29276736641E+01  0.22192286721E+02  0.47389706306E+01  0.22880705969E+02  0.00000000000E+00 0. -1.
</event>
<event>
 7    1  0.2935819E-010  0.4778727E+02  0.7816164E-02  0.1312668E+00
        -11   -1    0    0    0    0  0.00000000000E+00  0.00000000000E+00  0.45593999997E+02  0.45594000000E+02  0.51100000000E-03 0.  1.
         11   -1    0    0    0    0 -0.00000000000E+00 -0.00000000000E+00 -0.45593999997E+02  0.45594000000E+02  0.51100000000E-03 0. -1.
    9900012    2    1    2    0    0 -0.39417518490E+02  0.15317564592E+02 -0.97598491746E+01  0.47787271840E+02  0.20000003626E+02 0.  0.
        -12    1    1    2    0    0  0.39417518490E+02 -0.15317564592E+02  0.97598491746E+01  0.43400728160E+02  0.00000000000E+00 0.  1.
         11    1    3    3    0    0 -0.32006133559E+02  0.10694884133E+02 -0.59400522428E+01  0.34264520322E+02  0.51100000000E-03 0. -1.
        -11    1    3    3    0    0  0.12511379317E+01  0.40379567666E+01 -0.63472125179E+00  0.42747295004E+01  0.51100000000E-03 0.  1.
        -12    1    3    3    0    0 -0.86625228624E+01  0.58472369267E+00 -0.31850756800E+01  0.92480220170E+01  0.00000000000E+00 0.  1.
</event>
<event>
 7    1  0.2935819E-010  0.4778727E+02  0.7816164E-02  0.1312668E+00
        -11   -1    0    0    0    0  0.00000000000E+00  0.00000000000E+00  0.45593999997E+02  0.45594000000E+02  0.51100000000E-03 0.  1.
         11   -1    0    0    0    0 -0.00000000000E+00 -0.00000000000E+00 -0.45593999997E+02  0.45594000000E+02  0.51100000000E-03 0. -1.
    9900012    2    1    2    0    0  0.22925071409E+02 -0.36851433960E+02 -0.19040055289E+00  0.47787270324E+02  0.19999996717E+02 0.  0.
        -12    1    1    2    0    0 -0.22925071409E+02  0.36851433960E+02  0.19040055289E+00  0.43400729676E+02  0.00000000000E+00 0.  1.
         11    1    3    3    0    0 -0.16267151944E+01 -0.10928397544E+02  0.30586504838E+01  0.11464354245E+02  0.51100000000E-03 0.  1.
        -11    1    3    3    0    0  0.19416904685E+02 -0.20181081170E+02 -0.11164123256E+00  0.28005440342E+02  0.51100000000E-03 0. -1.
        -12    1    3    3    0    0  0.51348819185E+01 -0.57419552454E+01 -0.31374098042E+01  0.83174757370E+01  0.00000000000E+00 0.  1.
</event>
<event>
 7    1  0.2935819E-010  0.4778727E+02  0.7816164E-02  0.1312668E+00
        -11   -1    0    0    0    0  0.00000000000E+00  0.00000000000E+00  0.45593999997E+02  0.45594000000E+02  0.51100000000E-03 0.  1.
         11   -1    0    0    0    0 -0.00000000000E+00 -0.00000000000E+00 -0.45593999997E+02  0.45594000000E+02  0.51100000000E-03 0. -1.
    9900012    2    1    2    0    0 -0.36910270372E+01  0.43222478346E+02  0.13478507575E+01  0.47787274008E+02  0.20000013513E+02 0.  0.
        -12    1    1    2    0    0  0.36910270372E+01 -0.43222478346E+02 -0.13478507575E+01  0.43400725992E+02  0.00000000000E+00 0.  1.
         11    1    3    3    0    0  0.71138803281E+01  0.15174604736E+02 -0.22665886508E+01  0.16911929121E+02  0.51100000000E-03 0.  1.
        -11    1    3    3    0    0 -0.12459419451E+01  0.11250774798E+02  0.84047769735E+00  0.11350713982E+02  0.51100000000E-03 0. -1.
         12    1    3    3    0    0 -0.95589654202E+01  0.16797098812E+02  0.27739617109E+01  0.19524630905E+02  0.00000000000E+00 0. -1.
</event>
<event>
 7    1  0.2935819E-010  0.4778727E+02  0.7816164E-02  0.1312668E+00
        -11   -1    0    0    0    0  0.00000000000E+00  0.00000000000E+00  0.45593999997E+02  0.45594000000E+02  0.51100000000E-03 0. -1.
         11   -1    0    0    0    0 -0.00000000000E+00 -0.00000000000E+00 -0.45593999997E+02  0.45594000000E+02  0.51100000000E-03 0.  1.
    9900012    2    1    2    0    0  0.57274026604E+01 -0.10980305805E+02  0.41596308338E+02  0.47787272769E+02  0.20000007863E+02 0.  0.
        -12    1    1    2    0    0 -0.57274026604E+01  0.10980305805E+02 -0.41596308338E+02  0.43400727231E+02  0.00000000000E+00 0.  1.
         11    1    3    3    0    0  0.20534463055E+01 -0.56054670316E+01  0.13325912617E+01  0.61166741048E+01  0.51100000000E-03 0.  1.
        -11    1    3    3    0    0  0.36317104036E+00 -0.70209045173E+01  0.27176775964E+02  0.28071375910E+02  0.51100000000E-03 0. -1.
         12    1    3    3    0    0  0.33107853146E+01  0.16460657435E+01  0.13086941112E+02  0.13599222754E+02  0.00000000000E+00 0. -1.
</event>
<event>
 7    1  0.2935819E-010  0.4778727E+02  0.7816164E-02  0.1312668E+00
        -11   -1    0    0    0    0  0.00000000000E+00  0.00000000000E+00  0.45593999997E+02  0.45594000000E+02  0.51100000000E-03 0.  1.
         11   -1    0    0    0    0 -0.00000000000E+00 -0.00000000000E+00 -0.45593999997E+02  0.45594000000E+02  0.51100000000E-03 0. -1.
    9900012    2    1    2    0    0 -0.80851295542E+01 -0.34568007503E+02 -0.24966113709E+02  0.47787270786E+02  0.19999998821E+02 0.  0.
        -12    1    1    2    0    0  0.80851295542E+01  0.34568007503E+02  0.24966113709E+02  0.43400729214E+02  0.00000000000E+00 0.  1.
         11    1    3    3    0    0 -0.44567901085E+01 -0.92317381892E+01 -0.14739047228E+02  0.17953481042E+02  0.51100000000E-03 0. -1.
        -11    1    3    3    0    0 -0.33578322891E+01 -0.15774778675E+01 -0.35932182252E+01  0.51647547453E+01  0.51100000000E-03 0.  1.
         12    1    3    3    0    0 -0.27050715659E+00 -0.23758791446E+02 -0.66338482552E+01  0.24669034999E+02  0.00000000000E+00 0. -1.
</event>
<event>
 7    1  0.2935819E-010  0.4778727E+02  0.7816164E-02  0.1312668E+00
        -11   -1    0    0    0    0  0.00000000000E+00  0.00000000000E+00  0.45593999997E+02  0.45594000000E+02  0.51100000000E-03 0.  1.
         11   -1    0    0    0    0 -0.00000000000E+00 -0.00000000000E+00 -0.45593999997E+02  0.45594000000E+02  0.51100000000E-03 0. -1.
    9900012    2    1    2    0    0  0.21755599154E+02  0.28954319618E+02 -0.23915783233E+02  0.47787269514E+02  0.19999993023E+02 0.  0.
        -12    1    1    2    0    0 -0.21755599154E+02 -0.28954319618E+02  0.23915783233E+02  0.43400730486E+02  0.00000000000E+00 0.  1.
         11    1    3    3    0    0  0.87702767483E+01  0.11784024167E+02 -0.16107991020E+02  0.21800191623E+02  0.51100000000E-03 0. -1.
        -11    1    3    3    0    0  0.11756561266E+02  0.12865813029E+02 -0.52216715051E+00  0.17436127337E+02  0.51100000000E-03 0.  1.
        -12    1    3    3    0    0  0.12287611399E+01  0.43044824207E+01 -0.72856250619E+01  0.85509505549E+01  0.00000000000E+00 0.  1.
</event>
<event>
 7    1  0.2935819E-010  0.4778726E+02  0.7816164E-02  0.1312668E+00
        -11   -1    0    0    0    0  0.00000000000E+00  0.00000000000E+00  0.45593999997E+02  0.45594000000E+02  0.51100000000E-03 0. -1.
         11   -1    0    0    0    0 -0.00000000000E+00 -0.00000000000E+00 -0.45593999997E+02  0.45594000000E+02  0.51100000000E-03 0.  1.
    9900012    2    1    2    0    0  0.38148567563E+02  0.15761139322E+02  0.13412588450E+02  0.47787259813E+02  0.19999948791E+02 0.  0.
        -12    1    1    2    0    0 -0.38148567563E+02 -0.15761139322E+02 -0.13412588450E+02  0.43400740187E+02  0.00000000000E+00 0.  1.
         11    1    3    3    0    0  0.45349987291E+01  0.89124309590E+01  0.81180914651E+01  0.12880258086E+02  0.51100000000E-03 0. -1.
        -11    1    3    3    0    0  0.31438438418E+02  0.57154665186E+01  0.42269872754E+01  0.32232117358E+02  0.51100000000E-03 0.  1.
        -12    1    3    3    0    0  0.21751304158E+01  0.11332418445E+01  0.10675097099E+01  0.26748843685E+01  0.00000000000E+00 0.  1.
</event>
<event>
 7    1  0.2935819E-010  0.4778727E+02  0.7816164E-02  0.1312668E+00
        -11   -1    0    0    0    0  0.00000000000E+00  0.00000000000E+00  0.45593999997E+02  0.45594000000E+02  0.51100000000E-03 0. -1.
         11   -1    0    0    0    0 -0.00000000000E+00 -0.00000000000E+00 -0.45593999997E+02  0.45594000000E+02  0.51100000000E-03 0.  1.
    9900012    2    1    2    0    0 -0.32440148897E+02  0.23661354779E+02  0.16474232752E+02  0.47787270568E+02  0.19999997827E+02 0.  0.
        -12    1    1    2    0    0  0.32440148897E+02 -0.23661354779E+02 -0.16474232752E+02  0.43400729432E+02  0.00000000000E+00 0.  1.
         11    1    3    3    0    0 -0.27539376032E+02  0.20171043650E+02  0.14987268352E+02  0.37281449101E+02  0.51100000000E-03 0. -1.
        -11    1    3    3    0    0 -0.84411218260E+00  0.40622165830E+01 -0.24546771641E+01  0.48207436341E+01  0.51100000000E-03 0.  1.
        -12    1    3    3    0    0 -0.40566606826E+01 -0.57190545357E+00  0.39416415641E+01  0.56850778325E+01  0.00000000000E+00 0.  1.
</event>
<event>
 7    1  0.2935819E-010  0.4778726E+02  0.7816164E-02  0.1312668E+00
        -11   -1    0    0    0    0  0.00000000000E+00  0.00000000000E+00  0.45593999997E+02  0.45594000000E+02  0.51100000000E-03 0. -1.
         11   -1    0    0    0    0 -0.00000000000E+00 -0.00000000000E+00 -0.45593999997E+02  0.45594000000E+02  0.51100000000E-03 0.  1.
    9900012    2    1    2    0    0  0.28639249603E+02  0.29111593885E+02  0.14694644076E+02  0.47787261747E+02  0.19999957609E+02 0.  0.
        -12    1    1    2    0    0 -0.28639249603E+02 -0.29111593885E+02 -0.14694644076E+02  0.43400738253E+02  0.00000000000E+00 0.  1.
         11    1    3    3    0    0 -0.21287216969E+01  0.68625012107E+00  0.20158941860E-01  0.22366944216E+01  0.51100000000E-03 0. -1.
        -11    1    3    3    0    0  0.18742369520E+02  0.12286655393E+02  0.39871320968E+01  0.22762590771E+02  0.51100000000E-03 0.  1.
         12    1    3    3    0    0  0.12025601780E+02  0.16138688371E+02  0.10687353037E+02  0.22787976554E+02  0.00000000000E+00 0. -1.
</event>
<event>
 7    1  0.2935819E-010  0.4778727E+02  0.7816164E-02  0.1312668E+00
        -11   -1    0    0    0    0  0.00000000000E+00  0.00000000000E+00  0.45593999997E+02  0.45594000000E+02  0.51100000000E-03 0.  1.
         11   -1    0    0    0    0 -0.00000000000E+00 -0.00000000000E+00 -0.45593999997E+02  0.45594000000E+02  0.51100000000E-03 0. -1.
    9900012    2    1    2    0    0  0.13122757181E+02 -0.99182785349E+01 -0.40162722708E+02  0.47787270738E+02  0.19999998605E+02 0.  0.
        -12    1    1    2    0    0 -0.13122757181E+02  0.99182785349E+01  0.40162722708E+02  0.43400729262E+02  0.00000000000E+00 0.  1.
         11    1    3    3    0    0  0.47793236232E+01 -0.43072971001E+01 -0.12043861937E+02  0.13654645847E+02  0.51100000000E-03 0. -1.
        -11    1    3    3    0    0  0.19161410446E+01 -0.62310055501E+01 -0.14302953929E+01  0.66740371471E+01  0.51100000000E-03 0.  1.
        -12    1    3    3    0    0  0.64272925134E+01  0.62002411521E+00 -0.26688565378E+02  0.27458587744E+02  0.00000000000E+00 0.  1.
</event>
<event>
 7    1  0.2935819E-010  0.4778727E+02  0.7816164E-02  0.1312668E+00
        -11   -1    0    0    0    0  0.00000000000E+00  0.00000000000E+00  0.45593999997E+02  0.45594000000E+02  0.51100000000E-03 0. -1.
         11   -1    0    0    0    0 -0.00000000000E+00 -0.00000000000E+00 -0.45593999997E+02  0.45594000000E+02  0.51100000000E-03 0.  1.
    9900012    2    1    2    0    0  0.39793503552E+02  0.13168608522E+02  0.11255569676E+02  0.47787273922E+02  0.20000013121E+02 0.  0.
        -12    1    1    2    0    0 -0.39793503552E+02 -0.13168608522E+02 -0.11255569676E+02  0.43400726078E+02  0.00000000000E+00 0.  1.
         11    1    3    3    0    0 -0.65082735646E+00  0.42013802678E+00 -0.16738924809E+01  0.18444534443E+01  0.51100000000E-03 0. -1.
        -11    1    3    3    0    0  0.27718820857E+02  0.39307202383E+01  0.11919589970E+02  0.30427951239E+02  0.51100000000E-03 0.  1.
         12    1    3    3    0    0  0.12725510052E+02  0.88177502565E+01  0.10098721862E+01  0.15514869239E+02  0.00000000000E+00 0. -1.
</event>
<event>
 7    1  0.2935819E-010  0.4778727E+02  0.7816164E-02  0.1312668E+00
        -11   -1    0    0    0    0  0.00000000000E+00  0.00000000000E+00  0.45593999997E+02  0.45594000000E+02  0.51100000000E-03 0. -1.
         11   -1    0    0    0    0 -0.00000000000E+00 -0.00000000000E+00 -0.45593999997E+02  0.45594000000E+02  0.51100000000E-03 0.  1.
    9900012    2    1    2    0    0 -0.15537714116E+00 -0.42224657113E+02  0.10033835595E+02  0.47787266514E+02  0.19999979343E+02 0.  0.
        -12    1    1    2    0    0  0.15537714116E+00  0.42224657113E+02 -0.10033835595E+02  0.43400733486E+02  0.00000000000E+00 0.  1.
         11    1    3    3    0    0 -0.29213136082E+01 -0.24099899960E+02 -0.21885200755E+00  0.24277296961E+02  0.51100000000E-03 0. -1.
        -11    1    3    3    0    0  0.16141032681E+01 -0.17675502637E+02  0.11959590327E+02  0.21402348560E+02  0.51100000000E-03 0.  1.
        -12    1    3    3    0    0  0.11518331989E+01 -0.44925451665E+00 -0.17069027244E+01  0.21076209928E+01  0.00000000000E+00 0.  1.
</event>
<event>
 7    1  0.2935819E-010  0.4778730E+02  0.7816164E-02  0.1312668E+00
        -11   -1    0    0    0    0  0.00000000000E+00  0.00000000000E+00  0.45593999997E+02  0.45594000000E+02  0.51100000000E-03 0.  1.
         11   -1    0    0    0    0 -0.00000000000E+00 -0.00000000000E+00 -0.45593999997E+02  0.45594000000E+02  0.51100000000E-03 0. -1.
    9900012    2    1    2    0    0  0.39631423292E+02 -0.17690899129E+02 -0.52880062779E-01  0.47787303917E+02  0.20000149881E+02 0.  0.
        -12    1    1    2    0    0 -0.39631423292E+02  0.17690899129E+02  0.52880062779E-01  0.43400696083E+02  0.00000000000E+00 0.  1.
         11    1    3    3    0    0  0.31158113811E+02 -0.16357623775E+02  0.12560525122E+01  0.35213315379E+02  0.51100000000E-03 0. -1.
        -11    1    3    3    0    0  0.80069021778E+01  0.86690278331E+00  0.22516823360E+01  0.83625400761E+01  0.51100000000E-03 0.  1.
         12    1    3    3    0    0  0.46640730367E+00 -0.22001781369E+01 -0.35606149110E+01  0.42114484624E+01  0.00000000000E+00 0. -1.
</event>
<event>
 7    1  0.2935819E-010  0.4778726E+02  0.7816164E-02  0.1312668E+00
        -11   -1    0    0    0    0  0.00000000000E+00  0.00000000000E+00  0.45593999997E+02  0.45594000000E+02  0.51100000000E-03 0.  1.
         11   -1    0    0    0    0 -0.00000000000E+00 -0.00000000000E+00 -0.45593999997E+02  0.45594000000E+02  0.51100000000E-03 0. -1.
    9900012    2    1    2    0    0  0.21278282871E+02  0.27776301817E+02 -0.25677537367E+02  0.47787260492E+02  0.19999951887E+02 0.  0.
        -12    1    1    2    0    0 -0.21278282871E+02 -0.27776301817E+02  0.25677537367E+02  0.43400739508E+02  0.00000000000E+00 0.  1.
         11    1    3    3    0    0  0.15597455416E+01 -0.14445412704E+01 -0.45945876094E+01  0.50625824633E+01  0.51100000000E-03 0. -1.
        -11    1    3    3    0    0  0.18671447127E+02  0.30311441418E+02 -0.19766840438E+02  0.40720196461E+02  0.51100000000E-03 0.  1.
        -12    1    3    3    0    0  0.10470902027E+01 -0.10905983308E+01 -0.13161093200E+01  0.20044815674E+01  0.00000000000E+00 0.  1.
</event>
<event>
 7    1  0.2935819E-010  0.4778727E+02  0.7816164E-02  0.1312668E+00
        -11   -1    0    0    0    0  0.00000000000E+00  0.00000000000E+00  0.45593999997E+02  0.45594000000E+02  0.51100000000E-03 0.  1.
         11   -1    0    0    0    0 -0.00000000000E+00 -0.00000000000E+00 -0.45593999997E+02  0.45594000000E+02  0.51100000000E-03 0. -1.
    9900012    2    1    2    0    0 -0.21029003839E+02 -0.12803138428E+02 -0.35741906771E+02  0.47787271254E+02  0.20000000956E+02 0.  0.
        -12    1    1    2    0    0  0.21029003839E+02  0.12803138428E+02  0.35741906771E+02  0.43400728746E+02  0.00000000000E+00 0.  1.
         11    1    3    3    0    0 -0.11498323750E+02 -0.14044665710E+01 -0.15139149963E+02  0.19062471961E+02  0.51100000000E-03 0. -1.
        -11    1    3    3    0    0 -0.85138940071E+01 -0.14455495676E+02 -0.16821789121E+02  0.23757532193E+02  0.51100000000E-03 0.  1.
        -12    1    3    3    0    0 -0.10167860821E+01  0.30568238190E+01 -0.37809676869E+01  0.49672671003E+01  0.00000000000E+00 0.  1.
</event>
<event>
 7    1  0.2935819E-010  0.4778727E+02  0.7816164E-02  0.1312668E+00
        -11   -1    0    0    0    0  0.00000000000E+00  0.00000000000E+00  0.45593999997E+02  0.45594000000E+02  0.51100000000E-03 0. -1.
         11   -1    0    0    0    0 -0.00000000000E+00 -0.00000000000E+00 -0.45593999997E+02  0.45594000000E+02  0.51100000000E-03 0.  1.
    9900012    2    1    2    0    0 -0.24178485189E+02  0.34439900478E+02  0.10626273041E+02  0.47787267636E+02  0.19999984460E+02 0.  0.
        -12    1    1    2    0    0  0.24178485189E+02 -0.34439900478E+02 -0.10626273041E+02  0.43400732364E+02  0.00000000000E+00 0.  1.
         11    1    3    3    0    0 -0.23641534417E+02  0.27887910869E+02  0.98582597364E+01  0.37866119520E+02  0.51100000000E-03 0. -1.
        -11    1    3    3    0    0  0.23303154984E+01  0.13820280309E+01 -0.20252888385E+01  0.33826272246E+01  0.51100000000E-03 0.  1.
        -12    1    3    3    0    0 -0.28672662711E+01  0.51699615781E+01  0.27933021433E+01  0.65385208918E+01  0.00000000000E+00 0.  1.
</event>
<event>
 7    1  0.2935819E-010  0.4778727E+02  0.7816164E-02  0.1312668E+00
        -11   -1    0    0    0    0  0.00000000000E+00  0.00000000000E+00  0.45593999997E+02  0.45594000000E+02  0.51100000000E-03 0.  1.
         11   -1    0    0    0    0 -0.00000000000E+00 -0.00000000000E+00 -0.45593999997E+02  0.45594000000E+02  0.51100000000E-03 0. -1.
    9900012    2    1    2    0    0  0.16837695064E+02 -0.21304518365E+02 -0.33856059754E+02  0.47787271205E+02  0.20000000732E+02 0.  0.
        -12    1    1    2    0    0 -0.16837695064E+02  0.21304518365E+02  0.33856059754E+02  0.43400728795E+02  0.00000000000E+00 0.  1.
         11    1    3    3    0    0  0.18502261491E+02 -0.22794038902E+02 -0.25445126686E+02  0.38850435803E+02  0.51100000000E-03 0. -1.
        -11    1    3    3    0    0  0.42975583870E+00  0.15423455725E+00 -0.22155748598E+01  0.22621340809E+01  0.51100000000E-03 0.  1.
         12    1    3    3    0    0 -0.20943222650E+01  0.13352859797E+01 -0.61953582081E+01  0.66747013209E+01  0.00000000000E+00 0. -1.
</event>
<event>
 7    1  0.2935819E-010  0.4778727E+02  0.7816164E-02  0.1312668E+00
        -11   -1    0    0    0    0  0.00000000000E+00  0.00000000000E+00  0.45593999997E+02  0.45594000000E+02  0.51100000000E-03 0.  1.
         11   -1    0    0    0    0 -0.00000000000E+00 -0.00000000000E+00 -0.45593999997E+02  0.45594000000E+02  0.51100000000E-03 0. -1.
    9900012    2    1    2    0    0 -0.21144505750E+02  0.29205796014E+02 -0.24156869933E+02  0.47787274094E+02  0.20000013903E+02 0.  0.
        -12    1    1    2    0    0  0.21144505750E+02 -0.29205796014E+02  0.24156869933E+02  0.43400725906E+02  0.00000000000E+00 0.  1.
         11    1    3    3    0    0 -0.16230221984E+02  0.25021547227E+02 -0.20083639374E+02  0.35956230365E+02  0.51100000000E-03 0. -1.
        -11    1    3    3    0    0 -0.20755068053E+01 -0.13639024109E+01  0.19547705476E+01  0.31605516037E+01  0.51100000000E-03 0.  1.
        -12    1    3    3    0    0 -0.28387769604E+01  0.55481511979E+01 -0.60280011069E+01  0.86704921251E+01  0.00000000000E+00 0.  1.
</event>
<event>
 7    1  0.2935819E-010  0.4778727E+02  0.7816164E-02  0.1312668E+00
        -11   -1    0    0    0    0  0.00000000000E+00  0.00000000000E+00  0.45593999997E+02  0.45594000000E+02  0.51100000000E-03 0. -1.
         11   -1    0    0    0    0 -0.00000000000E+00 -0.00000000000E+00 -0.45593999997E+02  0.45594000000E+02  0.51100000000E-03 0.  1.
    9900012    2    1    2    0    0 -0.10658551545E+02  0.35089376295E+02  0.23211077586E+02  0.47787272212E+02  0.20000005324E+02 0.  0.
        -12    1    1    2    0    0  0.10658551545E+02 -0.35089376295E+02 -0.23211077586E+02  0.43400727788E+02  0.00000000000E+00 0.  1.
         11    1    3    3    0    0  0.24527521498E+01  0.44199521862E+01 -0.13394899516E+01  0.52293598106E+01  0.51100000000E-03 0. -1.
        -11    1    3    3    0    0  0.46731659180E+00  0.79650221979E+01  0.33389688480E+01  0.86492009249E+01  0.51100000000E-03 0.  1.
         12    1    3    3    0    0 -0.13578620287E+02  0.22704401911E+02  0.21211598690E+02  0.33908711477E+02  0.00000000000E+00 0. -1.
</event>
<event>
 7    1  0.2935819E-010  0.4778727E+02  0.7816164E-02  0.1312668E+00
        -11   -1    0    0    0    0  0.00000000000E+00  0.00000000000E+00  0.45593999997E+02  0.45594000000E+02  0.51100000000E-03 0.  1.
         11   -1    0    0    0    0 -0.00000000000E+00 -0.00000000000E+00 -0.45593999997E+02  0.45594000000E+02  0.51100000000E-03 0. -1.
    9900012    2    1    2    0    0  0.90535793220E+01 -0.38277303293E+02 -0.18344052714E+02  0.47787268256E+02  0.19999987288E+02 0.  0.
        -12    1    1    2    0    0 -0.90535793220E+01  0.38277303293E+02  0.18344052714E+02  0.43400731744E+02  0.00000000000E+00 0.  1.
         11    1    3    3    0    0  0.38549539895E+00 -0.16818891003E+02 -0.58924071869E+01  0.17825379772E+02  0.51100000000E-03 0. -1.
        -11    1    3    3    0    0  0.12105231098E+02 -0.20279617795E+02 -0.10726519616E+02  0.25939501560E+02  0.51100000000E-03 0.  1.
        -12    1    3    3    0    0 -0.34371471748E+01 -0.11787944942E+01 -0.17251259113E+01  0.40223869245E+01  0.00000000000E+00 0.  1.
</event>
<event>
 7    1  0.2935819E-010  0.4778727E+02  0.7816164E-02  0.1312668E+00
        -11   -1    0    0    0    0  0.00000000000E+00  0.00000000000E+00  0.45593999997E+02  0.45594000000E+02  0.51100000000E-03 0.  1.
         11   -1    0    0    0    0 -0.00000000000E+00 -0.00000000000E+00 -0.45593999997E+02  0.45594000000E+02  0.51100000000E-03 0. -1.
    9900012    2    1    2    0    0  0.39427064238E+01  0.22134068060E+02 -0.37123595223E+02  0.47787271606E+02  0.20000002562E+02 0.  0.
        -12    1    1    2    0    0 -0.39427064238E+01 -0.22134068060E+02  0.37123595223E+02  0.43400728394E+02  0.00000000000E+00 0.  1.
         11    1    3    3    0    0  0.35600005344E+01  0.22606326686E+02 -0.19306593334E+02  0.29941011280E+02  0.51100000000E-03 0. -1.
        -11    1    3    3    0    0  0.39117550840E+00 -0.61262683381E+00 -0.93918893809E+01  0.94199743269E+01  0.51100000000E-03 0.  1.
         12    1    3    3    0    0 -0.84696189297E-02  0.14036820726E+00 -0.84251125085E+01  0.84262859997E+01  0.00000000000E+00 0. -1.
</event>
<event>
 7    1  0.2935819E-010  0.4778727E+02  0.7816164E-02  0.1312668E+00
        -11   -1    0    0    0    0  0.00000000000E+00  0.00000000000E+00  0.45593999997E+02  0.45594000000E+02  0.51100000000E-03 0.  1.
         11   -1    0    0    0    0 -0.00000000000E+00 -0.00000000000E+00 -0.45593999997E+02  0.45594000000E+02  0.51100000000E-03 0. -1.
    9900012    2    1    2    0    0 -0.29946459608E+01  0.59079913957E+00 -0.43293258169E+02  0.47787272461E+02  0.20000006458E+02 0.  0.
        -12    1    1    2    0    0  0.29946459608E+01 -0.59079913957E+00  0.43293258169E+02  0.43400727539E+02  0.00000000000E+00 0.  1.
         11    1    3    3    0    0 -0.46199866612E+01 -0.78309671551E+00 -0.41505671853E+02  0.41769346577E+02  0.51100000000E-03 0. -1.
        -11    1    3    3    0    0  0.26714622073E+01 -0.11216102164E+01 -0.15896270187E+01  0.33047895730E+01  0.51100000000E-03 0.  1.
         12    1    3    3    0    0 -0.10461215068E+01  0.24955060714E+01 -0.19795929699E+00  0.27131363111E+01  0.00000000000E+00 0. -1.
</event>
<event>
 7    1  0.2935819E-010  0.4778727E+02  0.7816164E-02  0.1312668E+00
        -11   -1    0    0    0    0  0.00000000000E+00  0.00000000000E+00  0.45593999997E+02  0.45594000000E+02  0.51100000000E-03 0.  1.
         11   -1    0    0    0    0 -0.00000000000E+00 -0.00000000000E+00 -0.45593999997E+02  0.45594000000E+02  0.51100000000E-03 0. -1.
    9900012    2    1    2    0    0  0.10905558433E+02 -0.40615480146E+02  0.10727278460E+02  0.47787274944E+02  0.20000017780E+02 0.  0.
        -12    1    1    2    0    0 -0.10905558433E+02  0.40615480146E+02 -0.10727278460E+02  0.43400725056E+02  0.00000000000E+00 0.  1.
         11    1    3    3    0    0 -0.25822346356E+01 -0.13175447363E+02  0.46267778149E+01  0.14200965535E+02  0.51100000000E-03 0. -1.
        -11    1    3    3    0    0  0.83842120018E+01 -0.51222204957E+01 -0.24891173050E+00  0.98282303091E+01  0.51100000000E-03 0.  1.
        -12    1    3    3    0    0  0.51035810665E+01 -0.22317812288E+02  0.63494123755E+01  0.23758079100E+02  0.00000000000E+00 0.  1.
</event>
<event>
 7    1  0.2935819E-010  0.4778727E+02  0.7816164E-02  0.1312668E+00
        -11   -1    0    0    0    0  0.00000000000E+00  0.00000000000E+00  0.45593999997E+02  0.45594000000E+02  0.51100000000E-03 0. -1.
         11   -1    0    0    0    0 -0.00000000000E+00 -0.00000000000E+00 -0.45593999997E+02  0.45594000000E+02  0.51100000000E-03 0.  1.
    9900012    2    1    2    0    0 -0.20094673950E+02  0.21831099344E+02  0.31673816847E+02  0.47787268516E+02  0.19999988471E+02 0.  0.
        -12    1    1    2    0    0  0.20094673950E+02 -0.21831099344E+02 -0.31673816847E+02  0.43400731484E+02  0.00000000000E+00 0.  1.
         11    1    3    3    0    0 -0.69718618883E+01  0.12238254661E+02  0.10738348773E+02  0.17711405081E+02  0.51100000000E-03 0. -1.
        -11    1    3    3    0    0 -0.11264342654E+02  0.66899945388E+01  0.22695667338E+02  0.26205624559E+02  0.51100000000E-03 0.  1.
        -12    1    3    3    0    0 -0.18584694079E+01  0.29028501441E+01 -0.17601992643E+01  0.38702388750E+01  0.00000000000E+00 0.  1.
</event>
<event>
 7    1  0.2935819E-010  0.4778727E+02  0.7816164E-02  0.1312668E+00
        -11   -1    0    0    0    0  0.00000000000E+00  0.00000000000E+00  0.45593999997E+02  0.45594000000E+02  0.51100000000E-03 0.  1.
         11   -1    0    0    0    0 -0.00000000000E+00 -0.00000000000E+00 -0.45593999997E+02  0.45594000000E+02  0.51100000000E-03 0. -1.
    9900012    2    1    2    0    0  0.55230506920E+01  0.37326918650E+02 -0.21443427731E+02  0.47787268004E+02  0.19999986140E+02 0.  0.
        -12    1    1    2    0    0 -0.55230506920E+01 -0.37326918650E+02  0.21443427731E+02  0.43400731996E+02  0.00000000000E+00 0.  1.
         11    1    3    3    0    0 -0.38716230444E+01  0.30346791517E+02 -0.17311108972E+02  0.35150984545E+02  0.51100000000E-03 0. -1.
        -11    1    3    3    0    0  0.57732749682E+01  0.28318080652E+01 -0.20533263863E+01  0.67502585348E+01  0.51100000000E-03 0.  1.
         12    1    3    3    0    0  0.36213987681E+01  0.41483190682E+01 -0.20789923734E+01  0.58860249250E+01  0.00000000000E+00 0. -1.
</event>
<event>
 7    1  0.2935819E-010  0.4778727E+02  0.7816164E-02  0.1312668E+00
        -11   -1    0    0    0    0  0.00000000000E+00  0.00000000000E+00  0.45593999997E+02  0.45594000000E+02  0.51100000000E-03 0. -1.
         11   -1    0    0    0    0 -0.00000000000E+00 -0.00000000000E+00 -0.45593999997E+02  0.45594000000E+02  0.51100000000E-03 0.  1.
    9900012    2    1    2    0    0  0.21672808743E+02 -0.31112975826E+02  0.21116239495E+02  0.47787268739E+02  0.19999989490E+02 0.  0.
        -12    1    1    2    0    0 -0.21672808743E+02  0.31112975826E+02 -0.21116239495E+02  0.43400731261E+02  0.00000000000E+00 0.  1.
         11    1    3    3    0    0  0.14921040841E+02 -0.26294391775E+02  0.91894838092E+01  0.31598720093E+02  0.51100000000E-03 0. -1.
        -11    1    3    3    0    0  0.49043639529E+01  0.50690646293E+00  0.34848421487E+01  0.60377036203E+01  0.51100000000E-03 0.  1.
         12    1    3    3    0    0  0.18474039491E+01 -0.53254905142E+01  0.84419135373E+01  0.10150845026E+02  0.00000000000E+00 0. -1.
</event>
<event>
 7    1  0.2935819E-010  0.4778727E+02  0.7816164E-02  0.1312668E+00
        -11   -1    0    0    0    0  0.00000000000E+00  0.00000000000E+00  0.45593999997E+02  0.45594000000E+02  0.51100000000E-03 0. -1.
         11   -1    0    0    0    0 -0.00000000000E+00 -0.00000000000E+00 -0.45593999997E+02  0.45594000000E+02  0.51100000000E-03 0.  1.
    9900012    2    1    2    0    0 -0.22568913182E+02 -0.33117318648E+02  0.16658646795E+02  0.47787272475E+02  0.20000006521E+02 0.  0.
        -12    1    1    2    0    0  0.22568913182E+02  0.33117318648E+02 -0.16658646795E+02  0.43400727525E+02  0.00000000000E+00 0.  1.
         11    1    3    3    0    0 -0.20267486803E+02 -0.19724017580E+02  0.14487640259E+02  0.31775770822E+02  0.51100000000E-03 0. -1.
        -11    1    3    3    0    0 -0.23484868417E+01 -0.14323652595E+02  0.10483802982E+01  0.14552715060E+02  0.51100000000E-03 0.  1.
         12    1    3    3    0    0  0.47060462671E-01  0.93035152706E+00  0.11226262379E+01  0.14587865921E+01  0.00000000000E+00 0. -1.
</event>
<event>
 7    1  0.2935819E-010  0.4778728E+02  0.7816164E-02  0.1312668E+00
        -11   -1    0    0    0    0  0.00000000000E+00  0.00000000000E+00  0.45593999997E+02  0.45594000000E+02  0.51100000000E-03 0.  1.
         11   -1    0    0    0    0 -0.00000000000E+00 -0.00000000000E+00 -0.45593999997E+02  0.45594000000E+02  0.51100000000E-03 0. -1.
    9900012    2    1    2    0    0  0.38480820732E+02  0.13072869911E+02 -0.15229885705E+02  0.47787275231E+02  0.20000019088E+02 0.  0.
        -12    1    1    2    0    0 -0.38480820732E+02 -0.13072869911E+02  0.15229885705E+02  0.43400724769E+02  0.00000000000E+00 0.  1.
         11    1    3    3    0    0  0.38035137917E+01  0.49286391241E+01 -0.36043911856E+01  0.71937359459E+01  0.51100000000E-03 0. -1.
        -11    1    3    3    0    0  0.32608781937E+02  0.10352678460E+02 -0.13775169012E+02  0.36881782662E+02  0.51100000000E-03 0.  1.
        -12    1    3    3    0    0  0.20685250024E+01 -0.22084476728E+01  0.21496744923E+01  0.37117566234E+01  0.00000000000E+00 0.  1.
</event>
<event>
 7    1  0.2935819E-010  0.4778727E+02  0.7816164E-02  0.1312668E+00
        -11   -1    0    0    0    0  0.00000000000E+00  0.00000000000E+00  0.45593999997E+02  0.45594000000E+02  0.51100000000E-03 0. -1.
         11   -1    0    0    0    0 -0.00000000000E+00 -0.00000000000E+00 -0.45593999997E+02  0.45594000000E+02  0.51100000000E-03 0.  1.
    9900012    2    1    2    0    0  0.11873224407E+02 -0.70850168006E+01  0.41139422042E+02  0.47787274582E+02  0.20000016129E+02 0.  0.
        -12    1    1    2    0    0 -0.11873224407E+02  0.70850168006E+01 -0.41139422042E+02  0.43400725418E+02  0.00000000000E+00 0.  1.
         11    1    3    3    0    0  0.13157609400E+02 -0.84719673355E+00  0.22529553243E+02  0.26104045607E+02  0.51100000000E-03 0. -1.
        -11    1    3    3    0    0  0.31061338616E+00 -0.84187151938E+01  0.14255081845E+02  0.16558339436E+02  0.51100000000E-03 0.  1.
         12    1    3    3    0    0 -0.15949983799E+01  0.21808951267E+01  0.43547869531E+01  0.51248895395E+01  0.00000000000E+00 0. -1.
</event>
<event>
 7    1  0.2935819E-010  0.4778732E+02  0.7816164E-02  0.1312668E+00
        -11   -1    0    0    0    0  0.00000000000E+00  0.00000000000E+00  0.45593999997E+02  0.45594000000E+02  0.51100000000E-03 0. -1.
         11   -1    0    0    0    0 -0.00000000000E+00 -0.00000000000E+00 -0.45593999997E+02  0.45594000000E+02  0.51100000000E-03 0.  1.
    9900012    2    1    2    0    0  0.10890814401E+02 -0.86522207580E+01  0.41111416694E+02  0.47787316307E+02  0.20000206371E+02 0.  0.
        -12    1    1    2    0    0 -0.10890814401E+02  0.86522207580E+01 -0.41111416694E+02  0.43400683693E+02  0.00000000000E+00 0.  1.
         11    1    3    3    0    0  0.96834694818E+01 -0.12284391724E+02  0.39861685860E+02  0.42820904487E+02  0.51100000000E-03 0. -1.
        -11    1    3    3    0    0  0.20851375414E+01  0.31620162504E+01  0.78770707673E+00  0.38686726450E+01  0.51100000000E-03 0.  1.
         12    1    3    3    0    0 -0.87779262226E+00  0.47015471594E+00  0.46202375809E+00  0.10977391756E+01  0.00000000000E+00 0. -1.
</event>
<event>
 7    1  0.2935819E-010  0.4778727E+02  0.7816164E-02  0.1312668E+00
        -11   -1    0    0    0    0  0.00000000000E+00  0.00000000000E+00  0.45593999997E+02  0.45594000000E+02  0.51100000000E-03 0.  1.
         11   -1    0    0    0    0 -0.00000000000E+00 -0.00000000000E+00 -0.45593999997E+02  0.45594000000E+02  0.51100000000E-03 0. -1.
    9900012    2    1    2    0    0  0.10645517363E+02 -0.32445217937E+02 -0.26788133812E+02  0.47787270513E+02  0.19999997577E+02 0.  0.
        -12    1    1    2    0    0 -0.10645517363E+02  0.32445217937E+02  0.26788133812E+02  0.43400729487E+02  0.00000000000E+00 0.  1.
         11    1    3    3    0    0  0.13920584263E+02 -0.26169065696E+02 -0.20172785859E+02  0.35854483056E+02  0.51100000000E-03 0. -1.
        -11    1    3    3    0    0 -0.22624627255E+01  0.99000444127E+00 -0.88385029467E+00  0.26229826500E+01  0.51100000000E-03 0.  1.
        -12    1    3    3    0    0 -0.10126041751E+01 -0.72661566815E+01 -0.57314976584E+01  0.93098048070E+01  0.00000000000E+00 0.  1.
</event>
<event>
 7    1  0.2935819E-010  0.4778727E+02  0.7816164E-02  0.1312668E+00
        -11   -1    0    0    0    0  0.00000000000E+00  0.00000000000E+00  0.45593999997E+02  0.45594000000E+02  0.51100000000E-03 0.  1.
         11   -1    0    0    0    0 -0.00000000000E+00 -0.00000000000E+00 -0.45593999997E+02  0.45594000000E+02  0.51100000000E-03 0. -1.
    9900012    2    1    2    0    0  0.43394740271E+02  0.24911330295E+00  0.67637872595E+00  0.47787273868E+02  0.20000012873E+02 0.  0.
        -12    1    1    2    0    0 -0.43394740271E+02 -0.24911330295E+00 -0.67637872595E+00  0.43400726132E+02  0.00000000000E+00 0.  1.
         11    1    3    3    0    0  0.34362132259E+02  0.57603634218E+00 -0.49553631554E+01  0.34722378598E+02  0.51100000000E-03 0. -1.
        -11    1    3    3    0    0  0.23982876293E+01 -0.35631923235E+01  0.29528743724E+01  0.52122538702E+01  0.51100000000E-03 0.  1.
         12    1    3    3    0    0  0.66343203827E+01  0.32362692842E+01  0.26788675090E+01  0.78526413997E+01  0.00000000000E+00 0. -1.
</event>
<event>
 7    1  0.2935819E-010  0.4778727E+02  0.7816164E-02  0.1312668E+00
        -11   -1    0    0    0    0  0.00000000000E+00  0.00000000000E+00  0.45593999997E+02  0.45594000000E+02  0.51100000000E-03 0.  1.
         11   -1    0    0    0    0 -0.00000000000E+00 -0.00000000000E+00 -0.45593999997E+02  0.45594000000E+02  0.51100000000E-03 0. -1.
    9900012    2    1    2    0    0 -0.98055587640E+01 -0.10797110034E+02 -0.40876605671E+02  0.47787268912E+02  0.19999990278E+02 0.  0.
        -12    1    1    2    0    0  0.98055587640E+01  0.10797110034E+02  0.40876605671E+02  0.43400731088E+02  0.00000000000E+00 0.  1.
         11    1    3    3    0    0 -0.94681473332E+01 -0.10533169518E+02 -0.37613528726E+02  0.40191678461E+02  0.51100000000E-03 0. -1.
        -11    1    3    3    0    0 -0.15951321619E+01  0.29527256964E+01 -0.11548670839E+01  0.35491905971E+01  0.51100000000E-03 0.  1.
         12    1    3    3    0    0  0.12577207311E+01 -0.32166662125E+01 -0.21082098611E+01  0.40463998541E+01  0.00000000000E+00 0. -1.
</event>
<event>
 7    1  0.2935819E-010  0.4778727E+02  0.7816164E-02  0.1312668E+00
        -11   -1    0    0    0    0  0.00000000000E+00  0.00000000000E+00  0.45593999997E+02  0.45594000000E+02  0.51100000000E-03 0.  1.
         11   -1    0    0    0    0 -0.00000000000E+00 -0.00000000000E+00 -0.45593999997E+02  0.45594000000E+02  0.51100000000E-03 0. -1.
    9900012    2    1    2    0    0 -0.41204978756E+02 -0.13041739679E+02 -0.39605266075E+01  0.47787273979E+02  0.20000013382E+02 0.  0.
        -12    1    1    2    0    0  0.41204978756E+02  0.13041739679E+02  0.39605266075E+01  0.43400726021E+02  0.00000000000E+00 0.  1.
         11    1    3    3    0    0 -0.19828976373E+02 -0.15022318316E+01 -0.79850499657E+01  0.21429093020E+02  0.51100000000E-03 0. -1.
        -11    1    3    3    0    0 -0.62897995456E+01  0.83726745375E+00  0.23744691923E+01  0.67750054848E+01  0.51100000000E-03 0.  1.
         12    1    3    3    0    0 -0.15086202837E+02 -0.12376775301E+02  0.16500541659E+01  0.19583175474E+02  0.00000000000E+00 0. -1.
</event>
<event>
 7    1  0.2935819E-010  0.4778727E+02  0.7816164E-02  0.1312668E+00
        -11   -1    0    0    0    0  0.00000000000E+00  0.00000000000E+00  0.45593999997E+02  0.45594000000E+02  0.51100000000E-03 0. -1.
         11   -1    0    0    0    0 -0.00000000000E+00 -0.00000000000E+00 -0.45593999997E+02  0.45594000000E+02  0.51100000000E-03 0.  1.
    9900012    2    1    2    0    0  0.53009649066E+01  0.36198932842E+02  0.23348663255E+02  0.47787273697E+02  0.20000012095E+02 0.  0.
        -12    1    1    2    0    0 -0.53009649066E+01 -0.36198932842E+02 -0.23348663255E+02  0.43400726303E+02  0.00000000000E+00 0.  1.
         11    1    3    3    0    0  0.67393744371E+01  0.38724229280E+01  0.35449816562E+01  0.85429340592E+01  0.51100000000E-03 0.  1.
        -11    1    3    3    0    0 -0.51940266551E+01  0.21371373801E+02  0.15423950954E+02  0.26862832954E+02  0.51100000000E-03 0. -1.
         12    1    3    3    0    0  0.37556171246E+01  0.10955136113E+02  0.43797306443E+01  0.12381506684E+02  0.00000000000E+00 0. -1.
</event>
<event>
 7    1  0.2935819E-010  0.4778727E+02  0.7816164E-02  0.1312668E+00
        -11   -1    0    0    0    0  0.00000000000E+00  0.00000000000E+00  0.45593999997E+02  0.45594000000E+02  0.51100000000E-03 0.  1.
         11   -1    0    0    0    0 -0.00000000000E+00 -0.00000000000E+00 -0.45593999997E+02  0.45594000000E+02  0.51100000000E-03 0. -1.
    9900012    2    1    2    0    0 -0.19691121243E+02  0.10993619367E+02 -0.37081308348E+02  0.47787270152E+02  0.19999995929E+02 0.  0.
        -12    1    1    2    0    0  0.19691121243E+02 -0.10993619367E+02  0.37081308348E+02  0.43400729848E+02  0.00000000000E+00 0.  1.
         11    1    3    3    0    0 -0.13431350708E+02  0.11438876425E+02 -0.21716321499E+02  0.27979415566E+02  0.51100000000E-03 0. -1.
        -11    1    3    3    0    0 -0.28424454181E+01 -0.56189566162E+01 -0.79696751844E+01  0.10157159653E+02  0.51100000000E-03 0.  1.
         12    1    3    3    0    0 -0.34173251168E+01  0.51736995575E+01 -0.73953116646E+01  0.96506949326E+01  0.00000000000E+00 0. -1.
</event>
<event>
 7    1  0.2935819E-010  0.4778727E+02  0.7816164E-02  0.1312668E+00
        -11   -1    0    0    0    0  0.00000000000E+00  0.00000000000E+00  0.45593999997E+02  0.45594000000E+02  0.51100000000E-03 0.  1.
         11   -1    0    0    0    0 -0.00000000000E+00 -0.00000000000E+00 -0.45593999997E+02  0.45594000000E+02  0.51100000000E-03 0. -1.
    9900012    2    1    2    0    0  0.27154361159E+02 -0.30383589273E+02  0.14936586642E+02  0.47787269043E+02  0.19999990876E+02 0.  0.
        -12    1    1    2    0    0 -0.27154361159E+02  0.30383589273E+02 -0.14936586642E+02  0.43400730957E+02  0.00000000000E+00 0.  1.
         11    1    3    3    0    0  0.10977628946E+02 -0.15659250477E+02 -0.13710540195E+01  0.19172904115E+02  0.51100000000E-03 0. -1.
        -11    1    3    3    0    0 -0.77521526589E-01  0.90909482307E+00  0.30760418584E+00  0.96285179581E+00  0.51100000000E-03 0.  1.
         12    1    3    3    0    0  0.16254253739E+02 -0.15633433619E+02  0.16000036475E+02  0.27651513133E+02  0.00000000000E+00 0. -1.
</event>
<event>
 7    1  0.2935819E-010  0.4778727E+02  0.7816164E-02  0.1312668E+00
        -11   -1    0    0    0    0  0.00000000000E+00  0.00000000000E+00  0.45593999997E+02  0.45594000000E+02  0.51100000000E-03 0. -1.
         11   -1    0    0    0    0 -0.00000000000E+00 -0.00000000000E+00 -0.45593999997E+02  0.45594000000E+02  0.51100000000E-03 0.  1.
    9900012    2    1    2    0    0  0.34126036007E+02  0.15876185765E+01 -0.26767821404E+02  0.47787272713E+02  0.20000007608E+02 0.  0.
        -12    1    1    2    0    0 -0.34126036007E+02 -0.15876185765E+01  0.26767821404E+02  0.43400727287E+02  0.00000000000E+00 0.  1.
         11    1    3    3    0    0  0.27908714965E+02  0.39132704169E+01 -0.22322436501E+02  0.35951373103E+02  0.51100000000E-03 0. -1.
        -11    1    3    3    0    0 -0.12651868006E+01 -0.73593189193E+00  0.15388297107E+01  0.21237444596E+01  0.51100000000E-03 0.  1.
         12    1    3    3    0    0  0.74825078426E+01 -0.15897199484E+01 -0.59842146139E+01  0.97121551508E+01  0.00000000000E+00 0. -1.
</event>
<event>
 7    1  0.2935819E-010  0.4778727E+02  0.7816164E-02  0.1312668E+00
        -11   -1    0    0    0    0  0.00000000000E+00  0.00000000000E+00  0.45593999997E+02  0.45594000000E+02  0.51100000000E-03 0.  1.
         11   -1    0    0    0    0 -0.00000000000E+00 -0.00000000000E+00 -0.45593999997E+02  0.45594000000E+02  0.51100000000E-03 0. -1.
    9900012    2    1    2    0    0 -0.22292002190E+02 -0.14357147373E+02 -0.34359310559E+02  0.47787271154E+02  0.20000000498E+02 0.  0.
        -12    1    1    2    0    0  0.22292002190E+02  0.14357147373E+02  0.34359310559E+02  0.43400728846E+02  0.00000000000E+00 0.  1.
         11    1    3    3    0    0 -0.76860385251E+01 -0.71896241758E+01 -0.22226897778E+02  0.24592699508E+02  0.51100000000E-03 0. -1.
        -11    1    3    3    0    0 -0.81665533490E+01 -0.77298949906E+01 -0.23789504354E+01  0.11493618908E+02  0.51100000000E-03 0.  1.
         12    1    3    3    0    0 -0.64394103159E+01  0.56237179359E+00 -0.97534623452E+01  0.11700952738E+02  0.00000000000E+00 0. -1.
</event>
<event>
 7    1  0.2935819E-010  0.4778727E+02  0.7816164E-02  0.1312668E+00
        -11   -1    0    0    0    0  0.00000000000E+00  0.00000000000E+00  0.45593999997E+02  0.45594000000E+02  0.51100000000E-03 0.  1.
         11   -1    0    0    0    0 -0.00000000000E+00 -0.00000000000E+00 -0.45593999997E+02  0.45594000000E+02  0.51100000000E-03 0. -1.
    9900012    2    1    2    0    0 -0.21486612035E+02  0.18317020642E+02 -0.32961120173E+02  0.47787272068E+02  0.20000004666E+02 0.  0.
        -12    1    1    2    0    0  0.21486612035E+02 -0.18317020642E+02  0.32961120173E+02  0.43400727932E+02  0.00000000000E+00 0.  1.
         11    1    3    3    0    0 -0.22133575687E+02  0.20571091610E+02 -0.33578364268E+02  0.45172685662E+02  0.51100000000E-03 0. -1.
        -11    1    3    3    0    0 -0.25878356289E-01 -0.13695636308E+01  0.59390057123E-01  0.13710950616E+01  0.51100000000E-03 0.  1.
         12    1    3    3    0    0  0.67284200794E+00 -0.88450733700E+00  0.55785403739E+00  0.12434913445E+01  0.00000000000E+00 0. -1.
</event>
<event>
 7    1  0.2935819E-010  0.4778727E+02  0.7816164E-02  0.1312668E+00
        -11   -1    0    0    0    0  0.00000000000E+00  0.00000000000E+00  0.45593999997E+02  0.45594000000E+02  0.51100000000E-03 0. -1.
         11   -1    0    0    0    0 -0.00000000000E+00 -0.00000000000E+00 -0.45593999997E+02  0.45594000000E+02  0.51100000000E-03 0.  1.
    9900012    2    1    2    0    0  0.15438138928E+02 -0.72092407248E+01  0.39916333987E+02  0.47787274149E+02  0.20000014155E+02 0.  0.
        -12    1    1    2    0    0 -0.15438138928E+02  0.72092407248E+01 -0.39916333987E+02  0.43400725851E+02  0.00000000000E+00 0.  1.
         11    1    3    3    0    0 -0.82474808554E+00  0.41776688298E+01  0.13067387813E+02  0.13743716775E+02  0.51100000000E-03 0.  1.
        -11    1    3    3    0    0  0.46744238086E+01 -0.26073515587E+00  0.42973446961E+01  0.63549502328E+01  0.51100000000E-03 0. -1.
         12    1    3    3    0    0  0.11588463205E+02 -0.11126174399E+02  0.22551601478E+02  0.27688607141E+02  0.00000000000E+00 0. -1.
</event>
<event>
 7    1  0.2935819E-010  0.4778727E+02  0.7816164E-02  0.1312668E+00
        -11   -1    0    0    0    0  0.00000000000E+00  0.00000000000E+00  0.45593999997E+02  0.45594000000E+02  0.51100000000E-03 0.  1.
         11   -1    0    0    0    0 -0.00000000000E+00 -0.00000000000E+00 -0.45593999997E+02  0.45594000000E+02  0.51100000000E-03 0. -1.
    9900012    2    1    2    0    0  0.23327225458E+02 -0.25681486634E+02 -0.26075367387E+02  0.47787274342E+02  0.20000015035E+02 0.  0.
        -12    1    1    2    0    0 -0.23327225458E+02  0.25681486634E+02  0.26075367387E+02  0.43400725658E+02  0.00000000000E+00 0.  1.
         11    1    3    3    0    0  0.15165725255E+02 -0.26588935892E+02 -0.20333118823E+02  0.36747876887E+02  0.51100000000E-03 0. -1.
        -11    1    3    3    0    0  0.74053681473E+01  0.67496679809E+00 -0.65495156555E+01  0.99091479532E+01  0.51100000000E-03 0.  1.
         12    1    3    3    0    0  0.75613205577E+00  0.23248245981E+00  0.80726709166E+00  0.11302495022E+01  0.00000000000E+00 0. -1.
</event>
<event>
 7    1  0.2935819E-010  0.4778727E+02  0.7816164E-02  0.1312668E+00
        -11   -1    0    0    0    0  0.00000000000E+00  0.00000000000E+00  0.45593999997E+02  0.45594000000E+02  0.51100000000E-03 0.  1.
         11   -1    0    0    0    0 -0.00000000000E+00 -0.00000000000E+00 -0.45593999997E+02  0.45594000000E+02  0.51100000000E-03 0. -1.
    9900012    2    1    2    0    0 -0.12334468306E+02 -0.16656398424E+02 -0.38131987431E+02  0.47787272100E+02  0.20000004812E+02 0.  0.
        -12    1    1    2    0    0  0.12334468306E+02  0.16656398424E+02  0.38131987431E+02  0.43400727900E+02  0.00000000000E+00 0.  1.
         11    1    3    3    0    0  0.52196369742E+01 -0.53032729988E+01 -0.13410978793E+02  0.15337003198E+02  0.51100000000E-03 0. -1.
        -11    1    3    3    0    0 -0.88690806388E+01 -0.46801100412E+01 -0.10812431495E+02  0.14746955499E+02  0.51100000000E-03 0.  1.
         12    1    3    3    0    0 -0.86850246414E+01 -0.66730153843E+01 -0.13908577142E+02  0.17703313404E+02  0.00000000000E+00 0. -1.
</event>
<event>
 7    1  0.2935819E-010  0.4778728E+02  0.7816164E-02  0.1312668E+00
        -11   -1    0    0    0    0  0.00000000000E+00  0.00000000000E+00  0.45593999997E+02  0.45594000000E+02  0.51100000000E-03 0.  1.
         11   -1    0    0    0    0 -0.00000000000E+00 -0.00000000000E+00 -0.45593999997E+02  0.45594000000E+02  0.51100000000E-03 0. -1.
    9900012    2    1    2    0    0  0.18480117184E+02  0.67739881960E+01 -0.38681018949E+02  0.47787275650E+02  0.20000020999E+02 0.  0.
        -12    1    1    2    0    0 -0.18480117184E+02 -0.67739881960E+01  0.38681018949E+02  0.43400724350E+02  0.00000000000E+00 0.  1.
         11    1    3    3    0    0  0.10162372627E+02  0.69006704114E+01 -0.19044045092E+02  0.22662054701E+02  0.51100000000E-03 0. -1.
        -11    1    3    3    0    0  0.91284107578E+01 -0.33558363875E+01 -0.68092074095E+01  0.11872439793E+02  0.51100000000E-03 0.  1.
        -12    1    3    3    0    0 -0.81066620170E+00  0.32291541722E+01 -0.12827766447E+02  0.13252781157E+02  0.00000000000E+00 0.  1.
</event>
<event>
 7    1  0.2935819E-010  0.4778727E+02  0.7816164E-02  0.1312668E+00
        -11   -1    0    0    0    0  0.00000000000E+00  0.00000000000E+00  0.45593999997E+02  0.45594000000E+02  0.51100000000E-03 0.  1.
         11   -1    0    0    0    0 -0.00000000000E+00 -0.00000000000E+00 -0.45593999997E+02  0.45594000000E+02  0.51100000000E-03 0. -1.
    9900012    2    1    2    0    0  0.15476770158E+01 -0.30252863580E+02 -0.31080414242E+02  0.47787271799E+02  0.20000003440E+02 0.  0.
        -12    1    1    2    0    0 -0.15476770158E+01  0.30252863580E+02  0.31080414242E+02  0.43400728201E+02  0.00000000000E+00 0.  1.
         11    1    3    3    0    0 -0.39216443705E+01 -0.18044301326E+02 -0.17963096668E+02  0.25761384805E+02  0.51100000000E-03 0. -1.
        -11    1    3    3    0    0  0.22864430861E+01 -0.64823241170E+00 -0.90615816175E+01  0.93680461632E+01  0.51100000000E-03 0.  1.
        -12    1    3    3    0    0  0.31828783002E+01 -0.11560329843E+02 -0.40557359565E+01  0.12657840831E+02  0.00000000000E+00 0.  1.
</event>
<event>
 7    1  0.2935819E-010  0.4778728E+02  0.7816164E-02  0.1312668E+00
        -11   -1    0    0    0    0  0.00000000000E+00  0.00000000000E+00  0.45593999997E+02  0.45594000000E+02  0.51100000000E-03 0.  1.
         11   -1    0    0    0    0 -0.00000000000E+00 -0.00000000000E+00 -0.45593999997E+02  0.45594000000E+02  0.51100000000E-03 0. -1.
    9900012    2    1    2    0    0  0.23248881991E+02  0.32058347516E+02 -0.17758789679E+02  0.47787276848E+02  0.20000026459E+02 0.  0.
        -12    1    1    2    0    0 -0.23248881991E+02 -0.32058347516E+02  0.17758789679E+02  0.43400723152E+02  0.00000000000E+00 0.  1.
         11    1    3    3    0    0  0.90637923679E+01  0.37829843644E+01 -0.10392684136E+02  0.14299342174E+02  0.51100000000E-03 0.  1.
        -11    1    3    3    0    0  0.10665841446E+02  0.25230356273E+02 -0.85323903760E+01  0.28690289947E+02  0.51100000000E-03 0. -1.
         12    1    3    3    0    0  0.35192481768E+01  0.30450068781E+01  0.11662848326E+01  0.47976447272E+01  0.00000000000E+00 0. -1.
</event>
<event>
 7    1  0.2935819E-010  0.4778728E+02  0.7816164E-02  0.1312668E+00
        -11   -1    0    0    0    0  0.00000000000E+00  0.00000000000E+00  0.45593999997E+02  0.45594000000E+02  0.51100000000E-03 0.  1.
         11   -1    0    0    0    0 -0.00000000000E+00 -0.00000000000E+00 -0.45593999997E+02  0.45594000000E+02  0.51100000000E-03 0. -1.
    9900012    2    1    2    0    0  0.35203083907E+02 -0.17526871195E+02 -0.18362311892E+02  0.47787276175E+02  0.20000023394E+02 0.  0.
        -12    1    1    2    0    0 -0.35203083907E+02  0.17526871195E+02  0.18362311892E+02  0.43400723825E+02  0.00000000000E+00 0.  1.
         11    1    3    3    0    0  0.88599725956E+01 -0.28844444816E+01  0.31375044898E+01  0.98317378447E+01  0.51100000000E-03 0. -1.
        -11    1    3    3    0    0  0.28169765725E+00  0.59698680352E+00  0.29240943222E+00  0.72197669689E+00  0.51100000000E-03 0.  1.
         12    1    3    3    0    0  0.26061413654E+02 -0.15239413517E+02 -0.21792225814E+02  0.37233561634E+02  0.00000000000E+00 0. -1.
</event>
<event>
 7    1  0.2935819E-010  0.4778727E+02  0.7816164E-02  0.1312668E+00
        -11   -1    0    0    0    0  0.00000000000E+00  0.00000000000E+00  0.45593999997E+02  0.45594000000E+02  0.51100000000E-03 0.  1.
         11   -1    0    0    0    0 -0.00000000000E+00 -0.00000000000E+00 -0.45593999997E+02  0.45594000000E+02  0.51100000000E-03 0. -1.
    9900012    2    1    2    0    0  0.56857794288E+01 -0.32767229461E+02 -0.27885551380E+02  0.47787269707E+02  0.19999993901E+02 0.  0.
        -12    1    1    2    0    0 -0.56857794288E+01  0.32767229461E+02  0.27885551380E+02  0.43400730293E+02  0.00000000000E+00 0.  1.
         11    1    3    3    0    0 -0.57905093754E+00 -0.18624821721E+02 -0.25911151107E+02  0.31915623699E+02  0.51100000000E-03 0. -1.
        -11    1    3    3    0    0  0.37763366442E+01 -0.49556713036E+01 -0.76622125621E+00  0.62774590237E+01  0.51100000000E-03 0.  1.
         12    1    3    3    0    0  0.24884937221E+01 -0.91867364361E+01 -0.12081790161E+01  0.95941869841E+01  0.00000000000E+00 0. -1.
</event>
<event>
 7    1  0.2935819E-010  0.4778727E+02  0.7816164E-02  0.1312668E+00
        -11   -1    0    0    0    0  0.00000000000E+00  0.00000000000E+00  0.45593999997E+02  0.45594000000E+02  0.51100000000E-03 0.  1.
         11   -1    0    0    0    0 -0.00000000000E+00 -0.00000000000E+00 -0.45593999997E+02  0.45594000000E+02  0.51100000000E-03 0. -1.
    9900012    2    1    2    0    0 -0.20725867723E+02 -0.24324304849E+02 -0.29366473619E+02  0.47787272217E+02  0.20000005346E+02 0.  0.
        -12    1    1    2    0    0  0.20725867723E+02  0.24324304849E+02  0.29366473619E+02  0.43400727783E+02  0.00000000000E+00 0.  1.
         11    1    3    3    0    0 -0.87532483045E+01 -0.10839636556E+02 -0.23587798236E+02  0.27395278834E+02  0.51100000000E-03 0. -1.
        -11    1    3    3    0    0 -0.46436677172E+00 -0.14122000175E+01  0.15734036551E+01  0.21646119078E+01  0.51100000000E-03 0.  1.
         12    1    3    3    0    0 -0.11508252646E+02 -0.12072468275E+02 -0.73520790390E+01  0.18227381475E+02  0.00000000000E+00 0. -1.
</event>
<event>
 7    1  0.2935819E-010  0.4778727E+02  0.7816164E-02  0.1312668E+00
        -11   -1    0    0    0    0  0.00000000000E+00  0.00000000000E+00  0.45593999997E+02  0.45594000000E+02  0.51100000000E-03 0. -1.
         11   -1    0    0    0    0 -0.00000000000E+00 -0.00000000000E+00 -0.45593999997E+02  0.45594000000E+02  0.51100000000E-03 0.  1.
    9900012    2    1    2    0    0  0.26811521877E+02  0.68753216611E+00  0.34121737689E+02  0.47787269721E+02  0.19999993966E+02 0.  0.
        -12    1    1    2    0    0 -0.26811521877E+02 -0.68753216611E+00 -0.34121737689E+02  0.43400730279E+02  0.00000000000E+00 0.  1.
         11    1    3    3    0    0  0.31374538545E+00 -0.11139731774E+01 -0.16155764907E+01  0.19873248515E+01  0.51100000000E-03 0. -1.
        -11    1    3    3    0    0  0.51452625638E+01 -0.80988163806E+00  0.15975805829E+01  0.54481096812E+01  0.51100000000E-03 0.  1.
         12    1    3    3    0    0  0.21352513928E+02  0.26113869815E+01  0.34139733597E+02  0.40351835188E+02  0.00000000000E+00 0. -1.
</event>
<event>
 7    1  0.2935819E-010  0.4778727E+02  0.7816164E-02  0.1312668E+00
        -11   -1    0    0    0    0  0.00000000000E+00  0.00000000000E+00  0.45593999997E+02  0.45594000000E+02  0.51100000000E-03 0.  1.
         11   -1    0    0    0    0 -0.00000000000E+00 -0.00000000000E+00 -0.45593999997E+02  0.45594000000E+02  0.51100000000E-03 0. -1.
    9900012    2    1    2    0    0 -0.29609750693E+02  0.27706280009E+02 -0.15467642713E+02  0.47787271215E+02  0.20000000777E+02 0.  0.
        -12    1    1    2    0    0  0.29609750693E+02 -0.27706280009E+02  0.15467642713E+02  0.43400728785E+02  0.00000000000E+00 0.  1.
         11    1    3    3    0    0 -0.89997328221E+01  0.15384050533E+02 -0.11071975531E+02  0.20982203032E+02  0.51100000000E-03 0. -1.
        -11    1    3    3    0    0 -0.59660501013E+01 -0.16613624839E+01 -0.11293324133E+01  0.62951783990E+01  0.51100000000E-03 0.  1.
        -12    1    3    3    0    0 -0.14643967769E+02  0.13983591959E+02 -0.32663347689E+01  0.20509889784E+02  0.00000000000E+00 0.  1.
</event>
<event>
 7    1  0.2935819E-010  0.4778727E+02  0.7816164E-02  0.1312668E+00
        -11   -1    0    0    0    0  0.00000000000E+00  0.00000000000E+00  0.45593999997E+02  0.45594000000E+02  0.51100000000E-03 0.  1.
         11   -1    0    0    0    0 -0.00000000000E+00 -0.00000000000E+00 -0.45593999997E+02  0.45594000000E+02  0.51100000000E-03 0. -1.
    9900012    2    1    2    0    0 -0.62244085365E+01  0.46061578566E+01 -0.42704372064E+02  0.47787270223E+02  0.19999996255E+02 0.  0.
        -12    1    1    2    0    0  0.62244085365E+01 -0.46061578566E+01  0.42704372064E+02  0.43400729777E+02  0.00000000000E+00 0.  1.
         11    1    3    3    0    0  0.27420482750E+01  0.22393628379E+01 -0.14047227861E+02  0.14486482855E+02  0.51100000000E-03 0. -1.
        -11    1    3    3    0    0 -0.33801726494E+01 -0.57602787993E+01 -0.80837211821E+01  0.10485844143E+02  0.51100000000E-03 0.  1.
        -12    1    3    3    0    0 -0.55862841621E+01  0.81270738179E+01 -0.20573423021E+02  0.22814943225E+02  0.00000000000E+00 0.  1.
</event>
<event>
 7    1  0.2935819E-010  0.4778727E+02  0.7816164E-02  0.1312668E+00
        -11   -1    0    0    0    0  0.00000000000E+00  0.00000000000E+00  0.45593999997E+02  0.45594000000E+02  0.51100000000E-03 0. -1.
         11   -1    0    0    0    0 -0.00000000000E+00 -0.00000000000E+00 -0.45593999997E+02  0.45594000000E+02  0.51100000000E-03 0.  1.
    9900012    2    1    2    0    0 -0.22498637331E+02 -0.23974688793E+02  0.28331058074E+02  0.47787271480E+02  0.20000001986E+02 0.  0.
        -12    1    1    2    0    0  0.22498637331E+02  0.23974688793E+02 -0.28331058074E+02  0.43400728520E+02  0.00000000000E+00 0.  1.
         11    1    3    3    0    0 -0.15586158322E+02 -0.19794646982E+02  0.27159149314E+02  0.37045590454E+02  0.51100000000E-03 0. -1.
        -11    1    3    3    0    0 -0.63530228898E+01 -0.56573964109E+01 -0.39580067122E+00  0.85160843362E+01  0.51100000000E-03 0.  1.
         12    1    3    3    0    0 -0.55945611838E+00  0.14773546000E+01  0.15677094314E+01  0.22255966894E+01  0.00000000000E+00 0. -1.
</event>
<event>
 7    1  0.2935819E-010  0.4778727E+02  0.7816164E-02  0.1312668E+00
        -11   -1    0    0    0    0  0.00000000000E+00  0.00000000000E+00  0.45593999997E+02  0.45594000000E+02  0.51100000000E-03 0.  1.
         11   -1    0    0    0    0 -0.00000000000E+00 -0.00000000000E+00 -0.45593999997E+02  0.45594000000E+02  0.51100000000E-03 0. -1.
    9900012    2    1    2    0    0  0.35571899237E+02  0.72396155722E+01 -0.23787628982E+02  0.47787270265E+02  0.19999996445E+02 0.  0.
        -12    1    1    2    0    0 -0.35571899237E+02 -0.72396155722E+01  0.23787628982E+02  0.43400729735E+02  0.00000000000E+00 0.  1.
         11    1    3    3    0    0  0.11986462205E+01 -0.37349671462E+01 -0.29496485677E+01  0.49078670804E+01  0.51100000000E-03 0. -1.
        -11    1    3    3    0    0  0.27049870906E+02  0.59283238369E+01 -0.19539501144E+02  0.33891483366E+02  0.51100000000E-03 0.  1.
        -12    1    3    3    0    0  0.73233821113E+01  0.50462588816E+01 -0.12984792704E+01  0.89879198185E+01  0.00000000000E+00 0.  1.
</event>
<event>
 7    1  0.2935819E-010  0.4778727E+02  0.7816164E-02  0.1312668E+00
        -11   -1    0    0    0    0  0.00000000000E+00  0.00000000000E+00  0.45593999997E+02  0.45594000000E+02  0.51100000000E-03 0.  1.
         11   -1    0    0    0    0 -0.00000000000E+00 -0.00000000000E+00 -0.45593999997E+02  0.45594000000E+02  0.51100000000E-03 0. -1.
    9900012    2    1    2    0    0  0.29321091582E+02  0.28304668139E+02  0.14924565411E+02  0.47787270712E+02  0.19999998486E+02 0.  0.
        -12    1    1    2    0    0 -0.29321091582E+02 -0.28304668139E+02 -0.14924565411E+02  0.43400729288E+02  0.00000000000E+00 0.  1.
         11    1    3    3    0    0  0.68978814248E+01  0.13580216652E+01 -0.31300860231E+01  0.76956110717E+01  0.51100000000E-03 0. -1.
        -11    1    3    3    0    0  0.15547068927E+02  0.23273396208E+02  0.13692049641E+02  0.31158217968E+02  0.51100000000E-03 0.  1.
        -12    1    3    3    0    0  0.68761412294E+01  0.36732502659E+01  0.43626017931E+01  0.89334416731E+01  0.00000000000E+00 0.  1.
</event>
<event>
 7    1  0.2935819E-010  0.4778727E+02  0.7816164E-02  0.1312668E+00
        -11   -1    0    0    0    0  0.00000000000E+00  0.00000000000E+00  0.45593999997E+02  0.45594000000E+02  0.51100000000E-03 0.  1.
         11   -1    0    0    0    0 -0.00000000000E+00 -0.00000000000E+00 -0.45593999997E+02  0.45594000000E+02  0.51100000000E-03 0. -1.
    9900012    2    1    2    0    0 -0.28450964260E+02  0.29964792158E+01 -0.32637203366E+02  0.47787270760E+02  0.19999998705E+02 0.  0.
        -12    1    1    2    0    0  0.28450964260E+02 -0.29964792158E+01  0.32637203366E+02  0.43400729240E+02  0.00000000000E+00 0.  1.
         11    1    3    3    0    0 -0.21267473785E+02 -0.28022236426E+01 -0.13152783981E+02  0.25162544093E+02  0.51100000000E-03 0. -1.
        -11    1    3    3    0    0 -0.31542566227E+00  0.44905494430E+01 -0.79972798396E+01  0.91772007030E+01  0.51100000000E-03 0.  1.
         12    1    3    3    0    0 -0.68680648128E+01  0.13081534154E+01 -0.11487139545E+02  0.13447525964E+02  0.00000000000E+00 0. -1.
</event>
<event>
 7    1  0.2935819E-010  0.4778727E+02  0.7816164E-02  0.1312668E+00
        -11   -1    0    0    0    0  0.00000000000E+00  0.00000000000E+00  0.45593999997E+02  0.45594000000E+02  0.51100000000E-03 0. -1.
         11   -1    0    0    0    0 -0.00000000000E+00 -0.00000000000E+00 -0.45593999997E+02  0.45594000000E+02  0.51100000000E-03 0.  1.
    9900012    2    1    2    0    0  0.18712564193E+02 -0.29156394843E+02  0.26141306703E+02  0.47787270339E+02  0.19999996785E+02 0.  0.
        -12    1    1    2    0    0 -0.18712564193E+02  0.29156394843E+02 -0.26141306703E+02  0.43400729661E+02  0.00000000000E+00 0.  1.
         11    1    3    3    0    0  0.52624342832E+01 -0.34422257281E+01  0.12861823673E+02  0.14316725918E+02  0.51100000000E-03 0. -1.
        -11    1    3    3    0    0  0.45087217286E+01 -0.17442615794E+02  0.48491485338E+01  0.18657107469E+02  0.51100000000E-03 0.  1.
        -12    1    3    3    0    0  0.89414081817E+01 -0.82715533216E+01  0.84303344960E+01  0.14813436952E+02  0.00000000000E+00 0.  1.
</event>
<event>
 7    1  0.2935819E-010  0.4778727E+02  0.7816164E-02  0.1312668E+00
        -11   -1    0    0    0    0  0.00000000000E+00  0.00000000000E+00  0.45593999997E+02  0.45594000000E+02  0.51100000000E-03 0.  1.
         11   -1    0    0    0    0 -0.00000000000E+00 -0.00000000000E+00 -0.45593999997E+02  0.45594000000E+02  0.51100000000E-03 0. -1.
    9900012    2    1    2    0    0  0.57884753983E+01 -0.40438136400E+02  0.14658580011E+02  0.47787270848E+02  0.19999999106E+02 0.  0.
        -12    1    1    2    0    0 -0.57884753983E+01  0.40438136400E+02 -0.14658580011E+02  0.43400729152E+02  0.00000000000E+00 0.  1.
         11    1    3    3    0    0 -0.23789842493E+01 -0.19252911205E+02 -0.11799327586E+00  0.19399692745E+02  0.51100000000E-03 0. -1.
        -11    1    3    3    0    0 -0.32626970063E+00  0.58914500509E-02 -0.72305339077E+00  0.79327995926E+00  0.51100000000E-03 0.  1.
         12    1    3    3    0    0  0.84937293482E+01 -0.21191116645E+02  0.15499626677E+02  0.27594298144E+02  0.00000000000E+00 0. -1.
</event>
<event>
 7    1  0.2935819E-010  0.4778727E+02  0.7816164E-02  0.1312668E+00
        -11   -1    0    0    0    0  0.00000000000E+00  0.00000000000E+00  0.45593999997E+02  0.45594000000E+02  0.51100000000E-03 0.  1.
         11   -1    0    0    0    0 -0.00000000000E+00 -0.00000000000E+00 -0.45593999997E+02  0.45594000000E+02  0.51100000000E-03 0. -1.
    9900012    2    1    2    0    0 -0.34049853069E+02 -0.26911136609E+02 -0.14733717357E+00  0.47787268717E+02  0.19999989389E+02 0.  0.
        -12    1    1    2    0    0  0.34049853069E+02  0.26911136609E+02  0.14733717357E+00  0.43400731283E+02  0.00000000000E+00 0.  1.
         11    1    3    3    0    0 -0.27112212637E+02 -0.17397109388E+02  0.71870062164E+01  0.33005825967E+02  0.51100000000E-03 0. -1.
        -11    1    3    3    0    0 -0.76325885505E+01 -0.86332886407E+01 -0.58573161097E+01  0.12926648174E+02  0.51100000000E-03 0.  1.
        -12    1    3    3    0    0  0.69494811838E+00 -0.88073858023E+00 -0.14770272803E+01  0.18547945764E+01  0.00000000000E+00 0.  1.
</event>
<event>
 7    1  0.2935819E-010  0.4778727E+02  0.7816164E-02  0.1312668E+00
        -11   -1    0    0    0    0  0.00000000000E+00  0.00000000000E+00  0.45593999997E+02  0.45594000000E+02  0.51100000000E-03 0.  1.
         11   -1    0    0    0    0 -0.00000000000E+00 -0.00000000000E+00 -0.45593999997E+02  0.45594000000E+02  0.51100000000E-03 0. -1.
    9900012    2    1    2    0    0 -0.36197294674E+02 -0.18163111996E+02 -0.15603873551E+02  0.47787266724E+02  0.19999980302E+02 0.  0.
        -12    1    1    2    0    0  0.36197294674E+02  0.18163111996E+02  0.15603873551E+02  0.43400733276E+02  0.00000000000E+00 0.  1.
         11    1    3    3    0    0 -0.23474158098E+02 -0.18720912390E+02 -0.78489972439E+01  0.31034100875E+02  0.51100000000E-03 0. -1.
        -11    1    3    3    0    0 -0.27510053405E+01 -0.29636149994E+01 -0.87673710475E+00  0.41375974261E+01  0.51100000000E-03 0.  1.
         12    1    3    3    0    0 -0.99721312359E+01  0.35214153933E+01 -0.68781392025E+01  0.12615568423E+02  0.00000000000E+00 0. -1.
</event>
<event>
 7    1  0.2935819E-010  0.4778727E+02  0.7816164E-02  0.1312668E+00
        -11   -1    0    0    0    0  0.00000000000E+00  0.00000000000E+00  0.45593999997E+02  0.45594000000E+02  0.51100000000E-03 0. -1.
         11   -1    0    0    0    0 -0.00000000000E+00 -0.00000000000E+00 -0.45593999997E+02  0.45594000000E+02  0.51100000000E-03 0.  1.
    9900012    2    1    2    0    0 -0.40696920397E+02  0.11522071302E+02  0.97275844310E+01  0.47787270101E+02  0.19999995698E+02 0.  0.
        -12    1    1    2    0    0  0.40696920397E+02 -0.11522071302E+02 -0.97275844310E+01  0.43400729899E+02  0.00000000000E+00 0.  1.
         11    1    3    3    0    0 -0.27887171206E+02  0.99348051458E+01  0.10324163051E+02  0.31352559930E+02  0.51100000000E-03 0. -1.
        -11    1    3    3    0    0 -0.70619538737E+01 -0.20766641145E+01 -0.44530603427E+01  0.86031083357E+01  0.51100000000E-03 0.  1.
        -12    1    3    3    0    0 -0.57477953172E+01  0.36639302706E+01  0.38564817223E+01  0.78316018356E+01  0.00000000000E+00 0.  1.
</event>
<event>
 7    1  0.2935819E-010  0.4778728E+02  0.7816164E-02  0.1312668E+00
        -11   -1    0    0    0    0  0.00000000000E+00  0.00000000000E+00  0.45593999997E+02  0.45594000000E+02  0.51100000000E-03 0.  1.
         11   -1    0    0    0    0 -0.00000000000E+00 -0.00000000000E+00 -0.45593999997E+02  0.45594000000E+02  0.51100000000E-03 0. -1.
    9900012    2    1    2    0    0 -0.15138718998E+02  0.87115041268E+01 -0.39730986949E+02  0.47787280639E+02  0.20000043747E+02 0.  0.
        -12    1    1    2    0    0  0.15138718998E+02 -0.87115041268E+01  0.39730986949E+02  0.43400719361E+02  0.00000000000E+00 0.  1.
         11    1    3    3    0    0 -0.99040480039E+01  0.37648430154E+01 -0.17797910349E+02  0.20713035095E+02  0.51100000000E-03 0. -1.
        -11    1    3    3    0    0 -0.27886080714E+01 -0.39160484640E+01 -0.21645614011E+01  0.52722952183E+01  0.51100000000E-03 0.  1.
        -12    1    3    3    0    0 -0.24460629229E+01  0.88627095754E+01 -0.19768515199E+02  0.21801950326E+02  0.00000000000E+00 0.  1.
</event>
<event>
 7    1  0.2935819E-010  0.4778727E+02  0.7816164E-02  0.1312668E+00
        -11   -1    0    0    0    0  0.00000000000E+00  0.00000000000E+00  0.45593999997E+02  0.45594000000E+02  0.51100000000E-03 0.  1.
         11   -1    0    0    0    0 -0.00000000000E+00 -0.00000000000E+00 -0.45593999997E+02  0.45594000000E+02  0.51100000000E-03 0. -1.
    9900012    2    1    2    0    0 -0.42094165226E+02  0.34205957438E+01 -0.10000205034E+02  0.47787270490E+02  0.19999997471E+02 0.  0.
        -12    1    1    2    0    0  0.42094165226E+02 -0.34205957438E+01  0.10000205034E+02  0.43400729510E+02  0.00000000000E+00 0.  1.
         11    1    3    3    0    0 -0.37111079218E+01  0.23897038525E+01  0.33315338153E+01  0.55301106981E+01  0.51100000000E-03 0.  1.
        -11    1    3    3    0    0 -0.26619736950E+02 -0.16256955156E+01 -0.14111082153E+02  0.30172436445E+02  0.51100000000E-03 0. -1.
         12    1    3    3    0    0 -0.11763320354E+02  0.26565874070E+01  0.77934330299E+00  0.12084723347E+02  0.00000000000E+00 0. -1.
</event>
<event>
 7    1  0.2935819E-010  0.4778727E+02  0.7816164E-02  0.1312668E+00
        -11   -1    0    0    0    0  0.00000000000E+00  0.00000000000E+00  0.45593999997E+02  0.45594000000E+02  0.51100000000E-03 0.  1.
         11   -1    0    0    0    0 -0.00000000000E+00 -0.00000000000E+00 -0.45593999997E+02  0.45594000000E+02  0.51100000000E-03 0. -1.
    9900012    2    1    2    0    0  0.13469943720E+02 -0.33981041321E+02 -0.23398133979E+02  0.47787271587E+02  0.20000002474E+02 0.  0.
        -12    1    1    2    0    0 -0.13469943720E+02  0.33981041321E+02  0.23398133979E+02  0.43400728413E+02  0.00000000000E+00 0.  1.
         11    1    3    3    0    0  0.65308009593E+01 -0.14129615436E+02 -0.11949558717E+02  0.19623693519E+02  0.51100000000E-03 0. -1.
        -11    1    3    3    0    0  0.26775145977E+01 -0.18490744089E+01  0.32019744281E+01  0.45651726243E+01  0.51100000000E-03 0.  1.
        -12    1    3    3    0    0  0.42616281634E+01 -0.18002351476E+02 -0.14650549690E+02  0.23598405444E+02  0.00000000000E+00 0.  1.
</event>
<event>
 7    1  0.2935819E-010  0.4778727E+02  0.7816164E-02  0.1312668E+00
        -11   -1    0    0    0    0  0.00000000000E+00  0.00000000000E+00  0.45593999997E+02  0.45594000000E+02  0.51100000000E-03 0.  1.
         11   -1    0    0    0    0 -0.00000000000E+00 -0.00000000000E+00 -0.45593999997E+02  0.45594000000E+02  0.51100000000E-03 0. -1.
    9900012    2    1    2    0    0  0.10882311189E+02 -0.40133030067E+02  0.12431353796E+02  0.47787270094E+02  0.19999995668E+02 0.  0.
        -12    1    1    2    0    0 -0.10882311189E+02  0.40133030067E+02 -0.12431353796E+02  0.43400729906E+02  0.00000000000E+00 0.  1.
         11    1    3    3    0    0  0.22513443766E+01 -0.87659546824E+01  0.68092484833E+00  0.90760218106E+01  0.51100000000E-03 0. -1.
        -11    1    3    3    0    0  0.12247509065E+02 -0.17658664500E+02  0.11834919057E+02  0.24533552934E+02  0.51100000000E-03 0.  1.
        -12    1    3    3    0    0 -0.36165422533E+01 -0.13708410885E+02 -0.84490109728E-01  0.14177695350E+02  0.00000000000E+00 0.  1.
</event>
<event>
 7    1  0.2935819E-010  0.4778725E+02  0.7816164E-02  0.1312668E+00
        -11   -1    0    0    0    0  0.00000000000E+00  0.00000000000E+00  0.45593999997E+02  0.45594000000E+02  0.51100000000E-03 0.  1.
         11   -1    0    0    0    0 -0.00000000000E+00 -0.00000000000E+00 -0.45593999997E+02  0.45594000000E+02  0.51100000000E-03 0. -1.
    9900012    2    1    2    0    0 -0.25963367684E+02 -0.22398898078E+02 -0.26604844113E+02  0.47787253152E+02  0.19999918422E+02 0.  0.
        -12    1    1    2    0    0  0.25963367684E+02  0.22398898078E+02  0.26604844113E+02  0.43400746848E+02  0.00000000000E+00 0.  1.
         11    1    3    3    0    0 -0.43363820077E+01  0.26053744567E+01 -0.73803625276E+01  0.89477335832E+01  0.51100000000E-03 0. -1.
        -11    1    3    3    0    0 -0.13076959650E+02 -0.18512659863E+02 -0.10375833886E+02  0.24927562616E+02  0.51100000000E-03 0.  1.
        -12    1    3    3    0    0 -0.85500260268E+01 -0.64916126716E+01 -0.88486476997E+01  0.13911956953E+02  0.00000000000E+00 0.  1.
</event>
<event>
 7    1  0.2935819E-010  0.4778727E+02  0.7816164E-02  0.1312668E+00
        -11   -1    0    0    0    0  0.00000000000E+00  0.00000000000E+00  0.45593999997E+02  0.45594000000E+02  0.51100000000E-03 0.  1.
         11   -1    0    0    0    0 -0.00000000000E+00 -0.00000000000E+00 -0.45593999997E+02  0.45594000000E+02  0.51100000000E-03 0. -1.
    9900012    2    1    2    0    0  0.12247902330E+01 -0.86682827726E+01 -0.42508635620E+02  0.47787270287E+02  0.19999996547E+02 0.  0.
        -12    1    1    2    0    0 -0.12247902330E+01  0.86682827726E+01  0.42508635620E+02  0.43400729713E+02  0.00000000000E+00 0.  1.
         11    1    3    3    0    0 -0.31510830949E+01 -0.89927793931E+01 -0.15099202355E+02  0.17854560143E+02  0.51100000000E-03 0. -1.
        -11    1    3    3    0    0  0.30007982107E+01  0.52784862858E+01 -0.92921421799E+01  0.11100050177E+02  0.51100000000E-03 0.  1.
         12    1    3    3    0    0  0.13750751172E+01 -0.49539896653E+01 -0.18117291085E+02  0.18832659967E+02  0.00000000000E+00 0. -1.
</event>
<event>
 7    1  0.2935819E-010  0.4778727E+02  0.7816164E-02  0.1312668E+00
        -11   -1    0    0    0    0  0.00000000000E+00  0.00000000000E+00  0.45593999997E+02  0.45594000000E+02  0.51100000000E-03 0.  1.
         11   -1    0    0    0    0 -0.00000000000E+00 -0.00000000000E+00 -0.45593999997E+02  0.45594000000E+02  0.51100000000E-03 0. -1.
    9900012    2    1    2    0    0  0.22273789943E+02 -0.84671485891E+01 -0.36274081248E+02  0.47787270813E+02  0.19999998943E+02 0.  0.
        -12    1    1    2    0    0 -0.22273789943E+02  0.84671485891E+01  0.36274081248E+02  0.43400729187E+02  0.00000000000E+00 0.  1.
         11    1    3    3    0    0  0.17613413535E+02 -0.27412773533E+01 -0.13260586120E+02  0.22216887325E+02  0.51100000000E-03 0. -1.
        -11    1    3    3    0    0  0.22650304475E+01 -0.14329007630E+01 -0.76787454604E+00  0.27880457500E+01  0.51100000000E-03 0.  1.
         12    1    3    3    0    0  0.23953459602E+01 -0.42929704729E+01 -0.22245620581E+02  0.22782337738E+02  0.00000000000E+00 0. -1.
</event>
<event>
 7    1  0.2935819E-010  0.4778727E+02  0.7816164E-02  0.1312668E+00
        -11   -1    0    0    0    0  0.00000000000E+00  0.00000000000E+00  0.45593999997E+02  0.45594000000E+02  0.51100000000E-03 0.  1.
         11   -1    0    0    0    0 -0.00000000000E+00 -0.00000000000E+00 -0.45593999997E+02  0.45594000000E+02  0.51100000000E-03 0. -1.
    9900012    2    1    2    0    0 -0.23511655716E+01 -0.32981094467E+02 -0.28113037791E+02  0.47787268835E+02  0.19999989928E+02 0.  0.
        -12    1    1    2    0    0  0.23511655716E+01  0.32981094467E+02  0.28113037791E+02  0.43400731165E+02  0.00000000000E+00 0.  1.
         11    1    3    3    0    0  0.41548507001E+00 -0.97217733452E+01 -0.17986418673E+02  0.20449859700E+02  0.51100000000E-03 0.  1.
        -11    1    3    3    0    0 -0.53977071721E+01 -0.98022094284E+01 -0.19094641479E+01  0.11351854738E+02  0.51100000000E-03 0. -1.
        -12    1    3    3    0    0  0.26310565305E+01 -0.13457111694E+02 -0.82171549702E+01  0.15985554398E+02  0.00000000000E+00 0.  1.
</event>
<event>
 7    1  0.2935819E-010  0.4778727E+02  0.7816164E-02  0.1312668E+00
        -11   -1    0    0    0    0  0.00000000000E+00  0.00000000000E+00  0.45593999997E+02  0.45594000000E+02  0.51100000000E-03 0. -1.
         11   -1    0    0    0    0 -0.00000000000E+00 -0.00000000000E+00 -0.45593999997E+02  0.45594000000E+02  0.51100000000E-03 0.  1.
    9900012    2    1    2    0    0 -0.21838090837E+02 -0.34047503614E+02  0.15731772866E+02  0.47787269692E+02  0.19999993835E+02 0.  0.
        -12    1    1    2    0    0  0.21838090837E+02  0.34047503614E+02 -0.15731772866E+02  0.43400730308E+02  0.00000000000E+00 0.  1.
         11    1    3    3    0    0 -0.55302166276E+01 -0.18635638440E+02  0.22842739214E+00  0.19440228788E+02  0.51100000000E-03 0. -1.
        -11    1    3    3    0    0 -0.50970447147E+01 -0.10041211096E+01  0.17195858959E+01  0.54722116133E+01  0.51100000000E-03 0.  1.
         12    1    3    3    0    0 -0.11210829495E+02 -0.14407744064E+02  0.13783759578E+02  0.22874829291E+02  0.00000000000E+00 0. -1.
</event>
<event>
 7    1  0.2935819E-010  0.4778728E+02  0.7816164E-02  0.1312668E+00
        -11   -1    0    0    0    0  0.00000000000E+00  0.00000000000E+00  0.45593999997E+02  0.45594000000E+02  0.51100000000E-03 0.  1.
         11   -1    0    0    0    0 -0.00000000000E+00 -0.00000000000E+00 -0.45593999997E+02  0.45594000000E+02  0.51100000000E-03 0. -1.
    9900012    2    1    2    0    0 -0.14959574376E+02 -0.23398324118E+01 -0.40673814183E+02  0.47787276026E+02  0.20000022715E+02 0.  0.
        -12    1    1    2    0    0  0.14959574376E+02  0.23398324118E+01  0.40673814183E+02  0.43400723974E+02  0.00000000000E+00 0.  1.
         11    1    3    3    0    0 -0.30924028000E+01 -0.94852679870E+00 -0.10268240261E+02  0.10765659129E+02  0.51100000000E-03 0. -1.
        -11    1    3    3    0    0 -0.59862364644E+01 -0.65081220991E+01 -0.44077198693E+01  0.98802163423E+01  0.51100000000E-03 0.  1.
        -12    1    3    3    0    0 -0.58809351118E+01  0.51168164859E+01 -0.25997854053E+02  0.27141400555E+02  0.00000000000E+00 0.  1.
</event>
<event>
 7    1  0.2935819E-010  0.4778727E+02  0.7816164E-02  0.1312668E+00
        -11   -1    0    0    0    0  0.00000000000E+00  0.00000000000E+00  0.45593999997E+02  0.45594000000E+02  0.51100000000E-03 0.  1.
         11   -1    0    0    0    0 -0.00000000000E+00 -0.00000000000E+00 -0.45593999997E+02  0.45594000000E+02  0.51100000000E-03 0. -1.
    9900012    2    1    2    0    0  0.31675628205E+02  0.13437547788E+02 -0.26452038977E+02  0.47787268684E+02  0.19999989238E+02 0.  0.
        -12    1    1    2    0    0 -0.31675628205E+02 -0.13437547788E+02  0.26452038977E+02  0.43400731316E+02  0.00000000000E+00 0.  1.
         11    1    3    3    0    0  0.68957485200E+01 -0.11265525880E+00 -0.85724936861E+01  0.11002349164E+02  0.51100000000E-03 0. -1.
        -11    1    3    3    0    0  0.16267395828E+00  0.19662364999E+01 -0.73527821760E+01  0.76128808463E+01  0.51100000000E-03 0.  1.
        -12    1    3    3    0    0  0.24617205726E+02  0.11583966547E+02 -0.10526763115E+02  0.29172038674E+02  0.00000000000E+00 0.  1.
</event>
<event>
 7    1  0.2935819E-010  0.4778727E+02  0.7816164E-02  0.1312668E+00
        -11   -1    0    0    0    0  0.00000000000E+00  0.00000000000E+00  0.45593999997E+02  0.45594000000E+02  0.51100000000E-03 0. -1.
         11   -1    0    0    0    0 -0.00000000000E+00 -0.00000000000E+00 -0.45593999997E+02  0.45594000000E+02  0.51100000000E-03 0.  1.
    9900012    2    1    2    0    0 -0.12121927016E+02  0.40962452393E+02 -0.76654720083E+01  0.47787273257E+02  0.20000010090E+02 0.  0.
        -12    1    1    2    0    0  0.12121927016E+02 -0.40962452393E+02  0.76654720083E+01  0.43400726743E+02  0.00000000000E+00 0.  1.
         11    1    3    3    0    0 -0.73711879154E+01  0.23885884996E+02 -0.10519584349E+02  0.27120685251E+02  0.51100000000E-03 0. -1.
        -11    1    3    3    0    0  0.31799410304E+01  0.61738576760E+01  0.34624307309E+00  0.69533033939E+01  0.51100000000E-03 0.  1.
         12    1    3    3    0    0 -0.79306801311E+01  0.10902709721E+02  0.25078692676E+01  0.13713284613E+02  0.00000000000E+00 0. -1.
</event>
<event>
 7    1  0.2935819E-010  0.4778727E+02  0.7816164E-02  0.1312668E+00
        -11   -1    0    0    0    0  0.00000000000E+00  0.00000000000E+00  0.45593999997E+02  0.45594000000E+02  0.51100000000E-03 0.  1.
         11   -1    0    0    0    0 -0.00000000000E+00 -0.00000000000E+00 -0.45593999997E+02  0.45594000000E+02  0.51100000000E-03 0. -1.
    9900012    2    1    2    0    0  0.30036432331E+01  0.19670683144E+02 -0.38570274682E+02  0.47787265709E+02  0.19999975671E+02 0.  0.
        -12    1    1    2    0    0 -0.30036432331E+01 -0.19670683144E+02  0.38570274682E+02  0.43400734291E+02  0.00000000000E+00 0.  1.
         11    1    3    3    0    0  0.20412315845E+01  0.14318062202E+01 -0.57948836765E+01  0.63085158730E+01  0.51100000000E-03 0. -1.
        -11    1    3    3    0    0  0.29872853522E+01 -0.25224947902E+01 -0.92192660758E+01  0.10014076142E+02  0.51100000000E-03 0.  1.
        -12    1    3    3    0    0 -0.20248737036E+01  0.20761371714E+02 -0.23556124930E+02  0.31464673693E+02  0.00000000000E+00 0.  1.
</event>
<event>
 7    1  0.2935819E-010  0.4778727E+02  0.7816164E-02  0.1312668E+00
        -11   -1    0    0    0    0  0.00000000000E+00  0.00000000000E+00  0.45593999997E+02  0.45594000000E+02  0.51100000000E-03 0. -1.
         11   -1    0    0    0    0 -0.00000000000E+00 -0.00000000000E+00 -0.45593999997E+02  0.45594000000E+02  0.51100000000E-03 0.  1.
    9900012    2    1    2    0    0 -0.33569248860E+02 -0.26716119889E+02  0.65557395862E+01  0.47787271291E+02  0.20000001123E+02 0.  0.
        -12    1    1    2    0    0  0.33569248860E+02  0.26716119889E+02 -0.65557395862E+01  0.43400728709E+02  0.00000000000E+00 0.  1.
         11    1    3    3    0    0 -0.32643726868E+02 -0.18412160034E+02  0.46282467533E+01  0.37762960811E+02  0.51100000000E-03 0. -1.
        -11    1    3    3    0    0  0.10140087906E+01 -0.67992628913E+00  0.17770263790E+01  0.21560001389E+01  0.51100000000E-03 0.  1.
         12    1    3    3    0    0 -0.19395307833E+01 -0.76240335655E+01  0.15046645386E+00  0.78683103409E+01  0.00000000000E+00 0. -1.
</event>
<event>
 7    1  0.2935819E-010  0.4778726E+02  0.7816164E-02  0.1312668E+00
        -11   -1    0    0    0    0  0.00000000000E+00  0.00000000000E+00  0.45593999997E+02  0.45594000000E+02  0.51100000000E-03 0.  1.
         11   -1    0    0    0    0 -0.00000000000E+00 -0.00000000000E+00 -0.45593999997E+02  0.45594000000E+02  0.51100000000E-03 0. -1.
    9900012    2    1    2    0    0 -0.20940962383E+02 -0.37884515073E+02 -0.31406646970E+01  0.47787260806E+02  0.19999953317E+02 0.  0.
        -12    1    1    2    0    0  0.20940962383E+02  0.37884515073E+02  0.31406646970E+01  0.43400739194E+02  0.00000000000E+00 0.  1.
         11    1    3    3    0    0 -0.32849957831E+01 -0.87771945124E+01  0.45470548561E+01  0.10416623682E+02  0.51100000000E-03 0. -1.
        -11    1    3    3    0    0 -0.41060963881E+01 -0.78447590547E+01 -0.83195781521E+01  0.12149718230E+02  0.51100000000E-03 0.  1.
        -12    1    3    3    0    0 -0.13549870212E+02 -0.21262561506E+02  0.63185859898E+00  0.25220918894E+02  0.00000000000E+00 0.  1.
</event>
<event>
 7    1  0.2935819E-010  0.4778727E+02  0.7816164E-02  0.1312668E+00
        -11   -1    0    0    0    0  0.00000000000E+00  0.00000000000E+00  0.45593999997E+02  0.45594000000E+02  0.51100000000E-03 0. -1.
         11   -1    0    0    0    0 -0.00000000000E+00 -0.00000000000E+00 -0.45593999997E+02  0.45594000000E+02  0.51100000000E-03 0.  1.
    9900012    2    1    2    0    0 -0.29249405143E+02  0.29784288500E+02  0.11873986417E+02  0.47787273093E+02  0.20000009339E+02 0.  0.
        -12    1    1    2    0    0  0.29249405143E+02 -0.29784288500E+02 -0.11873986417E+02  0.43400726907E+02  0.00000000000E+00 0.  1.
         11    1    3    3    0    0 -0.79215776908E+01  0.80998452594E+01 -0.46052421585E+01  0.12229764590E+02  0.51100000000E-03 0.  1.
        -11    1    3    3    0    0 -0.17322628473E+02  0.17124142274E+02  0.90986379719E+01  0.26001825302E+02  0.51100000000E-03 0. -1.
         12    1    3    3    0    0 -0.40051989791E+01  0.45603009665E+01  0.73805906035E+01  0.95556832003E+01  0.00000000000E+00 0. -1.
</event>
<event>
 7    1  0.2935819E-010  0.4778727E+02  0.7816164E-02  0.1312668E+00
        -11   -1    0    0    0    0  0.00000000000E+00  0.00000000000E+00  0.45593999997E+02  0.45594000000E+02  0.51100000000E-03 0.  1.
         11   -1    0    0    0    0 -0.00000000000E+00 -0.00000000000E+00 -0.45593999997E+02  0.45594000000E+02  0.51100000000E-03 0. -1.
    9900012    2    1    2    0    0 -0.12532136367E+01 -0.15877271888E+02 -0.40372829555E+02  0.47787266443E+02  0.19999979022E+02 0.  0.
        -12    1    1    2    0    0  0.12532136367E+01  0.15877271888E+02  0.40372829555E+02  0.43400733557E+02  0.00000000000E+00 0.  1.
         11    1    3    3    0    0  0.40338030952E+01 -0.49827106519E+01 -0.26984352615E+01  0.69556111143E+01  0.51100000000E-03 0. -1.
        -11    1    3    3    0    0  0.20571728973E+01 -0.44170772238E+00 -0.18645298707E+01  0.28113231655E+01  0.51100000000E-03 0.  1.
         12    1    3    3    0    0 -0.73441896292E+01 -0.10452853513E+02 -0.35809864422E+02  0.38020332164E+02  0.00000000000E+00 0. -1.
</event>
<event>
 7    1  0.2935819E-010  0.4778727E+02  0.7816164E-02  0.1312668E+00
        -11   -1    0    0    0    0  0.00000000000E+00  0.00000000000E+00  0.45593999997E+02  0.45594000000E+02  0.51100000000E-03 0.  1.
         11   -1    0    0    0    0 -0.00000000000E+00 -0.00000000000E+00 -0.45593999997E+02  0.45594000000E+02  0.51100000000E-03 0. -1.
    9900012    2    1    2    0    0 -0.25204563099E+02  0.35317086250E+02 -0.10279744940E+01  0.47787270584E+02  0.19999997903E+02 0.  0.
        -12    1    1    2    0    0  0.25204563099E+02 -0.35317086250E+02  0.10279744940E+01  0.43400729416E+02  0.00000000000E+00 0.  1.
         11    1    3    3    0    0 -0.20202148424E+02  0.15561970637E+02  0.68946998884E+00  0.25510333205E+02  0.51100000000E-03 0. -1.
        -11    1    3    3    0    0  0.69856972868E+00  0.28152254363E+00 -0.18372655806E+01  0.19856484289E+01  0.51100000000E-03 0.  1.
         12    1    3    3    0    0 -0.57009844033E+01  0.19473593069E+02  0.11982109772E+00  0.20291288951E+02  0.00000000000E+00 0. -1.
</event>
<event>
 7    1  0.2935819E-010  0.4778727E+02  0.7816164E-02  0.1312668E+00
        -11   -1    0    0    0    0  0.00000000000E+00  0.00000000000E+00  0.45593999997E+02  0.45594000000E+02  0.51100000000E-03 0.  1.
         11   -1    0    0    0    0 -0.00000000000E+00 -0.00000000000E+00 -0.45593999997E+02  0.45594000000E+02  0.51100000000E-03 0. -1.
    9900012    2    1    2    0    0 -0.27929222352E+01  0.33035664454E+02 -0.28008348186E+02  0.47787272948E+02  0.20000008677E+02 0.  0.
        -12    1    1    2    0    0  0.27929222352E+01 -0.33035664454E+02  0.28008348186E+02  0.43400727052E+02  0.00000000000E+00 0.  1.
         11    1    3    3    0    0  0.69497470527E-01  0.31326941600E+02 -0.18568688677E+02  0.36416731036E+02  0.51100000000E-03 0. -1.
        -11    1    3    3    0    0 -0.37499456774E+00 -0.12990680239E+01 -0.23477202893E+00  0.13723399081E+01  0.51100000000E-03 0.  1.
         12    1    3    3    0    0 -0.24874251380E+01  0.30077908787E+01 -0.92048874801E+01  0.99982020038E+01  0.00000000000E+00 0. -1.
</event>
<event>
 7    1  0.2935819E-010  0.4778726E+02  0.7816164E-02  0.1312668E+00
        -11   -1    0    0    0    0  0.00000000000E+00  0.00000000000E+00  0.45593999997E+02  0.45594000000E+02  0.51100000000E-03 0.  1.
         11   -1    0    0    0    0 -0.00000000000E+00 -0.00000000000E+00 -0.45593999997E+02  0.45594000000E+02  0.51100000000E-03 0. -1.
    9900012    2    1    2    0    0 -0.49044673309E+01  0.79193058391E+01 -0.42389324488E+02  0.47787262272E+02  0.19999960002E+02 0.  0.
        -12    1    1    2    0    0  0.49044673309E+01 -0.79193058391E+01  0.42389324488E+02  0.43400737728E+02  0.00000000000E+00 0.  1.
         11    1    3    3    0    0 -0.26768143839E+01  0.53476980972E+01 -0.45886342778E+01  0.75378229603E+01  0.51100000000E-03 0. -1.
        -11    1    3    3    0    0  0.22170439985E+01 -0.42671328717E+00 -0.32925669432E+02  0.33002985867E+02  0.51100000000E-03 0.  1.
        -12    1    3    3    0    0 -0.44446969456E+01  0.29983210291E+01 -0.48750207782E+01  0.72464534442E+01  0.00000000000E+00 0.  1.
</event>
<event>
 7    1  0.2935819E-010  0.4778727E+02  0.7816164E-02  0.1312668E+00
        -11   -1    0    0    0    0  0.00000000000E+00  0.00000000000E+00  0.45593999997E+02  0.45594000000E+02  0.51100000000E-03 0. -1.
         11   -1    0    0    0    0 -0.00000000000E+00 -0.00000000000E+00 -0.45593999997E+02  0.45594000000E+02  0.51100000000E-03 0.  1.
    9900012    2    1    2    0    0  0.38646950801E+02 -0.16846456533E+02  0.10306979185E+02  0.47787265860E+02  0.19999976362E+02 0.  0.
        -12    1    1    2    0    0 -0.38646950801E+02  0.16846456533E+02 -0.10306979185E+02  0.43400734140E+02  0.00000000000E+00 0.  1.
         11    1    3    3    0    0  0.15535970022E+02 -0.82969809477E+01 -0.43731866464E+01  0.18147479690E+02  0.51100000000E-03 0. -1.
        -11    1    3    3    0    0  0.23011561750E+02 -0.93555645517E+01  0.13704363421E+02  0.28370198083E+02  0.51100000000E-03 0.  1.
        -12    1    3    3    0    0  0.99419028585E-01  0.80608896604E+00  0.97580241114E+00  0.12695880867E+01  0.00000000000E+00 0.  1.
</event>
<event>
 7    1  0.2935819E-010  0.4778726E+02  0.7816164E-02  0.1312668E+00
        -11   -1    0    0    0    0  0.00000000000E+00  0.00000000000E+00  0.45593999997E+02  0.45594000000E+02  0.51100000000E-03 0.  1.
         11   -1    0    0    0    0 -0.00000000000E+00 -0.00000000000E+00 -0.45593999997E+02  0.45594000000E+02  0.51100000000E-03 0. -1.
    9900012    2    1    2    0    0 -0.11158021953E+02 -0.13503080915E+02 -0.39708812146E+02  0.47787257954E+02  0.19999940316E+02 0.  0.
        -12    1    1    2    0    0  0.11158021953E+02  0.13503080915E+02  0.39708812146E+02  0.43400742046E+02  0.00000000000E+00 0.  1.
         11    1    3    3    0    0 -0.52413387022E+01 -0.20187200596E+01 -0.22565349206E+02  0.23253856607E+02  0.51100000000E-03 0. -1.
        -11    1    3    3    0    0 -0.56637007445E+01 -0.48415611223E+01 -0.15899051375E+01  0.76187937911E+01  0.51100000000E-03 0.  1.
         12    1    3    3    0    0 -0.25298250623E+00 -0.66427997331E+01 -0.15553557803E+02  0.16914607556E+02  0.00000000000E+00 0. -1.
</event>
<event>
 7    1  0.2935819E-010  0.4778727E+02  0.7816164E-02  0.1312668E+00
        -11   -1    0    0    0    0  0.00000000000E+00  0.00000000000E+00  0.45593999997E+02  0.45594000000E+02  0.51100000000E-03 0.  1.
         11   -1    0    0    0    0 -0.00000000000E+00 -0.00000000000E+00 -0.45593999997E+02  0.45594000000E+02  0.51100000000E-03 0. -1.
    9900012    2    1    2    0    0 -0.39067058330E+02  0.18230825799E+02  0.50025073188E+01  0.47787272640E+02  0.20000007276E+02 0.  0.
        -12    1    1    2    0    0  0.39067058330E+02 -0.18230825799E+02 -0.50025073188E+01  0.43400727360E+02  0.00000000000E+00 0.  1.
         11    1    3    3    0    0 -0.32710222527E+02  0.14604469415E+02  0.10871160078E+02  0.37435695618E+02  0.51100000000E-03 0.  1.
        -11    1    3    3    0    0 -0.35643799334E+01  0.43310755506E+01 -0.43320324651E+01  0.70872791164E+01  0.51100000000E-03 0. -1.
        -12    1    3    3    0    0 -0.27924558695E+01 -0.70471916743E+00 -0.15366202946E+01  0.32642979058E+01  0.00000000000E+00 0.  1.
</event>
<event>
 7    1  0.2935819E-010  0.4778727E+02  0.7816164E-02  0.1312668E+00
        -11   -1    0    0    0    0  0.00000000000E+00  0.00000000000E+00  0.45593999997E+02  0.45594000000E+02  0.51100000000E-03 0. -1.
         11   -1    0    0    0    0 -0.00000000000E+00 -0.00000000000E+00 -0.45593999997E+02  0.45594000000E+02  0.51100000000E-03 0.  1.
    9900012    2    1    2    0    0  0.38877489747E+01  0.28664147301E+02  0.32355453636E+02  0.47787270598E+02  0.19999997965E+02 0.  0.
        -12    1    1    2    0    0 -0.38877489747E+01 -0.28664147301E+02 -0.32355453636E+02  0.43400729402E+02  0.00000000000E+00 0.  1.
         11    1    3    3    0    0  0.29026289868E+01  0.19146968971E+02  0.27508016492E+02  0.33641085705E+02  0.51100000000E-03 0. -1.
        -11    1    3    3    0    0 -0.39058497585E+01  0.50919956310E+01  0.95670353328E+00  0.64884022497E+01  0.51100000000E-03 0.  1.
        -12    1    3    3    0    0  0.48909697465E+01  0.44251826988E+01  0.38907336112E+01  0.76577826433E+01  0.00000000000E+00 0.  1.
</event>
<event>
 7    1  0.2935819E-010  0.4778727E+02  0.7816164E-02  0.1312668E+00
        -11   -1    0    0    0    0  0.00000000000E+00  0.00000000000E+00  0.45593999997E+02  0.45594000000E+02  0.51100000000E-03 0.  1.
         11   -1    0    0    0    0 -0.00000000000E+00 -0.00000000000E+00 -0.45593999997E+02  0.45594000000E+02  0.51100000000E-03 0. -1.
    9900012    2    1    2    0    0 -0.15398103067E+02 -0.37914454474E+02  0.14457378252E+02  0.47787271642E+02  0.20000002723E+02 0.  0.
        -12    1    1    2    0    0  0.15398103067E+02  0.37914454474E+02 -0.14457378252E+02  0.43400728358E+02  0.00000000000E+00 0.  1.
         11    1    3    3    0    0 -0.11235397636E+02 -0.15205482587E+02  0.84830987752E+01  0.20722061332E+02  0.51100000000E-03 0. -1.
        -11    1    3    3    0    0  0.48054588238E+00 -0.16006647326E+02 -0.13955038630E+01  0.16074548649E+02  0.51100000000E-03 0.  1.
         12    1    3    3    0    0 -0.46432513130E+01 -0.67023245609E+01  0.73697833395E+01  0.10990661661E+02  0.00000000000E+00 0. -1.
</event>
<event>
 7    1  0.2935819E-010  0.4778727E+02  0.7816164E-02  0.1312668E+00
        -11   -1    0    0    0    0  0.00000000000E+00  0.00000000000E+00  0.45593999997E+02  0.45594000000E+02  0.51100000000E-03 0. -1.
         11   -1    0    0    0    0 -0.00000000000E+00 -0.00000000000E+00 -0.45593999997E+02  0.45594000000E+02  0.51100000000E-03 0.  1.
    9900012    2    1    2    0    0 -0.38718778562E+02  0.11716261524E+02  0.15722871910E+02  0.47787270760E+02  0.19999998704E+02 0.  0.
        -12    1    1    2    0    0  0.38718778562E+02 -0.11716261524E+02 -0.15722871910E+02  0.43400729240E+02  0.00000000000E+00 0.  1.
         11    1    3    3    0    0 -0.19240524841E+02 -0.23564816763E+00  0.71241721986E+00  0.19255151642E+02  0.51100000000E-03 0. -1.
        -11    1    3    3    0    0  0.77997643089E+00  0.77018292753E+00  0.40331961194E+00  0.11679948395E+01  0.51100000000E-03 0.  1.
         12    1    3    3    0    0 -0.20258230152E+02  0.11181726764E+02  0.14607135078E+02  0.27364124278E+02  0.00000000000E+00 0. -1.
</event>
<event>
 7    1  0.2935819E-010  0.4778727E+02  0.7816164E-02  0.1312668E+00
        -11   -1    0    0    0    0  0.00000000000E+00  0.00000000000E+00  0.45593999997E+02  0.45594000000E+02  0.51100000000E-03 0.  1.
         11   -1    0    0    0    0 -0.00000000000E+00 -0.00000000000E+00 -0.45593999997E+02  0.45594000000E+02  0.51100000000E-03 0. -1.
    9900012    2    1    2    0    0  0.42151430695E+02 -0.70699706456E+01  0.75429353388E+01  0.47787268807E+02  0.19999989798E+02 0.  0.
        -12    1    1    2    0    0 -0.42151430695E+02  0.70699706456E+01 -0.75429353388E+01  0.43400731193E+02  0.00000000000E+00 0.  1.
         11    1    3    3    0    0  0.19180087824E+02 -0.24021574802E+01  0.70935786402E+01  0.20590410090E+02  0.51100000000E-03 0. -1.
        -11    1    3    3    0    0 -0.12376223850E+00 -0.40453254129E+01  0.60921561015E+00  0.40928130557E+01  0.51100000000E-03 0.  1.
        -12    1    3    3    0    0  0.23095105110E+02 -0.62248775252E+00 -0.15985891150E+00  0.23104045661E+02  0.00000000000E+00 0.  1.
</event>
<event>
 7    1  0.2935819E-010  0.4778726E+02  0.7816164E-02  0.1312668E+00
        -11   -1    0    0    0    0  0.00000000000E+00  0.00000000000E+00  0.45593999997E+02  0.45594000000E+02  0.51100000000E-03 0.  1.
         11   -1    0    0    0    0 -0.00000000000E+00 -0.00000000000E+00 -0.45593999997E+02  0.45594000000E+02  0.51100000000E-03 0. -1.
    9900012    2    1    2    0    0 -0.32299609343E+02  0.27313958792E+02 -0.97111672495E+01  0.47787264085E+02  0.19999968270E+02 0.  0.
        -12    1    1    2    0    0  0.32299609343E+02 -0.27313958792E+02  0.97111672495E+01  0.43400735915E+02  0.00000000000E+00 0.  1.
         11    1    3    3    0    0 -0.18693627899E+02  0.11643029302E+02 -0.11037449927E+02  0.24634064961E+02  0.51100000000E-03 0. -1.
        -11    1    3    3    0    0 -0.45070544219E+00  0.38902226613E+01 -0.30453516133E+01  0.49609610419E+01  0.51100000000E-03 0.  1.
         12    1    3    3    0    0 -0.13155276002E+02  0.11780706829E+02  0.43716342906E+01  0.18192238083E+02  0.00000000000E+00 0. -1.
</event>
<event>
 7    1  0.2935819E-010  0.4778727E+02  0.7816164E-02  0.1312668E+00
        -11   -1    0    0    0    0  0.00000000000E+00  0.00000000000E+00  0.45593999997E+02  0.45594000000E+02  0.51100000000E-03 0.  1.
         11   -1    0    0    0    0 -0.00000000000E+00 -0.00000000000E+00 -0.45593999997E+02  0.45594000000E+02  0.51100000000E-03 0. -1.
    9900012    2    1    2    0    0 -0.39175404520E+02  0.14654360388E+02 -0.11582773881E+02  0.47787271337E+02  0.20000001334E+02 0.  0.
        -12    1    1    2    0    0  0.39175404520E+02 -0.14654360388E+02  0.11582773881E+02  0.43400728663E+02  0.00000000000E+00 0.  1.
         11    1    3    3    0    0 -0.11987756526E+02  0.33990286550E+01 -0.93664193387E+01  0.15588120920E+02  0.51100000000E-03 0. -1.
        -11    1    3    3    0    0 -0.18288657908E+02  0.50266586916E+01  0.44132973884E+01  0.19473558991E+02  0.51100000000E-03 0.  1.
        -12    1    3    3    0    0 -0.88989900858E+01  0.62286730419E+01 -0.66296519312E+01  0.12725591426E+02  0.00000000000E+00 0.  1.
</event>
<event>
 7    1  0.2935819E-010  0.4778727E+02  0.7816164E-02  0.1312668E+00
        -11   -1    0    0    0    0  0.00000000000E+00  0.00000000000E+00  0.45593999997E+02  0.45594000000E+02  0.51100000000E-03 0.  1.
         11   -1    0    0    0    0 -0.00000000000E+00 -0.00000000000E+00 -0.45593999997E+02  0.45594000000E+02  0.51100000000E-03 0. -1.
    9900012    2    1    2    0    0 -0.29260050012E+01 -0.42188593817E+02 -0.97562705679E+01  0.47787265341E+02  0.19999973997E+02 0.  0.
        -12    1    1    2    0    0  0.29260050012E+01  0.42188593817E+02  0.97562705679E+01  0.43400734659E+02  0.00000000000E+00 0.  1.
         11    1    3    3    0    0  0.25894068701E+00 -0.24767156146E+01 -0.73954881708E+01  0.78034874294E+01  0.51100000000E-03 0. -1.
        -11    1    3    3    0    0 -0.16744906899E+01 -0.21091584050E+02 -0.33992825995E-01  0.21157977043E+02  0.51100000000E-03 0.  1.
         12    1    3    3    0    0 -0.15104549983E+01 -0.18620294153E+02 -0.23267895711E+01  0.18825800869E+02  0.00000000000E+00 0. -1.
</event>
<event>
 7    1  0.2935819E-010  0.4778727E+02  0.7816164E-02  0.1312668E+00
        -11   -1    0    0    0    0  0.00000000000E+00  0.00000000000E+00  0.45593999997E+02  0.45594000000E+02  0.51100000000E-03 0. -1.
         11   -1    0    0    0    0 -0.00000000000E+00 -0.00000000000E+00 -0.45593999997E+02  0.45594000000E+02  0.51100000000E-03 0.  1.
    9900012    2    1    2    0    0  0.32710746500E+02 -0.28343972113E+02  0.32015262956E+01  0.47787268874E+02  0.19999990102E+02 0.  0.
        -12    1    1    2    0    0 -0.32710746500E+02  0.28343972113E+02 -0.32015262956E+01  0.43400731126E+02  0.00000000000E+00 0.  1.
         11    1    3    3    0    0  0.63718345032E+01 -0.57024218794E+01 -0.55808561539E+01  0.10210966942E+02  0.51100000000E-03 0.  1.
        -11    1    3    3    0    0  0.60501947001E+01 -0.50775229604E+01  0.72111222375E+01  0.10695156825E+02  0.51100000000E-03 0. -1.
        -12    1    3    3    0    0  0.20288717296E+02 -0.17564027273E+02  0.15712602120E+01  0.26881145106E+02  0.00000000000E+00 0.  1.
</event>
<event>
 7    1  0.2935819E-010  0.4778727E+02  0.7816164E-02  0.1312668E+00
        -11   -1    0    0    0    0  0.00000000000E+00  0.00000000000E+00  0.45593999997E+02  0.45594000000E+02  0.51100000000E-03 0.  1.
         11   -1    0    0    0    0 -0.00000000000E+00 -0.00000000000E+00 -0.45593999997E+02  0.45594000000E+02  0.51100000000E-03 0. -1.
    9900012    2    1    2    0    0 -0.23421594031E+02  0.33256504799E+01 -0.36386706562E+02  0.47787269217E+02  0.19999991667E+02 0.  0.
        -12    1    1    2    0    0  0.23421594031E+02 -0.33256504799E+01  0.36386706562E+02  0.43400730783E+02  0.00000000000E+00 0.  1.
         11    1    3    3    0    0 -0.59727783464E+01  0.79042955115E+01 -0.74368835383E+01  0.12387865261E+02  0.51100000000E-03 0. -1.
        -11    1    3    3    0    0 -0.59472704312E+01 -0.46517634080E+01 -0.57008252509E+01  0.94608845881E+01  0.51100000000E-03 0.  1.
         12    1    3    3    0    0 -0.11501545253E+02  0.73118376380E-01 -0.23248997773E+02  0.25938519367E+02  0.00000000000E+00 0. -1.
</event>
<event>
 7    1  0.2935819E-010  0.4778726E+02  0.7816164E-02  0.1312668E+00
        -11   -1    0    0    0    0  0.00000000000E+00  0.00000000000E+00  0.45593999997E+02  0.45594000000E+02  0.51100000000E-03 0. -1.
         11   -1    0    0    0    0 -0.00000000000E+00 -0.00000000000E+00 -0.45593999997E+02  0.45594000000E+02  0.51100000000E-03 0.  1.
    9900012    2    1    2    0    0  0.35462104096E+02  0.24044870950E+01  0.24905458107E+02  0.47787260045E+02  0.19999949848E+02 0.  0.
        -12    1    1    2    0    0 -0.35462104096E+02 -0.24044870950E+01 -0.24905458107E+02  0.43400739955E+02  0.00000000000E+00 0.  1.
         11    1    3    3    0    0  0.33459845553E+02  0.42013150852E+01  0.21818614828E+02  0.40165461110E+02  0.51100000000E-03 0. -1.
        -11    1    3    3    0    0 -0.89566134048E+00  0.19068763109E+01  0.22978890380E+00  0.21192427193E+01  0.51100000000E-03 0.  1.
         12    1    3    3    0    0  0.28979198836E+01 -0.37037043011E+01  0.28570543751E+01  0.55025562154E+01  0.00000000000E+00 0. -1.
</event>
<event>
 7    1  0.2935819E-010  0.4778727E+02  0.7816164E-02  0.1312668E+00
        -11   -1    0    0    0    0  0.00000000000E+00  0.00000000000E+00  0.45593999997E+02  0.45594000000E+02  0.51100000000E-03 0.  1.
         11   -1    0    0    0    0 -0.00000000000E+00 -0.00000000000E+00 -0.45593999997E+02  0.45594000000E+02  0.51100000000E-03 0. -1.
    9900012    2    1    2    0    0 -0.34979604592E+02 -0.54578786987E+01 -0.25105023171E+02  0.47787269986E+02  0.19999995175E+02 0.  0.
        -12    1    1    2    0    0  0.34979604592E+02  0.54578786987E+01  0.25105023171E+02  0.43400730014E+02  0.00000000000E+00 0.  1.
         11    1    3    3    0    0 -0.12371185994E+02 -0.31905107439E+01 -0.86472028194E+01  0.15427239500E+02  0.51100000000E-03 0. -1.
        -11    1    3    3    0    0 -0.13608762801E+02 -0.60345859082E+01 -0.21481807631E+01  0.15040921944E+02  0.51100000000E-03 0.  1.
        -12    1    3    3    0    0 -0.89996557965E+01  0.37672179534E+01 -0.14309639589E+02  0.17319108543E+02  0.00000000000E+00 0.  1.
</event>
<event>
 7    1  0.2935819E-010  0.4778728E+02  0.7816164E-02  0.1312668E+00
        -11   -1    0    0    0    0  0.00000000000E+00  0.00000000000E+00  0.45593999997E+02  0.45594000000E+02  0.51100000000E-03 0.  1.
         11   -1    0    0    0    0 -0.00000000000E+00 -0.00000000000E+00 -0.45593999997E+02  0.45594000000E+02  0.51100000000E-03 0. -1.
    9900012    2    1    2    0    0 -0.43347733771E+02  0.21163672965E+01  0.34260554962E+00  0.47787280972E+02  0.20000045263E+02 0.  0.
        -12    1    1    2    0    0  0.43347733771E+02 -0.21163672965E+01 -0.34260554962E+00  0.43400719028E+02  0.00000000000E+00 0.  1.
         11    1    3    3    0    0 -0.11724810821E+02  0.29595449758E+01 -0.33290465975E+00  0.12097145161E+02  0.51100000000E-03 0. -1.
        -11    1    3    3    0    0 -0.31861008711E+02 -0.33470984075E+01 -0.18968577202E+01  0.32092444801E+02  0.51100000000E-03 0.  1.
        -12    1    3    3    0    0  0.23808576127E+00  0.25039207282E+01  0.25723679296E+01  0.35976910107E+01  0.00000000000E+00 0.  1.
</event>
<event>
 7    1  0.2935819E-010  0.4778727E+02  0.7816164E-02  0.1312668E+00
        -11   -1    0    0    0    0  0.00000000000E+00  0.00000000000E+00  0.45593999997E+02  0.45594000000E+02  0.51100000000E-03 0. -1.
         11   -1    0    0    0    0 -0.00000000000E+00 -0.00000000000E+00 -0.45593999997E+02  0.45594000000E+02  0.51100000000E-03 0.  1.
    9900012    2    1    2    0    0  0.20268559791E+02 -0.36767603211E+02  0.10997830567E+02  0.47787269142E+02  0.19999991325E+02 0.  0.
        -12    1    1    2    0    0 -0.20268559791E+02  0.36767603211E+02 -0.10997830567E+02  0.43400730858E+02  0.00000000000E+00 0.  1.
         11    1    3    3    0    0  0.13026974008E+02 -0.27403813053E+02  0.12366090061E+02  0.32765701660E+02  0.51100000000E-03 0. -1.
        -11    1    3    3    0    0 -0.10780243807E+01 -0.28385029722E+01  0.23223587322E+01  0.38226412375E+01  0.51100000000E-03 0.  1.
         12    1    3    3    0    0  0.83196101636E+01 -0.65252871858E+01 -0.36906182262E+01  0.11198926244E+02  0.00000000000E+00 0. -1.
</event>
<event>
 7    1  0.2935819E-010  0.4778727E+02  0.7816164E-02  0.1312668E+00
        -11   -1    0    0    0    0  0.00000000000E+00  0.00000000000E+00  0.45593999997E+02  0.45594000000E+02  0.51100000000E-03 0. -1.
         11   -1    0    0    0    0 -0.00000000000E+00 -0.00000000000E+00 -0.45593999997E+02  0.45594000000E+02  0.51100000000E-03 0.  1.
    9900012    2    1    2    0    0  0.26159668954E+02  0.34546031043E+02 -0.24221572570E+01  0.47787269749E+02  0.19999994092E+02 0.  0.
        -12    1    1    2    0    0 -0.26159668954E+02 -0.34546031043E+02  0.24221572570E+01  0.43400730251E+02  0.00000000000E+00 0.  1.
         11    1    3    3    0    0  0.11512390719E+02  0.20051097867E+02 -0.95674211491E+00  0.23140808574E+02  0.51100000000E-03 0. -1.
        -11    1    3    3    0    0  0.38270885296E+01 -0.20706400547E+01 -0.21392443647E+01  0.48487651585E+01  0.51100000000E-03 0.  1.
        -12    1    3    3    0    0  0.10820189705E+02  0.16565573231E+02  0.67382922263E+00  0.19797696016E+02  0.00000000000E+00 0.  1.
</event>
<event>
 7    1  0.2935819E-010  0.4778728E+02  0.7816164E-02  0.1312668E+00
        -11   -1    0    0    0    0  0.00000000000E+00  0.00000000000E+00  0.45593999997E+02  0.45594000000E+02  0.51100000000E-03 0. -1.
         11   -1    0    0    0    0 -0.00000000000E+00 -0.00000000000E+00 -0.45593999997E+02  0.45594000000E+02  0.51100000000E-03 0.  1.
    9900012    2    1    2    0    0  0.38822564912E+02  0.73246417596E+01  0.17966105304E+02  0.47787275777E+02  0.20000021577E+02 0.  0.
        -12    1    1    2    0    0 -0.38822564912E+02 -0.73246417596E+01 -0.17966105304E+02  0.43400724223E+02  0.00000000000E+00 0.  1.
         11    1    3    3    0    0  0.35411359472E+02  0.78928682625E+01  0.14209158595E+02  0.38963597592E+02  0.51100000000E-03 0. -1.
        -11    1    3    3    0    0 -0.16431267235E+01 -0.86386523556E+00  0.32403318939E+01  0.37344182437E+01  0.51100000000E-03 0.  1.
        -12    1    3    3    0    0  0.50543321638E+01  0.29563873266E+00  0.51661481537E+00  0.50892599413E+01  0.00000000000E+00 0.  1.
</event>
<event>
 7    1  0.2935819E-010  0.4778727E+02  0.7816164E-02  0.1312668E+00
        -11   -1    0    0    0    0  0.00000000000E+00  0.00000000000E+00  0.45593999997E+02  0.45594000000E+02  0.51100000000E-03 0.  1.
         11   -1    0    0    0    0 -0.00000000000E+00 -0.00000000000E+00 -0.45593999997E+02  0.45594000000E+02  0.51100000000E-03 0. -1.
    9900012    2    1    2    0    0  0.27178716909E+02 -0.25829182344E+01 -0.33738244510E+02  0.47787271181E+02  0.20000000624E+02 0.  0.
        -12    1    1    2    0    0 -0.27178716909E+02  0.25829182344E+01  0.33738244510E+02  0.43400728819E+02  0.00000000000E+00 0.  1.
         11    1    3    3    0    0  0.10103438515E+02  0.57803408545E+01 -0.75086416130E+01  0.13851769177E+02  0.51100000000E-03 0. -1.
        -11    1    3    3    0    0  0.56663660401E+01 -0.77644494797E+01 -0.84311726406E+01  0.12785892702E+02  0.51100000000E-03 0.  1.
         12    1    3    3    0    0  0.11408912354E+02 -0.59880960920E+00 -0.17798430256E+02  0.21149609302E+02  0.00000000000E+00 0. -1.
</event>
<event>
 7    1  0.2935819E-010  0.4778727E+02  0.7816164E-02  0.1312668E+00
        -11   -1    0    0    0    0  0.00000000000E+00  0.00000000000E+00  0.45593999997E+02  0.45594000000E+02  0.51100000000E-03 0.  1.
         11   -1    0    0    0    0 -0.00000000000E+00 -0.00000000000E+00 -0.45593999997E+02  0.45594000000E+02  0.51100000000E-03 0. -1.
    9900012    2    1    2    0    0 -0.41043899359E+02 -0.14104263937E+02 -0.30222518152E+00  0.47787271022E+02  0.19999999897E+02 0.  0.
        -12    1    1    2    0    0  0.41043899359E+02  0.14104263937E+02  0.30222518152E+00  0.43400728978E+02  0.00000000000E+00 0.  1.
         11    1    3    3    0    0 -0.10042901806E+02 -0.10552459429E+02 -0.31336447595E+01  0.14900805563E+02  0.51100000000E-03 0. -1.
        -11    1    3    3    0    0 -0.86740163907E+01  0.34725774367E+01  0.12599231627E+01  0.94278715008E+01  0.51100000000E-03 0.  1.
        -12    1    3    3    0    0 -0.22326981162E+02 -0.70243819443E+01  0.15714964154E+01  0.23458593958E+02  0.00000000000E+00 0.  1.
</event>
<event>
 7    1  0.2935819E-010  0.4778727E+02  0.7816164E-02  0.1312668E+00
        -11   -1    0    0    0    0  0.00000000000E+00  0.00000000000E+00  0.45593999997E+02  0.45594000000E+02  0.51100000000E-03 0.  1.
         11   -1    0    0    0    0 -0.00000000000E+00 -0.00000000000E+00 -0.45593999997E+02  0.45594000000E+02  0.51100000000E-03 0. -1.
    9900012    2    1    2    0    0 -0.30753738736E+02 -0.25553493545E+02 -0.16877499336E+02  0.47787268872E+02  0.19999990095E+02 0.  0.
        -12    1    1    2    0    0  0.30753738736E+02  0.25553493545E+02  0.16877499336E+02  0.43400731128E+02  0.00000000000E+00 0.  1.
         11    1    3    3    0    0 -0.14650995095E+02 -0.12165593998E+02  0.17529852660E+01  0.19123971664E+02  0.51100000000E-03 0. -1.
        -11    1    3    3    0    0 -0.99490065126E+01 -0.11104253549E+02 -0.15057686973E+02  0.21190118327E+02  0.51100000000E-03 0.  1.
        -12    1    3    3    0    0 -0.61537371281E+01 -0.22836459971E+01 -0.35727976286E+01  0.74731788803E+01  0.00000000000E+00 0.  1.
</event>
<event>
 7    1  0.2935819E-010  0.4778727E+02  0.7816164E-02  0.1312668E+00
        -11   -1    0    0    0    0  0.00000000000E+00  0.00000000000E+00  0.45593999997E+02  0.45594000000E+02  0.51100000000E-03 0.  1.
         11   -1    0    0    0    0 -0.00000000000E+00 -0.00000000000E+00 -0.45593999997E+02  0.45594000000E+02  0.51100000000E-03 0. -1.
    9900012    2    1    2    0    0 -0.36591526979E+02  0.20628776251E+02 -0.10914980157E+02  0.47787273646E+02  0.20000011861E+02 0.  0.
        -12    1    1    2    0    0  0.36591526979E+02 -0.20628776251E+02  0.10914980157E+02  0.43400726354E+02  0.00000000000E+00 0.  1.
         11    1    3    3    0    0  0.13504629402E+01  0.40461466755E-01  0.18117729004E+01  0.22600682704E+01  0.51100000000E-03 0. -1.
        -11    1    3    3    0    0 -0.42620283578E+01  0.29229770474E+01  0.65638837324E+00  0.52095610660E+01  0.51100000000E-03 0.  1.
         12    1    3    3    0    0 -0.33679961561E+02  0.17665337737E+02 -0.13383141431E+02  0.40317644309E+02  0.00000000000E+00 0. -1.
</event>
<event>
 7    1  0.2935819E-010  0.4778730E+02  0.7816164E-02  0.1312668E+00
        -11   -1    0    0    0    0  0.00000000000E+00  0.00000000000E+00  0.45593999997E+02  0.45594000000E+02  0.51100000000E-03 0.  1.
         11   -1    0    0    0    0 -0.00000000000E+00 -0.00000000000E+00 -0.45593999997E+02  0.45594000000E+02  0.51100000000E-03 0. -1.
    9900012    2    1    2    0    0  0.54020213900E+01 -0.36742572331E+02 -0.22459348707E+02  0.47787299535E+02  0.20000129898E+02 0.  0.
        -12    1    1    2    0    0 -0.54020213900E+01  0.36742572331E+02  0.22459348707E+02  0.43400700465E+02  0.00000000000E+00 0.  1.
         11    1    3    3    0    0 -0.65115907732E+01 -0.10754276486E+02 -0.80357527853E+01  0.14920743956E+02  0.51100000000E-03 0. -1.
        -11    1    3    3    0    0  0.71430119743E+01 -0.19859415116E+02 -0.73117377228E+01  0.22335632913E+02  0.51100000000E-03 0.  1.
         12    1    3    3    0    0  0.47706001890E+01 -0.61288807287E+01 -0.71118581985E+01  0.10530922665E+02  0.00000000000E+00 0. -1.
</event>
<event>
 7    1  0.2935819E-010  0.4778729E+02  0.7816164E-02  0.1312668E+00
        -11   -1    0    0    0    0  0.00000000000E+00  0.00000000000E+00  0.45593999997E+02  0.45594000000E+02  0.51100000000E-03 0.  1.
         11   -1    0    0    0    0 -0.00000000000E+00 -0.00000000000E+00 -0.45593999997E+02  0.45594000000E+02  0.51100000000E-03 0. -1.
    9900012    2    1    2    0    0  0.32798581095E+02  0.19089553980E+02 -0.21058584930E+02  0.47787285809E+02  0.20000067317E+02 0.  0.
        -12    1    1    2    0    0 -0.32798581095E+02 -0.19089553980E+02  0.21058584930E+02  0.43400714191E+02  0.00000000000E+00 0.  1.
         11    1    3    3    0    0  0.12638495832E+01  0.38684231157E+01 -0.57551693716E+01  0.70486869649E+01  0.51100000000E-03 0. -1.
        -11    1    3    3    0    0  0.17821973440E+02  0.10816686264E+02 -0.16828853248E+01  0.20915437894E+02  0.51100000000E-03 0.  1.
        -12    1    3    3    0    0  0.13712758072E+02  0.44044446003E+01 -0.13620530234E+02  0.19823160950E+02  0.00000000000E+00 0.  1.
</event>
<event>
 7    1  0.2935819E-010  0.4778727E+02  0.7816164E-02  0.1312668E+00
        -11   -1    0    0    0    0  0.00000000000E+00  0.00000000000E+00  0.45593999997E+02  0.45594000000E+02  0.51100000000E-03 0.  1.
         11   -1    0    0    0    0 -0.00000000000E+00 -0.00000000000E+00 -0.45593999997E+02  0.45594000000E+02  0.51100000000E-03 0. -1.
    9900012    2    1    2    0    0  0.31885653169E+02 -0.13526538675E+02 -0.26152646406E+02  0.47787273732E+02  0.20000012255E+02 0.  0.
        -12    1    1    2    0    0 -0.31885653169E+02  0.13526538675E+02  0.26152646406E+02  0.43400726268E+02  0.00000000000E+00 0.  1.
         11    1    3    3    0    0  0.47370133314E+01  0.12015054089E+01 -0.21926135137E+01  0.53563480872E+01  0.51100000000E-03 0. -1.
        -11    1    3    3    0    0  0.10776268241E+02 -0.48241071959E+01 -0.19479826807E+02  0.22778578097E+02  0.51100000000E-03 0.  1.
        -12    1    3    3    0    0  0.16372371597E+02 -0.99039368875E+01 -0.44802060852E+01  0.19652347548E+02  0.00000000000E+00 0.  1.
</event>
<event>
 7    1  0.2935819E-010  0.4778727E+02  0.7816164E-02  0.1312668E+00
        -11   -1    0    0    0    0  0.00000000000E+00  0.00000000000E+00  0.45593999997E+02  0.45594000000E+02  0.51100000000E-03 0.  1.
         11   -1    0    0    0    0 -0.00000000000E+00 -0.00000000000E+00 -0.45593999997E+02  0.45594000000E+02  0.51100000000E-03 0. -1.
    9900012    2    1    2    0    0 -0.40218518229E+02  0.16307660583E+02  0.39257184893E+00  0.47787272876E+02  0.20000008351E+02 0.  0.
        -12    1    1    2    0    0  0.40218518229E+02 -0.16307660583E+02 -0.39257184893E+00  0.43400727124E+02  0.00000000000E+00 0.  1.
         11    1    3    3    0    0 -0.11521774899E+02  0.63402795288E+01 -0.74460417290E+01  0.15112709189E+02  0.51100000000E-03 0. -1.
        -11    1    3    3    0    0 -0.88230434798E+01 -0.10755846497E+01  0.33583211961E+01  0.95016472310E+01  0.51100000000E-03 0.  1.
         12    1    3    3    0    0 -0.19873699850E+02  0.11042965704E+02  0.44802923818E+01  0.23172916456E+02  0.00000000000E+00 0. -1.
</event>
<event>
 7    1  0.2935819E-010  0.4778729E+02  0.7816164E-02  0.1312668E+00
        -11   -1    0    0    0    0  0.00000000000E+00  0.00000000000E+00  0.45593999997E+02  0.45594000000E+02  0.51100000000E-03 0.  1.
         11   -1    0    0    0    0 -0.00000000000E+00 -0.00000000000E+00 -0.45593999997E+02  0.45594000000E+02  0.51100000000E-03 0. -1.
    9900012    2    1    2    0    0 -0.29455862136E+02  0.50133600411E+01 -0.31477608605E+02  0.47787292211E+02  0.20000096505E+02 0.  0.
        -12    1    1    2    0    0  0.29455862136E+02 -0.50133600411E+01  0.31477608605E+02  0.43400707789E+02  0.00000000000E+00 0.  1.
         11    1    3    3    0    0 -0.88972843867E+01  0.47644526813E+01 -0.13148112753E+02  0.16575118341E+02  0.51100000000E-03 0. -1.
        -11    1    3    3    0    0 -0.38121456995E+01 -0.10606026937E+01  0.23250580602E+01  0.45894692670E+01  0.51100000000E-03 0.  1.
        -12    1    3    3    0    0 -0.16746432050E+02  0.13095100535E+01 -0.20654553913E+02  0.26622704602E+02  0.00000000000E+00 0.  1.
</event>
<event>
 7    1  0.2935819E-010  0.4778727E+02  0.7816164E-02  0.1312668E+00
        -11   -1    0    0    0    0  0.00000000000E+00  0.00000000000E+00  0.45593999997E+02  0.45594000000E+02  0.51100000000E-03 0.  1.
         11   -1    0    0    0    0 -0.00000000000E+00 -0.00000000000E+00 -0.45593999997E+02  0.45594000000E+02  0.51100000000E-03 0. -1.
    9900012    2    1    2    0    0 -0.46623419237E-01  0.22954851241E+02 -0.36833352072E+02  0.47787271963E+02  0.20000004190E+02 0.  0.
        -12    1    1    2    0    0  0.46623419237E-01 -0.22954851241E+02  0.36833352072E+02  0.43400728037E+02  0.00000000000E+00 0.  1.
         11    1    3    3    0    0 -0.60794128521E+01  0.16939614365E+01 -0.92034300811E+01  0.11159385803E+02  0.51100000000E-03 0. -1.
        -11    1    3    3    0    0  0.25571028921E+01  0.16448334895E+02 -0.13960814599E+02  0.21725350183E+02  0.51100000000E-03 0.  1.
         12    1    3    3    0    0  0.34756865408E+01  0.48125549089E+01 -0.13669107392E+02  0.14902535978E+02  0.00000000000E+00 0. -1.
</event>
<event>
 7    1  0.2935819E-010  0.4778727E+02  0.7816164E-02  0.1312668E+00
        -11   -1    0    0    0    0  0.00000000000E+00  0.00000000000E+00  0.45593999997E+02  0.45594000000E+02  0.51100000000E-03 0.  1.
         11   -1    0    0    0    0 -0.00000000000E+00 -0.00000000000E+00 -0.45593999997E+02  0.45594000000E+02  0.51100000000E-03 0. -1.
    9900012    2    1    2    0    0 -0.21479753411E+02 -0.12383591478E+02 -0.35621485455E+02  0.47787269931E+02  0.19999994922E+02 0.  0.
        -12    1    1    2    0    0  0.21479753411E+02  0.12383591478E+02  0.35621485455E+02  0.43400730069E+02  0.00000000000E+00 0.  1.
         11    1    3    3    0    0 -0.12820471059E+02 -0.89350436642E+01 -0.22725883107E+02  0.27580160382E+02  0.51100000000E-03 0. -1.
        -11    1    3    3    0    0  0.31615725803E+01 -0.24153843009E+00 -0.38111173960E+01  0.49576706285E+01  0.51100000000E-03 0.  1.
        -12    1    3    3    0    0 -0.11820854933E+02 -0.32070093833E+01 -0.90844849526E+01  0.15249438920E+02  0.00000000000E+00 0.  1.
</event>
<event>
 7    1  0.2935819E-010  0.4778727E+02  0.7816164E-02  0.1312668E+00
        -11   -1    0    0    0    0  0.00000000000E+00  0.00000000000E+00  0.45593999997E+02  0.45594000000E+02  0.51100000000E-03 0. -1.
         11   -1    0    0    0    0 -0.00000000000E+00 -0.00000000000E+00 -0.45593999997E+02  0.45594000000E+02  0.51100000000E-03 0.  1.
    9900012    2    1    2    0    0  0.20718301877E+02 -0.25763123823E+02  0.28118266669E+02  0.47787268413E+02  0.19999988002E+02 0.  0.
        -12    1    1    2    0    0 -0.20718301877E+02  0.25763123823E+02 -0.28118266669E+02  0.43400731587E+02  0.00000000000E+00 0.  1.
         11    1    3    3    0    0  0.12183794278E+02 -0.63484973856E+01  0.92942445104E+01  0.16587080615E+02  0.51100000000E-03 0. -1.
        -11    1    3    3    0    0  0.59602542657E+01 -0.16960879529E+02  0.77641501365E+01  0.19582596684E+02  0.51100000000E-03 0.  1.
        -12    1    3    3    0    0  0.25742533335E+01 -0.24537469089E+01  0.11059872023E+02  0.11617591113E+02  0.00000000000E+00 0.  1.
</event>
<event>
 7    1  0.2935819E-010  0.4778727E+02  0.7816164E-02  0.1312668E+00
        -11   -1    0    0    0    0  0.00000000000E+00  0.00000000000E+00  0.45593999997E+02  0.45594000000E+02  0.51100000000E-03 0.  1.
         11   -1    0    0    0    0 -0.00000000000E+00 -0.00000000000E+00 -0.45593999997E+02  0.45594000000E+02  0.51100000000E-03 0. -1.
    9900012    2    1    2    0    0  0.23805874149E+02 -0.32626796776E+02 -0.15886973130E+02  0.47787269279E+02  0.19999991951E+02 0.  0.
        -12    1    1    2    0    0 -0.23805874149E+02  0.32626796776E+02  0.15886973130E+02  0.43400730721E+02  0.00000000000E+00 0.  1.
         11    1    3    3    0    0  0.16714411195E+02 -0.65928177632E+01 -0.79678442463E+01  0.19655109510E+02  0.51100000000E-03 0. -1.
        -11    1    3    3    0    0  0.63153644382E+01 -0.22320441732E+02 -0.66346703462E+01  0.24126848074E+02  0.51100000000E-03 0.  1.
         12    1    3    3    0    0  0.77609851521E+00 -0.37135372809E+01 -0.12844585376E+01  0.40053116953E+01  0.00000000000E+00 0. -1.
</event>
<event>
 7    1  0.2935819E-010  0.4778727E+02  0.7816164E-02  0.1312668E+00
        -11   -1    0    0    0    0  0.00000000000E+00  0.00000000000E+00  0.45593999997E+02  0.45594000000E+02  0.51100000000E-03 0.  1.
         11   -1    0    0    0    0 -0.00000000000E+00 -0.00000000000E+00 -0.45593999997E+02  0.45594000000E+02  0.51100000000E-03 0. -1.
    9900012    2    1    2    0    0 -0.15212052747E+02  0.62169891508E+01 -0.40169215397E+02  0.47787269954E+02  0.19999995029E+02 0.  0.
        -12    1    1    2    0    0  0.15212052747E+02 -0.62169891508E+01  0.40169215397E+02  0.43400730046E+02  0.00000000000E+00 0.  1.
         11    1    3    3    0    0 -0.14514771752E+02  0.14493054387E+01 -0.18227760506E+02  0.23345884832E+02  0.51100000000E-03 0. -1.
        -11    1    3    3    0    0 -0.64857585329E+00  0.91246690883E-01  0.90725715443E+00  0.11189693479E+01  0.51100000000E-03 0.  1.
         12    1    3    3    0    0 -0.48705141717E-01  0.46764370212E+01 -0.22848712046E+02  0.23322415774E+02  0.00000000000E+00 0. -1.
</event>
<event>
 7    1  0.2935819E-010  0.4778727E+02  0.7816164E-02  0.1312668E+00
        -11   -1    0    0    0    0  0.00000000000E+00  0.00000000000E+00  0.45593999997E+02  0.45594000000E+02  0.51100000000E-03 0.  1.
         11   -1    0    0    0    0 -0.00000000000E+00 -0.00000000000E+00 -0.45593999997E+02  0.45594000000E+02  0.51100000000E-03 0. -1.
    9900012    2    1    2    0    0 -0.25423027283E+02  0.20011486616E+02 -0.28928072831E+02  0.47787270622E+02  0.19999998076E+02 0.  0.
        -12    1    1    2    0    0  0.25423027283E+02 -0.20011486616E+02  0.28928072831E+02  0.43400729378E+02  0.00000000000E+00 0.  1.
         11    1    3    3    0    0 -0.15589149886E+02  0.10400093020E+02 -0.27014575946E+02  0.32878121035E+02  0.51100000000E-03 0.  1.
        -11    1    3    3    0    0 -0.78637103257E+01  0.62471251086E+01  0.92641957494E+00  0.10085770456E+02  0.51100000000E-03 0. -1.
         12    1    3    3    0    0 -0.19701670714E+01  0.33642684872E+01 -0.28399164604E+01  0.48233791314E+01  0.00000000000E+00 0. -1.
</event>
<event>
 7    1  0.2935819E-010  0.4778727E+02  0.7816164E-02  0.1312668E+00
        -11   -1    0    0    0    0  0.00000000000E+00  0.00000000000E+00  0.45593999997E+02  0.45594000000E+02  0.51100000000E-03 0.  1.
         11   -1    0    0    0    0 -0.00000000000E+00 -0.00000000000E+00 -0.45593999997E+02  0.45594000000E+02  0.51100000000E-03 0. -1.
    9900012    2    1    2    0    0  0.35527288711E+02  0.14628932452E+02  0.20184877994E+02  0.47787271809E+02  0.20000003488E+02 0.  0.
        -12    1    1    2    0    0 -0.35527288711E+02 -0.14628932452E+02 -0.20184877994E+02  0.43400728191E+02  0.00000000000E+00 0.  1.
         11    1    3    3    0    0  0.84462987417E+01 -0.26326279262E+01  0.34161603997E+01  0.94837146926E+01  0.51100000000E-03 0. -1.
        -11    1    3    3    0    0  0.13473472828E+02  0.10347298852E+02  0.15484337920E+02  0.22986208575E+02  0.51100000000E-03 0.  1.
        -12    1    3    3    0    0  0.13607517141E+02  0.69142615266E+01  0.12843796740E+01  0.15317348542E+02  0.00000000000E+00 0.  1.
</event>
<event>
 7    1  0.2935819E-010  0.4778727E+02  0.7816164E-02  0.1312668E+00
        -11   -1    0    0    0    0  0.00000000000E+00  0.00000000000E+00  0.45593999997E+02  0.45594000000E+02  0.51100000000E-03 0. -1.
         11   -1    0    0    0    0 -0.00000000000E+00 -0.00000000000E+00 -0.45593999997E+02  0.45594000000E+02  0.51100000000E-03 0.  1.
    9900012    2    1    2    0    0  0.33228377675E+02  0.23925304871E+02 -0.14390217627E+02  0.47787266603E+02  0.19999979747E+02 0.  0.
        -12    1    1    2    0    0 -0.33228377675E+02 -0.23925304871E+02  0.14390217627E+02  0.43400733397E+02  0.00000000000E+00 0.  1.
         11    1    3    3    0    0  0.18409173153E+02  0.80870361977E+01 -0.11890121590E+01  0.20142282910E+02  0.51100000000E-03 0. -1.
        -11    1    3    3    0    0  0.29056336526E+01  0.44566288625E+01  0.15379680180E+01  0.55380135091E+01  0.51100000000E-03 0.  1.
         12    1    3    3    0    0  0.11913570869E+02  0.11381639811E+02 -0.14739173486E+02  0.22106970184E+02  0.00000000000E+00 0. -1.
</event>
<event>
 7    1  0.2935819E-010  0.4778727E+02  0.7816164E-02  0.1312668E+00
        -11   -1    0    0    0    0  0.00000000000E+00  0.00000000000E+00  0.45593999997E+02  0.45594000000E+02  0.51100000000E-03 0.  1.
         11   -1    0    0    0    0 -0.00000000000E+00 -0.00000000000E+00 -0.45593999997E+02  0.45594000000E+02  0.51100000000E-03 0. -1.
    9900012    2    1    2    0    0 -0.38163650477E+02 -0.14756851606E+02 -0.14470472713E+02  0.47787268813E+02  0.19999989825E+02 0.  0.
        -12    1    1    2    0    0  0.38163650477E+02  0.14756851606E+02  0.14470472713E+02  0.43400731187E+02  0.00000000000E+00 0.  1.
         11    1    3    3    0    0 -0.25733366607E+02 -0.52933497045E+01 -0.32874515134E+01  0.26477028643E+02  0.51100000000E-03 0.  1.
        -11    1    3    3    0    0 -0.80223532291E+01 -0.31648979653E+01 -0.10506557324E+02  0.13592736205E+02  0.51100000000E-03 0. -1.
         12    1    3    3    0    0 -0.44079306405E+01 -0.62986039363E+01 -0.67646387541E+00  0.77175039652E+01  0.00000000000E+00 0. -1.
</event>
<event>
 7    1  0.2935819E-010  0.4778727E+02  0.7816164E-02  0.1312668E+00
        -11   -1    0    0    0    0  0.00000000000E+00  0.00000000000E+00  0.45593999997E+02  0.45594000000E+02  0.51100000000E-03 0.  1.
         11   -1    0    0    0    0 -0.00000000000E+00 -0.00000000000E+00 -0.45593999997E+02  0.45594000000E+02  0.51100000000E-03 0. -1.
    9900012    2    1    2    0    0  0.10295288989E+02 -0.16602307069E+02 -0.38755560451E+02  0.47787273725E+02  0.20000012220E+02 0.  0.
        -12    1    1    2    0    0 -0.10295288989E+02  0.16602307069E+02  0.38755560451E+02  0.43400726275E+02  0.00000000000E+00 0.  1.
         11    1    3    3    0    0  0.75517136131E+01 -0.35593950857E+01 -0.31172200250E+02  0.32270787728E+02  0.51100000000E-03 0. -1.
        -11    1    3    3    0    0  0.88129466028E+00 -0.91800689741E+01 -0.56231508999E+01  0.10801396806E+02  0.51100000000E-03 0.  1.
         12    1    3    3    0    0  0.18622807158E+01 -0.38628430095E+01 -0.19602093008E+01  0.47150891914E+01  0.00000000000E+00 0. -1.
</event>
<event>
 7    1  0.2935819E-010  0.4778727E+02  0.7816164E-02  0.1312668E+00
        -11   -1    0    0    0    0  0.00000000000E+00  0.00000000000E+00  0.45593999997E+02  0.45594000000E+02  0.51100000000E-03 0. -1.
         11   -1    0    0    0    0 -0.00000000000E+00 -0.00000000000E+00 -0.45593999997E+02  0.45594000000E+02  0.51100000000E-03 0.  1.
    9900012    2    1    2    0    0 -0.58083970739E+01  0.42713297373E+02  0.50458263116E+01  0.47787267147E+02  0.19999982229E+02 0.  0.
        -12    1    1    2    0    0  0.58083970739E+01 -0.42713297373E+02 -0.50458263116E+01  0.43400732853E+02  0.00000000000E+00 0.  1.
         11    1    3    3    0    0  0.42324468091E+01  0.13619505575E+02  0.14505648590E+01  0.14335573821E+02  0.51100000000E-03 0. -1.
        -11    1    3    3    0    0 -0.13036148546E+02  0.24115639639E+02  0.35434296569E+01  0.27641655850E+02  0.51100000000E-03 0.  1.
        -12    1    3    3    0    0  0.29953046631E+01  0.49781521583E+01  0.51831795817E-01  0.58100374759E+01  0.00000000000E+00 0.  1.
</event>
<event>
 7    1  0.2935819E-010  0.4778727E+02  0.7816164E-02  0.1312668E+00
        -11   -1    0    0    0    0  0.00000000000E+00  0.00000000000E+00  0.45593999997E+02  0.45594000000E+02  0.51100000000E-03 0.  1.
         11   -1    0    0    0    0 -0.00000000000E+00 -0.00000000000E+00 -0.45593999997E+02  0.45594000000E+02  0.51100000000E-03 0. -1.
    9900012    2    1    2    0    0 -0.36823538272E+01  0.16413973121E+02 -0.40008063530E+02  0.47787269698E+02  0.19999993859E+02 0.  0.
        -12    1    1    2    0    0  0.36823538272E+01 -0.16413973121E+02  0.40008063530E+02  0.43400730302E+02  0.00000000000E+00 0.  1.
         11    1    3    3    0    0 -0.69656153787E+01  0.15231737373E+02 -0.19237638811E+02  0.25507104271E+02  0.51100000000E-03 0. -1.
        -11    1    3    3    0    0  0.13393966767E+01 -0.30601728307E+01 -0.74077229776E+01  0.81260692334E+01  0.51100000000E-03 0.  1.
        -12    1    3    3    0    0  0.19438648748E+01  0.42424085786E+01 -0.13362701742E+02  0.14154096193E+02  0.00000000000E+00 0.  1.
</event>
<event>
 7    1  0.2935819E-010  0.4778727E+02  0.7816164E-02  0.1312668E+00
        -11   -1    0    0    0    0  0.00000000000E+00  0.00000000000E+00  0.45593999997E+02  0.45594000000E+02  0.51100000000E-03 0. -1.
         11   -1    0    0    0    0 -0.00000000000E+00 -0.00000000000E+00 -0.45593999997E+02  0.45594000000E+02  0.51100000000E-03 0.  1.
    9900012    2    1    2    0    0  0.37088024631E+02 -0.42806935164E+01  0.22130922543E+02  0.47787266819E+02  0.19999980735E+02 0.  0.
        -12    1    1    2    0    0 -0.37088024631E+02  0.42806935164E+01 -0.22130922543E+02  0.43400733181E+02  0.00000000000E+00 0.  1.
         11    1    3    3    0    0  0.35442158992E+02 -0.65943726278E+01  0.13373611921E+02  0.38451084255E+02  0.51100000000E-03 0. -1.
        -11    1    3    3    0    0  0.17128630062E+01  0.14652301327E+01  0.73854058329E+01  0.77217238100E+01  0.51100000000E-03 0.  1.
         12    1    3    3    0    0 -0.66997366521E-01  0.84844897862E+00  0.13719047895E+01  0.16144587539E+01  0.00000000000E+00 0. -1.
</event>
<event>
 7    1  0.2935819E-010  0.4778726E+02  0.7816164E-02  0.1312668E+00
        -11   -1    0    0    0    0  0.00000000000E+00  0.00000000000E+00  0.45593999997E+02  0.45594000000E+02  0.51100000000E-03 0.  1.
         11   -1    0    0    0    0 -0.00000000000E+00 -0.00000000000E+00 -0.45593999997E+02  0.45594000000E+02  0.51100000000E-03 0. -1.
    9900012    2    1    2    0    0  0.12272537269E+02 -0.28608022442E+02 -0.30242186992E+02  0.47787262759E+02  0.19999962222E+02 0.  0.
        -12    1    1    2    0    0 -0.12272537269E+02  0.28608022442E+02  0.30242186992E+02  0.43400737241E+02  0.00000000000E+00 0.  1.
         11    1    3    3    0    0  0.76660492195E+01 -0.98269274675E+01 -0.75942235887E+01  0.14594829436E+02  0.51100000000E-03 0. -1.
        -11    1    3    3    0    0 -0.43076144529E+01 -0.88792237964E+01 -0.14614581585E+02  0.17634686067E+02  0.51100000000E-03 0.  1.
        -12    1    3    3    0    0  0.89141025028E+01 -0.99018711778E+01 -0.80333818176E+01  0.15557747256E+02  0.00000000000E+00 0.  1.
</event>
<event>
 7    1  0.2935819E-010  0.4778727E+02  0.7816164E-02  0.1312668E+00
        -11   -1    0    0    0    0  0.00000000000E+00  0.00000000000E+00  0.45593999997E+02  0.45594000000E+02  0.51100000000E-03 0. -1.
         11   -1    0    0    0    0 -0.00000000000E+00 -0.00000000000E+00 -0.45593999997E+02  0.45594000000E+02  0.51100000000E-03 0.  1.
    9900012    2    1    2    0    0  0.38899220977E+01  0.42933600957E+02  0.50197511311E+01  0.47787268595E+02  0.19999988834E+02 0.  0.
        -12    1    1    2    0    0 -0.38899220977E+01 -0.42933600957E+02 -0.50197511311E+01  0.43400731405E+02  0.00000000000E+00 0.  1.
         11    1    3    3    0    0  0.66094804813E+01  0.12491895967E+02  0.71211095591E+01  0.15825387789E+02  0.51100000000E-03 0. -1.
        -11    1    3    3    0    0 -0.99371116157E+00  0.19729376232E+02  0.29846023865E+01  0.19978578529E+02  0.51100000000E-03 0.  1.
         12    1    3    3    0    0 -0.17258472221E+01  0.10712328759E+02 -0.50859608145E+01  0.11983302277E+02  0.00000000000E+00 0. -1.
</event>
<event>
 7    1  0.2935819E-010  0.4778727E+02  0.7816164E-02  0.1312668E+00
        -11   -1    0    0    0    0  0.00000000000E+00  0.00000000000E+00  0.45593999997E+02  0.45594000000E+02  0.51100000000E-03 0.  1.
         11   -1    0    0    0    0 -0.00000000000E+00 -0.00000000000E+00 -0.45593999997E+02  0.45594000000E+02  0.51100000000E-03 0. -1.
    9900012    2    1    2    0    0  0.42042493930E+02 -0.98727710032E+01 -0.43104878286E+01  0.47787271798E+02  0.20000003436E+02 0.  0.
        -12    1    1    2    0    0 -0.42042493930E+02  0.98727710032E+01  0.43104878286E+01  0.43400728202E+02  0.00000000000E+00 0.  1.
         11    1    3    3    0    0  0.26197308438E+02  0.87549179333E+00  0.17890031093E+01  0.26272913574E+02  0.51100000000E-03 0. -1.
        -11    1    3    3    0    0  0.21512663629E+01 -0.55049103659E+01 -0.24885431369E+01  0.64128645944E+01  0.51100000000E-03 0.  1.
         12    1    3    3    0    0  0.13693919129E+02 -0.52433524306E+01 -0.36109478010E+01  0.15101493630E+02  0.00000000000E+00 0. -1.
</event>
<event>
 7    1  0.2935819E-010  0.4778727E+02  0.7816164E-02  0.1312668E+00
        -11   -1    0    0    0    0  0.00000000000E+00  0.00000000000E+00  0.45593999997E+02  0.45594000000E+02  0.51100000000E-03 0.  1.
         11   -1    0    0    0    0 -0.00000000000E+00 -0.00000000000E+00 -0.45593999997E+02  0.45594000000E+02  0.51100000000E-03 0. -1.
    9900012    2    1    2    0    0  0.69750864407E+00  0.25630322415E+02 -0.35017469979E+02  0.47787272481E+02  0.20000006550E+02 0.  0.
        -12    1    1    2    0    0 -0.69750864407E+00 -0.25630322415E+02  0.35017469979E+02  0.43400727519E+02  0.00000000000E+00 0.  1.
         11    1    3    3    0    0  0.47364741210E+00  0.45080100391E+01 -0.56899349206E+01  0.72747409607E+01  0.51100000000E-03 0. -1.
        -11    1    3    3    0    0 -0.80007938312E+01  0.47035997901E+01 -0.12771750568E+02  0.15787785333E+02  0.51100000000E-03 0.  1.
        -12    1    3    3    0    0  0.82246550632E+01  0.16418712586E+02 -0.16555784491E+02  0.24724746187E+02  0.00000000000E+00 0.  1.
</event>
<event>
 7    1  0.2935819E-010  0.4778728E+02  0.7816164E-02  0.1312668E+00
        -11   -1    0    0    0    0  0.00000000000E+00  0.00000000000E+00  0.45593999997E+02  0.45594000000E+02  0.51100000000E-03 0.  1.
         11   -1    0    0    0    0 -0.00000000000E+00 -0.00000000000E+00 -0.45593999997E+02  0.45594000000E+02  0.51100000000E-03 0. -1.
    9900012    2    1    2    0    0 -0.42983007410E+02  0.59667327949E+01  0.69391409242E+00  0.47787281768E+02  0.20000048895E+02 0.  0.
        -12    1    1    2    0    0  0.42983007410E+02 -0.59667327949E+01 -0.69391409242E+00  0.43400718232E+02  0.00000000000E+00 0.  1.
         11    1    3    3    0    0 -0.33648947881E+02  0.10188861175E+02  0.43457917796E+01  0.35425280408E+02  0.51100000000E-03 0. -1.
        -11    1    3    3    0    0 -0.58168780788E+01 -0.34246044907E+01  0.61158857404E+00  0.67777597587E+01  0.51100000000E-03 0.  1.
         12    1    3    3    0    0 -0.35171814502E+01 -0.79752388906E+00 -0.42634662612E+01  0.55842416018E+01  0.00000000000E+00 0. -1.
</event>
<event>
 7    1  0.2935819E-010  0.4778727E+02  0.7816164E-02  0.1312668E+00
        -11   -1    0    0    0    0  0.00000000000E+00  0.00000000000E+00  0.45593999997E+02  0.45594000000E+02  0.51100000000E-03 0. -1.
         11   -1    0    0    0    0 -0.00000000000E+00 -0.00000000000E+00 -0.45593999997E+02  0.45594000000E+02  0.51100000000E-03 0.  1.
    9900012    2    1    2    0    0  0.10342476410E+02  0.18700573488E+02  0.37774927124E+02  0.47787269750E+02  0.19999994096E+02 0.  0.
        -12    1    1    2    0    0 -0.10342476410E+02 -0.18700573488E+02 -0.37774927124E+02  0.43400730250E+02  0.00000000000E+00 0.  1.
         11    1    3    3    0    0  0.54691803973E+01  0.11153443222E+02  0.23650137144E+02  0.26714045315E+02  0.51100000000E-03 0. -1.
        -11    1    3    3    0    0 -0.30524132626E+01  0.39176712623E+01  0.62785150803E+00  0.50059537175E+01  0.51100000000E-03 0.  1.
        -12    1    3    3    0    0  0.79257092751E+01  0.36294590036E+01  0.13496938472E+02  0.16067270717E+02  0.00000000000E+00 0.  1.
</event>
<event>
 7    1  0.2935819E-010  0.4778728E+02  0.7816164E-02  0.1312668E+00
        -11   -1    0    0    0    0  0.00000000000E+00  0.00000000000E+00  0.45593999997E+02  0.45594000000E+02  0.51100000000E-03 0. -1.
         11   -1    0    0    0    0 -0.00000000000E+00 -0.00000000000E+00 -0.45593999997E+02  0.45594000000E+02  0.51100000000E-03 0.  1.
    9900012    2    1    2    0    0  0.33731775688E+01  0.37316758903E+02  0.21902145042E+02  0.47787276741E+02  0.20000025974E+02 0.  0.
        -12    1    1    2    0    0 -0.33731775688E+01 -0.37316758903E+02 -0.21902145042E+02  0.43400723259E+02  0.00000000000E+00 0.  1.
         11    1    3    3    0    0  0.55825956265E+00 -0.18087322244E+01 -0.74312661267E-01  0.18943834437E+01  0.51100000000E-03 0. -1.
        -11    1    3    3    0    0 -0.65076159359E-01 -0.43820206511E+00  0.82825329100E+00  0.93928682071E+00  0.51100000000E-03 0.  1.
         12    1    3    3    0    0  0.28799941655E+01  0.39563693192E+02  0.21148204412E+02  0.44953606477E+02  0.00000000000E+00 0. -1.
</event>
<event>
 7    1  0.2935819E-010  0.4778727E+02  0.7816164E-02  0.1312668E+00
        -11   -1    0    0    0    0  0.00000000000E+00  0.00000000000E+00  0.45593999997E+02  0.45594000000E+02  0.51100000000E-03 0.  1.
         11   -1    0    0    0    0 -0.00000000000E+00 -0.00000000000E+00 -0.45593999997E+02  0.45594000000E+02  0.51100000000E-03 0. -1.
    9900012    2    1    2    0    0 -0.10741546791E+02 -0.30392121028E+02 -0.29061338372E+02  0.47787271480E+02  0.20000001988E+02 0.  0.
        -12    1    1    2    0    0  0.10741546791E+02  0.30392121028E+02  0.29061338372E+02  0.43400728520E+02  0.00000000000E+00 0.  1.
         11    1    3    3    0    0 -0.59567213899E+01 -0.10951650998E+02 -0.19285027872E+02  0.22963742935E+02  0.51100000000E-03 0. -1.
        -11    1    3    3    0    0  0.19635837413E+01 -0.19816133001E+01  0.12961029084E+01  0.30760909269E+01  0.51100000000E-03 0.  1.
        -12    1    3    3    0    0 -0.67484091426E+01 -0.17458856730E+02 -0.11072413409E+02  0.21747437619E+02  0.00000000000E+00 0.  1.
</event>
<event>
 7    1  0.2935819E-010  0.4778727E+02  0.7816164E-02  0.1312668E+00
        -11   -1    0    0    0    0  0.00000000000E+00  0.00000000000E+00  0.45593999997E+02  0.45594000000E+02  0.51100000000E-03 0. -1.
         11   -1    0    0    0    0 -0.00000000000E+00 -0.00000000000E+00 -0.45593999997E+02  0.45594000000E+02  0.51100000000E-03 0.  1.
    9900012    2    1    2    0    0  0.36487988725E+02 -0.23489571606E+02 -0.69995469093E+00  0.47787271527E+02  0.20000002199E+02 0.  0.
        -12    1    1    2    0    0 -0.36487988725E+02  0.23489571606E+02  0.69995469093E+00  0.43400728473E+02  0.00000000000E+00 0.  1.
         11    1    3    3    0    0  0.22178034600E+02 -0.10101786393E+02 -0.80708359180E+01  0.25671963301E+02  0.51100000000E-03 0.  1.
        -11    1    3    3    0    0  0.12881665601E+02 -0.12845622307E+02  0.43117973798E+01  0.18695959939E+02  0.51100000000E-03 0. -1.
        -12    1    3    3    0    0  0.14282885242E+01 -0.54216290558E+00  0.30590838473E+01  0.34193482872E+01  0.00000000000E+00 0.  1.
</event>
<event>
 7    1  0.2935819E-010  0.4778727E+02  0.7816164E-02  0.1312668E+00
        -11   -1    0    0    0    0  0.00000000000E+00  0.00000000000E+00  0.45593999997E+02  0.45594000000E+02  0.51100000000E-03 0.  1.
         11   -1    0    0    0    0 -0.00000000000E+00 -0.00000000000E+00 -0.45593999997E+02  0.45594000000E+02  0.51100000000E-03 0. -1.
    9900012    2    1    2    0    0 -0.41806304049E+02 -0.11425629931E+02  0.23046016647E+01  0.47787271131E+02  0.20000000394E+02 0.  0.
        -12    1    1    2    0    0  0.41806304049E+02  0.11425629931E+02 -0.23046016647E+01  0.43400728869E+02  0.00000000000E+00 0.  1.
         11    1    3    3    0    0 -0.22875173641E+02  0.10014895879E+01  0.33424265195E+01  0.23139757255E+02  0.51100000000E-03 0. -1.
        -11    1    3    3    0    0 -0.15332959749E+02 -0.13515632148E+02  0.81661896234E+00  0.20455777517E+02  0.51100000000E-03 0.  1.
        -12    1    3    3    0    0 -0.35981706588E+01  0.10885126296E+01 -0.18544438171E+01  0.41917363593E+01  0.00000000000E+00 0.  1.
</event>
<event>
 7    1  0.2935819E-010  0.4778727E+02  0.7816164E-02  0.1312668E+00
        -11   -1    0    0    0    0  0.00000000000E+00  0.00000000000E+00  0.45593999997E+02  0.45594000000E+02  0.51100000000E-03 0.  1.
         11   -1    0    0    0    0 -0.00000000000E+00 -0.00000000000E+00 -0.45593999997E+02  0.45594000000E+02  0.51100000000E-03 0. -1.
    9900012    2    1    2    0    0 -0.26874504397E+02  0.31921642575E+02  0.11932874953E+02  0.47787265491E+02  0.19999974678E+02 0.  0.
        -12    1    1    2    0    0  0.26874504397E+02 -0.31921642575E+02 -0.11932874953E+02  0.43400734509E+02  0.00000000000E+00 0.  1.
         11    1    3    3    0    0 -0.34669217748E+01  0.59743926640E+01  0.33999946761E+01  0.76988881246E+01  0.51100000000E-03 0. -1.
        -11    1    3    3    0    0 -0.22013518961E+02  0.28592713595E+02  0.86059754307E+01  0.37097184545E+02  0.51100000000E-03 0.  1.
        -12    1    3    3    0    0 -0.13940636612E+01 -0.26454636835E+01 -0.73095154028E-01  0.29911928213E+01  0.00000000000E+00 0.  1.
</event>
<event>
 7    1  0.2935819E-010  0.4778727E+02  0.7816164E-02  0.1312668E+00
        -11   -1    0    0    0    0  0.00000000000E+00  0.00000000000E+00  0.45593999997E+02  0.45594000000E+02  0.51100000000E-03 0. -1.
         11   -1    0    0    0    0 -0.00000000000E+00 -0.00000000000E+00 -0.45593999997E+02  0.45594000000E+02  0.51100000000E-03 0.  1.
    9900012    2    1    2    0    0  0.19222191181E+02  0.18236239874E+02  0.34373975872E+02  0.47787270792E+02  0.19999998847E+02 0.  0.
        -12    1    1    2    0    0 -0.19222191181E+02 -0.18236239874E+02 -0.34373975872E+02  0.43400729208E+02  0.00000000000E+00 0.  1.
         11    1    3    3    0    0  0.17027911458E+01  0.11453996985E+02  0.22991480028E+02  0.25742993197E+02  0.51100000000E-03 0. -1.
        -11    1    3    3    0    0  0.71454678324E+01  0.18502859318E+01  0.48129191964E+01  0.88116661322E+01  0.51100000000E-03 0.  1.
         12    1    3    3    0    0  0.10373932203E+02  0.49319569571E+01  0.65695766484E+01  0.13232611462E+02  0.00000000000E+00 0. -1.
</event>
<event>
 7    1  0.2935819E-010  0.4778727E+02  0.7816164E-02  0.1312668E+00
        -11   -1    0    0    0    0  0.00000000000E+00  0.00000000000E+00  0.45593999997E+02  0.45594000000E+02  0.51100000000E-03 0.  1.
         11   -1    0    0    0    0 -0.00000000000E+00 -0.00000000000E+00 -0.45593999997E+02  0.45594000000E+02  0.51100000000E-03 0. -1.
    9900012    2    1    2    0    0  0.27858799137E+02  0.33148088955E+02  0.29520877677E+01  0.47787270595E+02  0.19999997949E+02 0.  0.
        -12    1    1    2    0    0 -0.27858799137E+02 -0.33148088955E+02 -0.29520877677E+01  0.43400729405E+02  0.00000000000E+00 0.  1.
         11    1    3    3    0    0  0.15571703247E+02  0.22041797205E+02 -0.22041933706E+01  0.27077245700E+02  0.51100000000E-03 0. -1.
        -11    1    3    3    0    0  0.13699378494E+01  0.20266402415E+01  0.60061112231E+01  0.64851655851E+01  0.51100000000E-03 0.  1.
        -12    1    3    3    0    0  0.10917158040E+02  0.90796515088E+01 -0.84983008492E+00  0.14224859309E+02  0.00000000000E+00 0.  1.
</event>
<event>
 7    1  0.2935819E-010  0.4778727E+02  0.7816164E-02  0.1312668E+00
        -11   -1    0    0    0    0  0.00000000000E+00  0.00000000000E+00  0.45593999997E+02  0.45594000000E+02  0.51100000000E-03 0. -1.
         11   -1    0    0    0    0 -0.00000000000E+00 -0.00000000000E+00 -0.45593999997E+02  0.45594000000E+02  0.51100000000E-03 0.  1.
    9900012    2    1    2    0    0 -0.26637617756E+02 -0.14105422756E+02 -0.31226552380E+02  0.47787271845E+02  0.20000003650E+02 0.  0.
        -12    1    1    2    0    0  0.26637617756E+02  0.14105422756E+02  0.31226552380E+02  0.43400728155E+02  0.00000000000E+00 0.  1.
         11    1    3    3    0    0 -0.80433291513E+00  0.39024260731E+01 -0.38695459793E+01  0.55542116490E+01  0.51100000000E-03 0.  1.
        -11    1    3    3    0    0 -0.15367642172E+02 -0.13667205404E+02 -0.20228558927E+02  0.28847036694E+02  0.51100000000E-03 0. -1.
        -12    1    3    3    0    0 -0.10465642669E+02 -0.43406434242E+01 -0.71284474743E+01  0.13386023502E+02  0.00000000000E+00 0.  1.
</event>
<event>
 7    1  0.2935819E-010  0.4778725E+02  0.7816164E-02  0.1312668E+00
        -11   -1    0    0    0    0  0.00000000000E+00  0.00000000000E+00  0.45593999997E+02  0.45594000000E+02  0.51100000000E-03 0.  1.
         11   -1    0    0    0    0 -0.00000000000E+00 -0.00000000000E+00 -0.45593999997E+02  0.45594000000E+02  0.51100000000E-03 0. -1.
    9900012    2    1    2    0    0  0.34912335372E+02 -0.92967603628E+01 -0.24048371736E+02  0.47787250035E+02  0.19999904210E+02 0.  0.
        -12    1    1    2    0    0 -0.34912335372E+02  0.92967603628E+01  0.24048371736E+02  0.43400749965E+02  0.00000000000E+00 0.  1.
         11    1    3    3    0    0  0.24101061758E+02 -0.13932411203E+02 -0.12990320986E+02  0.30720053700E+02  0.51100000000E-03 0. -1.
        -11    1    3    3    0    0  0.11171530324E+02  0.42259659318E+01 -0.90475518378E+01  0.14983993872E+02  0.51100000000E-03 0.  1.
         12    1    3    3    0    0 -0.36025671065E+00  0.40968490797E+00 -0.20104989127E+01  0.20832024624E+01  0.00000000000E+00 0. -1.
</event>
<event>
 7    1  0.2935819E-010  0.4778728E+02  0.7816164E-02  0.1312668E+00
        -11   -1    0    0    0    0  0.00000000000E+00  0.00000000000E+00  0.45593999997E+02  0.45594000000E+02  0.51100000000E-03 0. -1.
         11   -1    0    0    0    0 -0.00000000000E+00 -0.00000000000E+00 -0.45593999997E+02  0.45594000000E+02  0.51100000000E-03 0.  1.
    9900012    2    1    2    0    0 -0.39645545569E+02 -0.11876105867E+02  0.13069484188E+02  0.47787278912E+02  0.20000035870E+02 0.  0.
        -12    1    1    2    0    0  0.39645545569E+02  0.11876105867E+02 -0.13069484188E+02  0.43400721088E+02  0.00000000000E+00 0.  1.
         11    1    3    3    0    0 -0.31105868397E+02 -0.78210865527E+01  0.68307206560E+01  0.32793340612E+02  0.51100000000E-03 0. -1.
        -11    1    3    3    0    0 -0.36557092252E+01 -0.69421288704E+01  0.26528509040E+01  0.82822087255E+01  0.51100000000E-03 0.  1.
        -12    1    3    3    0    0 -0.48839679471E+01  0.28871095558E+01  0.35859126282E+01  0.67117295739E+01  0.00000000000E+00 0.  1.
</event>
<event>
 7    1  0.2935819E-010  0.4778728E+02  0.7816164E-02  0.1312668E+00
        -11   -1    0    0    0    0  0.00000000000E+00  0.00000000000E+00  0.45593999997E+02  0.45594000000E+02  0.51100000000E-03 0.  1.
         11   -1    0    0    0    0 -0.00000000000E+00 -0.00000000000E+00 -0.45593999997E+02  0.45594000000E+02  0.51100000000E-03 0. -1.
    9900012    2    1    2    0    0 -0.12335719730E+02  0.31105038890E+02 -0.27639274037E+02  0.47787275410E+02  0.20000019904E+02 0.  0.
        -12    1    1    2    0    0  0.12335719730E+02 -0.31105038890E+02  0.27639274037E+02  0.43400724590E+02  0.00000000000E+00 0.  1.
         11    1    3    3    0    0  0.31219287389E+01  0.19898231304E+01 -0.40856745065E+01  0.55134899633E+01  0.51100000000E-03 0. -1.
        -11    1    3    3    0    0 -0.14347699165E+02  0.28052397409E+02 -0.24955119219E+02  0.40193923014E+02  0.51100000000E-03 0.  1.
        -12    1    3    3    0    0 -0.11099493037E+01  0.10628183511E+01  0.14015196883E+01  0.20798624332E+01  0.00000000000E+00 0.  1.
</event>
<event>
 7    1  0.2935819E-010  0.4778727E+02  0.7816164E-02  0.1312668E+00
        -11   -1    0    0    0    0  0.00000000000E+00  0.00000000000E+00  0.45593999997E+02  0.45594000000E+02  0.51100000000E-03 0. -1.
         11   -1    0    0    0    0 -0.00000000000E+00 -0.00000000000E+00 -0.45593999997E+02  0.45594000000E+02  0.51100000000E-03 0.  1.
    9900012    2    1    2    0    0 -0.28092968051E+01 -0.78837985456E+01  0.42586110839E+02  0.47787271153E+02  0.20000000496E+02 0.  0.
        -12    1    1    2    0    0  0.28092968051E+01  0.78837985456E+01 -0.42586110839E+02  0.43400728847E+02  0.00000000000E+00 0.  1.
         11    1    3    3    0    0 -0.10347061312E+01  0.42502361371E+01  0.51495532661E+01  0.67567020876E+01  0.51100000000E-03 0. -1.
        -11    1    3    3    0    0  0.20794446491E+01  0.15158475291E+01  0.48302523021E+01  0.54729536215E+01  0.51100000000E-03 0.  1.
         12    1    3    3    0    0 -0.38540353230E+01 -0.13649882212E+02  0.32606305271E+02  0.35557615444E+02  0.00000000000E+00 0. -1.
</event>
<event>
 7    1  0.2935819E-010  0.4778727E+02  0.7816164E-02  0.1312668E+00
        -11   -1    0    0    0    0  0.00000000000E+00  0.00000000000E+00  0.45593999997E+02  0.45594000000E+02  0.51100000000E-03 0.  1.
         11   -1    0    0    0    0 -0.00000000000E+00 -0.00000000000E+00 -0.45593999997E+02  0.45594000000E+02  0.51100000000E-03 0. -1.
    9900012    2    1    2    0    0  0.24187771803E+02  0.24450589762E+02  0.26471563807E+02  0.47787270341E+02  0.19999996794E+02 0.  0.
        -12    1    1    2    0    0 -0.24187771803E+02 -0.24450589762E+02 -0.26471563807E+02  0.43400729659E+02  0.00000000000E+00 0.  1.
         11    1    3    3    0    0  0.17313079415E+02  0.70541402217E+01  0.10787643665E+02  0.21584180995E+02  0.51100000000E-03 0. -1.
        -11    1    3    3    0    0  0.63823247621E+01  0.13875025786E+02  0.16573998812E+02  0.22537698348E+02  0.51100000000E-03 0.  1.
         12    1    3    3    0    0  0.49236762583E+00  0.35214237547E+01 -0.89007867004E+00  0.36653909993E+01  0.00000000000E+00 0. -1.
</event>
<event>
 7    1  0.2935819E-010  0.4778727E+02  0.7816164E-02  0.1312668E+00
        -11   -1    0    0    0    0  0.00000000000E+00  0.00000000000E+00  0.45593999997E+02  0.45594000000E+02  0.51100000000E-03 0. -1.
         11   -1    0    0    0    0 -0.00000000000E+00 -0.00000000000E+00 -0.45593999997E+02  0.45594000000E+02  0.51100000000E-03 0.  1.
    9900012    2    1    2    0    0  0.31855847999E+02  0.26878132337E+02  0.12099347725E+02  0.47787271147E+02  0.20000000466E+02 0.  0.
        -12    1    1    2    0    0 -0.31855847999E+02 -0.26878132337E+02 -0.12099347725E+02  0.43400728853E+02  0.00000000000E+00 0.  1.
         11    1    3    3    0    0  0.19696161402E+02  0.23414189280E+02  0.48435222459E+01  0.30977778191E+02  0.51100000000E-03 0. -1.
        -11    1    3    3    0    0  0.30493114769E+00  0.25707952827E+01  0.34772085434E+01  0.43350837254E+01  0.51100000000E-03 0.  1.
         12    1    3    3    0    0  0.11854755449E+02  0.89314777365E+00  0.37786169361E+01  0.12474409230E+02  0.00000000000E+00 0. -1.
</event>
<event>
 7    1  0.2935819E-010  0.4778726E+02  0.7816164E-02  0.1312668E+00
        -11   -1    0    0    0    0  0.00000000000E+00  0.00000000000E+00  0.45593999997E+02  0.45594000000E+02  0.51100000000E-03 0. -1.
         11   -1    0    0    0    0 -0.00000000000E+00 -0.00000000000E+00 -0.45593999997E+02  0.45594000000E+02  0.51100000000E-03 0.  1.
    9900012    2    1    2    0    0  0.15445055953E+02  0.38887630141E+02 -0.11525034133E+02  0.47787263334E+02  0.19999964844E+02 0.  0.
        -12    1    1    2    0    0 -0.15445055953E+02 -0.38887630141E+02  0.11525034133E+02  0.43400736666E+02  0.00000000000E+00 0.  1.
         11    1    3    3    0    0  0.10113594989E+01  0.86466699517E+01 -0.64287903988E+01  0.10822065216E+02  0.51100000000E-03 0. -1.
        -11    1    3    3    0    0  0.15134191100E+02  0.30317085342E+02 -0.21686190596E+01  0.33953973446E+02  0.51100000000E-03 0.  1.
        -12    1    3    3    0    0 -0.70049464550E+00 -0.76125152193E-01 -0.29276246749E+01  0.30112246718E+01  0.00000000000E+00 0.  1.
</event>
<event>
 7    1  0.2935819E-010  0.4778727E+02  0.7816164E-02  0.1312668E+00
        -11   -1    0    0    0    0  0.00000000000E+00  0.00000000000E+00  0.45593999997E+02  0.45594000000E+02  0.51100000000E-03 0.  1.
         11   -1    0    0    0    0 -0.00000000000E+00 -0.00000000000E+00 -0.45593999997E+02  0.45594000000E+02  0.51100000000E-03 0. -1.
    9900012    2    1    2    0    0  0.23052655976E+02 -0.35077510571E+01 -0.36604569376E+02  0.47787265396E+02  0.19999974245E+02 0.  0.
        -12    1    1    2    0    0 -0.23052655976E+02  0.35077510571E+01  0.36604569376E+02  0.43400734604E+02  0.00000000000E+00 0.  1.
         11    1    3    3    0    0  0.50476217571E+01  0.28391697956E+01 -0.21730235058E+02  0.22488719094E+02  0.51100000000E-03 0. -1.
        -11    1    3    3    0    0 -0.47237593359E+00 -0.86631685314E+00 -0.57778462878E-01  0.98842426344E+00  0.51100000000E-03 0.  1.
         12    1    3    3    0    0  0.18477410152E+02 -0.54806039995E+01 -0.14816555855E+02  0.24310122039E+02  0.00000000000E+00 0. -1.
</event>
<event>
 7    1  0.2935819E-010  0.4778727E+02  0.7816164E-02  0.1312668E+00
        -11   -1    0    0    0    0  0.00000000000E+00  0.00000000000E+00  0.45593999997E+02  0.45594000000E+02  0.51100000000E-03 0.  1.
         11   -1    0    0    0    0 -0.00000000000E+00 -0.00000000000E+00 -0.45593999997E+02  0.45594000000E+02  0.51100000000E-03 0. -1.
    9900012    2    1    2    0    0  0.36751978678E+02 -0.22878533896E+02 -0.30802713231E+01  0.47787270497E+02  0.19999997503E+02 0.  0.
        -12    1    1    2    0    0 -0.36751978678E+02  0.22878533896E+02  0.30802713231E+01  0.43400729503E+02  0.00000000000E+00 0.  1.
         11    1    3    3    0    0  0.16778075946E+02 -0.45136863267E+01 -0.55388870143E+01  0.18236130794E+02  0.51100000000E-03 0. -1.
        -11    1    3    3    0    0  0.19700910975E+02 -0.19822637229E+02  0.21064504781E+01  0.28026772447E+02  0.51100000000E-03 0.  1.
        -12    1    3    3    0    0  0.27299175740E+00  0.14577896598E+01  0.35216521312E+00  0.15243672553E+01  0.00000000000E+00 0.  1.
</event>
<event>
 7    1  0.2935819E-010  0.4778727E+02  0.7816164E-02  0.1312668E+00
        -11   -1    0    0    0    0  0.00000000000E+00  0.00000000000E+00  0.45593999997E+02  0.45594000000E+02  0.51100000000E-03 0.  1.
         11   -1    0    0    0    0 -0.00000000000E+00 -0.00000000000E+00 -0.45593999997E+02  0.45594000000E+02  0.51100000000E-03 0. -1.
    9900012    2    1    2    0    0  0.12833030291E+02 -0.24308204070E+02 -0.33586426065E+02  0.47787268815E+02  0.19999989837E+02 0.  0.
        -12    1    1    2    0    0 -0.12833030291E+02  0.24308204070E+02  0.33586426065E+02  0.43400731185E+02  0.00000000000E+00 0.  1.
         11    1    3    3    0    0  0.61699256268E+01 -0.19247634541E+02 -0.27882258345E+02  0.34437766309E+02  0.51100000000E-03 0. -1.
        -11    1    3    3    0    0  0.14514118503E+01  0.16054423390E+01  0.11585142265E+01  0.24548313459E+01  0.51100000000E-03 0.  1.
        -12    1    3    3    0    0  0.52116928135E+01 -0.66660118673E+01 -0.68626819465E+01  0.10894671161E+02  0.00000000000E+00 0.  1.
</event>
<event>
 7    1  0.2935819E-010  0.4778727E+02  0.7816164E-02  0.1312668E+00
        -11   -1    0    0    0    0  0.00000000000E+00  0.00000000000E+00  0.45593999997E+02  0.45594000000E+02  0.51100000000E-03 0. -1.
         11   -1    0    0    0    0 -0.00000000000E+00 -0.00000000000E+00 -0.45593999997E+02  0.45594000000E+02  0.51100000000E-03 0.  1.
    9900012    2    1    2    0    0  0.37072601980E+01  0.42438433696E+02 -0.82981223640E+01  0.47787271118E+02  0.20000000335E+02 0.  0.
        -12    1    1    2    0    0 -0.37072601980E+01 -0.42438433696E+02  0.82981223640E+01  0.43400728882E+02  0.00000000000E+00 0.  1.
         11    1    3    3    0    0 -0.10633159525E+01  0.93499333349E+01  0.93143548917E-01  0.94106625783E+01  0.51100000000E-03 0. -1.
        -11    1    3    3    0    0 -0.60589877938E+01  0.78443790841E+01 -0.12179506654E+01  0.99864418281E+01  0.51100000000E-03 0.  1.
        -12    1    3    3    0    0  0.10829563944E+02  0.25244121277E+02 -0.71733152476E+01  0.28390166711E+02  0.00000000000E+00 0.  1.
</event>
<event>
 7    1  0.2935819E-010  0.4778728E+02  0.7816164E-02  0.1312668E+00
        -11   -1    0    0    0    0  0.00000000000E+00  0.00000000000E+00  0.45593999997E+02  0.45594000000E+02  0.51100000000E-03 0.  1.
         11   -1    0    0    0    0 -0.00000000000E+00 -0.00000000000E+00 -0.45593999997E+02  0.45594000000E+02  0.51100000000E-03 0. -1.
    9900012    2    1    2    0    0 -0.38074274868E+01 -0.10435003694E+02 -0.41955175401E+02  0.47787279394E+02  0.20000038071E+02 0.  0.
        -12    1    1    2    0    0  0.38074274868E+01  0.10435003694E+02  0.41955175401E+02  0.43400720606E+02  0.00000000000E+00 0.  1.
         11    1    3    3    0    0  0.14345412573E+01 -0.17435391756E+01 -0.49111063906E+01  0.54052570444E+01  0.51100000000E-03 0. -1.
        -11    1    3    3    0    0  0.50206509958E+01 -0.65912782068E+01 -0.25410517566E+02  0.26727257399E+02  0.51100000000E-03 0.  1.
        -12    1    3    3    0    0 -0.10262619740E+02 -0.21001863116E+01 -0.11633551444E+02  0.15654764951E+02  0.00000000000E+00 0.  1.
</event>
<event>
 7    1  0.2935819E-010  0.4778728E+02  0.7816164E-02  0.1312668E+00
        -11   -1    0    0    0    0  0.00000000000E+00  0.00000000000E+00  0.45593999997E+02  0.45594000000E+02  0.51100000000E-03 0. -1.
         11   -1    0    0    0    0 -0.00000000000E+00 -0.00000000000E+00 -0.45593999997E+02  0.45594000000E+02  0.51100000000E-03 0.  1.
    9900012    2    1    2    0    0 -0.25940241727E+02 -0.23238195010E+02  0.25898124088E+02  0.47787277892E+02  0.20000031223E+02 0.  0.
        -12    1    1    2    0    0  0.25940241727E+02  0.23238195010E+02 -0.25898124088E+02  0.43400722108E+02  0.00000000000E+00 0.  1.
         11    1    3    3    0    0 -0.95234768583E+01 -0.13560934625E+02  0.27370383165E+01  0.16795443977E+02  0.51100000000E-03 0. -1.
        -11    1    3    3    0    0 -0.73975144045E+01 -0.38944282420E+01  0.45520929079E+01  0.95189989390E+01  0.51100000000E-03 0.  1.
         12    1    3    3    0    0 -0.90192504641E+01 -0.57828321432E+01  0.18608992864E+02  0.21472834977E+02  0.00000000000E+00 0. -1.
</event>
<event>
 7    1  0.2935819E-010  0.4778727E+02  0.7816164E-02  0.1312668E+00
        -11   -1    0    0    0    0  0.00000000000E+00  0.00000000000E+00  0.45593999997E+02  0.45594000000E+02  0.51100000000E-03 0.  1.
         11   -1    0    0    0    0 -0.00000000000E+00 -0.00000000000E+00 -0.45593999997E+02  0.45594000000E+02  0.51100000000E-03 0. -1.
    9900012    2    1    2    0    0 -0.38059739689E+02 -0.78370221291E+00 -0.20843832963E+02  0.47787270202E+02  0.19999996160E+02 0.  0.
        -12    1    1    2    0    0  0.38059739689E+02  0.78370221291E+00  0.20843832963E+02  0.43400729798E+02  0.00000000000E+00 0.  1.
         11    1    3    3    0    0 -0.26919213799E+02 -0.43379129714E+01 -0.13402141146E+02  0.30382214338E+02  0.51100000000E-03 0. -1.
        -11    1    3    3    0    0  0.10603584271E+00  0.12111992712E+01  0.21296542887E+01  0.24522795365E+01  0.51100000000E-03 0.  1.
         12    1    3    3    0    0 -0.11246561733E+02  0.23430114873E+01 -0.95713461053E+01  0.14952776328E+02  0.00000000000E+00 0. -1.
</event>
<event>
 7    1  0.2935819E-010  0.4778727E+02  0.7816164E-02  0.1312668E+00
        -11   -1    0    0    0    0  0.00000000000E+00  0.00000000000E+00  0.45593999997E+02  0.45594000000E+02  0.51100000000E-03 0.  1.
         11   -1    0    0    0    0 -0.00000000000E+00 -0.00000000000E+00 -0.45593999997E+02  0.45594000000E+02  0.51100000000E-03 0. -1.
    9900012    2    1    2    0    0 -0.34053107793E+02 -0.93948631683E+01 -0.25214002575E+02  0.47787268092E+02  0.19999986538E+02 0.  0.
        -12    1    1    2    0    0  0.34053107793E+02  0.93948631683E+01  0.25214002575E+02  0.43400731908E+02  0.00000000000E+00 0.  1.
         11    1    3    3    0    0 -0.47787392209E+01 -0.43732044593E+00 -0.51037882978E+01  0.70054445229E+01  0.51100000000E-03 0. -1.
        -11    1    3    3    0    0 -0.30188884449E+02 -0.48512659265E+01 -0.20070099714E+02  0.36574751239E+02  0.51100000000E-03 0.  1.
        -12    1    3    3    0    0  0.91451587674E+00 -0.41062767959E+01 -0.40114562844E-01  0.42070723302E+01  0.00000000000E+00 0.  1.
</event>
<event>
 7    1  0.2935819E-010  0.4778729E+02  0.7816164E-02  0.1312668E+00
        -11   -1    0    0    0    0  0.00000000000E+00  0.00000000000E+00  0.45593999997E+02  0.45594000000E+02  0.51100000000E-03 0.  1.
         11   -1    0    0    0    0 -0.00000000000E+00 -0.00000000000E+00 -0.45593999997E+02  0.45594000000E+02  0.51100000000E-03 0. -1.
    9900012    2    1    2    0    0 -0.10255613175E+02  0.33320280252E+02 -0.25849627151E+02  0.47787286855E+02  0.20000072086E+02 0.  0.
        -12    1    1    2    0    0  0.10255613175E+02 -0.33320280252E+02  0.25849627151E+02  0.43400713145E+02  0.00000000000E+00 0.  1.
         11    1    3    3    0    0 -0.38162082246E+01  0.18596304212E+02 -0.24189835000E+02  0.30749538097E+02  0.51100000000E-03 0. -1.
        -11    1    3    3    0    0  0.85221456488E-01  0.72147849205E+00 -0.14118017418E+01  0.15877589019E+01  0.51100000000E-03 0.  1.
         12    1    3    3    0    0 -0.65246264064E+01  0.14002497548E+02 -0.24799040899E+00  0.15449989856E+02  0.00000000000E+00 0. -1.
</event>
<event>
 7    1  0.2935819E-010  0.4778728E+02  0.7816164E-02  0.1312668E+00
        -11   -1    0    0    0    0  0.00000000000E+00  0.00000000000E+00  0.45593999997E+02  0.45594000000E+02  0.51100000000E-03 0.  1.
         11   -1    0    0    0    0 -0.00000000000E+00 -0.00000000000E+00 -0.45593999997E+02  0.45594000000E+02  0.51100000000E-03 0. -1.
    9900012    2    1    2    0    0 -0.17639108391E+02  0.19681625294E+02 -0.34425540577E+02  0.47787281538E+02  0.20000047844E+02 0.  0.
        -12    1    1    2    0    0  0.17639108391E+02 -0.19681625294E+02  0.34425540577E+02  0.43400718462E+02  0.00000000000E+00 0.  1.
         11    1    3    3    0    0 -0.88828429609E+01  0.92717047608E+01 -0.31301140947E+01  0.13216165206E+02  0.51100000000E-03 0. -1.
        -11    1    3    3    0    0 -0.77035983125E+00  0.28479105297E+01 -0.29737163993E+01  0.41889184929E+01  0.51100000000E-03 0.  1.
         12    1    3    3    0    0 -0.79859055985E+01  0.75620100029E+01 -0.28321710083E+02  0.30382197839E+02  0.00000000000E+00 0. -1.
</event>
<event>
 7    1  0.2935819E-010  0.4778727E+02  0.7816164E-02  0.1312668E+00
        -11   -1    0    0    0    0  0.00000000000E+00  0.00000000000E+00  0.45593999997E+02  0.45594000000E+02  0.51100000000E-03 0. -1.
         11   -1    0    0    0    0 -0.00000000000E+00 -0.00000000000E+00 -0.45593999997E+02  0.45594000000E+02  0.51100000000E-03 0.  1.
    9900012    2    1    2    0    0  0.17123933142E+02 -0.15237375503E+02  0.36853989491E+02  0.47787271437E+02  0.20000001788E+02 0.  0.
        -12    1    1    2    0    0 -0.17123933142E+02  0.15237375503E+02 -0.36853989491E+02  0.43400728563E+02  0.00000000000E+00 0.  1.
         11    1    3    3    0    0  0.16934870835E+01  0.83284374887E+00  0.17355640529E+02  0.17457943340E+02  0.51100000000E-03 0. -1.
        -11    1    3    3    0    0  0.10418937708E+02 -0.11612433755E+02  0.94249614421E+01  0.18227253746E+02  0.51100000000E-03 0.  1.
         12    1    3    3    0    0  0.50115083506E+01 -0.44577854971E+01  0.10073387519E+02  0.12102074351E+02  0.00000000000E+00 0. -1.
</event>
<event>
 7    1  0.2935819E-010  0.4778727E+02  0.7816164E-02  0.1312668E+00
        -11   -1    0    0    0    0  0.00000000000E+00  0.00000000000E+00  0.45593999997E+02  0.45594000000E+02  0.51100000000E-03 0.  1.
         11   -1    0    0    0    0 -0.00000000000E+00 -0.00000000000E+00 -0.45593999997E+02  0.45594000000E+02  0.51100000000E-03 0. -1.
    9900012    2    1    2    0    0  0.21545301238E+02  0.34690239975E+02 -0.14697301028E+02  0.47787269448E+02  0.19999992721E+02 0.  0.
        -12    1    1    2    0    0 -0.21545301238E+02 -0.34690239975E+02  0.14697301028E+02  0.43400730552E+02  0.00000000000E+00 0.  1.
         11    1    3    3    0    0  0.15083149564E+02  0.24210039268E+02 -0.13578058255E+02  0.31590996634E+02  0.51100000000E-03 0. -1.
        -11    1    3    3    0    0 -0.22050686416E+01  0.42849268093E+01  0.18091134105E+01  0.51474087722E+01  0.51100000000E-03 0.  1.
         12    1    3    3    0    0  0.86672203157E+01  0.61952738973E+01 -0.29283561840E+01  0.11048864041E+02  0.00000000000E+00 0. -1.
</event>
<event>
 7    1  0.2935819E-010  0.4778727E+02  0.7816164E-02  0.1312668E+00
        -11   -1    0    0    0    0  0.00000000000E+00  0.00000000000E+00  0.45593999997E+02  0.45594000000E+02  0.51100000000E-03 0. -1.
         11   -1    0    0    0    0 -0.00000000000E+00 -0.00000000000E+00 -0.45593999997E+02  0.45594000000E+02  0.51100000000E-03 0.  1.
    9900012    2    1    2    0    0  0.30448308104E+02 -0.20999816591E+02  0.22705322117E+02  0.47787269411E+02  0.19999992552E+02 0.  0.
        -12    1    1    2    0    0 -0.30448308104E+02  0.20999816591E+02 -0.22705322117E+02  0.43400730589E+02  0.00000000000E+00 0.  1.
         11    1    3    3    0    0  0.23372398463E+02 -0.84261794049E+01  0.17004356821E+02  0.30106771007E+02  0.51100000000E-03 0. -1.
        -11    1    3    3    0    0 -0.82861609169E-01 -0.57725985884E+01  0.52380854324E+01  0.77953383357E+01  0.51100000000E-03 0.  1.
         12    1    3    3    0    0  0.71587712500E+01 -0.68010385972E+01  0.46287986307E+00  0.98851600684E+01  0.00000000000E+00 0. -1.
</event>
<event>
 7    1  0.2935819E-010  0.4778727E+02  0.7816164E-02  0.1312668E+00
        -11   -1    0    0    0    0  0.00000000000E+00  0.00000000000E+00  0.45593999997E+02  0.45594000000E+02  0.51100000000E-03 0.  1.
         11   -1    0    0    0    0 -0.00000000000E+00 -0.00000000000E+00 -0.45593999997E+02  0.45594000000E+02  0.51100000000E-03 0. -1.
    9900012    2    1    2    0    0 -0.19468444683E+02  0.20970001099E+02 -0.32632222909E+02  0.47787271245E+02  0.20000000915E+02 0.  0.
        -12    1    1    2    0    0  0.19468444683E+02 -0.20970001099E+02  0.32632222909E+02  0.43400728755E+02  0.00000000000E+00 0.  1.
         11    1    3    3    0    0 -0.53782550931E+01  0.67773744059E+01 -0.45168626149E+01  0.97601475310E+01  0.51100000000E-03 0. -1.
        -11    1    3    3    0    0  0.19826509522E+01  0.54906144869E+01 -0.20396215735E+01  0.61836727490E+01  0.51100000000E-03 0.  1.
        -12    1    3    3    0    0 -0.16072840543E+02  0.87020122061E+01 -0.26075738721E+02  0.31843450965E+02  0.00000000000E+00 0.  1.
</event>
<event>
 7    1  0.2935819E-010  0.4778727E+02  0.7816164E-02  0.1312668E+00
        -11   -1    0    0    0    0  0.00000000000E+00  0.00000000000E+00  0.45593999997E+02  0.45594000000E+02  0.51100000000E-03 0.  1.
         11   -1    0    0    0    0 -0.00000000000E+00 -0.00000000000E+00 -0.45593999997E+02  0.45594000000E+02  0.51100000000E-03 0. -1.
    9900012    2    1    2    0    0 -0.17837896269E+02 -0.33795327925E+02 -0.20574464625E+02  0.47787270427E+02  0.19999997184E+02 0.  0.
        -12    1    1    2    0    0  0.17837896269E+02  0.33795327925E+02  0.20574464625E+02  0.43400729573E+02  0.00000000000E+00 0.  1.
         11    1    3    3    0    0 -0.15728430099E+02 -0.23329221397E+02 -0.94891829724E+01  0.29693108260E+02  0.51100000000E-03 0. -1.
        -11    1    3    3    0    0 -0.18250723690E+01 -0.32578491366E+01  0.11355058680E+01  0.39030557242E+01  0.51100000000E-03 0.  1.
         12    1    3    3    0    0 -0.28439380087E+00 -0.72082573916E+01 -0.12220787520E+02  0.14191106443E+02  0.00000000000E+00 0. -1.
</event>
<event>
 7    1  0.2935819E-010  0.4778728E+02  0.7816164E-02  0.1312668E+00
        -11   -1    0    0    0    0  0.00000000000E+00  0.00000000000E+00  0.45593999997E+02  0.45594000000E+02  0.51100000000E-03 0. -1.
         11   -1    0    0    0    0 -0.00000000000E+00 -0.00000000000E+00 -0.45593999997E+02  0.45594000000E+02  0.51100000000E-03 0.  1.
    9900012    2    1    2    0    0 -0.25351377817E+02  0.29696268188E+02 -0.18948936776E+02  0.47787275277E+02  0.20000019300E+02 0.  0.
        -12    1    1    2    0    0  0.25351377817E+02 -0.29696268188E+02  0.18948936776E+02  0.43400724723E+02  0.00000000000E+00 0.  1.
         11    1    3    3    0    0 -0.92785686443E+01  0.18303591794E+02 -0.10799383805E+02  0.23189221623E+02  0.51100000000E-03 0. -1.
        -11    1    3    3    0    0 -0.50143178369E+01 -0.55254019263E+00  0.19869199024E+01  0.54218571536E+01  0.51100000000E-03 0.  1.
        -12    1    3    3    0    0 -0.11058491336E+02  0.11945216586E+02 -0.10136472874E+02  0.19176196501E+02  0.00000000000E+00 0.  1.
</event>
<event>
 7    1  0.2935819E-010  0.4778727E+02  0.7816164E-02  0.1312668E+00
        -11   -1    0    0    0    0  0.00000000000E+00  0.00000000000E+00  0.45593999997E+02  0.45594000000E+02  0.51100000000E-03 0.  1.
         11   -1    0    0    0    0 -0.00000000000E+00 -0.00000000000E+00 -0.45593999997E+02  0.45594000000E+02  0.51100000000E-03 0. -1.
    9900012    2    1    2    0    0 -0.18870265253E+01 -0.30905870317E+02 -0.30412004628E+02  0.47787265966E+02  0.19999976847E+02 0.  0.
        -12    1    1    2    0    0  0.18870265253E+01  0.30905870317E+02  0.30412004628E+02  0.43400734034E+02  0.00000000000E+00 0.  1.
         11    1    3    3    0    0  0.54698722194E+01 -0.97228212334E+01 -0.79245518715E+01  0.13683978861E+02  0.51100000000E-03 0. -1.
        -11    1    3    3    0    0 -0.88145746210E+01 -0.16992741001E+02 -0.11690367599E+02  0.22430217728E+02  0.51100000000E-03 0.  1.
        -12    1    3    3    0    0  0.14576758764E+01 -0.41903080829E+01 -0.10797085158E+02  0.11673069378E+02  0.00000000000E+00 0.  1.
</event>
<event>
 7    1  0.2935819E-010  0.4778729E+02  0.7816164E-02  0.1312668E+00
        -11   -1    0    0    0    0  0.00000000000E+00  0.00000000000E+00  0.45593999997E+02  0.45594000000E+02  0.51100000000E-03 0.  1.
         11   -1    0    0    0    0 -0.00000000000E+00 -0.00000000000E+00 -0.45593999997E+02  0.45594000000E+02  0.51100000000E-03 0. -1.
    9900012    2    1    2    0    0 -0.25171011858E+02  0.61620657868E+01 -0.34814806487E+02  0.47787289827E+02  0.20000085638E+02 0.  0.
        -12    1    1    2    0    0  0.25171011858E+02 -0.61620657868E+01  0.34814806487E+02  0.43400710173E+02  0.00000000000E+00 0.  1.
         11    1    3    3    0    0 -0.65338466129E+01 -0.58735191737E+01 -0.15527180738E+02  0.17840479842E+02  0.51100000000E-03 0. -1.
        -11    1    3    3    0    0 -0.72011224005E+00  0.25100579688E+01 -0.24092192455E+01  0.35529270016E+01  0.51100000000E-03 0.  1.
         12    1    3    3    0    0 -0.17917053005E+02  0.95255269917E+01 -0.16878406504E+02  0.26393882984E+02  0.00000000000E+00 0. -1.
</event>
<event>
 7    1  0.2935819E-010  0.4778727E+02  0.7816164E-02  0.1312668E+00
        -11   -1    0    0    0    0  0.00000000000E+00  0.00000000000E+00  0.45593999997E+02  0.45594000000E+02  0.51100000000E-03 0.  1.
         11   -1    0    0    0    0 -0.00000000000E+00 -0.00000000000E+00 -0.45593999997E+02  0.45594000000E+02  0.51100000000E-03 0. -1.
    9900012    2    1    2    0    0 -0.16812837439E+02 -0.33373885087E+02 -0.22071157485E+02  0.47787266121E+02  0.19999977550E+02 0.  0.
        -12    1    1    2    0    0  0.16812837439E+02  0.33373885087E+02  0.22071157485E+02  0.43400733879E+02  0.00000000000E+00 0.  1.
         11    1    3    3    0    0  0.26182545081E+01 -0.11194488225E+02 -0.11557306418E+02  0.16301630446E+02  0.51100000000E-03 0. -1.
        -11    1    3    3    0    0 -0.10269474800E+02 -0.14200016889E+02 -0.59335423379E+01  0.18501608504E+02  0.51100000000E-03 0.  1.
         12    1    3    3    0    0 -0.91616171471E+01 -0.79793799731E+01 -0.45803087291E+01  0.12984027170E+02  0.00000000000E+00 0. -1.
</event>
<event>
 7    1  0.2935819E-010  0.4778727E+02  0.7816164E-02  0.1312668E+00
        -11   -1    0    0    0    0  0.00000000000E+00  0.00000000000E+00  0.45593999997E+02  0.45594000000E+02  0.51100000000E-03 0.  1.
         11   -1    0    0    0    0 -0.00000000000E+00 -0.00000000000E+00 -0.45593999997E+02  0.45594000000E+02  0.51100000000E-03 0. -1.
    9900012    2    1    2    0    0 -0.47327940693E+01  0.42683401573E+02  0.62730424507E+01  0.47787272228E+02  0.20000005397E+02 0.  0.
        -12    1    1    2    0    0  0.47327940693E+01 -0.42683401573E+02 -0.62730424507E+01  0.43400727772E+02  0.00000000000E+00 0.  1.
         11    1    3    3    0    0  0.14589799063E+01  0.45037855955E+01 -0.12400938231E+01  0.48939288929E+01  0.51100000000E-03 0. -1.
        -11    1    3    3    0    0  0.51211782951E+01  0.10938739518E+02  0.56600400197E+01  0.13338610971E+02  0.51100000000E-03 0.  1.
        -12    1    3    3    0    0 -0.11312952271E+02  0.27240876460E+02  0.18530962541E+01  0.29554732364E+02  0.00000000000E+00 0.  1.
</event>
<event>
 7    1  0.2935819E-010  0.4778728E+02  0.7816164E-02  0.1312668E+00
        -11   -1    0    0    0    0  0.00000000000E+00  0.00000000000E+00  0.45593999997E+02  0.45594000000E+02  0.51100000000E-03 0.  1.
         11   -1    0    0    0    0 -0.00000000000E+00 -0.00000000000E+00 -0.45593999997E+02  0.45594000000E+02  0.51100000000E-03 0. -1.
    9900012    2    1    2    0    0  0.78100999606E+01  0.28783551573E+02 -0.31529862785E+02  0.47787277082E+02  0.20000027529E+02 0.  0.
        -12    1    1    2    0    0 -0.78100999606E+01 -0.28783551573E+02  0.31529862785E+02  0.43400722918E+02  0.00000000000E+00 0.  1.
         11    1    3    3    0    0  0.68145706023E+00  0.12396254438E+02 -0.25452647958E+02  0.28319053589E+02  0.51100000000E-03 0. -1.
        -11    1    3    3    0    0  0.29314588611E+01  0.81924009219E+01 -0.52591892107E+00  0.87169647752E+01  0.51100000000E-03 0.  1.
         12    1    3    3    0    0  0.41971840393E+01  0.81948962125E+01 -0.55512959058E+01  0.10751258718E+02  0.00000000000E+00 0. -1.
</event>
<event>
 7    1  0.2935819E-010  0.4778727E+02  0.7816164E-02  0.1312668E+00
        -11   -1    0    0    0    0  0.00000000000E+00  0.00000000000E+00  0.45593999997E+02  0.45594000000E+02  0.51100000000E-03 0.  1.
         11   -1    0    0    0    0 -0.00000000000E+00 -0.00000000000E+00 -0.45593999997E+02  0.45594000000E+02  0.51100000000E-03 0. -1.
    9900012    2    1    2    0    0  0.16633317945E+02  0.20896110054E+01 -0.40032354927E+02  0.47787272114E+02  0.20000004878E+02 0.  0.
        -12    1    1    2    0    0 -0.16633317945E+02 -0.20896110054E+01  0.40032354927E+02  0.43400727886E+02  0.00000000000E+00 0.  1.
         11    1    3    3    0    0  0.27757423429E+01  0.15097769323E+01 -0.14954324520E+02  0.15284501760E+02  0.51100000000E-03 0. -1.
        -11    1    3    3    0    0  0.10356649845E+02  0.40839853542E+01 -0.25198248415E+02  0.27547973716E+02  0.51100000000E-03 0.  1.
        -12    1    3    3    0    0  0.35009257566E+01 -0.35041512810E+01  0.12021800891E+00  0.49547966380E+01  0.00000000000E+00 0.  1.
</event>
<event>
 7    1  0.2935819E-010  0.4778727E+02  0.7816164E-02  0.1312668E+00
        -11   -1    0    0    0    0  0.00000000000E+00  0.00000000000E+00  0.45593999997E+02  0.45594000000E+02  0.51100000000E-03 0. -1.
         11   -1    0    0    0    0 -0.00000000000E+00 -0.00000000000E+00 -0.45593999997E+02  0.45594000000E+02  0.51100000000E-03 0.  1.
    9900012    2    1    2    0    0 -0.14359006604E+00 -0.47155476657E+01  0.43143552292E+02  0.47787272906E+02  0.20000008489E+02 0.  0.
        -12    1    1    2    0    0  0.14359006604E+00  0.47155476657E+01 -0.43143552292E+02  0.43400727094E+02  0.00000000000E+00 0.  1.
         11    1    3    3    0    0 -0.67993851741E+00 -0.15035985369E+01 -0.16683634835E+00  0.16586016930E+01  0.51100000000E-03 0. -1.
        -11    1    3    3    0    0  0.49926181621E+01  0.40370213540E+01  0.11198744237E+02  0.12908743171E+02  0.51100000000E-03 0.  1.
        -12    1    3    3    0    0 -0.44562697107E+01 -0.72489704827E+01  0.32111644404E+02  0.33219928042E+02  0.00000000000E+00 0.  1.
</event>
<event>
 7    1  0.2935819E-010  0.4778723E+02  0.7816164E-02  0.1312668E+00
        -11   -1    0    0    0    0  0.00000000000E+00  0.00000000000E+00  0.45593999997E+02  0.45594000000E+02  0.51100000000E-03 0.  1.
         11   -1    0    0    0    0 -0.00000000000E+00 -0.00000000000E+00 -0.45593999997E+02  0.45594000000E+02  0.51100000000E-03 0. -1.
    9900012    2    1    2    0    0 -0.17481697843E+02 -0.44143000265E+01 -0.39478231009E+02  0.47787233557E+02  0.19999829081E+02 0.  0.
        -12    1    1    2    0    0  0.17481697843E+02  0.44143000265E+01  0.39478231009E+02  0.43400766443E+02  0.00000000000E+00 0.  1.
         11    1    3    3    0    0 -0.61215230056E+01  0.58811622021E+01 -0.12638362010E+02  0.15224628314E+02  0.51100000000E-03 0. -1.
        -11    1    3    3    0    0 -0.55055626920E+01 -0.11230264520E+02 -0.18409079544E+02  0.22255881732E+02  0.51100000000E-03 0.  1.
        -12    1    3    3    0    0 -0.58546121458E+01  0.93480229145E+00 -0.84307894549E+01  0.10306723511E+02  0.00000000000E+00 0.  1.
</event>
<event>
 7    1  0.2935819E-010  0.4778727E+02  0.7816164E-02  0.1312668E+00
        -11   -1    0    0    0    0  0.00000000000E+00  0.00000000000E+00  0.45593999997E+02  0.45594000000E+02  0.51100000000E-03 0.  1.
         11   -1    0    0    0    0 -0.00000000000E+00 -0.00000000000E+00 -0.45593999997E+02  0.45594000000E+02  0.51100000000E-03 0. -1.
    9900012    2    1    2    0    0 -0.46850585623E+00  0.32939804742E+02 -0.28255495967E+02  0.47787270899E+02  0.19999999337E+02 0.  0.
        -12    1    1    2    0    0  0.46850585623E+00 -0.32939804742E+02  0.28255495967E+02  0.43400729101E+02  0.00000000000E+00 0.  1.
         11    1    3    3    0    0  0.22025475076E+01  0.25169987432E+02 -0.26666544102E+02  0.36735324382E+02  0.51100000000E-03 0. -1.
        -11    1    3    3    0    0 -0.27868624540E+01  0.85808662440E+01  0.26401729316E+00  0.90259389111E+01  0.51100000000E-03 0.  1.
        -12    1    3    3    0    0  0.11580909018E+00 -0.81104893428E+00 -0.18529691577E+01  0.20260076058E+01  0.00000000000E+00 0.  1.
</event>
<event>
 7    1  0.2935819E-010  0.4778727E+02  0.7816164E-02  0.1312668E+00
        -11   -1    0    0    0    0  0.00000000000E+00  0.00000000000E+00  0.45593999997E+02  0.45594000000E+02  0.51100000000E-03 0.  1.
         11   -1    0    0    0    0 -0.00000000000E+00 -0.00000000000E+00 -0.45593999997E+02  0.45594000000E+02  0.51100000000E-03 0. -1.
    9900012    2    1    2    0    0  0.31306098452E+02 -0.90109198081E+01 -0.28676731001E+02  0.47787269857E+02  0.19999994584E+02 0.  0.
        -12    1    1    2    0    0 -0.31306098452E+02  0.90109198081E+01  0.28676731001E+02  0.43400730143E+02  0.00000000000E+00 0.  1.
         11    1    3    3    0    0  0.43392115084E+01  0.15508072888E+01 -0.67489088763E+00  0.46571705716E+01  0.51100000000E-03 0. -1.
        -11    1    3    3    0    0  0.34177574312E+01 -0.78231857911E+01 -0.41215745730E+01  0.94800147153E+01  0.51100000000E-03 0.  1.
        -12    1    3    3    0    0  0.23549129513E+02 -0.27385413058E+01 -0.23880265540E+02  0.33650084570E+02  0.00000000000E+00 0.  1.
</event>
<event>
 7    1  0.2935819E-010  0.4778728E+02  0.7816164E-02  0.1312668E+00
        -11   -1    0    0    0    0  0.00000000000E+00  0.00000000000E+00  0.45593999997E+02  0.45594000000E+02  0.51100000000E-03 0. -1.
         11   -1    0    0    0    0 -0.00000000000E+00 -0.00000000000E+00 -0.45593999997E+02  0.45594000000E+02  0.51100000000E-03 0.  1.
    9900012    2    1    2    0    0 -0.54505906950E+01 -0.43044380829E+02  0.10464184151E+01  0.47787278216E+02  0.20000032699E+02 0.  0.
        -12    1    1    2    0    0  0.54505906950E+01  0.43044380829E+02 -0.10464184151E+01  0.43400721784E+02  0.00000000000E+00 0.  1.
         11    1    3    3    0    0  0.29728886473E+01 -0.65858345525E+01  0.64615473136E+01  0.96934450847E+01  0.51100000000E-03 0. -1.
        -11    1    3    3    0    0 -0.52399484048E+01 -0.15307144656E+02 -0.39482121107E+01  0.16653951962E+02  0.51100000000E-03 0.  1.
         12    1    3    3    0    0 -0.31835309375E+01 -0.21151401620E+02 -0.14669167877E+01  0.21439881170E+02  0.00000000000E+00 0. -1.
</event>
<event>
 7    1  0.2935819E-010  0.4778727E+02  0.7816164E-02  0.1312668E+00
        -11   -1    0    0    0    0  0.00000000000E+00  0.00000000000E+00  0.45593999997E+02  0.45594000000E+02  0.51100000000E-03 0. -1.
         11   -1    0    0    0    0 -0.00000000000E+00 -0.00000000000E+00 -0.45593999997E+02  0.45594000000E+02  0.51100000000E-03 0.  1.
    9900012    2    1    2    0    0  0.49064689175E+01 -0.41608773123E+02  0.11325189452E+02  0.47787270120E+02  0.19999995784E+02 0.  0.
        -12    1    1    2    0    0 -0.49064689175E+01  0.41608773123E+02 -0.11325189452E+02  0.43400729880E+02  0.00000000000E+00 0.  1.
         11    1    3    3    0    0  0.18303611974E+01 -0.28446917737E+01  0.64843641916E+01  0.73136497476E+01  0.51100000000E-03 0. -1.
        -11    1    3    3    0    0 -0.27133783014E+01 -0.19095978592E+02 -0.47339472632E+00  0.19293597981E+02  0.51100000000E-03 0.  1.
         12    1    3    3    0    0  0.57894860215E+01 -0.19668102756E+02  0.53142199872E+01  0.21180022391E+02  0.00000000000E+00 0. -1.
</event>
<event>
 7    1  0.2935819E-010  0.4778727E+02  0.7816164E-02  0.1312668E+00
        -11   -1    0    0    0    0  0.00000000000E+00  0.00000000000E+00  0.45593999997E+02  0.45594000000E+02  0.51100000000E-03 0.  1.
         11   -1    0    0    0    0 -0.00000000000E+00 -0.00000000000E+00 -0.45593999997E+02  0.45594000000E+02  0.51100000000E-03 0. -1.
    9900012    2    1    2    0    0 -0.29898583255E+02 -0.17077492236E+02 -0.26420769045E+02  0.47787273524E+02  0.20000011307E+02 0.  0.
        -12    1    1    2    0    0  0.29898583255E+02  0.17077492236E+02  0.26420769045E+02  0.43400726476E+02  0.00000000000E+00 0.  1.
         11    1    3    3    0    0 -0.23510220552E+02 -0.65131468508E+01 -0.20227758054E+02  0.31690909556E+02  0.51100000000E-03 0. -1.
        -11    1    3    3    0    0 -0.69212714192E-01 -0.58848675820E+01 -0.57387830341E+01  0.82201026655E+01  0.51100000000E-03 0.  1.
        -12    1    3    3    0    0 -0.63191499882E+01 -0.46794778028E+01 -0.45422795707E+00  0.78762613032E+01  0.00000000000E+00 0.  1.
</event>
<event>
 7    1  0.2935819E-010  0.4778727E+02  0.7816164E-02  0.1312668E+00
        -11   -1    0    0    0    0  0.00000000000E+00  0.00000000000E+00  0.45593999997E+02  0.45594000000E+02  0.51100000000E-03 0.  1.
         11   -1    0    0    0    0 -0.00000000000E+00 -0.00000000000E+00 -0.45593999997E+02  0.45594000000E+02  0.51100000000E-03 0. -1.
    9900012    2    1    2    0    0 -0.40136077713E+01  0.21760587889E+02 -0.37336186342E+02  0.47787273702E+02  0.20000012116E+02 0.  0.
        -12    1    1    2    0    0  0.40136077713E+01 -0.21760587889E+02  0.37336186342E+02  0.43400726298E+02  0.00000000000E+00 0.  1.
         11    1    3    3    0    0  0.59811382856E+00  0.14869576246E+02 -0.34901702362E+02  0.37941940724E+02  0.51100000000E-03 0. -1.
        -11    1    3    3    0    0 -0.32153275512E+01  0.10912566498E+01  0.17687965511E-01  0.33955096028E+01  0.51100000000E-03 0.  1.
         12    1    3    3    0    0 -0.13963940486E+01  0.57997549932E+01 -0.24521719462E+01  0.64498233754E+01  0.00000000000E+00 0. -1.
</event>
<event>
 7    1  0.2935819E-010  0.4778727E+02  0.7816164E-02  0.1312668E+00
        -11   -1    0    0    0    0  0.00000000000E+00  0.00000000000E+00  0.45593999997E+02  0.45594000000E+02  0.51100000000E-03 0. -1.
         11   -1    0    0    0    0 -0.00000000000E+00 -0.00000000000E+00 -0.45593999997E+02  0.45594000000E+02  0.51100000000E-03 0.  1.
    9900012    2    1    2    0    0  0.21994637257E+02  0.31785096618E+02  0.19737443376E+02  0.47787272977E+02  0.20000008813E+02 0.  0.
        -12    1    1    2    0    0 -0.21994637257E+02 -0.31785096618E+02 -0.19737443376E+02  0.43400727023E+02  0.00000000000E+00 0.  1.
         11    1    3    3    0    0  0.15318068317E+02  0.17999146528E+02  0.13936938166E+02  0.27438125636E+02  0.51100000000E-03 0. -1.
        -11    1    3    3    0    0 -0.67760112462E+00  0.10946658823E+02  0.76360340735E+00  0.10994160863E+02  0.51100000000E-03 0.  1.
         12    1    3    3    0    0  0.73541700648E+01  0.28392912672E+01  0.50369018024E+01  0.93549864783E+01  0.00000000000E+00 0. -1.
</event>
<event>
 7    1  0.2935819E-010  0.4778728E+02  0.7816164E-02  0.1312668E+00
        -11   -1    0    0    0    0  0.00000000000E+00  0.00000000000E+00  0.45593999997E+02  0.45594000000E+02  0.51100000000E-03 0.  1.
         11   -1    0    0    0    0 -0.00000000000E+00 -0.00000000000E+00 -0.45593999997E+02  0.45594000000E+02  0.51100000000E-03 0. -1.
    9900012    2    1    2    0    0  0.24010097354E+02 -0.80744357547E+01 -0.35241192402E+02  0.47787275011E+02  0.20000018083E+02 0.  0.
        -12    1    1    2    0    0 -0.24010097354E+02  0.80744357547E+01  0.35241192402E+02  0.43400724989E+02  0.00000000000E+00 0.  1.
         11    1    3    3    0    0  0.12147818435E+02  0.40699627292E+01 -0.21529022663E+02  0.25052602787E+02  0.51100000000E-03 0. -1.
        -11    1    3    3    0    0  0.87429191308E+01 -0.11218064950E+02 -0.84376168510E+01  0.16537139854E+02  0.51100000000E-03 0.  1.
        -12    1    3    3    0    0  0.31193597882E+01 -0.92633353384E+00 -0.52745528883E+01  0.61975323699E+01  0.00000000000E+00 0.  1.
</event>
<event>
 7    1  0.2935819E-010  0.4778727E+02  0.7816164E-02  0.1312668E+00
        -11   -1    0    0    0    0  0.00000000000E+00  0.00000000000E+00  0.45593999997E+02  0.45594000000E+02  0.51100000000E-03 0. -1.
         11   -1    0    0    0    0 -0.00000000000E+00 -0.00000000000E+00 -0.45593999997E+02  0.45594000000E+02  0.51100000000E-03 0.  1.
    9900012    2    1    2    0    0  0.42483491685E+02  0.53403121256E-01  0.88754443720E+01  0.47787269241E+02  0.19999991777E+02 0.  0.
        -12    1    1    2    0    0 -0.42483491685E+02 -0.53403121256E-01 -0.88754443720E+01  0.43400730759E+02  0.00000000000E+00 0.  1.
         11    1    3    3    0    0  0.27142277973E+01 -0.46806893084E+01  0.35957381935E+01  0.64965543448E+01  0.51100000000E-03 0. -1.
        -11    1    3    3    0    0  0.12862357156E+00  0.63384285719E+00 -0.74409974028E+00  0.98589323731E+00  0.51100000000E-03 0.  1.
         12    1    3    3    0    0  0.39640640316E+02  0.41002495725E+01  0.60238059188E+01  0.40304821659E+02  0.00000000000E+00 0. -1.
</event>
<event>
 7    1  0.2935819E-010  0.4778727E+02  0.7816164E-02  0.1312668E+00
        -11   -1    0    0    0    0  0.00000000000E+00  0.00000000000E+00  0.45593999997E+02  0.45594000000E+02  0.51100000000E-03 0.  1.
         11   -1    0    0    0    0 -0.00000000000E+00 -0.00000000000E+00 -0.45593999997E+02  0.45594000000E+02  0.51100000000E-03 0. -1.
    9900012    2    1    2    0    0 -0.32088476593E+02 -0.75198973510E+01 -0.28238345392E+02  0.47787270320E+02  0.19999996699E+02 0.  0.
        -12    1    1    2    0    0  0.32088476593E+02  0.75198973510E+01  0.28238345392E+02  0.43400729680E+02  0.00000000000E+00 0.  1.
         11    1    3    3    0    0 -0.22847646785E+02  0.42868064124E+00 -0.20502533832E+02  0.30701019926E+02  0.51100000000E-03 0. -1.
        -11    1    3    3    0    0 -0.34750108162E+01  0.17665994612E+01 -0.25291902938E+01  0.46468675075E+01  0.51100000000E-03 0.  1.
         12    1    3    3    0    0 -0.57658189926E+01 -0.97151774534E+01 -0.52066212663E+01  0.12439382887E+02  0.00000000000E+00 0. -1.
</event>
<event>
 7    1  0.2935819E-010  0.4778727E+02  0.7816164E-02  0.1312668E+00
        -11   -1    0    0    0    0  0.00000000000E+00  0.00000000000E+00  0.45593999997E+02  0.45594000000E+02  0.51100000000E-03 0.  1.
         11   -1    0    0    0    0 -0.00000000000E+00 -0.00000000000E+00 -0.45593999997E+02  0.45594000000E+02  0.51100000000E-03 0. -1.
    9900012    2    1    2    0    0 -0.25980413581E+02 -0.17751637180E+02 -0.29891821167E+02  0.47787268612E+02  0.19999988908E+02 0.  0.
        -12    1    1    2    0    0  0.25980413581E+02  0.17751637180E+02  0.29891821167E+02  0.43400731388E+02  0.00000000000E+00 0.  1.
         11    1    3    3    0    0 -0.53700828148E+01 -0.36665860127E+01 -0.19944467816E+01  0.68014307798E+01  0.51100000000E-03 0. -1.
        -11    1    3    3    0    0 -0.16004537159E+02 -0.84878501065E+01 -0.79897340094E+01  0.19799612595E+02  0.51100000000E-03 0.  1.
        -12    1    3    3    0    0 -0.46057936070E+01 -0.55972010604E+01 -0.19907640376E+02  0.21186225237E+02  0.00000000000E+00 0.  1.
</event>
<event>
 7    1  0.2935819E-010  0.4778727E+02  0.7816164E-02  0.1312668E+00
        -11   -1    0    0    0    0  0.00000000000E+00  0.00000000000E+00  0.45593999997E+02  0.45594000000E+02  0.51100000000E-03 0.  1.
         11   -1    0    0    0    0 -0.00000000000E+00 -0.00000000000E+00 -0.45593999997E+02  0.45594000000E+02  0.51100000000E-03 0. -1.
    9900012    2    1    2    0    0  0.13987766593E+02  0.37755946209E+02  0.16200441421E+02  0.47787269699E+02  0.19999993867E+02 0.  0.
        -12    1    1    2    0    0 -0.13987766593E+02 -0.37755946209E+02 -0.16200441421E+02  0.43400730301E+02  0.00000000000E+00 0.  1.
         11    1    3    3    0    0  0.10226017940E+02  0.16000794384E+02 -0.45714147855E+00  0.18994889903E+02  0.51100000000E-03 0. -1.
        -11    1    3    3    0    0  0.37033791852E+01  0.19271399407E+02  0.17370627201E+02  0.26207642819E+02  0.51100000000E-03 0.  1.
        -12    1    3    3    0    0  0.58369468091E-01  0.24837524176E+01 -0.71304430177E+00  0.25847369776E+01  0.00000000000E+00 0.  1.
</event>
<event>
 7    1  0.2935819E-010  0.4778727E+02  0.7816164E-02  0.1312668E+00
        -11   -1    0    0    0    0  0.00000000000E+00  0.00000000000E+00  0.45593999997E+02  0.45594000000E+02  0.51100000000E-03 0. -1.
         11   -1    0    0    0    0 -0.00000000000E+00 -0.00000000000E+00 -0.45593999997E+02  0.45594000000E+02  0.51100000000E-03 0.  1.
    9900012    2    1    2    0    0  0.86898404923E+01  0.18458421311E+02  0.38306616780E+02  0.47787268045E+02  0.19999986326E+02 0.  0.
        -12    1    1    2    0    0 -0.86898404923E+01 -0.18458421311E+02 -0.38306616780E+02  0.43400731955E+02  0.00000000000E+00 0.  1.
         11    1    3    3    0    0 -0.75452528725E+00 -0.12902700131E+00  0.10283930909E+02  0.10312380500E+02  0.51100000000E-03 0. -1.
        -11    1    3    3    0    0  0.87788264502E+01  0.20731619454E+02  0.24290090058E+02  0.33119123091E+02  0.51100000000E-03 0.  1.
        -12    1    3    3    0    0  0.66553932936E+00 -0.21441711411E+01  0.37325958128E+01  0.43557644545E+01  0.00000000000E+00 0.  1.
</event>
<event>
 7    1  0.2935819E-010  0.4778727E+02  0.7816164E-02  0.1312668E+00
        -11   -1    0    0    0    0  0.00000000000E+00  0.00000000000E+00  0.45593999997E+02  0.45594000000E+02  0.51100000000E-03 0. -1.
         11   -1    0    0    0    0 -0.00000000000E+00 -0.00000000000E+00 -0.45593999997E+02  0.45594000000E+02  0.51100000000E-03 0.  1.
    9900012    2    1    2    0    0  0.15087975263E+02 -0.36110003334E+02  0.18762837055E+02  0.47787269676E+02  0.19999993762E+02 0.  0.
        -12    1    1    2    0    0 -0.15087975263E+02  0.36110003334E+02 -0.18762837055E+02  0.43400730324E+02  0.00000000000E+00 0.  1.
         11    1    3    3    0    0 -0.34358063040E+01 -0.45831211134E+01  0.76601076986E+01  0.95648844381E+01  0.51100000000E-03 0. -1.
        -11    1    3    3    0    0  0.12282000217E+02 -0.20200112851E+02  0.70652380006E+01  0.24674068914E+02  0.51100000000E-03 0.  1.
         12    1    3    3    0    0  0.62417813499E+01 -0.11326769369E+02  0.40374913556E+01  0.13548316324E+02  0.00000000000E+00 0. -1.
</event>
<event>
 7    1  0.3045457E-010  0.4778728E+02  0.7816164E-02  0.1312668E+00
        -11   -1    0    0    0    0  0.00000000000E+00  0.00000000000E+00  0.45593999997E+02  0.45594000000E+02  0.51100000000E-03 0.  1.
         11   -1    0    0    0    0 -0.00000000000E+00 -0.00000000000E+00 -0.45593999997E+02  0.45594000000E+02  0.51100000000E-03 0. -1.
    9900012    2    1    2    0    0  0.14837056416E+02 -0.39324843515E+02 -0.10818545646E+02  0.47787280069E+02  0.20000041148E+02 0.  0.
        -12    1    1    2    0    0 -0.14837056416E+02  0.39324843515E+02  0.10818545646E+02  0.43400719931E+02  0.00000000000E+00 0.  1.
         11    1    3    3    0    0  0.49471064661E+01 -0.21257070458E+02 -0.71529909400E+01  0.22967415756E+02  0.51100000000E-03 0. -1.
        -11    1    3    3    0    0  0.17601161898E+01 -0.79048332481E+01  0.46856720424E+01  0.93562770604E+01  0.51100000000E-03 0.  1.
        -12    1    3    3    0    0  0.81298337604E+01 -0.10162939809E+02 -0.83512267486E+01  0.15463587253E+02  0.00000000000E+00 0.  1.
</event>
<event>
 7    1  0.2935819E-010  0.4778727E+02  0.7816164E-02  0.1312668E+00
        -11   -1    0    0    0    0  0.00000000000E+00  0.00000000000E+00  0.45593999997E+02  0.45594000000E+02  0.51100000000E-03 0.  1.
         11   -1    0    0    0    0 -0.00000000000E+00 -0.00000000000E+00 -0.45593999997E+02  0.45594000000E+02  0.51100000000E-03 0. -1.
    9900012    2    1    2    0    0  0.14331080707E+02  0.40317338025E+02 -0.72633225078E+01  0.47787268744E+02  0.19999989514E+02 0.  0.
        -12    1    1    2    0    0 -0.14331080707E+02 -0.40317338025E+02  0.72633225078E+01  0.43400731256E+02  0.00000000000E+00 0.  1.
         11    1    3    3    0    0  0.13572287769E+02  0.19929770336E+02 -0.80041468981E+01  0.25406084089E+02  0.51100000000E-03 0. -1.
        -11    1    3    3    0    0  0.12471506830E+01  0.80126844143E+01  0.47080078679E+01  0.93767710164E+01  0.51100000000E-03 0.  1.
         12    1    3    3    0    0 -0.48835774410E+00  0.12374883275E+02 -0.39671834776E+01  0.13004413639E+02  0.00000000000E+00 0. -1.
</event>
<event>
 7    1  0.2935819E-010  0.4778727E+02  0.7816164E-02  0.1312668E+00
        -11   -1    0    0    0    0  0.00000000000E+00  0.00000000000E+00  0.45593999997E+02  0.45594000000E+02  0.51100000000E-03 0.  1.
         11   -1    0    0    0    0 -0.00000000000E+00 -0.00000000000E+00 -0.45593999997E+02  0.45594000000E+02  0.51100000000E-03 0. -1.
    9900012    2    1    2    0    0  0.15960063000E+02  0.33336550977E+01 -0.40221718074E+02  0.47787268761E+02  0.19999989589E+02 0.  0.
        -12    1    1    2    0    0 -0.15960063000E+02 -0.33336550977E+01  0.40221718074E+02  0.43400731239E+02  0.00000000000E+00 0.  1.
         11    1    3    3    0    0  0.44472772046E+01 -0.18867665600E+01 -0.62170266092E+00  0.48707983993E+01  0.51100000000E-03 0.  1.
        -11    1    3    3    0    0  0.11198682310E+02  0.79384063002E+01 -0.34464221618E+02  0.37097322707E+02  0.51100000000E-03 0. -1.
         12    1    3    3    0    0  0.31410348532E+00 -0.27179846425E+01 -0.51357937950E+01  0.58191476541E+01  0.00000000000E+00 0. -1.
</event>
<event>
 7    1  0.2935819E-010  0.4778726E+02  0.7816164E-02  0.1312668E+00
        -11   -1    0    0    0    0  0.00000000000E+00  0.00000000000E+00  0.45593999997E+02  0.45594000000E+02  0.51100000000E-03 0.  1.
         11   -1    0    0    0    0 -0.00000000000E+00 -0.00000000000E+00 -0.45593999997E+02  0.45594000000E+02  0.51100000000E-03 0. -1.
    9900012    2    1    2    0    0 -0.22148701123E+02  0.79185614544E+01 -0.36474040434E+02  0.47787260346E+02  0.19999951222E+02 0.  0.
        -12    1    1    2    0    0  0.22148701123E+02 -0.79185614544E+01  0.36474040434E+02  0.43400739654E+02  0.00000000000E+00 0.  1.
         11    1    3    3    0    0 -0.32210674448E+01 -0.54316780946E+01 -0.74200315348E+01  0.97434732332E+01  0.51100000000E-03 0. -1.
        -11    1    3    3    0    0 -0.87786210486E+01  0.69429502564E+01 -0.20325075712E+02  0.23202962068E+02  0.51100000000E-03 0.  1.
         12    1    3    3    0    0 -0.10149012630E+02  0.64072892926E+01 -0.87289331872E+01  0.14840825045E+02  0.00000000000E+00 0. -1.
</event>
<event>
 7    1  0.2935819E-010  0.4778727E+02  0.7816164E-02  0.1312668E+00
        -11   -1    0    0    0    0  0.00000000000E+00  0.00000000000E+00  0.45593999997E+02  0.45594000000E+02  0.51100000000E-03 0. -1.
         11   -1    0    0    0    0 -0.00000000000E+00 -0.00000000000E+00 -0.45593999997E+02  0.45594000000E+02  0.51100000000E-03 0.  1.
    9900012    2    1    2    0    0 -0.31129489221E+02 -0.28503393635E+02  0.10106198422E+02  0.47787265048E+02  0.19999972658E+02 0.  0.
        -12    1    1    2    0    0  0.31129489221E+02  0.28503393635E+02 -0.10106198422E+02  0.43400734952E+02  0.00000000000E+00 0.  1.
         11    1    3    3    0    0 -0.12055218520E+02 -0.73292865072E+00 -0.87873483994E+00  0.12109403502E+02  0.51100000000E-03 0. -1.
        -11    1    3    3    0    0 -0.58118892047E+01 -0.11982003977E+02  0.39337578023E+01  0.13885997485E+02  0.51100000000E-03 0.  1.
         12    1    3    3    0    0 -0.13262381496E+02 -0.15788461007E+02  0.70511754596E+01  0.21791864061E+02  0.00000000000E+00 0. -1.
</event>
<event>
 7    1  0.2935819E-010  0.4778727E+02  0.7816164E-02  0.1312668E+00
        -11   -1    0    0    0    0  0.00000000000E+00  0.00000000000E+00  0.45593999997E+02  0.45594000000E+02  0.51100000000E-03 0.  1.
         11   -1    0    0    0    0 -0.00000000000E+00 -0.00000000000E+00 -0.45593999997E+02  0.45594000000E+02  0.51100000000E-03 0. -1.
    9900012    2    1    2    0    0 -0.15581901115E+02 -0.71501761519E+01 -0.39871072796E+02  0.47787272964E+02  0.20000008750E+02 0.  0.
        -12    1    1    2    0    0  0.15581901115E+02  0.71501761519E+01  0.39871072796E+02  0.43400727036E+02  0.00000000000E+00 0.  1.
         11    1    3    3    0    0  0.17900760709E+01  0.14313264194E+01 -0.14136263556E+02  0.14320859445E+02  0.51100000000E-03 0. -1.
        -11    1    3    3    0    0 -0.32174424106E+01  0.10512844305E+01 -0.12907416739E+01  0.36225887083E+01  0.51100000000E-03 0.  1.
         12    1    3    3    0    0 -0.14154534775E+02 -0.96327870018E+01 -0.24444067567E+02  0.29843824811E+02  0.00000000000E+00 0. -1.
</event>
<event>
 7    1  0.2935819E-010  0.4778727E+02  0.7816164E-02  0.1312668E+00
        -11   -1    0    0    0    0  0.00000000000E+00  0.00000000000E+00  0.45593999997E+02  0.45594000000E+02  0.51100000000E-03 0.  1.
         11   -1    0    0    0    0 -0.00000000000E+00 -0.00000000000E+00 -0.45593999997E+02  0.45594000000E+02  0.51100000000E-03 0. -1.
    9900012    2    1    2    0    0 -0.30425494222E+02  0.89635250286E+01 -0.29623767947E+02  0.47787272967E+02  0.20000008766E+02 0.  0.
        -12    1    1    2    0    0  0.30425494222E+02 -0.89635250286E+01  0.29623767947E+02  0.43400727033E+02  0.00000000000E+00 0.  1.
         11    1    3    3    0    0 -0.95820992229E+01  0.23049994676E+01 -0.89554001224E+01  0.13316487513E+02  0.51100000000E-03 0. -1.
        -11    1    3    3    0    0 -0.15543669740E+02  0.70372809850E+01 -0.23025319418E+02  0.28658233149E+02  0.51100000000E-03 0.  1.
        -12    1    3    3    0    0 -0.52997252587E+01 -0.37875542397E+00  0.23569515933E+01  0.58125523053E+01  0.00000000000E+00 0.  1.
</event>
<event>
 7    1  0.2935819E-010  0.4778727E+02  0.7816164E-02  0.1312668E+00
        -11   -1    0    0    0    0  0.00000000000E+00  0.00000000000E+00  0.45593999997E+02  0.45594000000E+02  0.51100000000E-03 0. -1.
         11   -1    0    0    0    0 -0.00000000000E+00 -0.00000000000E+00 -0.45593999997E+02  0.45594000000E+02  0.51100000000E-03 0.  1.
    9900012    2    1    2    0    0 -0.36040965177E+02  0.22051304936E+02 -0.99202954107E+01  0.47787268654E+02  0.19999989102E+02 0.  0.
        -12    1    1    2    0    0  0.36040965177E+02 -0.22051304936E+02  0.99202954107E+01  0.43400731346E+02  0.00000000000E+00 0.  1.
         11    1    3    3    0    0 -0.29503913586E+02  0.17374601361E+02 -0.54509218004E+01  0.34670884588E+02  0.51100000000E-03 0. -1.
        -11    1    3    3    0    0 -0.84486202507E+01  0.43794343144E+01 -0.54300248759E+01  0.10956450131E+02  0.51100000000E-03 0.  1.
         12    1    3    3    0    0  0.19115686593E+01  0.29726926087E+00  0.96065126560E+00  0.21599339357E+01  0.00000000000E+00 0. -1.
</event>
<event>
 7    1  0.2935819E-010  0.4778727E+02  0.7816164E-02  0.1312668E+00
        -11   -1    0    0    0    0  0.00000000000E+00  0.00000000000E+00  0.45593999997E+02  0.45594000000E+02  0.51100000000E-03 0.  1.
         11   -1    0    0    0    0 -0.00000000000E+00 -0.00000000000E+00 -0.45593999997E+02  0.45594000000E+02  0.51100000000E-03 0. -1.
    9900012    2    1    2    0    0  0.54119224373E+01  0.58736950129E+01 -0.42659509789E+02  0.47787274511E+02  0.20000015804E+02 0.  0.
        -12    1    1    2    0    0 -0.54119224373E+01 -0.58736950129E+01  0.42659509789E+02  0.43400725489E+02  0.00000000000E+00 0.  1.
         11    1    3    3    0    0 -0.17964090658E+01 -0.57977168419E+01 -0.23097410664E+02  0.23881603501E+02  0.51100000000E-03 0. -1.
        -11    1    3    3    0    0  0.38843271961E+01  0.57205973386E+01 -0.94022708973E+01  0.11671158039E+02  0.51100000000E-03 0.  1.
         12    1    3    3    0    0  0.33240043070E+01  0.59508145162E+01 -0.10159828227E+02  0.12234512972E+02  0.00000000000E+00 0. -1.
</event>
<event>
 7    1  0.2935819E-010  0.4778728E+02  0.7816164E-02  0.1312668E+00
        -11   -1    0    0    0    0  0.00000000000E+00  0.00000000000E+00  0.45593999997E+02  0.45594000000E+02  0.51100000000E-03 0.  1.
         11   -1    0    0    0    0 -0.00000000000E+00 -0.00000000000E+00 -0.45593999997E+02  0.45594000000E+02  0.51100000000E-03 0. -1.
    9900012    2    1    2    0    0 -0.35615795910E+02  0.22047735516E+02 -0.11359358750E+02  0.47787278913E+02  0.20000035875E+02 0.  0.
        -12    1    1    2    0    0  0.35615795910E+02 -0.22047735516E+02  0.11359358750E+02  0.43400721087E+02  0.00000000000E+00 0.  1.
         11    1    3    3    0    0 -0.29138488850E+02  0.14054537627E+02 -0.66508436191E+01  0.33027492812E+02  0.51100000000E-03 0. -1.
        -11    1    3    3    0    0 -0.36753520819E+01  0.79153083439E+01 -0.69615683123E+01  0.11163500917E+02  0.51100000000E-03 0.  1.
        -12    1    3    3    0    0 -0.28019549784E+01  0.77889544785E-01  0.22530531811E+01  0.35962851832E+01  0.00000000000E+00 0.  1.
</event>
<event>
 7    1  0.2935819E-010  0.4778727E+02  0.7816164E-02  0.1312668E+00
        -11   -1    0    0    0    0  0.00000000000E+00  0.00000000000E+00  0.45593999997E+02  0.45594000000E+02  0.51100000000E-03 0.  1.
         11   -1    0    0    0    0 -0.00000000000E+00 -0.00000000000E+00 -0.45593999997E+02  0.45594000000E+02  0.51100000000E-03 0. -1.
    9900012    2    1    2    0    0  0.26452537275E+01  0.27432040753E+02 -0.33527733073E+02  0.47787272907E+02  0.20000008493E+02 0.  0.
        -12    1    1    2    0    0 -0.26452537275E+01 -0.27432040753E+02  0.33527733073E+02  0.43400727093E+02  0.00000000000E+00 0.  1.
         11    1    3    3    0    0  0.17721592909E+01  0.20665699049E+02 -0.14583061319E+02  0.25355026000E+02  0.51100000000E-03 0. -1.
        -11    1    3    3    0    0 -0.36533553033E+01  0.54988365310E+01 -0.14634647388E+02  0.16054815869E+02  0.51100000000E-03 0.  1.
        -12    1    3    3    0    0  0.45264497399E+01  0.12675051729E+01 -0.43100243664E+01  0.63774310384E+01  0.00000000000E+00 0.  1.
</event>
<event>
 7    1  0.2935819E-010  0.4778728E+02  0.7816164E-02  0.1312668E+00
        -11   -1    0    0    0    0  0.00000000000E+00  0.00000000000E+00  0.45593999997E+02  0.45594000000E+02  0.51100000000E-03 0. -1.
         11   -1    0    0    0    0 -0.00000000000E+00 -0.00000000000E+00 -0.45593999997E+02  0.45594000000E+02  0.51100000000E-03 0.  1.
    9900012    2    1    2    0    0  0.43144345409E+02 -0.25760937118E+01  0.39435981066E+01  0.47787276900E+02  0.20000026696E+02 0.  0.
        -12    1    1    2    0    0 -0.43144345409E+02  0.25760937118E+01 -0.39435981066E+01  0.43400723100E+02  0.00000000000E+00 0.  1.
         11    1    3    3    0    0  0.30669631421E+02  0.25961640301E+01  0.30665317972E+01  0.30931698575E+02  0.51100000000E-03 0. -1.
        -11    1    3    3    0    0  0.81611962246E+01 -0.78328992151E+01 -0.12061739396E+01  0.11376040162E+02  0.51100000000E-03 0.  1.
        -12    1    3    3    0    0  0.43135177636E+01  0.26606414733E+01  0.20832402489E+01  0.54795381631E+01  0.00000000000E+00 0.  1.
</event>
<event>
 7    1  0.2935819E-010  0.4778727E+02  0.7816164E-02  0.1312668E+00
        -11   -1    0    0    0    0  0.00000000000E+00  0.00000000000E+00  0.45593999997E+02  0.45594000000E+02  0.51100000000E-03 0.  1.
         11   -1    0    0    0    0 -0.00000000000E+00 -0.00000000000E+00 -0.45593999997E+02  0.45594000000E+02  0.51100000000E-03 0. -1.
    9900012    2    1    2    0    0  0.31959371538E+02  0.26022728488E+02  0.13602922851E+02  0.47787270315E+02  0.19999996676E+02 0.  0.
        -12    1    1    2    0    0 -0.31959371538E+02 -0.26022728488E+02 -0.13602922851E+02  0.43400729685E+02  0.00000000000E+00 0.  1.
         11    1    3    3    0    0  0.33977178655E+01  0.53233885493E+01 -0.42797913475E+01  0.76288640425E+01  0.51100000000E-03 0.  1.
        -11    1    3    3    0    0  0.15988263126E+02  0.15744111607E+02  0.11434068512E+02  0.25184112672E+02  0.51100000000E-03 0. -1.
        -12    1    3    3    0    0  0.12573390547E+02  0.49552283313E+01  0.64486456860E+01  0.14974293601E+02  0.00000000000E+00 0.  1.
</event>
<event>
 7    1  0.2935819E-010  0.4778727E+02  0.7816164E-02  0.1312668E+00
        -11   -1    0    0    0    0  0.00000000000E+00  0.00000000000E+00  0.45593999997E+02  0.45594000000E+02  0.51100000000E-03 0.  1.
         11   -1    0    0    0    0 -0.00000000000E+00 -0.00000000000E+00 -0.45593999997E+02  0.45594000000E+02  0.51100000000E-03 0. -1.
    9900012    2    1    2    0    0  0.79078935856E+01 -0.42660708741E+02 -0.10733898320E+01  0.47787274004E+02  0.20000013492E+02 0.  0.
        -12    1    1    2    0    0 -0.79078935856E+01  0.42660708741E+02  0.10733898320E+01  0.43400725996E+02  0.00000000000E+00 0.  1.
         11    1    3    3    0    0  0.84189825189E+01 -0.16318413033E+02  0.63225711059E+01  0.19420215659E+02  0.51100000000E-03 0. -1.
        -11    1    3    3    0    0 -0.11962286826E+01 -0.23300634194E+01  0.11630628456E+01  0.28658112365E+01  0.51100000000E-03 0.  1.
         12    1    3    3    0    0  0.68513974924E+00 -0.24012232289E+02 -0.85590237835E+01  0.25501247109E+02  0.00000000000E+00 0. -1.
</event>
<event>
 7    1  0.2935819E-010  0.4778727E+02  0.7816164E-02  0.1312668E+00
        -11   -1    0    0    0    0  0.00000000000E+00  0.00000000000E+00  0.45593999997E+02  0.45594000000E+02  0.51100000000E-03 0. -1.
         11   -1    0    0    0    0 -0.00000000000E+00 -0.00000000000E+00 -0.45593999997E+02  0.45594000000E+02  0.51100000000E-03 0.  1.
    9900012    2    1    2    0    0 -0.37098016198E+02 -0.15698006122E+02  0.16153418805E+02  0.47787272574E+02  0.20000006972E+02 0.  0.
        -12    1    1    2    0    0  0.37098016198E+02  0.15698006122E+02 -0.16153418805E+02  0.43400727426E+02  0.00000000000E+00 0.  1.
         11    1    3    3    0    0 -0.68463658614E+01 -0.64468904500E+01  0.70303901311E+01  0.11741444018E+02  0.51100000000E-03 0. -1.
        -11    1    3    3    0    0 -0.28912426806E+02 -0.39430471541E+01  0.91178802307E+01  0.30571421047E+02  0.51100000000E-03 0.  1.
        -12    1    3    3    0    0 -0.13392235308E+01 -0.53080685182E+01  0.51484434986E-02  0.54744075082E+01  0.00000000000E+00 0.  1.
</event>
<event>
 7    1  0.2935819E-010  0.4778727E+02  0.7816164E-02  0.1312668E+00
        -11   -1    0    0    0    0  0.00000000000E+00  0.00000000000E+00  0.45593999997E+02  0.45594000000E+02  0.51100000000E-03 0.  1.
         11   -1    0    0    0    0 -0.00000000000E+00 -0.00000000000E+00 -0.45593999997E+02  0.45594000000E+02  0.51100000000E-03 0. -1.
    9900012    2    1    2    0    0 -0.29537985261E+01 -0.40675678214E+02 -0.14845449986E+02  0.47787272942E+02  0.20000008653E+02 0.  0.
        -12    1    1    2    0    0  0.29537985261E+01  0.40675678214E+02  0.14845449986E+02  0.43400727058E+02  0.00000000000E+00 0.  1.
         11    1    3    3    0    0  0.65476447885E+01 -0.18664056915E+02 -0.92187770814E+01  0.21822110895E+02  0.51100000000E-03 0. -1.
        -11    1    3    3    0    0 -0.90831510612E+01 -0.14207051435E+02 -0.65605895353E+01  0.18093791172E+02  0.51100000000E-03 0.  1.
        -12    1    3    3    0    0 -0.41829225338E+00 -0.78045698639E+01  0.93391663115E+00  0.78713708745E+01  0.00000000000E+00 0.  1.
</event>
<event>
 7    1  0.2935819E-010  0.4778727E+02  0.7816164E-02  0.1312668E+00
        -11   -1    0    0    0    0  0.00000000000E+00  0.00000000000E+00  0.45593999997E+02  0.45594000000E+02  0.51100000000E-03 0.  1.
         11   -1    0    0    0    0 -0.00000000000E+00 -0.00000000000E+00 -0.45593999997E+02  0.45594000000E+02  0.51100000000E-03 0. -1.
    9900012    2    1    2    0    0 -0.11262172778E+02  0.18334851856E+02 -0.37691114878E+02  0.47787268796E+02  0.19999989750E+02 0.  0.
        -12    1    1    2    0    0  0.11262172778E+02 -0.18334851856E+02  0.37691114878E+02  0.43400731204E+02  0.00000000000E+00 0.  1.
         11    1    3    3    0    0 -0.45837585531E+00  0.48328224288E+01 -0.32760028375E+01  0.58564900670E+01  0.51100000000E-03 0.  1.
        -11    1    3    3    0    0 -0.11312905114E+02  0.16915416889E+02 -0.27592543188E+02  0.34285005330E+02  0.51100000000E-03 0. -1.
        -12    1    3    3    0    0  0.50910819087E+00 -0.34133874624E+01 -0.68225688529E+01  0.76457733991E+01  0.00000000000E+00 0.  1.
</event>
<event>
 7    1  0.2935819E-010  0.4778727E+02  0.7816164E-02  0.1312668E+00
        -11   -1    0    0    0    0  0.00000000000E+00  0.00000000000E+00  0.45593999997E+02  0.45594000000E+02  0.51100000000E-03 0. -1.
         11   -1    0    0    0    0 -0.00000000000E+00 -0.00000000000E+00 -0.45593999997E+02  0.45594000000E+02  0.51100000000E-03 0.  1.
    9900012    2    1    2    0    0 -0.31303656563E+02  0.15280350000E+02  0.25888515650E+02  0.47787271286E+02  0.20000001102E+02 0.  0.
        -12    1    1    2    0    0  0.31303656563E+02 -0.15280350000E+02 -0.25888515650E+02  0.43400728714E+02  0.00000000000E+00 0.  1.
         11    1    3    3    0    0 -0.19907946932E+01 -0.29327305938E+01  0.40194371595E+01  0.53591088425E+01  0.51100000000E-03 0. -1.
        -11    1    3    3    0    0 -0.27754047806E+01 -0.15807512889E+01  0.12749944934E+01  0.34390780091E+01  0.51100000000E-03 0.  1.
         12    1    3    3    0    0 -0.26537457089E+02  0.19793831883E+02  0.20594083997E+02  0.38989084434E+02  0.00000000000E+00 0. -1.
</event>
<event>
 7    1  0.2935819E-010  0.4778727E+02  0.7816164E-02  0.1312668E+00
        -11   -1    0    0    0    0  0.00000000000E+00  0.00000000000E+00  0.45593999997E+02  0.45594000000E+02  0.51100000000E-03 0.  1.
         11   -1    0    0    0    0 -0.00000000000E+00 -0.00000000000E+00 -0.45593999997E+02  0.45594000000E+02  0.51100000000E-03 0. -1.
    9900012    2    1    2    0    0 -0.54911579616E+01  0.67862370519E+00 -0.43046602062E+02  0.47787270801E+02  0.19999998890E+02 0.  0.
        -12    1    1    2    0    0  0.54911579616E+01 -0.67862370519E+00  0.43046602062E+02  0.43400729199E+02  0.00000000000E+00 0.  1.
         11    1    3    3    0    0 -0.10682965465E+02  0.17464716432E+00 -0.32562603711E+02  0.34270678626E+02  0.51100000000E-03 0. -1.
        -11    1    3    3    0    0 -0.71778792238E+00 -0.19563471053E+01 -0.32093552151E+01  0.38265486611E+01  0.51100000000E-03 0.  1.
         12    1    3    3    0    0  0.59095954261E+01  0.24603236462E+01 -0.72746431363E+01  0.96900435141E+01  0.00000000000E+00 0. -1.
</event>
<event>
 7    1  0.2935819E-010  0.4778727E+02  0.7816164E-02  0.1312668E+00
        -11   -1    0    0    0    0  0.00000000000E+00  0.00000000000E+00  0.45593999997E+02  0.45594000000E+02  0.51100000000E-03 0. -1.
         11   -1    0    0    0    0 -0.00000000000E+00 -0.00000000000E+00 -0.45593999997E+02  0.45594000000E+02  0.51100000000E-03 0.  1.
    9900012    2    1    2    0    0  0.17124465306E+02  0.39524604725E+02  0.53086410514E+01  0.47787270047E+02  0.19999995451E+02 0.  0.
        -12    1    1    2    0    0 -0.17124465306E+02 -0.39524604725E+02 -0.53086410514E+01  0.43400729953E+02  0.00000000000E+00 0.  1.
         11    1    3    3    0    0  0.19171916721E+01  0.14579833611E+02  0.90388409644E+01  0.17261165032E+02  0.51100000000E-03 0. -1.
        -11    1    3    3    0    0  0.52784097164E+01  0.40853492841E+01 -0.32387561341E+01  0.74189776563E+01  0.51100000000E-03 0.  1.
         12    1    3    3    0    0  0.99288639179E+01  0.20859421830E+02 -0.49144377893E+00  0.23107127359E+02  0.00000000000E+00 0. -1.
</event>
<event>
 7    1  0.2935819E-010  0.4778727E+02  0.7816164E-02  0.1312668E+00
        -11   -1    0    0    0    0  0.00000000000E+00  0.00000000000E+00  0.45593999997E+02  0.45594000000E+02  0.51100000000E-03 0. -1.
         11   -1    0    0    0    0 -0.00000000000E+00 -0.00000000000E+00 -0.45593999997E+02  0.45594000000E+02  0.51100000000E-03 0.  1.
    9900012    2    1    2    0    0  0.20030778208E+02  0.35041769814E+02 -0.15951988015E+02  0.47787266954E+02  0.19999981350E+02 0.  0.
        -12    1    1    2    0    0 -0.20030778208E+02 -0.35041769814E+02  0.15951988015E+02  0.43400733046E+02  0.00000000000E+00 0.  1.
         11    1    3    3    0    0  0.38956554245E+01  0.12769972564E+02 -0.48067104543E+01  0.14189883584E+02  0.51100000000E-03 0. -1.
        -11    1    3    3    0    0 -0.16039458197E+01  0.93740400857E+01 -0.53521523839E+01  0.10912873367E+02  0.51100000000E-03 0.  1.
        -12    1    3    3    0    0  0.17739068603E+02  0.12897757165E+02 -0.57931251771E+01  0.22684510003E+02  0.00000000000E+00 0.  1.
</event>
<event>
 7    1  0.2935819E-010  0.4778727E+02  0.7816164E-02  0.1312668E+00
        -11   -1    0    0    0    0  0.00000000000E+00  0.00000000000E+00  0.45593999997E+02  0.45594000000E+02  0.51100000000E-03 0.  1.
         11   -1    0    0    0    0 -0.00000000000E+00 -0.00000000000E+00 -0.45593999997E+02  0.45594000000E+02  0.51100000000E-03 0. -1.
    9900012    2    1    2    0    0  0.11292724688E+02  0.12273404935E+02 -0.40068204068E+02  0.47787273314E+02  0.20000010349E+02 0.  0.
        -12    1    1    2    0    0 -0.11292724688E+02 -0.12273404935E+02  0.40068204068E+02  0.43400726686E+02  0.00000000000E+00 0.  1.
         11    1    3    3    0    0  0.10199280036E+02  0.13542260584E+02 -0.17833291575E+02  0.24605780289E+02  0.51100000000E-03 0. -1.
        -11    1    3    3    0    0  0.50196141059E+00 -0.32051471476E+01 -0.60008336756E+01  0.68216521869E+01  0.51100000000E-03 0.  1.
         12    1    3    3    0    0  0.59148324195E+00  0.19362914990E+01 -0.16234078818E+02  0.16359840838E+02  0.00000000000E+00 0. -1.
</event>
<event>
 7    1  0.2935819E-010  0.4778728E+02  0.7816164E-02  0.1312668E+00
        -11   -1    0    0    0    0  0.00000000000E+00  0.00000000000E+00  0.45593999997E+02  0.45594000000E+02  0.51100000000E-03 0.  1.
         11   -1    0    0    0    0 -0.00000000000E+00 -0.00000000000E+00 -0.45593999997E+02  0.45594000000E+02  0.51100000000E-03 0. -1.
    9900012    2    1    2    0    0 -0.12284926554E+02 -0.35990115522E+02 -0.20914469409E+02  0.47787275739E+02  0.20000021405E+02 0.  0.
        -12    1    1    2    0    0  0.12284926554E+02  0.35990115522E+02  0.20914469409E+02  0.43400724261E+02  0.00000000000E+00 0.  1.
         11    1    3    3    0    0  0.15556398288E-01 -0.32886364099E+01  0.32912740155E+01  0.46527256898E+01  0.51100000000E-03 0. -1.
        -11    1    3    3    0    0 -0.42141659714E+01 -0.50598014832E+01 -0.23925254795E+01  0.70060662512E+01  0.51100000000E-03 0.  1.
         12    1    3    3    0    0 -0.80863169812E+01 -0.27641677629E+02 -0.21813217945E+02  0.36128483798E+02  0.00000000000E+00 0. -1.
</event>
<event>
 7    1  0.2935819E-010  0.4778727E+02  0.7816164E-02  0.1312668E+00
        -11   -1    0    0    0    0  0.00000000000E+00  0.00000000000E+00  0.45593999997E+02  0.45594000000E+02  0.51100000000E-03 0.  1.
         11   -1    0    0    0    0 -0.00000000000E+00 -0.00000000000E+00 -0.45593999997E+02  0.45594000000E+02  0.51100000000E-03 0. -1.
    9900012    2    1    2    0    0 -0.42649948733E+02 -0.68742137972E+01  0.41653803185E+01  0.47787270335E+02  0.19999996767E+02 0.  0.
        -12    1    1    2    0    0  0.42649948733E+02  0.68742137972E+01 -0.41653803185E+01  0.43400729665E+02  0.00000000000E+00 0.  1.
         11    1    3    3    0    0 -0.16079466596E+02  0.20965004315E+01  0.31408503982E+01  0.16516945891E+02  0.51100000000E-03 0. -1.
        -11    1    3    3    0    0 -0.10573237834E+02 -0.10408213876E+02 -0.18564799830E+01  0.14952283858E+02  0.51100000000E-03 0.  1.
        -12    1    3    3    0    0 -0.15997244303E+02  0.14374996475E+01  0.28810099032E+01  0.16318040586E+02  0.00000000000E+00 0.  1.
</event>
<event>
 7    1  0.2935819E-010  0.4778727E+02  0.7816164E-02  0.1312668E+00
        -11   -1    0    0    0    0  0.00000000000E+00  0.00000000000E+00  0.45593999997E+02  0.45594000000E+02  0.51100000000E-03 0. -1.
         11   -1    0    0    0    0 -0.00000000000E+00 -0.00000000000E+00 -0.45593999997E+02  0.45594000000E+02  0.51100000000E-03 0.  1.
    9900012    2    1    2    0    0 -0.25417225484E+02  0.21487135151E+01  0.35113682827E+02  0.47787273707E+02  0.20000012140E+02 0.  0.
        -12    1    1    2    0    0  0.25417225484E+02 -0.21487135151E+01 -0.35113682827E+02  0.43400726293E+02  0.00000000000E+00 0.  1.
         11    1    3    3    0    0 -0.15648434455E+02 -0.64610887285E+01  0.26968945485E+02  0.31842474610E+02  0.51100000000E-03 0. -1.
        -11    1    3    3    0    0 -0.77588159317E+01  0.47413348418E+01  0.40149430247E+01  0.99397811091E+01  0.51100000000E-03 0.  1.
         12    1    3    3    0    0 -0.20099750971E+01  0.38684674018E+01  0.41297943175E+01  0.60050179878E+01  0.00000000000E+00 0. -1.
</event>
<event>
 7    1  0.2935819E-010  0.4778727E+02  0.7816164E-02  0.1312668E+00
        -11   -1    0    0    0    0  0.00000000000E+00  0.00000000000E+00  0.45593999997E+02  0.45594000000E+02  0.51100000000E-03 0.  1.
         11   -1    0    0    0    0 -0.00000000000E+00 -0.00000000000E+00 -0.45593999997E+02  0.45594000000E+02  0.51100000000E-03 0. -1.
    9900012    2    1    2    0    0  0.22112648833E+02  0.20038550813E+02 -0.31513657346E+02  0.47787270093E+02  0.19999995663E+02 0.  0.
        -12    1    1    2    0    0 -0.22112648833E+02 -0.20038550813E+02  0.31513657346E+02  0.43400729907E+02  0.00000000000E+00 0.  1.
         11    1    3    3    0    0  0.70027169544E+01 -0.10041249945E+01 -0.56856161144E+00  0.70971525498E+01  0.51100000000E-03 0.  1.
        -11    1    3    3    0    0  0.44108068771E+01  0.99539205886E+01 -0.14785590313E+02  0.18361629381E+02  0.51100000000E-03 0. -1.
         12    1    3    3    0    0  0.10699125002E+02  0.11088755219E+02 -0.16159505422E+02  0.22328488162E+02  0.00000000000E+00 0. -1.
</event>
<event>
 7    1  0.2935819E-010  0.4778727E+02  0.7816164E-02  0.1312668E+00
        -11   -1    0    0    0    0  0.00000000000E+00  0.00000000000E+00  0.45593999997E+02  0.45594000000E+02  0.51100000000E-03 0.  1.
         11   -1    0    0    0    0 -0.00000000000E+00 -0.00000000000E+00 -0.45593999997E+02  0.45594000000E+02  0.51100000000E-03 0. -1.
    9900012    2    1    2    0    0  0.29502993665E+01 -0.29883280283E+02 -0.31335420055E+02  0.47787271241E+02  0.20000000895E+02 0.  0.
        -12    1    1    2    0    0 -0.29502993665E+01  0.29883280283E+02  0.31335420055E+02  0.43400728759E+02  0.00000000000E+00 0.  1.
         11    1    3    3    0    0  0.89863697429E+01 -0.16726069097E+02 -0.18959021064E+02  0.26832083567E+02  0.51100000000E-03 0. -1.
        -11    1    3    3    0    0  0.19214303341E+01 -0.35162248886E+01 -0.11897470638E+01  0.41798600853E+01  0.51100000000E-03 0.  1.
         12    1    3    3    0    0 -0.79575007105E+01 -0.96409862973E+01 -0.11186651927E+02  0.16775327588E+02  0.00000000000E+00 0. -1.
</event>
<event>
 7    1  0.2935819E-010  0.4778730E+02  0.7816164E-02  0.1312668E+00
        -11   -1    0    0    0    0  0.00000000000E+00  0.00000000000E+00  0.45593999997E+02  0.45594000000E+02  0.51100000000E-03 0.  1.
         11   -1    0    0    0    0 -0.00000000000E+00 -0.00000000000E+00 -0.45593999997E+02  0.45594000000E+02  0.51100000000E-03 0. -1.
    9900012    2    1    2    0    0 -0.19493917437E+02  0.38671238470E+02  0.28537069386E+01  0.47787295569E+02  0.20000111817E+02 0.  0.
        -12    1    1    2    0    0  0.19493917437E+02 -0.38671238470E+02 -0.28537069386E+01  0.43400704431E+02  0.00000000000E+00 0.  1.
         11    1    3    3    0    0 -0.15434436214E+02  0.30218606770E+02 -0.15277604159E+01  0.33966455048E+02  0.51100000000E-03 0. -1.
        -11    1    3    3    0    0 -0.14472408018E+01 -0.14341917027E+01 -0.99503859631E+00  0.22674906500E+01  0.51100000000E-03 0.  1.
         12    1    3    3    0    0 -0.26122404205E+01  0.98868234026E+01  0.53765059508E+01  0.11553349871E+02  0.00000000000E+00 0. -1.
</event>
<event>
 7    1  0.2935819E-010  0.4778727E+02  0.7816164E-02  0.1312668E+00
        -11   -1    0    0    0    0  0.00000000000E+00  0.00000000000E+00  0.45593999997E+02  0.45594000000E+02  0.51100000000E-03 0.  1.
         11   -1    0    0    0    0 -0.00000000000E+00 -0.00000000000E+00 -0.45593999997E+02  0.45594000000E+02  0.51100000000E-03 0. -1.
    9900012    2    1    2    0    0  0.38129636094E+02 -0.69390830114E+01 -0.19534673633E+02  0.47787268489E+02  0.19999988351E+02 0.  0.
        -12    1    1    2    0    0 -0.38129636094E+02  0.69390830114E+01  0.19534673633E+02  0.43400731511E+02  0.00000000000E+00 0.  1.
         11    1    3    3    0    0  0.50508165172E+01  0.53135526223E+00  0.35248476221E+01  0.61820414853E+01  0.51100000000E-03 0.  1.
        -11    1    3    3    0    0  0.13684518099E+02 -0.28115510598E+01 -0.13720233934E+02  0.19581002897E+02  0.51100000000E-03 0. -1.
        -12    1    3    3    0    0  0.19394301478E+02 -0.46588872139E+01 -0.93392873207E+01  0.22024224107E+02  0.00000000000E+00 0.  1.
</event>
<event>
 7    1  0.2935819E-010  0.4778727E+02  0.7816164E-02  0.1312668E+00
        -11   -1    0    0    0    0  0.00000000000E+00  0.00000000000E+00  0.45593999997E+02  0.45594000000E+02  0.51100000000E-03 0.  1.
         11   -1    0    0    0    0 -0.00000000000E+00 -0.00000000000E+00 -0.45593999997E+02  0.45594000000E+02  0.51100000000E-03 0. -1.
    9900012    2    1    2    0    0 -0.24099157433E+01  0.35006734673E+02 -0.25541028710E+02  0.47787270583E+02  0.19999997896E+02 0.  0.
        -12    1    1    2    0    0  0.24099157433E+01 -0.35006734673E+02  0.25541028710E+02  0.43400729417E+02  0.00000000000E+00 0.  1.
         11    1    3    3    0    0  0.11251257866E+01  0.82452771578E+00  0.15924036986E+01  0.21169562561E+01  0.51100000000E-03 0. -1.
        -11    1    3    3    0    0 -0.20308656227E+01  0.34532888834E+01  0.83458672293E+00  0.40922065623E+01  0.51100000000E-03 0.  1.
         12    1    3    3    0    0 -0.15041759071E+01  0.30728918074E+02 -0.27968019131E+02  0.41578107765E+02  0.00000000000E+00 0. -1.
</event>
<event>
 7    1  0.2935819E-010  0.4778727E+02  0.7816164E-02  0.1312668E+00
        -11   -1    0    0    0    0  0.00000000000E+00  0.00000000000E+00  0.45593999997E+02  0.45594000000E+02  0.51100000000E-03 0.  1.
         11   -1    0    0    0    0 -0.00000000000E+00 -0.00000000000E+00 -0.45593999997E+02  0.45594000000E+02  0.51100000000E-03 0. -1.
    9900012    2    1    2    0    0 -0.32203992846E+02 -0.13908802994E+02 -0.25555255001E+02  0.47787274037E+02  0.20000013645E+02 0.  0.
        -12    1    1    2    0    0  0.32203992846E+02  0.13908802994E+02  0.25555255001E+02  0.43400725963E+02  0.00000000000E+00 0.  1.
         11    1    3    3    0    0 -0.73912053376E+01 -0.29443073323E+01 -0.11048397493E+02  0.13614916431E+02  0.51100000000E-03 0. -1.
        -11    1    3    3    0    0 -0.21250855885E+02 -0.14650738299E+02 -0.12267547211E+02  0.28578588548E+02  0.51100000000E-03 0.  1.
        -12    1    3    3    0    0 -0.35619316229E+01  0.36862426373E+01 -0.22393102970E+01  0.55937690580E+01  0.00000000000E+00 0.  1.
</event>
<event>
 7    1  0.2935819E-010  0.4778727E+02  0.7816164E-02  0.1312668E+00
        -11   -1    0    0    0    0  0.00000000000E+00  0.00000000000E+00  0.45593999997E+02  0.45594000000E+02  0.51100000000E-03 0.  1.
         11   -1    0    0    0    0 -0.00000000000E+00 -0.00000000000E+00 -0.45593999997E+02  0.45594000000E+02  0.51100000000E-03 0. -1.
    9900012    2    1    2    0    0  0.22658212623E+02  0.21032237027E+00 -0.37016003407E+02  0.47787270248E+02  0.19999996370E+02 0.  0.
        -12    1    1    2    0    0 -0.22658212623E+02 -0.21032237027E+00  0.37016003407E+02  0.43400729752E+02  0.00000000000E+00 0.  1.
         11    1    3    3    0    0  0.11754320111E+02  0.58659751286E+01 -0.12483276750E+02  0.18121972965E+02  0.51100000000E-03 0. -1.
        -11    1    3    3    0    0  0.65998055865E+01 -0.29823093367E+01 -0.23370508583E+02  0.24466962918E+02  0.51100000000E-03 0.  1.
        -12    1    3    3    0    0  0.43040869258E+01 -0.26733434216E+01 -0.11622180739E+01  0.51983343646E+01  0.00000000000E+00 0.  1.
</event>
<event>
 7    1  0.2935819E-010  0.4778727E+02  0.7816164E-02  0.1312668E+00
        -11   -1    0    0    0    0  0.00000000000E+00  0.00000000000E+00  0.45593999997E+02  0.45594000000E+02  0.51100000000E-03 0. -1.
         11   -1    0    0    0    0 -0.00000000000E+00 -0.00000000000E+00 -0.45593999997E+02  0.45594000000E+02  0.51100000000E-03 0.  1.
    9900012    2    1    2    0    0  0.33753692702E+02 -0.15159499810E+01  0.27239919758E+02  0.47787273004E+02  0.20000008936E+02 0.  0.
        -12    1    1    2    0    0 -0.33753692702E+02  0.15159499810E+01 -0.27239919758E+02  0.43400726996E+02  0.00000000000E+00 0.  1.
         11    1    3    3    0    0  0.19409923776E+02 -0.13068255927E+01  0.91038803009E+01  0.21478677122E+02  0.51100000000E-03 0. -1.
        -11    1    3    3    0    0  0.28536492469E+01  0.55171747902E+01  0.55366530924E+01  0.83208809279E+01  0.51100000000E-03 0.  1.
        -12    1    3    3    0    0  0.11490119679E+02 -0.57262991786E+01  0.12599386364E+02  0.17987714954E+02  0.00000000000E+00 0.  1.
</event>
<event>
 7    1  0.2935819E-010  0.4778727E+02  0.7816164E-02  0.1312668E+00
        -11   -1    0    0    0    0  0.00000000000E+00  0.00000000000E+00  0.45593999997E+02  0.45594000000E+02  0.51100000000E-03 0. -1.
         11   -1    0    0    0    0 -0.00000000000E+00 -0.00000000000E+00 -0.45593999997E+02  0.45594000000E+02  0.51100000000E-03 0.  1.
    9900012    2    1    2    0    0 -0.40513871054E+02 -0.95924061877E+01 -0.12257061570E+02  0.47787267719E+02  0.19999984837E+02 0.  0.
        -12    1    1    2    0    0  0.40513871054E+02  0.95924061877E+01  0.12257061570E+02  0.43400732281E+02  0.00000000000E+00 0.  1.
         11    1    3    3    0    0 -0.22101616759E+02 -0.50298602554E+01 -0.54106832375E+01  0.23303571635E+02  0.51100000000E-03 0. -1.
        -11    1    3    3    0    0  0.24454328537E+00 -0.12997023886E+01 -0.53204577560E+01  0.54823625119E+01  0.51100000000E-03 0.  1.
        -12    1    3    3    0    0 -0.18656797580E+02 -0.32628435437E+01 -0.15259205765E+01  0.19001333572E+02  0.00000000000E+00 0.  1.
</event>
<event>
 7    1  0.2935819E-010  0.4778727E+02  0.7816164E-02  0.1312668E+00
        -11   -1    0    0    0    0  0.00000000000E+00  0.00000000000E+00  0.45593999997E+02  0.45594000000E+02  0.51100000000E-03 0.  1.
         11   -1    0    0    0    0 -0.00000000000E+00 -0.00000000000E+00 -0.45593999997E+02  0.45594000000E+02  0.51100000000E-03 0. -1.
    9900012    2    1    2    0    0  0.18743481269E+02 -0.10101891383E+01 -0.39131631532E+02  0.47787272374E+02  0.20000006060E+02 0.  0.
        -12    1    1    2    0    0 -0.18743481269E+02  0.10101891383E+01  0.39131631532E+02  0.43400727626E+02  0.00000000000E+00 0.  1.
         11    1    3    3    0    0  0.39221572050E+00 -0.34580595486E+01 -0.98460398563E+01  0.10443012502E+02  0.51100000000E-03 0. -1.
        -11    1    3    3    0    0 -0.12477979286E+01  0.31218544225E+01 -0.62065151518E+01  0.70585979696E+01  0.51100000000E-03 0.  1.
        -12    1    3    3    0    0  0.19599063477E+02 -0.67398401217E+00 -0.23079076524E+02  0.30285661902E+02  0.00000000000E+00 0.  1.
</event>
<event>
 7    1  0.2935819E-010  0.4778727E+02  0.7816164E-02  0.1312668E+00
        -11   -1    0    0    0    0  0.00000000000E+00  0.00000000000E+00  0.45593999997E+02  0.45594000000E+02  0.51100000000E-03 0.  1.
         11   -1    0    0    0    0 -0.00000000000E+00 -0.00000000000E+00 -0.45593999997E+02  0.45594000000E+02  0.51100000000E-03 0. -1.
    9900012    2    1    2    0    0  0.34802298356E+02 -0.19044350974E+02 -0.17599320330E+02  0.47787270156E+02  0.19999995951E+02 0.  0.
        -12    1    1    2    0    0 -0.34802298356E+02  0.19044350974E+02  0.17599320330E+02  0.43400729844E+02  0.00000000000E+00 0.  1.
         11    1    3    3    0    0  0.12812110157E+02 -0.13250792220E+02 -0.56782505882E+01  0.19286684297E+02  0.51100000000E-03 0. -1.
        -11    1    3    3    0    0  0.84939281269E+01  0.37832371542E+01 -0.35292050418E+01  0.99456013834E+01  0.51100000000E-03 0.  1.
         12    1    3    3    0    0  0.13496260072E+02 -0.95767959076E+01 -0.83918646996E+01  0.18554984476E+02  0.00000000000E+00 0. -1.
</event>
<event>
 7    1  0.2935819E-010  0.4778728E+02  0.7816164E-02  0.1312668E+00
        -11   -1    0    0    0    0  0.00000000000E+00  0.00000000000E+00  0.45593999997E+02  0.45594000000E+02  0.51100000000E-03 0. -1.
         11   -1    0    0    0    0 -0.00000000000E+00 -0.00000000000E+00 -0.45593999997E+02  0.45594000000E+02  0.51100000000E-03 0.  1.
    9900012    2    1    2    0    0  0.22270112179E+02  0.35550825436E+02  0.11126694203E+02  0.47787281003E+02  0.20000045403E+02 0.  0.
        -12    1    1    2    0    0 -0.22270112179E+02 -0.35550825436E+02 -0.11126694203E+02  0.43400718997E+02  0.00000000000E+00 0.  1.
         11    1    3    3    0    0  0.14884477559E+02  0.23376806312E+02  0.46500570245E+01  0.28100636579E+02  0.51100000000E-03 0. -1.
        -11    1    3    3    0    0 -0.28656802995E+01  0.27852701169E+01 -0.67663897482E+00  0.40531091481E+01  0.51100000000E-03 0.  1.
        -12    1    3    3    0    0  0.10251314919E+02  0.93887490064E+01  0.71532761534E+01  0.15633535275E+02  0.00000000000E+00 0.  1.
</event>
<event>
 7    1  0.2935819E-010  0.4778727E+02  0.7816164E-02  0.1312668E+00
        -11   -1    0    0    0    0  0.00000000000E+00  0.00000000000E+00  0.45593999997E+02  0.45594000000E+02  0.51100000000E-03 0. -1.
         11   -1    0    0    0    0 -0.00000000000E+00 -0.00000000000E+00 -0.45593999997E+02  0.45594000000E+02  0.51100000000E-03 0.  1.
    9900012    2    1    2    0    0 -0.12463652043E+02  0.13598495009E+02  0.39285643494E+02  0.47787268745E+02  0.19999989516E+02 0.  0.
        -12    1    1    2    0    0  0.12463652043E+02 -0.13598495009E+02 -0.39285643494E+02  0.43400731255E+02  0.00000000000E+00 0.  1.
         11    1    3    3    0    0 -0.73272018229E+01  0.23422706186E+01  0.37889924499E+01  0.85749975073E+01  0.51100000000E-03 0. -1.
        -11    1    3    3    0    0  0.67262838842E+00  0.40822189230E+01  0.22533040573E+01  0.47110847710E+01  0.51100000000E-03 0.  1.
         12    1    3    3    0    0 -0.58090786082E+01  0.71740054674E+01  0.33243346987E+02  0.34501186467E+02  0.00000000000E+00 0. -1.
</event>
<event>
 7    1  0.2935819E-010  0.4778727E+02  0.7816164E-02  0.1312668E+00
        -11   -1    0    0    0    0  0.00000000000E+00  0.00000000000E+00  0.45593999997E+02  0.45594000000E+02  0.51100000000E-03 0.  1.
         11   -1    0    0    0    0 -0.00000000000E+00 -0.00000000000E+00 -0.45593999997E+02  0.45594000000E+02  0.51100000000E-03 0. -1.
    9900012    2    1    2    0    0 -0.36615202079E+02 -0.17607816129E+02 -0.15261548508E+02  0.47787273336E+02  0.20000010449E+02 0.  0.
        -12    1    1    2    0    0  0.36615202079E+02  0.17607816129E+02  0.15261548508E+02  0.43400726664E+02  0.00000000000E+00 0.  1.
         11    1    3    3    0    0 -0.28296650270E+02 -0.16984905461E+02 -0.12823747098E+02  0.35406721395E+02  0.51100000000E-03 0. -1.
        -11    1    3    3    0    0  0.38405865759E+00 -0.23671338968E+01  0.13254671797E+01  0.27400159567E+01  0.51100000000E-03 0.  1.
         12    1    3    3    0    0 -0.87026104658E+01  0.17442232288E+01 -0.37632685889E+01  0.96405359842E+01  0.00000000000E+00 0. -1.
</event>
<event>
 7    1  0.2935819E-010  0.4778727E+02  0.7816164E-02  0.1312668E+00
        -11   -1    0    0    0    0  0.00000000000E+00  0.00000000000E+00  0.45593999997E+02  0.45594000000E+02  0.51100000000E-03 0. -1.
         11   -1    0    0    0    0 -0.00000000000E+00 -0.00000000000E+00 -0.45593999997E+02  0.45594000000E+02  0.51100000000E-03 0.  1.
    9900012    2    1    2    0    0  0.29727250418E+02  0.14196054039E+02  0.28255723598E+02  0.47787270931E+02  0.19999999485E+02 0.  0.
        -12    1    1    2    0    0 -0.29727250418E+02 -0.14196054039E+02 -0.28255723598E+02  0.43400729069E+02  0.00000000000E+00 0.  1.
         11    1    3    3    0    0  0.73477023230E+01  0.71210278279E+00  0.34147068923E+01  0.81336365312E+01  0.51100000000E-03 0. -1.
        -11    1    3    3    0    0 -0.96733570208E+00 -0.21450029904E+01  0.41168372537E+01  0.47418483131E+01  0.51100000000E-03 0.  1.
        -12    1    3    3    0    0  0.23346883797E+02  0.15628954246E+02  0.20724179452E+02  0.34911786087E+02  0.00000000000E+00 0.  1.
</event>
<event>
 7    1  0.2935819E-010  0.4778725E+02  0.7816164E-02  0.1312668E+00
        -11   -1    0    0    0    0  0.00000000000E+00  0.00000000000E+00  0.45593999997E+02  0.45594000000E+02  0.51100000000E-03 0.  1.
         11   -1    0    0    0    0 -0.00000000000E+00 -0.00000000000E+00 -0.45593999997E+02  0.45594000000E+02  0.51100000000E-03 0. -1.
    9900012    2    1    2    0    0 -0.33254015141E+02 -0.23381193828E+02 -0.15202487674E+02  0.47787246789E+02  0.19999889408E+02 0.  0.
        -12    1    1    2    0    0  0.33254015141E+02  0.23381193828E+02  0.15202487674E+02  0.43400753211E+02  0.00000000000E+00 0.  1.
         11    1    3    3    0    0 -0.15279497414E+02 -0.34663236478E+01 -0.56027737784E+01  0.16639396478E+02  0.51100000000E-03 0. -1.
        -11    1    3    3    0    0 -0.71377080044E+01 -0.16925132324E+02 -0.65270357157E+01  0.19493824028E+02  0.51100000000E-03 0.  1.
        -12    1    3    3    0    0 -0.10836809722E+02 -0.29897378566E+01 -0.30726781796E+01  0.11654026283E+02  0.00000000000E+00 0.  1.
</event>
<event>
 7    1  0.2935819E-010  0.4778727E+02  0.7816164E-02  0.1312668E+00
        -11   -1    0    0    0    0  0.00000000000E+00  0.00000000000E+00  0.45593999997E+02  0.45594000000E+02  0.51100000000E-03 0. -1.
         11   -1    0    0    0    0 -0.00000000000E+00 -0.00000000000E+00 -0.45593999997E+02  0.45594000000E+02  0.51100000000E-03 0.  1.
    9900012    2    1    2    0    0  0.37037107362E+02  0.73130749808E+01  0.21410164494E+02  0.47787268082E+02  0.19999986492E+02 0.  0.
        -12    1    1    2    0    0 -0.37037107362E+02 -0.73130749808E+01 -0.21410164494E+02  0.43400731918E+02  0.00000000000E+00 0.  1.
         11    1    3    3    0    0  0.22800904440E+01 -0.41689643130E+01  0.41668662131E+01  0.63199565010E+01  0.51100000000E-03 0.  1.
        -11    1    3    3    0    0  0.29123008205E+02  0.67776162975E+01  0.11097514536E+02  0.31894208231E+02  0.51100000000E-03 0. -1.
         12    1    3    3    0    0  0.56340087130E+01  0.47044229963E+01  0.61457837449E+01  0.95731033497E+01  0.00000000000E+00 0. -1.
</event>
<event>
 7    1  0.2935819E-010  0.4778728E+02  0.7816164E-02  0.1312668E+00
        -11   -1    0    0    0    0  0.00000000000E+00  0.00000000000E+00  0.45593999997E+02  0.45594000000E+02  0.51100000000E-03 0.  1.
         11   -1    0    0    0    0 -0.00000000000E+00 -0.00000000000E+00 -0.45593999997E+02  0.45594000000E+02  0.51100000000E-03 0. -1.
    9900012    2    1    2    0    0  0.10507967483E+02  0.25738759868E+02 -0.33327491352E+02  0.47787276274E+02  0.20000023842E+02 0.  0.
        -12    1    1    2    0    0 -0.10507967483E+02 -0.25738759868E+02  0.33327491352E+02  0.43400723726E+02  0.00000000000E+00 0.  1.
         11    1    3    3    0    0  0.42482789576E+01  0.20454785656E+02 -0.18897759700E+02  0.28170400287E+02  0.51100000000E-03 0. -1.
        -11    1    3    3    0    0  0.75459367064E+00  0.16691915794E+01 -0.12667664969E+02  0.12799427650E+02  0.51100000000E-03 0.  1.
        -12    1    3    3    0    0  0.55050948546E+01  0.36147826326E+01 -0.17620666823E+01  0.68174483373E+01  0.00000000000E+00 0.  1.
</event>
<event>
 7    1  0.2935819E-010  0.4778727E+02  0.7816164E-02  0.1312668E+00
        -11   -1    0    0    0    0  0.00000000000E+00  0.00000000000E+00  0.45593999997E+02  0.45594000000E+02  0.51100000000E-03 0.  1.
         11   -1    0    0    0    0 -0.00000000000E+00 -0.00000000000E+00 -0.45593999997E+02  0.45594000000E+02  0.51100000000E-03 0. -1.
    9900012    2    1    2    0    0  0.20759251461E+02 -0.22645125024E+02  0.30657389217E+02  0.47787265879E+02  0.19999976450E+02 0.  0.
        -12    1    1    2    0    0 -0.20759251461E+02  0.22645125024E+02 -0.30657389217E+02  0.43400734121E+02  0.00000000000E+00 0.  1.
         11    1    3    3    0    0 -0.56558295647E-01 -0.24003035174E+01  0.28105529848E+01  0.36964664421E+01  0.51100000000E-03 0. -1.
        -11    1    3    3    0    0  0.38863588930E+01 -0.35231914642E+01 -0.22634152849E+01  0.57131175860E+01  0.51100000000E-03 0.  1.
        -12    1    3    3    0    0  0.16929450864E+02 -0.16721630043E+02  0.30110251517E+02  0.38377681851E+02  0.00000000000E+00 0.  1.
</event>
<event>
 7    1  0.2935819E-010  0.4778727E+02  0.7816164E-02  0.1312668E+00
        -11   -1    0    0    0    0  0.00000000000E+00  0.00000000000E+00  0.45593999997E+02  0.45594000000E+02  0.51100000000E-03 0. -1.
         11   -1    0    0    0    0 -0.00000000000E+00 -0.00000000000E+00 -0.45593999997E+02  0.45594000000E+02  0.51100000000E-03 0.  1.
    9900012    2    1    2    0    0  0.41083842582E+02  0.33971976208E+01 -0.13572033796E+02  0.47787272191E+02  0.20000005229E+02 0.  0.
        -12    1    1    2    0    0 -0.41083842582E+02 -0.33971976208E+01  0.13572033796E+02  0.43400727809E+02  0.00000000000E+00 0.  1.
         11    1    3    3    0    0  0.93627856730E+01  0.42467346346E+01 -0.10148274741E+02  0.14445898764E+02  0.51100000000E-03 0.  1.
        -11    1    3    3    0    0  0.12872860085E+02  0.69579597391E+00  0.32359506912E+01  0.13291577632E+02  0.51100000000E-03 0. -1.
         12    1    3    3    0    0  0.18848196824E+02 -0.15453329877E+01 -0.66597097462E+01  0.20049795796E+02  0.00000000000E+00 0. -1.
</event>
<event>
 7    1  0.2935819E-010  0.4778727E+02  0.7816164E-02  0.1312668E+00
        -11   -1    0    0    0    0  0.00000000000E+00  0.00000000000E+00  0.45593999997E+02  0.45594000000E+02  0.51100000000E-03 0.  1.
         11   -1    0    0    0    0 -0.00000000000E+00 -0.00000000000E+00 -0.45593999997E+02  0.45594000000E+02  0.51100000000E-03 0. -1.
    9900012    2    1    2    0    0  0.13650232318E+02  0.29713125897E+02 -0.28538132568E+02  0.47787266097E+02  0.19999977441E+02 0.  0.
        -12    1    1    2    0    0 -0.13650232318E+02 -0.29713125897E+02  0.28538132568E+02  0.43400733903E+02  0.00000000000E+00 0.  1.
         11    1    3    3    0    0 -0.24509107686E+01  0.83224596021E+01 -0.78526584941E+01  0.11701903397E+02  0.51100000000E-03 0. -1.
        -11    1    3    3    0    0  0.72476792223E+01  0.10392553393E+01 -0.42220156363E+01  0.84518827526E+01  0.51100000000E-03 0.  1.
        -12    1    3    3    0    0  0.88534638641E+01  0.20351410955E+02 -0.16463458438E+02  0.27633479947E+02  0.00000000000E+00 0.  1.
</event>
<event>
 7    1  0.2935819E-010  0.4778726E+02  0.7816164E-02  0.1312668E+00
        -11   -1    0    0    0    0  0.00000000000E+00  0.00000000000E+00  0.45593999997E+02  0.45594000000E+02  0.51100000000E-03 0.  1.
         11   -1    0    0    0    0 -0.00000000000E+00 -0.00000000000E+00 -0.45593999997E+02  0.45594000000E+02  0.51100000000E-03 0. -1.
    9900012    2    1    2    0    0 -0.70167971120E+01 -0.10112145926E+02 -0.41618907797E+02  0.47787257804E+02  0.19999939632E+02 0.  0.
        -12    1    1    2    0    0  0.70167971120E+01  0.10112145926E+02  0.41618907797E+02  0.43400742196E+02  0.00000000000E+00 0.  1.
         11    1    3    3    0    0  0.26573042292E+01 -0.11505233319E+02 -0.16003864084E+02  0.19888572733E+02  0.51100000000E-03 0. -1.
        -11    1    3    3    0    0 -0.70044094774E+01 -0.13962513444E+01 -0.15307872237E+02  0.16892075735E+02  0.51100000000E-03 0.  1.
         12    1    3    3    0    0 -0.26696918638E+01  0.27893387376E+01 -0.10307171476E+02  0.11006609336E+02  0.00000000000E+00 0. -1.
</event>
<event>
 7    1  0.2935819E-010  0.4778727E+02  0.7816164E-02  0.1312668E+00
        -11   -1    0    0    0    0  0.00000000000E+00  0.00000000000E+00  0.45593999997E+02  0.45594000000E+02  0.51100000000E-03 0.  1.
         11   -1    0    0    0    0 -0.00000000000E+00 -0.00000000000E+00 -0.45593999997E+02  0.45594000000E+02  0.51100000000E-03 0. -1.
    9900012    2    1    2    0    0  0.22529619647E+02  0.27356835920E+02 -0.25052808019E+02  0.47787269331E+02  0.19999992188E+02 0.  0.
        -12    1    1    2    0    0 -0.22529619647E+02 -0.27356835920E+02  0.25052808019E+02  0.43400730669E+02  0.00000000000E+00 0.  1.
         11    1    3    3    0    0  0.13477129987E+02  0.17767014812E+02 -0.20443478791E+02  0.30252862234E+02  0.51100000000E-03 0. -1.
        -11    1    3    3    0    0 -0.71497363080E+00  0.55291371923E+01  0.83546040289E+00  0.56374231463E+01  0.51100000000E-03 0.  1.
         12    1    3    3    0    0  0.97674632910E+01  0.40606839157E+01 -0.54447896310E+01  0.11896983951E+02  0.00000000000E+00 0. -1.
</event>
<event>
 7    1  0.2935819E-010  0.4778727E+02  0.7816164E-02  0.1312668E+00
        -11   -1    0    0    0    0  0.00000000000E+00  0.00000000000E+00  0.45593999997E+02  0.45594000000E+02  0.51100000000E-03 0.  1.
         11   -1    0    0    0    0 -0.00000000000E+00 -0.00000000000E+00 -0.45593999997E+02  0.45594000000E+02  0.51100000000E-03 0. -1.
    9900012    2    1    2    0    0  0.26903480663E+02 -0.21396208109E+02 -0.26495819904E+02  0.47787268836E+02  0.19999989930E+02 0.  0.
        -12    1    1    2    0    0 -0.26903480663E+02  0.21396208109E+02  0.26495819904E+02  0.43400731164E+02  0.00000000000E+00 0.  1.
         11    1    3    3    0    0  0.20731282068E+02 -0.23091780771E+02 -0.20800832686E+02  0.37358948541E+02  0.51100000000E-03 0. -1.
        -11    1    3    3    0    0  0.50209262770E+01  0.11589400218E+01 -0.69438851089E+01  0.86469869504E+01  0.51100000000E-03 0.  1.
         12    1    3    3    0    0  0.11512723176E+01  0.53663264055E+00  0.12488978918E+01  0.17813333445E+01  0.00000000000E+00 0. -1.
</event>
<event>
 7    1  0.2935819E-010  0.4778727E+02  0.7816164E-02  0.1312668E+00
        -11   -1    0    0    0    0  0.00000000000E+00  0.00000000000E+00  0.45593999997E+02  0.45594000000E+02  0.51100000000E-03 0. -1.
         11   -1    0    0    0    0 -0.00000000000E+00 -0.00000000000E+00 -0.45593999997E+02  0.45594000000E+02  0.51100000000E-03 0.  1.
    9900012    2    1    2    0    0  0.93099237747E-02 -0.42651151545E+02  0.80313311961E+01  0.47787273098E+02  0.20000009364E+02 0.  0.
        -12    1    1    2    0    0 -0.93099237747E-02  0.42651151545E+02 -0.80313311961E+01  0.43400726902E+02  0.00000000000E+00 0.  1.
         11    1    3    3    0    0  0.43523813041E+01 -0.17850723021E+02  0.60679875705E+01  0.19349728908E+02  0.51100000000E-03 0. -1.
        -11    1    3    3    0    0 -0.71903863989E+01 -0.23471615559E+02  0.37343283913E+01  0.24830698788E+02  0.51100000000E-03 0.  1.
        -12    1    3    3    0    0  0.28473150186E+01 -0.13288129650E+01 -0.17709847657E+01  0.36068454017E+01  0.00000000000E+00 0.  1.
</event>
<event>
 7    1  0.2935819E-010  0.4778727E+02  0.7816164E-02  0.1312668E+00
        -11   -1    0    0    0    0  0.00000000000E+00  0.00000000000E+00  0.45593999997E+02  0.45594000000E+02  0.51100000000E-03 0.  1.
         11   -1    0    0    0    0 -0.00000000000E+00 -0.00000000000E+00 -0.45593999997E+02  0.45594000000E+02  0.51100000000E-03 0. -1.
    9900012    2    1    2    0    0  0.24485968402E+02  0.11745171174E+02 -0.33854265204E+02  0.47787274580E+02  0.20000016122E+02 0.  0.
        -12    1    1    2    0    0 -0.24485968402E+02 -0.11745171174E+02  0.33854265204E+02  0.43400725420E+02  0.00000000000E+00 0.  1.
         11    1    3    3    0    0  0.20717506277E+02  0.94152283112E+01 -0.33659870861E+02  0.40630634959E+02  0.51100000000E-03 0. -1.
        -11    1    3    3    0    0  0.51341684091E+01  0.12734513082E+01  0.46098684514E+00  0.53097902614E+01  0.51100000000E-03 0.  1.
         12    1    3    3    0    0 -0.13657062842E+01  0.10564915544E+01 -0.65538118732E+00  0.18468493604E+01  0.00000000000E+00 0. -1.
</event>
<event>
 7    1  0.2935819E-010  0.4778726E+02  0.7816164E-02  0.1312668E+00
        -11   -1    0    0    0    0  0.00000000000E+00  0.00000000000E+00  0.45593999997E+02  0.45594000000E+02  0.51100000000E-03 0.  1.
         11   -1    0    0    0    0 -0.00000000000E+00 -0.00000000000E+00 -0.45593999997E+02  0.45594000000E+02  0.51100000000E-03 0. -1.
    9900012    2    1    2    0    0 -0.13448828815E+02  0.31917908396E+02 -0.26153394978E+02  0.47787263350E+02  0.19999964918E+02 0.  0.
        -12    1    1    2    0    0  0.13448828815E+02 -0.31917908396E+02  0.26153394978E+02  0.43400736650E+02  0.00000000000E+00 0.  1.
         11    1    3    3    0    0 -0.45233742172E+01  0.49384976900E+01 -0.39249316253E+01  0.77623941067E+01  0.51100000000E-03 0. -1.
        -11    1    3    3    0    0 -0.12823024214E+02  0.13121024934E+02 -0.15984671253E+02  0.24333124761E+02  0.51100000000E-03 0.  1.
        -12    1    3    3    0    0  0.38975696158E+01  0.13858385772E+02 -0.62437921000E+01  0.15691744483E+02  0.00000000000E+00 0.  1.
</event>
<event>
 7    1  0.2935819E-010  0.4778727E+02  0.7816164E-02  0.1312668E+00
        -11   -1    0    0    0    0  0.00000000000E+00  0.00000000000E+00  0.45593999997E+02  0.45594000000E+02  0.51100000000E-03 0.  1.
         11   -1    0    0    0    0 -0.00000000000E+00 -0.00000000000E+00 -0.45593999997E+02  0.45594000000E+02  0.51100000000E-03 0. -1.
    9900012    2    1    2    0    0  0.99056052236E+01 -0.36389214925E+02 -0.21478524115E+02  0.47787274478E+02  0.20000015656E+02 0.  0.
        -12    1    1    2    0    0 -0.99056052236E+01  0.36389214925E+02  0.21478524115E+02  0.43400725522E+02  0.00000000000E+00 0.  1.
         11    1    3    3    0    0  0.71832482349E+01 -0.87251443449E+01 -0.13711237240E+02  0.17768658530E+02  0.51100000000E-03 0. -1.
        -11    1    3    3    0    0  0.27127009075E+01 -0.27095501431E+01 -0.23037758735E+01  0.44730070119E+01  0.51100000000E-03 0.  1.
         12    1    3    3    0    0  0.96560812196E-02 -0.24954520437E+02 -0.54635110012E+01  0.25545608936E+02  0.00000000000E+00 0. -1.
</event>
<event>
 7    1  0.2935819E-010  0.4778727E+02  0.7816164E-02  0.1312668E+00
        -11   -1    0    0    0    0  0.00000000000E+00  0.00000000000E+00  0.45593999997E+02  0.45594000000E+02  0.51100000000E-03 0. -1.
         11   -1    0    0    0    0 -0.00000000000E+00 -0.00000000000E+00 -0.45593999997E+02  0.45594000000E+02  0.51100000000E-03 0.  1.
    9900012    2    1    2    0    0  0.30408718077E+02 -0.21628607858E+01  0.30891024132E+02  0.47787268741E+02  0.19999989497E+02 0.  0.
        -12    1    1    2    0    0 -0.30408718077E+02  0.21628607858E+01 -0.30891024132E+02  0.43400731259E+02  0.00000000000E+00 0.  1.
         11    1    3    3    0    0  0.12865210718E+02  0.60555986296E+01  0.55359934688E+01  0.15258805508E+02  0.51100000000E-03 0. -1.
        -11    1    3    3    0    0  0.24604262673E+01 -0.39531522132E+01  0.67584375603E+01  0.82071668897E+01  0.51100000000E-03 0.  1.
         12    1    3    3    0    0  0.15083081092E+02 -0.42653072021E+01  0.18596593103E+02  0.24321296343E+02  0.00000000000E+00 0. -1.
</event>
<event>
 7    1  0.2935819E-010  0.4778727E+02  0.7816164E-02  0.1312668E+00
        -11   -1    0    0    0    0  0.00000000000E+00  0.00000000000E+00  0.45593999997E+02  0.45594000000E+02  0.51100000000E-03 0.  1.
         11   -1    0    0    0    0 -0.00000000000E+00 -0.00000000000E+00 -0.45593999997E+02  0.45594000000E+02  0.51100000000E-03 0. -1.
    9900012    2    1    2    0    0  0.36055212013E+02 -0.22691118518E+02 -0.82920624920E+01  0.47787268748E+02  0.19999989528E+02 0.  0.
        -12    1    1    2    0    0 -0.36055212013E+02  0.22691118518E+02  0.82920624920E+01  0.43400731252E+02  0.00000000000E+00 0.  1.
         11    1    3    3    0    0  0.20275938464E+02 -0.14284580165E+02 -0.94000696911E+01  0.26524031020E+02  0.51100000000E-03 0. -1.
        -11    1    3    3    0    0  0.20003955129E+01 -0.50863820695E+01  0.40315223108E+01  0.67916152106E+01  0.51100000000E-03 0.  1.
        -12    1    3    3    0    0  0.13778878036E+02 -0.33201562830E+01 -0.29235151117E+01  0.14471622517E+02  0.00000000000E+00 0.  1.
</event>
<event>
 7    1  0.2935819E-010  0.4778728E+02  0.7816164E-02  0.1312668E+00
        -11   -1    0    0    0    0  0.00000000000E+00  0.00000000000E+00  0.45593999997E+02  0.45594000000E+02  0.51100000000E-03 0.  1.
         11   -1    0    0    0    0 -0.00000000000E+00 -0.00000000000E+00 -0.45593999997E+02  0.45594000000E+02  0.51100000000E-03 0. -1.
    9900012    2    1    2    0    0 -0.22477071075E+02  0.28592158084E+02 -0.23683172209E+02  0.47787275652E+02  0.20000021009E+02 0.  0.
        -12    1    1    2    0    0  0.22477071075E+02 -0.28592158084E+02  0.23683172209E+02  0.43400724348E+02  0.00000000000E+00 0.  1.
         11    1    3    3    0    0  0.15338933202E+00  0.14027830854E+01 -0.71250695080E+01  0.72634664195E+01  0.51100000000E-03 0. -1.
        -11    1    3    3    0    0 -0.10623431170E+02  0.19980077937E+02 -0.74762357960E+01  0.23831804509E+02  0.51100000000E-03 0.  1.
         12    1    3    3    0    0 -0.12007029237E+02  0.72092970611E+01 -0.90818669054E+01  0.16692004724E+02  0.00000000000E+00 0. -1.
</event>
<event>
 7    1  0.2935819E-010  0.4778727E+02  0.7816164E-02  0.1312668E+00
        -11   -1    0    0    0    0  0.00000000000E+00  0.00000000000E+00  0.45593999997E+02  0.45594000000E+02  0.51100000000E-03 0. -1.
         11   -1    0    0    0    0 -0.00000000000E+00 -0.00000000000E+00 -0.45593999997E+02  0.45594000000E+02  0.51100000000E-03 0.  1.
    9900012    2    1    2    0    0 -0.27503337671E+02 -0.31309021597E+02 -0.12121666479E+02  0.47787271727E+02  0.20000003113E+02 0.  0.
        -12    1    1    2    0    0  0.27503337671E+02  0.31309021597E+02  0.12121666479E+02  0.43400728273E+02  0.00000000000E+00 0.  1.
         11    1    3    3    0    0 -0.40520066874E+00 -0.11479676004E+02 -0.10603871799E+01  0.11535665129E+02  0.51100000000E-03 0.  1.
        -11    1    3    3    0    0 -0.17589562190E+02 -0.11344644695E+02 -0.29301773284E+01  0.21134795971E+02  0.51100000000E-03 0. -1.
         12    1    3    3    0    0 -0.95085748118E+01 -0.84847008980E+01 -0.81311019711E+01  0.15116810627E+02  0.00000000000E+00 0. -1.
</event>
<event>
 7    1  0.2935819E-010  0.4778727E+02  0.7816164E-02  0.1312668E+00
        -11   -1    0    0    0    0  0.00000000000E+00  0.00000000000E+00  0.45593999997E+02  0.45594000000E+02  0.51100000000E-03 0.  1.
         11   -1    0    0    0    0 -0.00000000000E+00 -0.00000000000E+00 -0.45593999997E+02  0.45594000000E+02  0.51100000000E-03 0. -1.
    9900012    2    1    2    0    0  0.37964119382E+02  0.60584187698E+01 -0.20140623325E+02  0.47787268366E+02  0.19999987787E+02 0.  0.
        -12    1    1    2    0    0 -0.37964119382E+02 -0.60584187698E+01  0.20140623325E+02  0.43400731634E+02  0.00000000000E+00 0.  1.
         11    1    3    3    0    0  0.29748009281E+02  0.10777104311E+02 -0.16961999548E+02  0.35899853237E+02  0.51100000000E-03 0. -1.
        -11    1    3    3    0    0  0.89992210636E+01 -0.47032664749E+01 -0.18153402060E+01  0.10315142055E+02  0.51100000000E-03 0.  1.
         12    1    3    3    0    0 -0.78311096187E+00 -0.15419065813E-01 -0.13632835706E+01  0.15722730743E+01  0.00000000000E+00 0. -1.
</event>
<event>
 7    1  0.2935819E-010  0.4778727E+02  0.7816164E-02  0.1312668E+00
        -11   -1    0    0    0    0  0.00000000000E+00  0.00000000000E+00  0.45593999997E+02  0.45594000000E+02  0.51100000000E-03 0. -1.
         11   -1    0    0    0    0 -0.00000000000E+00 -0.00000000000E+00 -0.45593999997E+02  0.45594000000E+02  0.51100000000E-03 0.  1.
    9900012    2    1    2    0    0 -0.24221176420E+02  0.32936708650E+02  0.14564712548E+02  0.47787274021E+02  0.20000013572E+02 0.  0.
        -12    1    1    2    0    0  0.24221176420E+02 -0.32936708650E+02 -0.14564712548E+02  0.43400725979E+02  0.00000000000E+00 0.  1.
         11    1    3    3    0    0 -0.17765755073E+02  0.12241439987E+02  0.71937120147E+01  0.22742567996E+02  0.51100000000E-03 0. -1.
        -11    1    3    3    0    0  0.67460845214E+00 -0.66216416051E+00  0.15045568123E+01  0.17768650488E+01  0.51100000000E-03 0.  1.
         12    1    3    3    0    0 -0.71300297997E+01  0.21357432824E+02  0.58664437214E+01  0.23267840976E+02  0.00000000000E+00 0. -1.
</event>
<event>
 7    1  0.2935819E-010  0.4778727E+02  0.7816164E-02  0.1312668E+00
        -11   -1    0    0    0    0  0.00000000000E+00  0.00000000000E+00  0.45593999997E+02  0.45594000000E+02  0.51100000000E-03 0.  1.
         11   -1    0    0    0    0 -0.00000000000E+00 -0.00000000000E+00 -0.45593999997E+02  0.45594000000E+02  0.51100000000E-03 0. -1.
    9900012    2    1    2    0    0  0.42576951312E+02  0.78186306709E+01 -0.31137698566E+01  0.47787270383E+02  0.19999996983E+02 0.  0.
        -12    1    1    2    0    0 -0.42576951312E+02 -0.78186306709E+01  0.31137698566E+01  0.43400729617E+02  0.00000000000E+00 0.  1.
         11    1    3    3    0    0  0.10306028827E+01 -0.19032454697E+01 -0.20663329424E+00  0.21742086374E+01  0.51100000000E-03 0. -1.
        -11    1    3    3    0    0  0.99291342124E+01  0.95865714188E+01 -0.22832785665E+01  0.13989403813E+02  0.51100000000E-03 0.  1.
        -12    1    3    3    0    0  0.31617214217E+02  0.13530472181E+00 -0.62385799589E+00  0.31623657932E+02  0.00000000000E+00 0.  1.
</event>
<event>
 7    1  0.2935819E-010  0.4778727E+02  0.7816164E-02  0.1312668E+00
        -11   -1    0    0    0    0  0.00000000000E+00  0.00000000000E+00  0.45593999997E+02  0.45594000000E+02  0.51100000000E-03 0. -1.
         11   -1    0    0    0    0 -0.00000000000E+00 -0.00000000000E+00 -0.45593999997E+02  0.45594000000E+02  0.51100000000E-03 0.  1.
    9900012    2    1    2    0    0  0.33162563897E+02 -0.27428385354E+02 -0.56170640619E+01  0.47787269867E+02  0.19999994633E+02 0.  0.
        -12    1    1    2    0    0 -0.33162563897E+02  0.27428385354E+02  0.56170640619E+01  0.43400730133E+02  0.00000000000E+00 0.  1.
         11    1    3    3    0    0  0.57157071519E+01 -0.22414209144E+01 -0.12870262932E+01  0.62729349512E+01  0.51100000000E-03 0. -1.
        -11    1    3    3    0    0  0.29753140114E+02 -0.22685014861E+02 -0.21568056971E+01  0.37476806921E+02  0.51100000000E-03 0.  1.
        -12    1    3    3    0    0 -0.23062833693E+01 -0.25019495791E+01 -0.21732320716E+01  0.40375279954E+01  0.00000000000E+00 0.  1.
</event>
<event>
 7    1  0.2935819E-010  0.4778727E+02  0.7816164E-02  0.1312668E+00
        -11   -1    0    0    0    0  0.00000000000E+00  0.00000000000E+00  0.45593999997E+02  0.45594000000E+02  0.51100000000E-03 0. -1.
         11   -1    0    0    0    0 -0.00000000000E+00 -0.00000000000E+00 -0.45593999997E+02  0.45594000000E+02  0.51100000000E-03 0.  1.
    9900012    2    1    2    0    0  0.25611947089E+00  0.10826867348E+02  0.42027805896E+02  0.47787272792E+02  0.20000007968E+02 0.  0.
        -12    1    1    2    0    0 -0.25611947089E+00 -0.10826867348E+02 -0.42027805896E+02  0.43400727208E+02  0.00000000000E+00 0.  1.
         11    1    3    3    0    0 -0.23609059320E+00  0.10073325650E+02  0.68059480703E+01  0.12159299232E+02  0.51100000000E-03 0. -1.
        -11    1    3    3    0    0 -0.83859578389E+00 -0.17054301982E+01  0.23522683609E+02  0.23599330064E+02  0.51100000000E-03 0.  1.
         12    1    3    3    0    0  0.13308058480E+01  0.24589718958E+01  0.11699174216E+02  0.12028643495E+02  0.00000000000E+00 0. -1.
</event>
<event>
 7    1  0.2935819E-010  0.4778727E+02  0.7816164E-02  0.1312668E+00
        -11   -1    0    0    0    0  0.00000000000E+00  0.00000000000E+00  0.45593999997E+02  0.45594000000E+02  0.51100000000E-03 0.  1.
         11   -1    0    0    0    0 -0.00000000000E+00 -0.00000000000E+00 -0.45593999997E+02  0.45594000000E+02  0.51100000000E-03 0. -1.
    9900012    2    1    2    0    0  0.18609971155E+02 -0.26703449342E+02 -0.28709201273E+02  0.47787268775E+02  0.19999989652E+02 0.  0.
        -12    1    1    2    0    0 -0.18609971155E+02  0.26703449342E+02  0.28709201273E+02  0.43400731225E+02  0.00000000000E+00 0.  1.
         11    1    3    3    0    0  0.11466980897E+02 -0.14684890310E+02 -0.78604125915E+01  0.20221862938E+02  0.51100000000E-03 0. -1.
        -11    1    3    3    0    0 -0.68585712541E+00 -0.13535024662E+01 -0.10917883711E+02  0.11022819690E+02  0.51100000000E-03 0.  1.
        -12    1    3    3    0    0  0.78288473831E+01 -0.10665056566E+02 -0.99309049708E+01  0.16542586147E+02  0.00000000000E+00 0.  1.
</event>
<event>
 7    1  0.2935819E-010  0.4778728E+02  0.7816164E-02  0.1312668E+00
        -11   -1    0    0    0    0  0.00000000000E+00  0.00000000000E+00  0.45593999997E+02  0.45594000000E+02  0.51100000000E-03 0. -1.
         11   -1    0    0    0    0 -0.00000000000E+00 -0.00000000000E+00 -0.45593999997E+02  0.45594000000E+02  0.51100000000E-03 0.  1.
    9900012    2    1    2    0    0 -0.18338038647E+02 -0.39200271431E+02 -0.32676236996E+01  0.47787282191E+02  0.20000050824E+02 0.  0.
        -12    1    1    2    0    0  0.18338038647E+02  0.39200271431E+02  0.32676236996E+01  0.43400717809E+02  0.00000000000E+00 0.  1.
         11    1    3    3    0    0  0.20309484218E+01 -0.73939369244E+01  0.37691212899E+01  0.85440815944E+01  0.51100000000E-03 0. -1.
        -11    1    3    3    0    0 -0.11581949907E+02 -0.12800001250E+02 -0.36239486743E+00  0.17265947004E+02  0.51100000000E-03 0.  1.
         12    1    3    3    0    0 -0.87870371618E+01 -0.19006333257E+02 -0.66743501220E+01  0.21977253593E+02  0.00000000000E+00 0. -1.
</event>
<event>
 7    1  0.2935819E-010  0.4778728E+02  0.7816164E-02  0.1312668E+00
        -11   -1    0    0    0    0  0.00000000000E+00  0.00000000000E+00  0.45593999997E+02  0.45594000000E+02  0.51100000000E-03 0.  1.
         11   -1    0    0    0    0 -0.00000000000E+00 -0.00000000000E+00 -0.45593999997E+02  0.45594000000E+02  0.51100000000E-03 0. -1.
    9900012    2    1    2    0    0 -0.27965730686E+02  0.31122971881E+02 -0.11528274894E+02  0.47787278882E+02  0.20000035737E+02 0.  0.
        -12    1    1    2    0    0  0.27965730686E+02 -0.31122971881E+02  0.11528274894E+02  0.43400721118E+02  0.00000000000E+00 0.  1.
         11    1    3    3    0    0 -0.91636239718E+01  0.73021801081E+01 -0.71111218044E+01  0.13706272002E+02  0.51100000000E-03 0. -1.
        -11    1    3    3    0    0 -0.19773941707E+02  0.25244980832E+02 -0.42726786706E+01  0.32350789961E+02  0.51100000000E-03 0.  1.
        -12    1    3    3    0    0  0.97183499277E+00 -0.14241890590E+01 -0.14447441899E+00  0.17302169190E+01  0.00000000000E+00 0.  1.
</event>
<event>
 7    1  0.2935819E-010  0.4778727E+02  0.7816164E-02  0.1312668E+00
        -11   -1    0    0    0    0  0.00000000000E+00  0.00000000000E+00  0.45593999997E+02  0.45594000000E+02  0.51100000000E-03 0. -1.
         11   -1    0    0    0    0 -0.00000000000E+00 -0.00000000000E+00 -0.45593999997E+02  0.45594000000E+02  0.51100000000E-03 0.  1.
    9900012    2    1    2    0    0 -0.18372918274E+02  0.50522923853E+01  0.38994018864E+02  0.47787270842E+02  0.19999999079E+02 0.  0.
        -12    1    1    2    0    0  0.18372918274E+02 -0.50522923853E+01 -0.38994018864E+02  0.43400729158E+02  0.00000000000E+00 0.  1.
         11    1    3    3    0    0 -0.15839100571E+02  0.57136495664E+01  0.31675699359E+02  0.35873009749E+02  0.51100000000E-03 0. -1.
        -11    1    3    3    0    0  0.26908069890E+01 -0.26429117059E+01  0.24019776495E+01  0.44715681172E+01  0.51100000000E-03 0.  1.
        -12    1    3    3    0    0 -0.52246246920E+01  0.19815545249E+01  0.49163418548E+01  0.74426929764E+01  0.00000000000E+00 0.  1.
</event>
<event>
 7    1  0.2935819E-010  0.4778726E+02  0.7816164E-02  0.1312668E+00
        -11   -1    0    0    0    0  0.00000000000E+00  0.00000000000E+00  0.45593999997E+02  0.45594000000E+02  0.51100000000E-03 0.  1.
         11   -1    0    0    0    0 -0.00000000000E+00 -0.00000000000E+00 -0.45593999997E+02  0.45594000000E+02  0.51100000000E-03 0. -1.
    9900012    2    1    2    0    0  0.31532650955E+02  0.29802941997E+02 -0.10492787992E+01  0.47787257910E+02  0.19999940117E+02 0.  0.
        -12    1    1    2    0    0 -0.31532650955E+02 -0.29802941997E+02  0.10492787992E+01  0.43400742090E+02  0.00000000000E+00 0.  1.
         11    1    3    3    0    0  0.27292958205E+02  0.22448078084E+02 -0.51209173540E+01  0.35707780273E+02  0.51100000000E-03 0. -1.
        -11    1    3    3    0    0  0.14453901446E+01  0.79276788379E+01  0.44445636421E+01  0.92027925466E+01  0.51100000000E-03 0.  1.
        -12    1    3    3    0    0  0.27943026059E+01 -0.57281492484E+00 -0.37292508717E+00  0.28766850909E+01  0.00000000000E+00 0.  1.
</event>
<event>
 7    1  0.2935819E-010  0.4778727E+02  0.7816164E-02  0.1312668E+00
        -11   -1    0    0    0    0  0.00000000000E+00  0.00000000000E+00  0.45593999997E+02  0.45594000000E+02  0.51100000000E-03 0. -1.
         11   -1    0    0    0    0 -0.00000000000E+00 -0.00000000000E+00 -0.45593999997E+02  0.45594000000E+02  0.51100000000E-03 0.  1.
    9900012    2    1    2    0    0  0.22408898442E+02 -0.28794304055E+02  0.23502176092E+02  0.47787274701E+02  0.20000016672E+02 0.  0.
        -12    1    1    2    0    0 -0.22408898442E+02  0.28794304055E+02 -0.23502176092E+02  0.43400725299E+02  0.00000000000E+00 0.  1.
         11    1    3    3    0    0  0.13964272661E+02 -0.64262523206E+01  0.68601010073E+01  0.16833259219E+02  0.51100000000E-03 0. -1.
        -11    1    3    3    0    0  0.64859420398E+01 -0.19756113627E+02  0.17918171163E+02  0.27448721789E+02  0.51100000000E-03 0.  1.
         12    1    3    3    0    0  0.19586837403E+01 -0.26119381074E+01 -0.12760960775E+01  0.35052936924E+01  0.00000000000E+00 0. -1.
</event>
<event>
 7    1  0.2935819E-010  0.4778728E+02  0.7816164E-02  0.1312668E+00
        -11   -1    0    0    0    0  0.00000000000E+00  0.00000000000E+00  0.45593999997E+02  0.45594000000E+02  0.51100000000E-03 0.  1.
         11   -1    0    0    0    0 -0.00000000000E+00 -0.00000000000E+00 -0.45593999997E+02  0.45594000000E+02  0.51100000000E-03 0. -1.
    9900012    2    1    2    0    0  0.26293906752E+02  0.27858929113E+01 -0.34416445036E+02  0.47787280875E+02  0.20000044823E+02 0.  0.
        -12    1    1    2    0    0 -0.26293906752E+02 -0.27858929113E+01  0.34416445036E+02  0.43400719125E+02  0.00000000000E+00 0.  1.
         11    1    3    3    0    0  0.82495020756E+01  0.31854999279E+01 -0.20020732532E+01  0.90669725850E+01  0.51100000000E-03 0.  1.
        -11    1    3    3    0    0  0.13270548841E+02 -0.25447941121E+01 -0.30107661851E+02  0.33000829475E+02  0.51100000000E-03 0. -1.
         12    1    3    3    0    0  0.47738558358E+01  0.21451870956E+01 -0.23067099318E+01  0.57194788158E+01  0.00000000000E+00 0. -1.
</event>
<event>
 7    1  0.2935819E-010  0.4778728E+02  0.7816164E-02  0.1312668E+00
        -11   -1    0    0    0    0  0.00000000000E+00  0.00000000000E+00  0.45593999997E+02  0.45594000000E+02  0.51100000000E-03 0.  1.
         11   -1    0    0    0    0 -0.00000000000E+00 -0.00000000000E+00 -0.45593999997E+02  0.45594000000E+02  0.51100000000E-03 0. -1.
    9900012    2    1    2    0    0 -0.10151323618E+02 -0.55515194947E+01 -0.41830058102E+02  0.47787279952E+02  0.20000040614E+02 0.  0.
        -12    1    1    2    0    0  0.10151323618E+02  0.55515194947E+01  0.41830058102E+02  0.43400720048E+02  0.00000000000E+00 0.  1.
         11    1    3    3    0    0 -0.28282957543E+01  0.70666658711E+00 -0.34100856169E+01  0.44863480377E+01  0.51100000000E-03 0. -1.
        -11    1    3    3    0    0 -0.10669864717E+02 -0.88849180248E+01 -0.19686244509E+02  0.24090164062E+02  0.51100000000E-03 0.  1.
        -12    1    3    3    0    0  0.33468368540E+01  0.26267319429E+01 -0.18733727976E+02  0.19210767853E+02  0.00000000000E+00 0.  1.
</event>
<event>
 7    1  0.2935819E-010  0.4778733E+02  0.7816164E-02  0.1312668E+00
        -11   -1    0    0    0    0  0.00000000000E+00  0.00000000000E+00  0.45593999997E+02  0.45594000000E+02  0.51100000000E-03 0.  1.
         11   -1    0    0    0    0 -0.00000000000E+00 -0.00000000000E+00 -0.45593999997E+02  0.45594000000E+02  0.51100000000E-03 0. -1.
    9900012    2    1    2    0    0 -0.28176644484E+02  0.29524144642E+02  0.14765505529E+02  0.47787325296E+02  0.20000247354E+02 0.  0.
        -12    1    1    2    0    0  0.28176644484E+02 -0.29524144642E+02 -0.14765505529E+02  0.43400674704E+02  0.00000000000E+00 0.  1.
         11    1    3    3    0    0 -0.23409742386E+02  0.26750304240E+02  0.13279512963E+02  0.37946545038E+02  0.51100000000E-03 0. -1.
        -11    1    3    3    0    0 -0.54723844748E+01  0.68418313883E+00 -0.18713210012E+01  0.58238252857E+01  0.51100000000E-03 0.  1.
         12    1    3    3    0    0  0.70548237710E+00  0.20896572628E+01  0.33573135669E+01  0.40169549720E+01  0.00000000000E+00 0. -1.
</event>
<event>
 7    1  0.2935819E-010  0.4778727E+02  0.7816164E-02  0.1312668E+00
        -11   -1    0    0    0    0  0.00000000000E+00  0.00000000000E+00  0.45593999997E+02  0.45594000000E+02  0.51100000000E-03 0.  1.
         11   -1    0    0    0    0 -0.00000000000E+00 -0.00000000000E+00 -0.45593999997E+02  0.45594000000E+02  0.51100000000E-03 0. -1.
    9900012    2    1    2    0    0  0.29700845240E+02 -0.20233442334E+02 -0.24332917685E+02  0.47787270977E+02  0.19999999693E+02 0.  0.
        -12    1    1    2    0    0 -0.29700845240E+02  0.20233442334E+02  0.24332917685E+02  0.43400729023E+02  0.00000000000E+00 0.  1.
         11    1    3    3    0    0  0.40816938524E+01 -0.13528076558E+02 -0.69777439456E+01  0.15759377871E+02  0.51100000000E-03 0.  1.
        -11    1    3    3    0    0  0.16312609873E+02 -0.39424505571E+01 -0.81780578098E+01  0.18668818577E+02  0.51100000000E-03 0. -1.
        -12    1    3    3    0    0  0.93065415151E+01 -0.27629152187E+01 -0.91771159297E+01  0.13359074529E+02  0.00000000000E+00 0.  1.
</event>
<event>
 7    1  0.2935819E-010  0.4778721E+02  0.7816164E-02  0.1312668E+00
        -11   -1    0    0    0    0  0.00000000000E+00  0.00000000000E+00  0.45593999997E+02  0.45594000000E+02  0.51100000000E-03 0.  1.
         11   -1    0    0    0    0 -0.00000000000E+00 -0.00000000000E+00 -0.45593999997E+02  0.45594000000E+02  0.51100000000E-03 0. -1.
    9900012    2    1    2    0    0 -0.70964239803E+01  0.86550487185E+01 -0.41932800784E+02  0.47787206422E+02  0.19999705357E+02 0.  0.
        -12    1    1    2    0    0  0.70964239803E+01 -0.86550487185E+01  0.41932800784E+02  0.43400793578E+02  0.00000000000E+00 0.  1.
         11    1    3    3    0    0 -0.14292062066E+01  0.37257292248E+01 -0.30392217692E+02  0.30653068119E+02  0.51100000000E-03 0. -1.
        -11    1    3    3    0    0 -0.50546726865E+01 -0.79962182943E+00 -0.11379645449E+01  0.52425255940E+01  0.51100000000E-03 0.  1.
         12    1    3    3    0    0 -0.61254508724E+00  0.57289413231E+01 -0.10402618547E+02  0.11891612708E+02  0.00000000000E+00 0. -1.
</event>
<event>
 7    1  0.2935819E-010  0.4778727E+02  0.7816164E-02  0.1312668E+00
        -11   -1    0    0    0    0  0.00000000000E+00  0.00000000000E+00  0.45593999997E+02  0.45594000000E+02  0.51100000000E-03 0. -1.
         11   -1    0    0    0    0 -0.00000000000E+00 -0.00000000000E+00 -0.45593999997E+02  0.45594000000E+02  0.51100000000E-03 0.  1.
    9900012    2    1    2    0    0  0.52987301073E+01  0.28132611013E+02  0.32620593710E+02  0.47787268702E+02  0.19999989322E+02 0.  0.
        -12    1    1    2    0    0 -0.52987301073E+01 -0.28132611013E+02 -0.32620593710E+02  0.43400731298E+02  0.00000000000E+00 0.  1.
         11    1    3    3    0    0  0.13680526567E+01  0.53028865697E+01  0.17624532909E+01  0.57531222745E+01  0.51100000000E-03 0. -1.
        -11    1    3    3    0    0  0.17449401712E+01  0.22418561055E+02  0.17504038855E+02  0.28496106269E+02  0.51100000000E-03 0.  1.
        -12    1    3    3    0    0  0.21857372793E+01  0.41116338916E+00  0.13354101564E+02  0.13538040159E+02  0.00000000000E+00 0.  1.
</event>
<event>
 7    1  0.2935819E-010  0.4778727E+02  0.7816164E-02  0.1312668E+00
        -11   -1    0    0    0    0  0.00000000000E+00  0.00000000000E+00  0.45593999997E+02  0.45594000000E+02  0.51100000000E-03 0. -1.
         11   -1    0    0    0    0 -0.00000000000E+00 -0.00000000000E+00 -0.45593999997E+02  0.45594000000E+02  0.51100000000E-03 0.  1.
    9900012    2    1    2    0    0  0.17115257399E+02  0.36658938155E+02  0.15710314930E+02  0.47787265240E+02  0.19999973536E+02 0.  0.
        -12    1    1    2    0    0 -0.17115257399E+02 -0.36658938155E+02 -0.15710314930E+02  0.43400734760E+02  0.00000000000E+00 0.  1.
         11    1    3    3    0    0  0.42327913901E+01  0.21684209045E+02  0.31751132220E+01  0.22320456740E+02  0.51100000000E-03 0. -1.
        -11    1    3    3    0    0  0.13492579049E+02  0.14545024738E+02  0.13681075167E+02  0.24099362066E+02  0.51100000000E-03 0.  1.
         12    1    3    3    0    0 -0.61011303983E+00  0.42970437275E+00 -0.11458734582E+01  0.13674464346E+01  0.00000000000E+00 0. -1.
</event>
<event>
 7    1  0.2935819E-010  0.4778727E+02  0.7816164E-02  0.1312668E+00
        -11   -1    0    0    0    0  0.00000000000E+00  0.00000000000E+00  0.45593999997E+02  0.45594000000E+02  0.51100000000E-03 0. -1.
         11   -1    0    0    0    0 -0.00000000000E+00 -0.00000000000E+00 -0.45593999997E+02  0.45594000000E+02  0.51100000000E-03 0.  1.
    9900012    2    1    2    0    0 -0.38567776454E+02 -0.19241841342E+02 -0.50893514740E+01  0.47787270314E+02  0.19999996670E+02 0.  0.
        -12    1    1    2    0    0  0.38567776454E+02  0.19241841342E+02  0.50893514740E+01  0.43400729686E+02  0.00000000000E+00 0.  1.
         11    1    3    3    0    0 -0.20394432988E+02 -0.18738075001E+02  0.38029374206E+00  0.27698248595E+02  0.51100000000E-03 0. -1.
        -11    1    3    3    0    0 -0.10020754545E+02  0.30762310661E+00 -0.63213752033E+01  0.11852001449E+02  0.51100000000E-03 0.  1.
         12    1    3    3    0    0 -0.81525889213E+01 -0.81138944751E+00  0.85172998724E+00  0.82370202699E+01  0.00000000000E+00 0. -1.
</event>
<event>
 7    1  0.2935819E-010  0.4778727E+02  0.7816164E-02  0.1312668E+00
        -11   -1    0    0    0    0  0.00000000000E+00  0.00000000000E+00  0.45593999997E+02  0.45594000000E+02  0.51100000000E-03 0. -1.
         11   -1    0    0    0    0 -0.00000000000E+00 -0.00000000000E+00 -0.45593999997E+02  0.45594000000E+02  0.51100000000E-03 0.  1.
    9900012    2    1    2    0    0  0.31757061661E+02 -0.30177592311E+01  0.29427971831E+02  0.47787270027E+02  0.19999995360E+02 0.  0.
        -12    1    1    2    0    0 -0.31757061661E+02  0.30177592311E+01 -0.29427971831E+02  0.43400729973E+02  0.00000000000E+00 0.  1.
         11    1    3    3    0    0  0.10164789237E+02 -0.22463114089E+01  0.16314861571E+02  0.19353128003E+02  0.51100000000E-03 0. -1.
        -11    1    3    3    0    0  0.11391563746E+02  0.37082419890E+01  0.10692759911E+01  0.12027557301E+02  0.51100000000E-03 0.  1.
        -12    1    3    3    0    0  0.10200708678E+02 -0.44796898112E+01  0.12043834269E+02  0.16406584722E+02  0.00000000000E+00 0.  1.
</event>
<event>
 7    1  0.2935819E-010  0.4778727E+02  0.7816164E-02  0.1312668E+00
        -11   -1    0    0    0    0  0.00000000000E+00  0.00000000000E+00  0.45593999997E+02  0.45594000000E+02  0.51100000000E-03 0. -1.
         11   -1    0    0    0    0 -0.00000000000E+00 -0.00000000000E+00 -0.45593999997E+02  0.45594000000E+02  0.51100000000E-03 0.  1.
    9900012    2    1    2    0    0  0.34327017430E+02  0.11894257574E+02  0.23744591272E+02  0.47787273006E+02  0.20000008945E+02 0.  0.
        -12    1    1    2    0    0 -0.34327017430E+02 -0.11894257574E+02 -0.23744591272E+02  0.43400726994E+02  0.00000000000E+00 0.  1.
         11    1    3    3    0    0  0.92013017214E+01 -0.17325844890E+01  0.10348319785E+02  0.13955412033E+02  0.51100000000E-03 0. -1.
        -11    1    3    3    0    0  0.89324085094E+01  0.99729814096E+01  0.16361688938E+01  0.13487969784E+02  0.51100000000E-03 0.  1.
         12    1    3    3    0    0  0.16193307200E+02  0.36538606531E+01  0.11760102593E+02  0.20343891190E+02  0.00000000000E+00 0. -1.
</event>
<event>
 7    1  0.2935819E-010  0.4778727E+02  0.7816164E-02  0.1312668E+00
        -11   -1    0    0    0    0  0.00000000000E+00  0.00000000000E+00  0.45593999997E+02  0.45594000000E+02  0.51100000000E-03 0. -1.
         11   -1    0    0    0    0 -0.00000000000E+00 -0.00000000000E+00 -0.45593999997E+02  0.45594000000E+02  0.51100000000E-03 0.  1.
    9900012    2    1    2    0    0  0.41493982073E+02  0.78378238636E+01  0.10022042486E+02  0.47787269975E+02  0.19999995122E+02 0.  0.
        -12    1    1    2    0    0 -0.41493982073E+02 -0.78378238636E+01 -0.10022042486E+02  0.43400730025E+02  0.00000000000E+00 0.  1.
         11    1    3    3    0    0  0.22634879089E+02  0.32069546941E+01  0.96549987385E+01  0.24816150199E+02  0.51100000000E-03 0. -1.
        -11    1    3    3    0    0  0.17106830610E+02  0.61189915386E+01 -0.34713763703E+01  0.18496923126E+02  0.51100000000E-03 0.  1.
        -12    1    3    3    0    0  0.17522723733E+01 -0.14881223692E+01  0.38384201180E+01  0.44741966494E+01  0.00000000000E+00 0.  1.
</event>
<event>
 7    1  0.2935819E-010  0.4778727E+02  0.7816164E-02  0.1312668E+00
        -11   -1    0    0    0    0  0.00000000000E+00  0.00000000000E+00  0.45593999997E+02  0.45594000000E+02  0.51100000000E-03 0.  1.
         11   -1    0    0    0    0 -0.00000000000E+00 -0.00000000000E+00 -0.45593999997E+02  0.45594000000E+02  0.51100000000E-03 0. -1.
    9900012    2    1    2    0    0  0.24502121408E+02 -0.33719944860E+02 -0.12092742800E+02  0.47787273470E+02  0.20000011059E+02 0.  0.
        -12    1    1    2    0    0 -0.24502121408E+02  0.33719944860E+02  0.12092742800E+02  0.43400726530E+02  0.00000000000E+00 0.  1.
         11    1    3    3    0    0  0.32182608727E+01  0.98853593250E+00 -0.39292616019E+01  0.51743118703E+01  0.51100000000E-03 0. -1.
        -11    1    3    3    0    0  0.89580472895E+01 -0.75860220684E+01 -0.46042830985E+01  0.12609272984E+02  0.51100000000E-03 0.  1.
         12    1    3    3    0    0  0.12325813246E+02 -0.27122458725E+02 -0.35591981001E+01  0.30003688616E+02  0.00000000000E+00 0. -1.
</event>
<event>
 7    1  0.2935819E-010  0.4778727E+02  0.7816164E-02  0.1312668E+00
        -11   -1    0    0    0    0  0.00000000000E+00  0.00000000000E+00  0.45593999997E+02  0.45594000000E+02  0.51100000000E-03 0. -1.
         11   -1    0    0    0    0 -0.00000000000E+00 -0.00000000000E+00 -0.45593999997E+02  0.45594000000E+02  0.51100000000E-03 0.  1.
    9900012    2    1    2    0    0  0.23162739198E+02  0.33982042696E+02 -0.13868370058E+02  0.47787269579E+02  0.19999993320E+02 0.  0.
        -12    1    1    2    0    0 -0.23162739198E+02 -0.33982042696E+02  0.13868370058E+02  0.43400730421E+02  0.00000000000E+00 0.  1.
         11    1    3    3    0    0  0.55852028158E+01  0.10347865312E+02 -0.57674270620E+01  0.13097176115E+02  0.51100000000E-03 0. -1.
        -11    1    3    3    0    0 -0.26052855821E+01  0.25381287531E+01 -0.36574880747E+01  0.51581808624E+01  0.51100000000E-03 0.  1.
        -12    1    3    3    0    0  0.20182821965E+02  0.21096048631E+02 -0.44434549213E+01  0.29531912602E+02  0.00000000000E+00 0.  1.
</event>
<event>
 7    1  0.2935819E-010  0.4778727E+02  0.7816164E-02  0.1312668E+00
        -11   -1    0    0    0    0  0.00000000000E+00  0.00000000000E+00  0.45593999997E+02  0.45594000000E+02  0.51100000000E-03 0. -1.
         11   -1    0    0    0    0 -0.00000000000E+00 -0.00000000000E+00 -0.45593999997E+02  0.45594000000E+02  0.51100000000E-03 0.  1.
    9900012    2    1    2    0    0  0.26895459697E+02  0.28555246612E+02 -0.18570286341E+02  0.47787269636E+02  0.19999993579E+02 0.  0.
        -12    1    1    2    0    0 -0.26895459697E+02 -0.28555246612E+02  0.18570286341E+02  0.43400730364E+02  0.00000000000E+00 0.  1.
         11    1    3    3    0    0  0.24578087209E+02  0.16242697905E+02 -0.11601700226E+02  0.31662391799E+02  0.51100000000E-03 0. -1.
        -11    1    3    3    0    0  0.25843681836E+01  0.77066133209E+01 -0.79917982494E+01  0.11399109058E+02  0.51100000000E-03 0.  1.
         12    1    3    3    0    0 -0.26699569549E+00  0.46059353862E+01  0.10232121349E+01  0.47257687793E+01  0.00000000000E+00 0. -1.
</event>
<event>
 7    1  0.2935819E-010  0.4778727E+02  0.7816164E-02  0.1312668E+00
        -11   -1    0    0    0    0  0.00000000000E+00  0.00000000000E+00  0.45593999997E+02  0.45594000000E+02  0.51100000000E-03 0. -1.
         11   -1    0    0    0    0 -0.00000000000E+00 -0.00000000000E+00 -0.45593999997E+02  0.45594000000E+02  0.51100000000E-03 0.  1.
    9900012    2    1    2    0    0  0.25544205366E+00 -0.33709914768E+02  0.27334952543E+02  0.47787271494E+02  0.20000002050E+02 0.  0.
        -12    1    1    2    0    0 -0.25544205366E+00  0.33709914768E+02 -0.27334952543E+02  0.43400728506E+02  0.00000000000E+00 0.  1.
         11    1    3    3    0    0  0.39051557972E+01  0.31866116944E+00  0.27483139378E+01  0.47859185642E+01  0.51100000000E-03 0. -1.
        -11    1    3    3    0    0 -0.65796723075E+00  0.30947238716E+00  0.13125648339E+00  0.73886572576E+00  0.51100000000E-03 0.  1.
         12    1    3    3    0    0 -0.29917465128E+01 -0.34338048325E+02  0.24455382122E+02  0.42262487204E+02  0.00000000000E+00 0. -1.
</event>
<event>
 7    1  0.2935819E-010  0.4778727E+02  0.7816164E-02  0.1312668E+00
        -11   -1    0    0    0    0  0.00000000000E+00  0.00000000000E+00  0.45593999997E+02  0.45594000000E+02  0.51100000000E-03 0. -1.
         11   -1    0    0    0    0 -0.00000000000E+00 -0.00000000000E+00 -0.45593999997E+02  0.45594000000E+02  0.51100000000E-03 0.  1.
    9900012    2    1    2    0    0 -0.13422141564E+02  0.18930544145E+02  0.36675659843E+02  0.47787269468E+02  0.19999992811E+02 0.  0.
        -12    1    1    2    0    0  0.13422141564E+02 -0.18930544145E+02 -0.36675659843E+02  0.43400730532E+02  0.00000000000E+00 0.  1.
         11    1    3    3    0    0 -0.11181870119E+02  0.96162060016E+01  0.17906408108E+02  0.23197954410E+02  0.51100000000E-03 0. -1.
        -11    1    3    3    0    0 -0.27408139997E+01 -0.26937172755E+01  0.51424845286E+01  0.64197602392E+01  0.51100000000E-03 0.  1.
        -12    1    3    3    0    0  0.50054255464E+00  0.12008055419E+02  0.13626767207E+02  0.18169554818E+02  0.00000000000E+00 0.  1.
</event>
<event>
 7    1  0.2935819E-010  0.4778727E+02  0.7816164E-02  0.1312668E+00
        -11   -1    0    0    0    0  0.00000000000E+00  0.00000000000E+00  0.45593999997E+02  0.45594000000E+02  0.51100000000E-03 0. -1.
         11   -1    0    0    0    0 -0.00000000000E+00 -0.00000000000E+00 -0.45593999997E+02  0.45594000000E+02  0.51100000000E-03 0.  1.
    9900012    2    1    2    0    0  0.25890051804E+02  0.11350636223E+02  0.32931623914E+02  0.47787267533E+02  0.19999983988E+02 0.  0.
        -12    1    1    2    0    0 -0.25890051804E+02 -0.11350636223E+02 -0.32931623914E+02  0.43400732467E+02  0.00000000000E+00 0.  1.
         11    1    3    3    0    0  0.13940929249E+02  0.53040062704E+01  0.16198228164E+02  0.22019640932E+02  0.51100000000E-03 0. -1.
        -11    1    3    3    0    0 -0.13310815165E+01 -0.27485622168E+01  0.54507435942E+01  0.62479579267E+01  0.51100000000E-03 0.  1.
        -12    1    3    3    0    0  0.13280204071E+02  0.87951921692E+01  0.11282652156E+02  0.19519668674E+02  0.00000000000E+00 0.  1.
</event>
<event>
 7    1  0.2935819E-010  0.4778729E+02  0.7816164E-02  0.1312668E+00
        -11   -1    0    0    0    0  0.00000000000E+00  0.00000000000E+00  0.45593999997E+02  0.45594000000E+02  0.51100000000E-03 0. -1.
         11   -1    0    0    0    0 -0.00000000000E+00 -0.00000000000E+00 -0.45593999997E+02  0.45594000000E+02  0.51100000000E-03 0.  1.
    9900012    2    1    2    0    0 -0.12354818426E+02 -0.34298738359E+02  0.23549444383E+02  0.47787293529E+02  0.20000102518E+02 0.  0.
        -12    1    1    2    0    0  0.12354818426E+02  0.34298738359E+02 -0.23549444383E+02  0.43400706471E+02  0.00000000000E+00 0.  1.
         11    1    3    3    0    0 -0.80759347771E+01 -0.19555032794E+02  0.21414598769E+02  0.30103240204E+02  0.51100000000E-03 0. -1.
        -11    1    3    3    0    0  0.60073083366E+00 -0.60828587012E+01 -0.26372303375E+01  0.66571038469E+01  0.51100000000E-03 0.  1.
        -12    1    3    3    0    0 -0.48796144827E+01 -0.86608468644E+01  0.47720759515E+01  0.11026949478E+02  0.00000000000E+00 0.  1.
</event>
<event>
 7    1  0.2935819E-010  0.4778727E+02  0.7816164E-02  0.1312668E+00
        -11   -1    0    0    0    0  0.00000000000E+00  0.00000000000E+00  0.45593999997E+02  0.45594000000E+02  0.51100000000E-03 0.  1.
         11   -1    0    0    0    0 -0.00000000000E+00 -0.00000000000E+00 -0.45593999997E+02  0.45594000000E+02  0.51100000000E-03 0. -1.
    9900012    2    1    2    0    0 -0.22830071767E+02 -0.32233471391E+02 -0.17983718662E+02  0.47787274294E+02  0.20000014818E+02 0.  0.
        -12    1    1    2    0    0  0.22830071767E+02  0.32233471391E+02  0.17983718662E+02  0.43400725706E+02  0.00000000000E+00 0.  1.
         11    1    3    3    0    0 -0.12157785546E+02 -0.16275779461E+02 -0.13771856032E+02  0.24543364995E+02  0.51100000000E-03 0. -1.
        -11    1    3    3    0    0  0.18130147976E+01 -0.72689698348E+01 -0.12219479051E+00  0.74926548661E+01  0.51100000000E-03 0.  1.
        -12    1    3    3    0    0 -0.12485301019E+02 -0.86887220955E+01 -0.40896678402E+01  0.15751254433E+02  0.00000000000E+00 0.  1.
</event>
<event>
 7    1  0.2935819E-010  0.4778727E+02  0.7816164E-02  0.1312668E+00
        -11   -1    0    0    0    0  0.00000000000E+00  0.00000000000E+00  0.45593999997E+02  0.45594000000E+02  0.51100000000E-03 0.  1.
         11   -1    0    0    0    0 -0.00000000000E+00 -0.00000000000E+00 -0.45593999997E+02  0.45594000000E+02  0.51100000000E-03 0. -1.
    9900012    2    1    2    0    0 -0.29239643267E+02  0.15918194126E+02 -0.27843802900E+02  0.47787274170E+02  0.20000014251E+02 0.  0.
        -12    1    1    2    0    0  0.29239643267E+02 -0.15918194126E+02  0.27843802900E+02  0.43400725830E+02  0.00000000000E+00 0.  1.
         11    1    3    3    0    0 -0.10851719596E+02  0.81068497592E+01 -0.17730147649E+02  0.22312305285E+02  0.51100000000E-03 0. -1.
        -11    1    3    3    0    0 -0.20060485402E+01  0.56658369982E+01  0.17230352520E+00  0.60129550474E+01  0.51100000000E-03 0.  1.
        -12    1    3    3    0    0 -0.16381875132E+02  0.21455073688E+01 -0.10285958776E+02  0.19462013838E+02  0.00000000000E+00 0.  1.
</event>
<event>
 7    1  0.2935819E-010  0.4778727E+02  0.7816164E-02  0.1312668E+00
        -11   -1    0    0    0    0  0.00000000000E+00  0.00000000000E+00  0.45593999997E+02  0.45594000000E+02  0.51100000000E-03 0.  1.
         11   -1    0    0    0    0 -0.00000000000E+00 -0.00000000000E+00 -0.45593999997E+02  0.45594000000E+02  0.51100000000E-03 0. -1.
    9900012    2    1    2    0    0  0.22475945646E+02 -0.25689520859E+02 -0.26804918397E+02  0.47787271148E+02  0.20000000470E+02 0.  0.
        -12    1    1    2    0    0 -0.22475945646E+02  0.25689520859E+02  0.26804918397E+02  0.43400728852E+02  0.00000000000E+00 0.  1.
         11    1    3    3    0    0  0.57682114901E+01 -0.17494142492E+02 -0.21692871869E+02  0.28458706498E+02  0.51100000000E-03 0. -1.
        -11    1    3    3    0    0  0.10079051777E+02 -0.53164476222E+01 -0.35427429588E+01  0.11933269794E+02  0.51100000000E-03 0.  1.
         12    1    3    3    0    0  0.66286823783E+01 -0.28789307450E+01 -0.15693035686E+01  0.73952948553E+01  0.00000000000E+00 0. -1.
</event>
<event>
 7    1  0.2935819E-010  0.4778727E+02  0.7816164E-02  0.1312668E+00
        -11   -1    0    0    0    0  0.00000000000E+00  0.00000000000E+00  0.45593999997E+02  0.45594000000E+02  0.51100000000E-03 0. -1.
         11   -1    0    0    0    0 -0.00000000000E+00 -0.00000000000E+00 -0.45593999997E+02  0.45594000000E+02  0.51100000000E-03 0.  1.
    9900012    2    1    2    0    0  0.31923933782E+01 -0.23342491305E+02  0.36449417432E+02  0.47787270664E+02  0.19999998265E+02 0.  0.
        -12    1    1    2    0    0 -0.31923933782E+01  0.23342491305E+02 -0.36449417432E+02  0.43400729336E+02  0.00000000000E+00 0.  1.
         11    1    3    3    0    0 -0.40306891862E+01 -0.37553835396E+01  0.11080945016E+01  0.56193624666E+01  0.51100000000E-03 0. -1.
        -11    1    3    3    0    0 -0.17224758535E+01 -0.67534754379E+01  0.75425750154E+01  0.10269702609E+02  0.51100000000E-03 0.  1.
         12    1    3    3    0    0  0.89455584179E+01 -0.12833632327E+02  0.27798747915E+02  0.31898205588E+02  0.00000000000E+00 0. -1.
</event>
<event>
 7    1  0.2935819E-010  0.4778727E+02  0.7816164E-02  0.1312668E+00
        -11   -1    0    0    0    0  0.00000000000E+00  0.00000000000E+00  0.45593999997E+02  0.45594000000E+02  0.51100000000E-03 0.  1.
         11   -1    0    0    0    0 -0.00000000000E+00 -0.00000000000E+00 -0.45593999997E+02  0.45594000000E+02  0.51100000000E-03 0. -1.
    9900012    2    1    2    0    0  0.93763382830E+01  0.49125744805E+01 -0.42090072108E+02  0.47787271000E+02  0.19999999799E+02 0.  0.
        -12    1    1    2    0    0 -0.93763382830E+01 -0.49125744805E+01  0.42090072108E+02  0.43400729000E+02  0.00000000000E+00 0.  1.
         11    1    3    3    0    0 -0.31237567625E+01  0.22812743112E+01 -0.95525961318E+01  0.10306025515E+02  0.51100000000E-03 0. -1.
        -11    1    3    3    0    0  0.13018484344E+02  0.64323398784E+01 -0.27984456629E+02  0.31527539454E+02  0.51100000000E-03 0.  1.
        -12    1    3    3    0    0 -0.51838929846E+00 -0.38010397091E+01 -0.45530193473E+01  0.59537060317E+01  0.00000000000E+00 0.  1.
</event>
<event>
 7    1  0.2935819E-010  0.4778726E+02  0.7816164E-02  0.1312668E+00
        -11   -1    0    0    0    0  0.00000000000E+00  0.00000000000E+00  0.45593999997E+02  0.45594000000E+02  0.51100000000E-03 0.  1.
         11   -1    0    0    0    0 -0.00000000000E+00 -0.00000000000E+00 -0.45593999997E+02  0.45594000000E+02  0.51100000000E-03 0. -1.
    9900012    2    1    2    0    0 -0.29084495082E+02 -0.29155218367E+02 -0.13699978346E+02  0.47787262462E+02  0.19999960868E+02 0.  0.
        -12    1    1    2    0    0  0.29084495082E+02  0.29155218367E+02  0.13699978346E+02  0.43400737538E+02  0.00000000000E+00 0.  1.
         11    1    3    3    0    0 -0.11696463466E+02 -0.19162160551E+02 -0.12123979708E+02  0.25514437850E+02  0.51100000000E-03 0. -1.
        -11    1    3    3    0    0 -0.16018747052E+02 -0.95394983542E+01 -0.43512288580E+01  0.19145116317E+02  0.51100000000E-03 0.  1.
         12    1    3    3    0    0 -0.13692845641E+01 -0.45355946137E+00  0.27752302196E+01  0.31277082943E+01  0.00000000000E+00 0. -1.
</event>
<event>
 7    1  0.2935819E-010  0.4778729E+02  0.7816164E-02  0.1312668E+00
        -11   -1    0    0    0    0  0.00000000000E+00  0.00000000000E+00  0.45593999997E+02  0.45594000000E+02  0.51100000000E-03 0.  1.
         11   -1    0    0    0    0 -0.00000000000E+00 -0.00000000000E+00 -0.45593999997E+02  0.45594000000E+02  0.51100000000E-03 0. -1.
    9900012    2    1    2    0    0  0.35209238344E+02 -0.22175397293E+02 -0.12336240573E+02  0.47787291004E+02  0.20000091005E+02 0.  0.
        -12    1    1    2    0    0 -0.35209238344E+02  0.22175397293E+02  0.12336240573E+02  0.43400708996E+02  0.00000000000E+00 0.  1.
         11    1    3    3    0    0  0.14490541724E+02 -0.36486102532E+01 -0.10541517611E+02  0.18286928393E+02  0.51100000000E-03 0. -1.
        -11    1    3    3    0    0  0.48678341308E+01 -0.79654286974E+00 -0.28456650343E+01  0.56945675356E+01  0.51100000000E-03 0.  1.
         12    1    3    3    0    0  0.15850862489E+02 -0.17730244170E+02  0.10509420721E+01  0.23805795076E+02  0.00000000000E+00 0. -1.
</event>
<event>
 7    1  0.2935819E-010  0.4778727E+02  0.7816164E-02  0.1312668E+00
        -11   -1    0    0    0    0  0.00000000000E+00  0.00000000000E+00  0.45593999997E+02  0.45594000000E+02  0.51100000000E-03 0.  1.
         11   -1    0    0    0    0 -0.00000000000E+00 -0.00000000000E+00 -0.45593999997E+02  0.45594000000E+02  0.51100000000E-03 0. -1.
    9900012    2    1    2    0    0 -0.11154509178E+02  0.26490626477E+02 -0.32518409801E+02  0.47787270258E+02  0.19999996416E+02 0.  0.
        -12    1    1    2    0    0  0.11154509178E+02 -0.26490626477E+02  0.32518409801E+02  0.43400729742E+02  0.00000000000E+00 0.  1.
         11    1    3    3    0    0 -0.25248202969E+01  0.13673651853E+02 -0.25910802613E+02  0.29406005591E+02  0.51100000000E-03 0. -1.
        -11    1    3    3    0    0 -0.10262801957E+01  0.25877328347E+01  0.16103612219E+01  0.32160341711E+01  0.51100000000E-03 0.  1.
         12    1    3    3    0    0 -0.76034086851E+01  0.10229241789E+02 -0.82179684098E+01  0.15165230496E+02  0.00000000000E+00 0. -1.
</event>
<event>
 7    1  0.2935819E-010  0.4778727E+02  0.7816164E-02  0.1312668E+00
        -11   -1    0    0    0    0  0.00000000000E+00  0.00000000000E+00  0.45593999997E+02  0.45594000000E+02  0.51100000000E-03 0.  1.
         11   -1    0    0    0    0 -0.00000000000E+00 -0.00000000000E+00 -0.45593999997E+02  0.45594000000E+02  0.51100000000E-03 0. -1.
    9900012    2    1    2    0    0 -0.39843172301E+02 -0.37732847234E+01 -0.16790092297E+02  0.47787271251E+02  0.20000000940E+02 0.  0.
        -12    1    1    2    0    0  0.39843172301E+02  0.37732847234E+01  0.16790092297E+02  0.43400728749E+02  0.00000000000E+00 0.  1.
         11    1    3    3    0    0 -0.12033519083E+02 -0.91454628120E+01 -0.62952534044E+01  0.16373004833E+02  0.51100000000E-03 0.  1.
        -11    1    3    3    0    0 -0.14641378747E+02  0.64440160650E+01 -0.82985549623E+01  0.18021135629E+02  0.51100000000E-03 0. -1.
        -12    1    3    3    0    0 -0.13168274472E+02 -0.10718379764E+01 -0.21962839306E+01  0.13393130789E+02  0.00000000000E+00 0.  1.
</event>
<event>
 7    1  0.2935819E-010  0.4778728E+02  0.7816164E-02  0.1312668E+00
        -11   -1    0    0    0    0  0.00000000000E+00  0.00000000000E+00  0.45593999997E+02  0.45594000000E+02  0.51100000000E-03 0.  1.
         11   -1    0    0    0    0 -0.00000000000E+00 -0.00000000000E+00 -0.45593999997E+02  0.45594000000E+02  0.51100000000E-03 0. -1.
    9900012    2    1    2    0    0  0.40670475183E+02 -0.13394411431E+02 -0.70799047381E+01  0.47787275809E+02  0.20000021725E+02 0.  0.
        -12    1    1    2    0    0 -0.40670475183E+02  0.13394411431E+02  0.70799047381E+01  0.43400724191E+02  0.00000000000E+00 0.  1.
         11    1    3    3    0    0  0.99468011221E+01 -0.82915820928E+00 -0.10062796692E+02  0.14173434073E+02  0.51100000000E-03 0. -1.
        -11    1    3    3    0    0  0.17605393555E+02 -0.52538586480E+01  0.28687152279E+01  0.18595226276E+02  0.51100000000E-03 0.  1.
         12    1    3    3    0    0  0.13118280506E+02 -0.73113945733E+01  0.11417672582E+00  0.15018615461E+02  0.00000000000E+00 0. -1.
</event>
<event>
 7    1  0.2935819E-010  0.4778727E+02  0.7816164E-02  0.1312668E+00
        -11   -1    0    0    0    0  0.00000000000E+00  0.00000000000E+00  0.45593999997E+02  0.45594000000E+02  0.51100000000E-03 0.  1.
         11   -1    0    0    0    0 -0.00000000000E+00 -0.00000000000E+00 -0.45593999997E+02  0.45594000000E+02  0.51100000000E-03 0. -1.
    9900012    2    1    2    0    0 -0.11679388324E+02  0.37864700304E+02 -0.17705352388E+02  0.47787272542E+02  0.20000006827E+02 0.  0.
        -12    1    1    2    0    0  0.11679388324E+02 -0.37864700304E+02  0.17705352388E+02  0.43400727458E+02  0.00000000000E+00 0.  1.
         11    1    3    3    0    0 -0.17974116243E+01  0.19104025287E+02 -0.49847102541E+00  0.19194867656E+02  0.51100000000E-03 0. -1.
        -11    1    3    3    0    0 -0.49689968554E+01  0.15888152264E+02 -0.15244309784E+02  0.22572401138E+02  0.51100000000E-03 0.  1.
        -12    1    3    3    0    0 -0.49129798442E+01  0.28725227536E+01 -0.19625715786E+01  0.60200037476E+01  0.00000000000E+00 0.  1.
</event>
<event>
 7    1  0.2935819E-010  0.4778728E+02  0.7816164E-02  0.1312668E+00
        -11   -1    0    0    0    0  0.00000000000E+00  0.00000000000E+00  0.45593999997E+02  0.45594000000E+02  0.51100000000E-03 0.  1.
         11   -1    0    0    0    0 -0.00000000000E+00 -0.00000000000E+00 -0.45593999997E+02  0.45594000000E+02  0.51100000000E-03 0. -1.
    9900012    2    1    2    0    0 -0.13048498407E+02  0.20646956699E+02 -0.35875655429E+02  0.47787276688E+02  0.20000025730E+02 0.  0.
        -12    1    1    2    0    0  0.13048498407E+02 -0.20646956699E+02  0.35875655429E+02  0.43400723312E+02  0.00000000000E+00 0.  1.
         11    1    3    3    0    0  0.12763155064E+01  0.13731307603E+02 -0.20621784499E+02  0.24807978272E+02  0.51100000000E-03 0. -1.
        -11    1    3    3    0    0 -0.31952903259E+01 -0.92770625157E+00 -0.15823062407E+01  0.36843198092E+01  0.51100000000E-03 0.  1.
         12    1    3    3    0    0 -0.11129523587E+02  0.78433553476E+01 -0.13671564689E+02  0.19294978607E+02  0.00000000000E+00 0. -1.
</event>
<event>
 7    1  0.2935819E-010  0.4778727E+02  0.7816164E-02  0.1312668E+00
        -11   -1    0    0    0    0  0.00000000000E+00  0.00000000000E+00  0.45593999997E+02  0.45594000000E+02  0.51100000000E-03 0. -1.
         11   -1    0    0    0    0 -0.00000000000E+00 -0.00000000000E+00 -0.45593999997E+02  0.45594000000E+02  0.51100000000E-03 0.  1.
    9900012    2    1    2    0    0 -0.26179525723E+02 -0.34447047979E+02  0.34141471274E+01  0.47787273253E+02  0.20000010069E+02 0.  0.
        -12    1    1    2    0    0  0.26179525723E+02  0.34447047979E+02 -0.34141471274E+01  0.43400726747E+02  0.00000000000E+00 0.  1.
         11    1    3    3    0    0  0.54908210250E+00 -0.43027400646E+01 -0.49615600333E+01  0.65903066275E+01  0.51100000000E-03 0. -1.
        -11    1    3    3    0    0 -0.20429084578E+02 -0.21803856001E+02  0.64999715039E+01  0.30577855762E+02  0.51100000000E-03 0.  1.
         12    1    3    3    0    0 -0.62995232480E+01 -0.83404519140E+01  0.18757356568E+01  0.10619110864E+02  0.00000000000E+00 0. -1.
</event>
<event>
 7    1  0.2935819E-010  0.4778728E+02  0.7816164E-02  0.1312668E+00
        -11   -1    0    0    0    0  0.00000000000E+00  0.00000000000E+00  0.45593999997E+02  0.45594000000E+02  0.51100000000E-03 0. -1.
         11   -1    0    0    0    0 -0.00000000000E+00 -0.00000000000E+00 -0.45593999997E+02  0.45594000000E+02  0.51100000000E-03 0.  1.
    9900012    2    1    2    0    0  0.38274046244E+02  0.78367288751E+01  0.18902525401E+02  0.47787281091E+02  0.20000045805E+02 0.  0.
        -12    1    1    2    0    0 -0.38274046244E+02 -0.78367288751E+01 -0.18902525401E+02  0.43400718909E+02  0.00000000000E+00 0.  1.
         11    1    3    3    0    0  0.28171120119E+01 -0.31027526580E+01  0.23923494582E+01  0.48256119130E+01  0.51100000000E-03 0. -1.
        -11    1    3    3    0    0  0.19224401517E+02  0.13084588297E+02  0.10563673399E+02  0.25541637780E+02  0.51100000000E-03 0.  1.
        -12    1    3    3    0    0  0.16232532715E+02 -0.21451067638E+01  0.59465025439E+01  0.17420031397E+02  0.00000000000E+00 0.  1.
</event>
<event>
 7    1  0.2935819E-010  0.4778726E+02  0.7816164E-02  0.1312668E+00
        -11   -1    0    0    0    0  0.00000000000E+00  0.00000000000E+00  0.45593999997E+02  0.45594000000E+02  0.51100000000E-03 0. -1.
         11   -1    0    0    0    0 -0.00000000000E+00 -0.00000000000E+00 -0.45593999997E+02  0.45594000000E+02  0.51100000000E-03 0.  1.
    9900012    2    1    2    0    0 -0.59406545593E+01 -0.25278042870E+02  0.34775757115E+02  0.47787261402E+02  0.19999956037E+02 0.  0.
        -12    1    1    2    0    0  0.59406545593E+01  0.25278042870E+02 -0.34775757115E+02  0.43400738598E+02  0.00000000000E+00 0.  1.
         11    1    3    3    0    0 -0.80049284685E+01 -0.19724055288E+02  0.17547197689E+02  0.27586616026E+02  0.51100000000E-03 0. -1.
        -11    1    3    3    0    0  0.50426559320E+01 -0.47821042145E+01  0.87055025421E+01  0.11139240294E+02  0.51100000000E-03 0.  1.
        -12    1    3    3    0    0 -0.29783820228E+01 -0.77188336744E+00  0.85230568838E+01  0.90614050815E+01  0.00000000000E+00 0.  1.
</event>
<event>
 7    1  0.2935819E-010  0.4778726E+02  0.7816164E-02  0.1312668E+00
        -11   -1    0    0    0    0  0.00000000000E+00  0.00000000000E+00  0.45593999997E+02  0.45594000000E+02  0.51100000000E-03 0.  1.
         11   -1    0    0    0    0 -0.00000000000E+00 -0.00000000000E+00 -0.45593999997E+02  0.45594000000E+02  0.51100000000E-03 0. -1.
    9900012    2    1    2    0    0 -0.35520991088E+02 -0.21907849603E+02 -0.11913416822E+02  0.47787260577E+02  0.19999952275E+02 0.  0.
        -12    1    1    2    0    0  0.35520991088E+02  0.21907849603E+02  0.11913416822E+02  0.43400739423E+02  0.00000000000E+00 0.  1.
         11    1    3    3    0    0 -0.21619179151E+02 -0.17880623534E+02 -0.12333274887E+02  0.30646619305E+02  0.51100000000E-03 0. -1.
        -11    1    3    3    0    0 -0.59359024996E+00 -0.18869883584E+01  0.28247980666E+01  0.34485589494E+01  0.51100000000E-03 0.  1.
         12    1    3    3    0    0 -0.13308221687E+02 -0.21402377103E+01 -0.24049400022E+01  0.13692082323E+02  0.00000000000E+00 0. -1.
</event>
<event>
 7    1  0.2935819E-010  0.4778726E+02  0.7816164E-02  0.1312668E+00
        -11   -1    0    0    0    0  0.00000000000E+00  0.00000000000E+00  0.45593999997E+02  0.45594000000E+02  0.51100000000E-03 0. -1.
         11   -1    0    0    0    0 -0.00000000000E+00 -0.00000000000E+00 -0.45593999997E+02  0.45594000000E+02  0.51100000000E-03 0.  1.
    9900012    2    1    2    0    0 -0.41178747874E+02 -0.54466972238E+01  0.12580471159E+02  0.47787262198E+02  0.19999959667E+02 0.  0.
        -12    1    1    2    0    0  0.41178747874E+02  0.54466972238E+01 -0.12580471159E+02  0.43400737802E+02  0.00000000000E+00 0.  1.
         11    1    3    3    0    0 -0.21188517394E+02 -0.14306554747E+01  0.16480067948E+02  0.26881084134E+02  0.51100000000E-03 0. -1.
        -11    1    3    3    0    0 -0.78419451899E+01 -0.27342914191E+01 -0.11424531502E+01  0.83831768075E+01  0.51100000000E-03 0.  1.
         12    1    3    3    0    0 -0.12148285291E+02 -0.12817503300E+01 -0.27571436387E+01  0.12523001256E+02  0.00000000000E+00 0. -1.
</event>
<event>
 7    1  0.2935819E-010  0.4778727E+02  0.7816164E-02  0.1312668E+00
        -11   -1    0    0    0    0  0.00000000000E+00  0.00000000000E+00  0.45593999997E+02  0.45594000000E+02  0.51100000000E-03 0. -1.
         11   -1    0    0    0    0 -0.00000000000E+00 -0.00000000000E+00 -0.45593999997E+02  0.45594000000E+02  0.51100000000E-03 0.  1.
    9900012    2    1    2    0    0  0.36167896127E+02  0.11334768326E+02  0.21143075050E+02  0.47787270676E+02  0.19999998322E+02 0.  0.
        -12    1    1    2    0    0 -0.36167896127E+02 -0.11334768326E+02 -0.21143075050E+02  0.43400729324E+02  0.00000000000E+00 0.  1.
         11    1    3    3    0    0  0.10432150273E+02 -0.39380164658E+01  0.87064241821E+01  0.14147068788E+02  0.51100000000E-03 0.  1.
        -11    1    3    3    0    0  0.25760016091E+02  0.14402001464E+02  0.10176358583E+02  0.31217853057E+02  0.51100000000E-03 0. -1.
        -12    1    3    3    0    0 -0.24270237114E-01  0.87078332780E+00  0.22602922849E+01  0.24223488316E+01  0.00000000000E+00 0.  1.
</event>
<event>
 7    1  0.2935819E-010  0.4778727E+02  0.7816164E-02  0.1312668E+00
        -11   -1    0    0    0    0  0.00000000000E+00  0.00000000000E+00  0.45593999997E+02  0.45594000000E+02  0.51100000000E-03 0. -1.
         11   -1    0    0    0    0 -0.00000000000E+00 -0.00000000000E+00 -0.45593999997E+02  0.45594000000E+02  0.51100000000E-03 0.  1.
    9900012    2    1    2    0    0  0.35704798765E+02  0.24221431558E+02  0.47024356700E+01  0.47787270711E+02  0.19999998481E+02 0.  0.
        -12    1    1    2    0    0 -0.35704798765E+02 -0.24221431558E+02 -0.47024356700E+01  0.43400729289E+02  0.00000000000E+00 0.  1.
         11    1    3    3    0    0  0.17880408923E+02  0.87457749940E+01  0.94271183183E+01  0.22024263065E+02  0.51100000000E-03 0. -1.
        -11    1    3    3    0    0  0.17851339649E+02  0.15851272908E+02 -0.30745372277E+01  0.24070437459E+02  0.51100000000E-03 0.  1.
         12    1    3    3    0    0 -0.26949806779E-01 -0.37561634407E+00 -0.16501454206E+01  0.16925701873E+01  0.00000000000E+00 0. -1.
</event>
<event>
 7    1  0.2935819E-010  0.4778727E+02  0.7816164E-02  0.1312668E+00
        -11   -1    0    0    0    0  0.00000000000E+00  0.00000000000E+00  0.45593999997E+02  0.45594000000E+02  0.51100000000E-03 0.  1.
         11   -1    0    0    0    0 -0.00000000000E+00 -0.00000000000E+00 -0.45593999997E+02  0.45594000000E+02  0.51100000000E-03 0. -1.
    9900012    2    1    2    0    0  0.66984833101E+01 -0.18874790369E+02 -0.38503192783E+02  0.47787271382E+02  0.20000001537E+02 0.  0.
        -12    1    1    2    0    0 -0.66984833101E+01  0.18874790369E+02  0.38503192783E+02  0.43400728618E+02  0.00000000000E+00 0.  1.
         11    1    3    3    0    0 -0.35394903464E+01 -0.13374684424E+02 -0.15715921821E+02  0.20938012664E+02  0.51100000000E-03 0. -1.
        -11    1    3    3    0    0  0.82536001248E+01  0.97105912336E-01 -0.13656648233E+02  0.15957298825E+02  0.51100000000E-03 0.  1.
        -12    1    3    3    0    0  0.19843735317E+01 -0.55972118579E+01 -0.91306227289E+01  0.10891959893E+02  0.00000000000E+00 0.  1.
</event>
<event>
 7    1  0.2935819E-010  0.4778727E+02  0.7816164E-02  0.1312668E+00
        -11   -1    0    0    0    0  0.00000000000E+00  0.00000000000E+00  0.45593999997E+02  0.45594000000E+02  0.51100000000E-03 0.  1.
         11   -1    0    0    0    0 -0.00000000000E+00 -0.00000000000E+00 -0.45593999997E+02  0.45594000000E+02  0.51100000000E-03 0. -1.
    9900012    2    1    2    0    0 -0.12565467950E+02 -0.27969456286E+02 -0.30715498326E+02  0.47787270661E+02  0.19999998252E+02 0.  0.
        -12    1    1    2    0    0  0.12565467950E+02  0.27969456286E+02  0.30715498326E+02  0.43400729339E+02  0.00000000000E+00 0.  1.
         11    1    3    3    0    0 -0.60994418325E+01 -0.47000136799E+01 -0.17351550694E+02  0.18983404094E+02  0.51100000000E-03 0. -1.
        -11    1    3    3    0    0 -0.50977903646E+01 -0.23176756000E+02 -0.13687007051E+02  0.27394956608E+02  0.51100000000E-03 0.  1.
         12    1    3    3    0    0 -0.13682357527E+01 -0.92686606451E-01  0.32305941972E+00  0.14089099584E+01  0.00000000000E+00 0. -1.
</event>
<event>
 7    1  0.2935819E-010  0.4778729E+02  0.7816164E-02  0.1312668E+00
        -11   -1    0    0    0    0  0.00000000000E+00  0.00000000000E+00  0.45593999997E+02  0.45594000000E+02  0.51100000000E-03 0.  1.
         11   -1    0    0    0    0 -0.00000000000E+00 -0.00000000000E+00 -0.45593999997E+02  0.45594000000E+02  0.51100000000E-03 0. -1.
    9900012    2    1    2    0    0  0.64504479551E+01  0.68671739665E+01 -0.42365730222E+02  0.47787292006E+02  0.20000095573E+02 0.  0.
        -12    1    1    2    0    0 -0.64504479551E+01 -0.68671739665E+01  0.42365730222E+02  0.43400707994E+02  0.00000000000E+00 0.  1.
         11    1    3    3    0    0 -0.32684925402E+01 -0.50841691453E+01 -0.73121438612E+01  0.94867943738E+01  0.51100000000E-03 0. -1.
        -11    1    3    3    0    0  0.83934682394E+01  0.98266281714E+01 -0.29725359085E+02  0.32413113138E+02  0.51100000000E-03 0.  1.
         12    1    3    3    0    0  0.13254722559E+01  0.21247149403E+01 -0.53282272760E+01  0.58873844943E+01  0.00000000000E+00 0. -1.
</event>
<event>
 7    1  0.2935819E-010  0.4778727E+02  0.7816164E-02  0.1312668E+00
        -11   -1    0    0    0    0  0.00000000000E+00  0.00000000000E+00  0.45593999997E+02  0.45594000000E+02  0.51100000000E-03 0.  1.
         11   -1    0    0    0    0 -0.00000000000E+00 -0.00000000000E+00 -0.45593999997E+02  0.45594000000E+02  0.51100000000E-03 0. -1.
    9900012    2    1    2    0    0  0.22780201923E+02 -0.36644276083E+02 -0.46779074223E+01  0.47787269740E+02  0.19999994052E+02 0.  0.
        -12    1    1    2    0    0 -0.22780201923E+02  0.36644276083E+02  0.46779074223E+01  0.43400730260E+02  0.00000000000E+00 0.  1.
         11    1    3    3    0    0  0.65499153715E+01 -0.49667837604E+01  0.50036620532E+01  0.96232513477E+01  0.51100000000E-03 0.  1.
        -11    1    3    3    0    0  0.10722623346E+02 -0.15136782730E+02 -0.92425912661E+01  0.20724920661E+02  0.51100000000E-03 0. -1.
        -12    1    3    3    0    0  0.55076632047E+01 -0.16540709592E+02 -0.43897820945E+00  0.17439097731E+02  0.00000000000E+00 0.  1.
</event>
<event>
 7    1  0.2935819E-010  0.4778727E+02  0.7816164E-02  0.1312668E+00
        -11   -1    0    0    0    0  0.00000000000E+00  0.00000000000E+00  0.45593999997E+02  0.45594000000E+02  0.51100000000E-03 0.  1.
         11   -1    0    0    0    0 -0.00000000000E+00 -0.00000000000E+00 -0.45593999997E+02  0.45594000000E+02  0.51100000000E-03 0. -1.
    9900012    2    1    2    0    0  0.69288945169E+01  0.15878159556E+02 -0.39793186091E+02  0.47787272018E+02  0.20000004438E+02 0.  0.
        -12    1    1    2    0    0 -0.69288945169E+01 -0.15878159556E+02  0.39793186091E+02  0.43400727982E+02  0.00000000000E+00 0.  1.
         11    1    3    3    0    0 -0.67662393921E+01  0.34455375945E+01 -0.87973344886E+01  0.11620964641E+02  0.51100000000E-03 0. -1.
        -11    1    3    3    0    0  0.10292747533E+02  0.84215940106E+01 -0.23629953314E+02  0.27115283354E+02  0.51100000000E-03 0.  1.
         12    1    3    3    0    0  0.34023863756E+01  0.40110279510E+01 -0.73658982880E+01  0.90510240228E+01  0.00000000000E+00 0. -1.
</event>
<event>
 7    1  0.2935819E-010  0.4778727E+02  0.7816164E-02  0.1312668E+00
        -11   -1    0    0    0    0  0.00000000000E+00  0.00000000000E+00  0.45593999997E+02  0.45594000000E+02  0.51100000000E-03 0. -1.
         11   -1    0    0    0    0 -0.00000000000E+00 -0.00000000000E+00 -0.45593999997E+02  0.45594000000E+02  0.51100000000E-03 0.  1.
    9900012    2    1    2    0    0 -0.23302164594E+02  0.17736043528E+02  0.32032251227E+02  0.47787271510E+02  0.20000002123E+02 0.  0.
        -12    1    1    2    0    0  0.23302164594E+02 -0.17736043528E+02 -0.32032251227E+02  0.43400728490E+02  0.00000000000E+00 0.  1.
         11    1    3    3    0    0 -0.13975763851E+02  0.10500872009E+02  0.21758558067E+02  0.27911021794E+02  0.51100000000E-03 0. -1.
        -11    1    3    3    0    0 -0.28426856763E+01  0.74288009506E+01  0.10749350069E+02  0.13372227660E+02  0.51100000000E-03 0.  1.
         12    1    3    3    0    0 -0.64837150659E+01 -0.19362943174E+00 -0.47565690866E+00  0.65040220561E+01  0.00000000000E+00 0. -1.
</event>
<event>
 7    1  0.2935819E-010  0.4778722E+02  0.7816164E-02  0.1312668E+00
        -11   -1    0    0    0    0  0.00000000000E+00  0.00000000000E+00  0.45593999997E+02  0.45594000000E+02  0.51100000000E-03 0.  1.
         11   -1    0    0    0    0 -0.00000000000E+00 -0.00000000000E+00 -0.45593999997E+02  0.45594000000E+02  0.51100000000E-03 0. -1.
    9900012    2    1    2    0    0  0.11552329378E+02 -0.39733547361E+02 -0.13092605227E+02  0.47787223376E+02  0.19999782660E+02 0.  0.
        -12    1    1    2    0    0 -0.11552329378E+02  0.39733547361E+02  0.13092605227E+02  0.43400776624E+02  0.00000000000E+00 0.  1.
         11    1    3    3    0    0 -0.28840140324E+00 -0.24912272787E+02 -0.10310907257E+02  0.26963295784E+02  0.51100000000E-03 0. -1.
        -11    1    3    3    0    0  0.16699470747E-01 -0.39092782186E+01  0.14788153774E+01  0.41796686763E+01  0.51100000000E-03 0.  1.
         12    1    3    3    0    0  0.11824031310E+02 -0.10911996355E+02 -0.42605133474E+01  0.16644258916E+02  0.00000000000E+00 0. -1.
</event>
<event>
 7    1  0.2935819E-010  0.4778727E+02  0.7816164E-02  0.1312668E+00
        -11   -1    0    0    0    0  0.00000000000E+00  0.00000000000E+00  0.45593999997E+02  0.45594000000E+02  0.51100000000E-03 0. -1.
         11   -1    0    0    0    0 -0.00000000000E+00 -0.00000000000E+00 -0.45593999997E+02  0.45594000000E+02  0.51100000000E-03 0.  1.
    9900012    2    1    2    0    0  0.18633608841E+02 -0.19093672400E+02  0.34232202638E+02  0.47787269573E+02  0.19999993290E+02 0.  0.
        -12    1    1    2    0    0 -0.18633608841E+02  0.19093672400E+02 -0.34232202638E+02  0.43400730427E+02  0.00000000000E+00 0.  1.
         11    1    3    3    0    0  0.17944483609E+02 -0.19361271448E+02  0.28421005234E+02  0.38789391112E+02  0.51100000000E-03 0. -1.
        -11    1    3    3    0    0 -0.27351512193E+01 -0.13704528325E+01  0.28846146159E+01  0.42047823846E+01  0.51100000000E-03 0.  1.
         12    1    3    3    0    0  0.34242764509E+01  0.16380518805E+01  0.29265827884E+01  0.47930960758E+01  0.00000000000E+00 0. -1.
</event>
<event>
 7    1  0.2935819E-010  0.4778726E+02  0.7816164E-02  0.1312668E+00
        -11   -1    0    0    0    0  0.00000000000E+00  0.00000000000E+00  0.45593999997E+02  0.45594000000E+02  0.51100000000E-03 0.  1.
         11   -1    0    0    0    0 -0.00000000000E+00 -0.00000000000E+00 -0.45593999997E+02  0.45594000000E+02  0.51100000000E-03 0. -1.
    9900012    2    1    2    0    0 -0.17074404368E+02 -0.19156854022E+02 -0.35001482286E+02  0.47787261495E+02  0.19999956462E+02 0.  0.
        -12    1    1    2    0    0  0.17074404368E+02  0.19156854022E+02  0.35001482286E+02  0.43400738505E+02  0.00000000000E+00 0.  1.
         11    1    3    3    0    0 -0.15527395982E+02 -0.85504222619E+01 -0.15896870664E+02  0.23810087022E+02  0.51100000000E-03 0. -1.
        -11    1    3    3    0    0  0.70315994773E+00 -0.11479170493E+02 -0.12702888164E+02  0.17135610788E+02  0.51100000000E-03 0.  1.
         12    1    3    3    0    0 -0.22501683331E+01  0.87273873251E+00 -0.64017234579E+01  0.68415636848E+01  0.00000000000E+00 0. -1.
</event>
<event>
 7    1  0.2935819E-010  0.4778727E+02  0.7816164E-02  0.1312668E+00
        -11   -1    0    0    0    0  0.00000000000E+00  0.00000000000E+00  0.45593999997E+02  0.45594000000E+02  0.51100000000E-03 0.  1.
         11   -1    0    0    0    0 -0.00000000000E+00 -0.00000000000E+00 -0.45593999997E+02  0.45594000000E+02  0.51100000000E-03 0. -1.
    9900012    2    1    2    0    0 -0.25768882510E+02 -0.17158746958E+02 -0.30416533396E+02  0.47787269513E+02  0.19999993019E+02 0.  0.
        -12    1    1    2    0    0  0.25768882510E+02  0.17158746958E+02  0.30416533396E+02  0.43400730487E+02  0.00000000000E+00 0.  1.
         11    1    3    3    0    0 -0.14221993662E+02 -0.33604588512E+00 -0.12449011918E+02  0.18903860150E+02  0.51100000000E-03 0. -1.
        -11    1    3    3    0    0  0.13755320039E+00 -0.57527330307E+01 -0.17032275000E+01  0.60011534211E+01  0.51100000000E-03 0.  1.
         12    1    3    3    0    0 -0.11684442048E+02 -0.11069968042E+02 -0.16264293977E+02  0.22882255942E+02  0.00000000000E+00 0. -1.
</event>
<event>
 7    1  0.2935819E-010  0.4778727E+02  0.7816164E-02  0.1312668E+00
        -11   -1    0    0    0    0  0.00000000000E+00  0.00000000000E+00  0.45593999997E+02  0.45594000000E+02  0.51100000000E-03 0. -1.
         11   -1    0    0    0    0 -0.00000000000E+00 -0.00000000000E+00 -0.45593999997E+02  0.45594000000E+02  0.51100000000E-03 0.  1.
    9900012    2    1    2    0    0  0.15993688349E+02  0.34493136589E+02  0.20929622277E+02  0.47787266971E+02  0.19999981428E+02 0.  0.
        -12    1    1    2    0    0 -0.15993688349E+02 -0.34493136589E+02 -0.20929622277E+02  0.43400733029E+02  0.00000000000E+00 0.  1.
         11    1    3    3    0    0  0.40427377469E+01  0.17799574778E+02  0.82277483568E+01  0.20021599188E+02  0.51100000000E-03 0. -1.
        -11    1    3    3    0    0  0.45604301691E+01 -0.11709800056E+01  0.14080640897E+00  0.47104717605E+01  0.51100000000E-03 0.  1.
        -12    1    3    3    0    0  0.73905204327E+01  0.17864541817E+02  0.12561067512E+02  0.23055196023E+02  0.00000000000E+00 0.  1.
</event>
<event>
 7    1  0.2935819E-010  0.4778727E+02  0.7816164E-02  0.1312668E+00
        -11   -1    0    0    0    0  0.00000000000E+00  0.00000000000E+00  0.45593999997E+02  0.45594000000E+02  0.51100000000E-03 0.  1.
         11   -1    0    0    0    0 -0.00000000000E+00 -0.00000000000E+00 -0.45593999997E+02  0.45594000000E+02  0.51100000000E-03 0. -1.
    9900012    2    1    2    0    0 -0.16562680626E+02  0.37050016483E+02 -0.15381712587E+02  0.47787271975E+02  0.20000004245E+02 0.  0.
        -12    1    1    2    0    0  0.16562680626E+02 -0.37050016483E+02  0.15381712587E+02  0.43400728025E+02  0.00000000000E+00 0.  1.
         11    1    3    3    0    0 -0.14024166533E+02  0.15630552315E+02 -0.15483073683E+02  0.26090553531E+02  0.51100000000E-03 0. -1.
        -11    1    3    3    0    0 -0.23578845127E+01  0.12049699633E+02 -0.64788733726E+00  0.12295309629E+02  0.51100000000E-03 0.  1.
         12    1    3    3    0    0 -0.18062958048E+00  0.93697645359E+01  0.74924843292E+00  0.94014088156E+01  0.00000000000E+00 0. -1.
</event>
<event>
 7    1  0.2935819E-010  0.4778727E+02  0.7816164E-02  0.1312668E+00
        -11   -1    0    0    0    0  0.00000000000E+00  0.00000000000E+00  0.45593999997E+02  0.45594000000E+02  0.51100000000E-03 0.  1.
         11   -1    0    0    0    0 -0.00000000000E+00 -0.00000000000E+00 -0.45593999997E+02  0.45594000000E+02  0.51100000000E-03 0. -1.
    9900012    2    1    2    0    0  0.34640210938E+02 -0.51545732509E+01 -0.25634143462E+02  0.47787272469E+02  0.20000006494E+02 0.  0.
        -12    1    1    2    0    0 -0.34640210938E+02  0.51545732509E+01  0.25634143462E+02  0.43400727531E+02  0.00000000000E+00 0.  1.
         11    1    3    3    0    0  0.70096943224E+01 -0.15906371996E+01 -0.74068285251E+01  0.10321194226E+02  0.51100000000E-03 0. -1.
        -11    1    3    3    0    0  0.13906290167E+02 -0.10199492694E+02 -0.73905512791E+01  0.18762590596E+02  0.51100000000E-03 0.  1.
        -12    1    3    3    0    0  0.13724226449E+02  0.66355566424E+01 -0.10836763658E+02  0.18703487646E+02  0.00000000000E+00 0.  1.
</event>
<event>
 7    1  0.2935819E-010  0.4778727E+02  0.7816164E-02  0.1312668E+00
        -11   -1    0    0    0    0  0.00000000000E+00  0.00000000000E+00  0.45593999997E+02  0.45594000000E+02  0.51100000000E-03 0.  1.
         11   -1    0    0    0    0 -0.00000000000E+00 -0.00000000000E+00 -0.45593999997E+02  0.45594000000E+02  0.51100000000E-03 0. -1.
    9900012    2    1    2    0    0 -0.47131189362E+01  0.15395513721E+02 -0.40303696574E+02  0.47787270854E+02  0.19999999133E+02 0.  0.
        -12    1    1    2    0    0  0.47131189362E+01 -0.15395513721E+02  0.40303696574E+02  0.43400729146E+02  0.00000000000E+00 0.  1.
         11    1    3    3    0    0 -0.91460189973E+01  0.10504806691E+02 -0.23429440751E+02  0.27256913275E+02  0.51100000000E-03 0. -1.
        -11    1    3    3    0    0 -0.17842677865E+01  0.49629385383E+01 -0.96649253991E+01  0.11010229503E+02  0.51100000000E-03 0.  1.
         12    1    3    3    0    0  0.62171678476E+01 -0.72231507911E-01 -0.72093304235E+01  0.95201280764E+01  0.00000000000E+00 0. -1.
</event>
<event>
 7    1  0.2935819E-010  0.4778727E+02  0.7816164E-02  0.1312668E+00
        -11   -1    0    0    0    0  0.00000000000E+00  0.00000000000E+00  0.45593999997E+02  0.45594000000E+02  0.51100000000E-03 0.  1.
         11   -1    0    0    0    0 -0.00000000000E+00 -0.00000000000E+00 -0.45593999997E+02  0.45594000000E+02  0.51100000000E-03 0. -1.
    9900012    2    1    2    0    0  0.33978301652E+02  0.17737869278E+02  0.20358444483E+02  0.47787271302E+02  0.20000001176E+02 0.  0.
        -12    1    1    2    0    0 -0.33978301652E+02 -0.17737869278E+02 -0.20358444483E+02  0.43400728698E+02  0.00000000000E+00 0.  1.
         11    1    3    3    0    0  0.10413241551E+02  0.13309434329E+02  0.13016234761E+02  0.21330705787E+02  0.51100000000E-03 0. -1.
        -11    1    3    3    0    0  0.25475369905E+01 -0.10820557388E+01 -0.13189661213E+01  0.30660171608E+01  0.51100000000E-03 0.  1.
         12    1    3    3    0    0  0.21017523111E+02  0.55104906872E+01  0.86611758440E+01  0.23390548354E+02  0.00000000000E+00 0. -1.
</event>
<event>
 7    1  0.2935819E-010  0.4778727E+02  0.7816164E-02  0.1312668E+00
        -11   -1    0    0    0    0  0.00000000000E+00  0.00000000000E+00  0.45593999997E+02  0.45594000000E+02  0.51100000000E-03 0.  1.
         11   -1    0    0    0    0 -0.00000000000E+00 -0.00000000000E+00 -0.45593999997E+02  0.45594000000E+02  0.51100000000E-03 0. -1.
    9900012    2    1    2    0    0 -0.96198024775E+01 -0.42300890339E+02 -0.13103582020E+01  0.47787274640E+02  0.20000016393E+02 0.  0.
        -12    1    1    2    0    0  0.96198024775E+01  0.42300890339E+02  0.13103582020E+01  0.43400725360E+02  0.00000000000E+00 0.  1.
         11    1    3    3    0    0 -0.21609529746E+01 -0.10853514105E+02  0.20092504393E+01  0.11247469661E+02  0.51100000000E-03 0. -1.
        -11    1    3    3    0    0 -0.10342081915E+01  0.10043692838E+01 -0.31428680562E+01  0.34577397417E+01  0.51100000000E-03 0.  1.
        -12    1    3    3    0    0 -0.64246413114E+01 -0.32451745518E+02 -0.17674058503E+00  0.33082065237E+02  0.00000000000E+00 0.  1.
</event>
<event>
 7    1  0.2935819E-010  0.4778727E+02  0.7816164E-02  0.1312668E+00
        -11   -1    0    0    0    0  0.00000000000E+00  0.00000000000E+00  0.45593999997E+02  0.45594000000E+02  0.51100000000E-03 0.  1.
         11   -1    0    0    0    0 -0.00000000000E+00 -0.00000000000E+00 -0.45593999997E+02  0.45594000000E+02  0.51100000000E-03 0. -1.
    9900012    2    1    2    0    0 -0.16021173734E+02  0.39838333636E+02 -0.63128913546E+01  0.47787269223E+02  0.19999991697E+02 0.  0.
        -12    1    1    2    0    0  0.16021173734E+02 -0.39838333636E+02  0.63128913546E+01  0.43400730777E+02  0.00000000000E+00 0.  1.
         11    1    3    3    0    0  0.13113184874E+01  0.86095864587E+01  0.16407810873E+01  0.88620933195E+01  0.51100000000E-03 0. -1.
        -11    1    3    3    0    0 -0.19134803092E+02  0.24584513822E+02 -0.56219716275E+01  0.31656682936E+02  0.51100000000E-03 0.  1.
        -12    1    3    3    0    0  0.18023108701E+01  0.66442333545E+01 -0.23317008144E+01  0.72684929683E+01  0.00000000000E+00 0.  1.
</event>
<event>
 7    1  0.2935819E-010  0.4778727E+02  0.7816164E-02  0.1312668E+00
        -11   -1    0    0    0    0  0.00000000000E+00  0.00000000000E+00  0.45593999997E+02  0.45594000000E+02  0.51100000000E-03 0.  1.
         11   -1    0    0    0    0 -0.00000000000E+00 -0.00000000000E+00 -0.45593999997E+02  0.45594000000E+02  0.51100000000E-03 0. -1.
    9900012    2    1    2    0    0 -0.25114508462E+02 -0.10636586961E+00 -0.35395950465E+02  0.47787272376E+02  0.20000006070E+02 0.  0.
        -12    1    1    2    0    0  0.25114508462E+02  0.10636586961E+00  0.35395950465E+02  0.43400727624E+02  0.00000000000E+00 0.  1.
         11    1    3    3    0    0 -0.10073936265E+02 -0.62709637035E+01 -0.21082981254E+02  0.24193000567E+02  0.51100000000E-03 0. -1.
        -11    1    3    3    0    0 -0.75647064810E-01  0.30080908393E+01 -0.63350457095E+00  0.30750058989E+01  0.51100000000E-03 0.  1.
         12    1    3    3    0    0 -0.14964925132E+02  0.31565069946E+01 -0.13679464641E+02  0.20519265910E+02  0.00000000000E+00 0. -1.
</event>
<event>
 7    1  0.2935819E-010  0.4778728E+02  0.7816164E-02  0.1312668E+00
        -11   -1    0    0    0    0  0.00000000000E+00  0.00000000000E+00  0.45593999997E+02  0.45594000000E+02  0.51100000000E-03 0.  1.
         11   -1    0    0    0    0 -0.00000000000E+00 -0.00000000000E+00 -0.45593999997E+02  0.45594000000E+02  0.51100000000E-03 0. -1.
    9900012    2    1    2    0    0  0.16708517381E+02  0.13374936829E+02 -0.37756579941E+02  0.47787276307E+02  0.20000023993E+02 0.  0.
        -12    1    1    2    0    0 -0.16708517381E+02 -0.13374936829E+02  0.37756579941E+02  0.43400723693E+02  0.00000000000E+00 0.  1.
         11    1    3    3    0    0  0.13667361318E+02  0.79174911694E+01 -0.20144275032E+02  0.25598344646E+02  0.51100000000E-03 0. -1.
        -11    1    3    3    0    0 -0.29735974861E+01 -0.12442666207E+01 -0.11458624888E+01  0.34210353019E+01  0.51100000000E-03 0.  1.
        -12    1    3    3    0    0  0.60147535498E+01  0.67017122799E+01 -0.16466442420E+02  0.18767896359E+02  0.00000000000E+00 0.  1.
</event>
<event>
 7    1  0.2935819E-010  0.4778727E+02  0.7816164E-02  0.1312668E+00
        -11   -1    0    0    0    0  0.00000000000E+00  0.00000000000E+00  0.45593999997E+02  0.45594000000E+02  0.51100000000E-03 0. -1.
         11   -1    0    0    0    0 -0.00000000000E+00 -0.00000000000E+00 -0.45593999997E+02  0.45594000000E+02  0.51100000000E-03 0.  1.
    9900012    2    1    2    0    0 -0.40485871452E+02 -0.11524511981E+01 -0.15594523419E+02  0.47787273143E+02  0.20000009570E+02 0.  0.
        -12    1    1    2    0    0  0.40485871452E+02  0.11524511981E+01  0.15594523419E+02  0.43400726857E+02  0.00000000000E+00 0.  1.
         11    1    3    3    0    0 -0.23299235513E+02 -0.71900646320E+00 -0.17363061021E+02  0.29066255935E+02  0.51100000000E-03 0. -1.
        -11    1    3    3    0    0 -0.84669256006E+01 -0.32633224475E+01  0.27988669915E+01  0.94958811713E+01  0.51100000000E-03 0.  1.
        -12    1    3    3    0    0 -0.87197103385E+01  0.28298777127E+01 -0.10303293896E+01  0.92251360374E+01  0.00000000000E+00 0.  1.
</event>
<event>
 7    1  0.2935819E-010  0.4778727E+02  0.7816164E-02  0.1312668E+00
        -11   -1    0    0    0    0  0.00000000000E+00  0.00000000000E+00  0.45593999997E+02  0.45594000000E+02  0.51100000000E-03 0.  1.
         11   -1    0    0    0    0 -0.00000000000E+00 -0.00000000000E+00 -0.45593999997E+02  0.45594000000E+02  0.51100000000E-03 0. -1.
    9900012    2    1    2    0    0 -0.29604100056E+02  0.31731075962E+02 -0.59957657887E+00  0.47787269431E+02  0.19999992645E+02 0.  0.
        -12    1    1    2    0    0  0.29604100056E+02 -0.31731075962E+02  0.59957657887E+00  0.43400730569E+02  0.00000000000E+00 0.  1.
         11    1    3    3    0    0 -0.55603669068E+01  0.22569693060E+01  0.13512938958E+01  0.61512263851E+01  0.51100000000E-03 0. -1.
        -11    1    3    3    0    0 -0.16240485087E+02  0.22160689843E+02  0.62289542137E+01  0.28171783775E+02  0.51100000000E-03 0.  1.
        -12    1    3    3    0    0 -0.78032480618E+01  0.73134168130E+01 -0.81798246884E+01  0.13464259271E+02  0.00000000000E+00 0.  1.
</event>
<event>
 7    1  0.2935819E-010  0.4778729E+02  0.7816164E-02  0.1312668E+00
        -11   -1    0    0    0    0  0.00000000000E+00  0.00000000000E+00  0.45593999997E+02  0.45594000000E+02  0.51100000000E-03 0. -1.
         11   -1    0    0    0    0 -0.00000000000E+00 -0.00000000000E+00 -0.45593999997E+02  0.45594000000E+02  0.51100000000E-03 0.  1.
    9900012    2    1    2    0    0  0.30834112666E+02  0.25126557753E+02  0.17364780922E+02  0.47787285434E+02  0.20000065607E+02 0.  0.
        -12    1    1    2    0    0 -0.30834112666E+02 -0.25126557753E+02 -0.17364780922E+02  0.43400714566E+02  0.00000000000E+00 0.  1.
         11    1    3    3    0    0  0.13894905597E+02  0.19971900926E+02  0.15552563686E+02  0.28876070813E+02  0.51100000000E-03 0. -1.
        -11    1    3    3    0    0  0.98650464582E+01 -0.28478164112E+00  0.14967279329E+01  0.99820056588E+01  0.51100000000E-03 0.  1.
         12    1    3    3    0    0  0.70741606100E+01  0.54394384679E+01  0.31548930380E+00  0.89292089617E+01  0.00000000000E+00 0. -1.
</event>
<event>
 7    1  0.2935819E-010  0.4778726E+02  0.7816164E-02  0.1312668E+00
        -11   -1    0    0    0    0  0.00000000000E+00  0.00000000000E+00  0.45593999997E+02  0.45594000000E+02  0.51100000000E-03 0. -1.
         11   -1    0    0    0    0 -0.00000000000E+00 -0.00000000000E+00 -0.45593999997E+02  0.45594000000E+02  0.51100000000E-03 0.  1.
    9900012    2    1    2    0    0 -0.40083557563E+02 -0.15605267059E+02  0.57800265055E+01  0.47787255152E+02  0.19999927542E+02 0.  0.
        -12    1    1    2    0    0  0.40083557563E+02  0.15605267059E+02 -0.57800265055E+01  0.43400744848E+02  0.00000000000E+00 0.  1.
         11    1    3    3    0    0 -0.11660848927E+02 -0.47639622092E+01 -0.25292424627E+01  0.12847871471E+02  0.51100000000E-03 0. -1.
        -11    1    3    3    0    0 -0.23767319872E+02 -0.14250269584E+02  0.89795044795E+01  0.29130519702E+02  0.51100000000E-03 0.  1.
        -12    1    3    3    0    0 -0.46553887638E+01  0.34089647339E+01 -0.67023551129E+00  0.58088639801E+01  0.00000000000E+00 0.  1.
</event>
<event>
 7    1  0.5741308E-010  0.4778728E+02  0.7816164E-02  0.1312668E+00
        -11   -1    0    0    0    0  0.00000000000E+00  0.00000000000E+00  0.45593999997E+02  0.45594000000E+02  0.51100000000E-03 0.  1.
         11   -1    0    0    0    0 -0.00000000000E+00 -0.00000000000E+00 -0.45593999997E+02  0.45594000000E+02  0.51100000000E-03 0. -1.
    9900012    2    1    2    0    0 -0.34156312611E+02  0.18806401672E+02 -0.19060127821E+02  0.47787275264E+02  0.20000019240E+02 0.  0.
        -12    1    1    2    0    0  0.34156312611E+02 -0.18806401672E+02  0.19060127821E+02  0.43400724736E+02  0.00000000000E+00 0.  1.
         11    1    3    3    0    0 -0.89015726474E+01  0.78680430392E+01 -0.18934845513E+01  0.12030352483E+02  0.51100000000E-03 0. -1.
        -11    1    3    3    0    0 -0.21996074121E+02  0.34803281304E+01 -0.84173370250E+01  0.23807383802E+02  0.51100000000E-03 0.  1.
        -12    1    3    3    0    0 -0.32586658423E+01  0.74580305021E+01 -0.87493062449E+01  0.11949538979E+02  0.00000000000E+00 0.  1.
</event>
<event>
 7    1  0.3067012E-010  0.4778727E+02  0.7816164E-02  0.1312668E+00
        -11   -1    0    0    0    0  0.00000000000E+00  0.00000000000E+00  0.45593999997E+02  0.45594000000E+02  0.51100000000E-03 0. -1.
         11   -1    0    0    0    0 -0.00000000000E+00 -0.00000000000E+00 -0.45593999997E+02  0.45594000000E+02  0.51100000000E-03 0.  1.
    9900012    2    1    2    0    0  0.22183086537E+02  0.32516458192E+02  0.18281531842E+02  0.47787265120E+02  0.19999972988E+02 0.  0.
        -12    1    1    2    0    0 -0.22183086537E+02 -0.32516458192E+02 -0.18281531842E+02  0.43400734880E+02  0.00000000000E+00 0.  1.
         11    1    3    3    0    0  0.13777895616E+02  0.19506532155E+02  0.55866407840E+01  0.24526429822E+02  0.51100000000E-03 0. -1.
        -11    1    3    3    0    0  0.37532038143E+01 -0.95052736392E+00  0.58897193298E+01  0.70483214445E+01  0.51100000000E-03 0.  1.
        -12    1    3    3    0    0  0.46519871076E+01  0.13960453400E+02  0.68051717279E+01  0.16212513853E+02  0.00000000000E+00 0.  1.
</event>
<event>
 7    1  0.2935819E-010  0.4778726E+02  0.7816164E-02  0.1312668E+00
        -11   -1    0    0    0    0  0.00000000000E+00  0.00000000000E+00  0.45593999997E+02  0.45594000000E+02  0.51100000000E-03 0.  1.
         11   -1    0    0    0    0 -0.00000000000E+00 -0.00000000000E+00 -0.45593999997E+02  0.45594000000E+02  0.51100000000E-03 0. -1.
    9900012    2    1    2    0    0 -0.38051021141E+02  0.20348570545E+02  0.46561016647E+01  0.47787264801E+02  0.19999971532E+02 0.  0.
        -12    1    1    2    0    0  0.38051021141E+02 -0.20348570545E+02 -0.46561016647E+01  0.43400735199E+02  0.00000000000E+00 0.  1.
         11    1    3    3    0    0 -0.16498163828E+02  0.64272622167E+01 -0.17928740572E+01  0.17796446470E+02  0.51100000000E-03 0. -1.
        -11    1    3    3    0    0  0.11421496571E+01  0.27087315343E+01 -0.17023711813E+01  0.33970281518E+01  0.51100000000E-03 0.  1.
        -12    1    3    3    0    0 -0.22695006970E+02  0.11212576794E+02  0.81513469032E+01  0.26593790179E+02  0.00000000000E+00 0.  1.
</event>
<event>
 7    1  0.2935819E-010  0.4778727E+02  0.7816164E-02  0.1312668E+00
        -11   -1    0    0    0    0  0.00000000000E+00  0.00000000000E+00  0.45593999997E+02  0.45594000000E+02  0.51100000000E-03 0. -1.
         11   -1    0    0    0    0 -0.00000000000E+00 -0.00000000000E+00 -0.45593999997E+02  0.45594000000E+02  0.51100000000E-03 0.  1.
    9900012    2    1    2    0    0 -0.43731340067E+01 -0.12920502345E+02  0.41201452223E+02  0.47787270200E+02  0.19999996151E+02 0.  0.
        -12    1    1    2    0    0  0.43731340067E+01  0.12920502345E+02 -0.41201452223E+02  0.43400729800E+02  0.00000000000E+00 0.  1.
         11    1    3    3    0    0 -0.83876704437E+01 -0.54085456946E+01  0.12549422406E+02  0.16034131875E+02  0.51100000000E-03 0. -1.
        -11    1    3    3    0    0  0.36690804419E+01 -0.62252684976E+01  0.29365748728E+02  0.30241747928E+02  0.51100000000E-03 0.  1.
        -12    1    3    3    0    0  0.34545599504E+00 -0.12866881528E+01 -0.71371891125E+00  0.15113903968E+01  0.00000000000E+00 0.  1.
</event>
<event>
 7    1  0.2935819E-010  0.4778727E+02  0.7816164E-02  0.1312668E+00
        -11   -1    0    0    0    0  0.00000000000E+00  0.00000000000E+00  0.45593999997E+02  0.45594000000E+02  0.51100000000E-03 0.  1.
         11   -1    0    0    0    0 -0.00000000000E+00 -0.00000000000E+00 -0.45593999997E+02  0.45594000000E+02  0.51100000000E-03 0. -1.
    9900012    2    1    2    0    0 -0.96081764727E+01 -0.42304680654E+02  0.12728735401E+01  0.47787271119E+02  0.20000000338E+02 0.  0.
        -12    1    1    2    0    0  0.96081764727E+01  0.42304680654E+02 -0.12728735401E+01  0.43400728881E+02  0.00000000000E+00 0.  1.
         11    1    3    3    0    0 -0.12252853362E+01  0.13642728855E+01  0.17098447924E+01  0.25072164120E+01  0.51100000000E-03 0.  1.
        -11    1    3    3    0    0 -0.76335109767E+01 -0.43835932757E+02 -0.57843945012E+00  0.44499371715E+02  0.51100000000E-03 0. -1.
         12    1    3    3    0    0 -0.74938015974E+00  0.16697921771E+00  0.14146819782E+00  0.78068299197E+00  0.00000000000E+00 0. -1.
</event>
<event>
 7    1  0.2935819E-010  0.4778727E+02  0.7816164E-02  0.1312668E+00
        -11   -1    0    0    0    0  0.00000000000E+00  0.00000000000E+00  0.45593999997E+02  0.45594000000E+02  0.51100000000E-03 0. -1.
         11   -1    0    0    0    0 -0.00000000000E+00 -0.00000000000E+00 -0.45593999997E+02  0.45594000000E+02  0.51100000000E-03 0.  1.
    9900012    2    1    2    0    0 -0.11122968621E+02 -0.28286194611E+02  0.30980545412E+02  0.47787269240E+02  0.19999991773E+02 0.  0.
        -12    1    1    2    0    0  0.11122968621E+02  0.28286194611E+02 -0.30980545412E+02  0.43400730760E+02  0.00000000000E+00 0.  1.
         11    1    3    3    0    0  0.26141980865E+01 -0.12785705707E+01  0.92738091084E+01  0.97196867223E+01  0.51100000000E-03 0. -1.
        -11    1    3    3    0    0 -0.68556405313E+01 -0.20937846885E+02  0.14189760161E+02  0.26205772894E+02  0.51100000000E-03 0.  1.
        -12    1    3    3    0    0 -0.68815261765E+01 -0.60697771545E+01  0.75169761423E+01  0.11861809624E+02  0.00000000000E+00 0.  1.
</event>
<event>
 7    1  0.2935819E-010  0.4778727E+02  0.7816164E-02  0.1312668E+00
        -11   -1    0    0    0    0  0.00000000000E+00  0.00000000000E+00  0.45593999997E+02  0.45594000000E+02  0.51100000000E-03 0.  1.
         11   -1    0    0    0    0 -0.00000000000E+00 -0.00000000000E+00 -0.45593999997E+02  0.45594000000E+02  0.51100000000E-03 0. -1.
    9900012    2    1    2    0    0 -0.25629382010E+02  0.26668728548E+02 -0.22705440703E+02  0.47787270258E+02  0.19999996416E+02 0.  0.
        -12    1    1    2    0    0  0.25629382010E+02 -0.26668728548E+02  0.22705440703E+02  0.43400729742E+02  0.00000000000E+00 0.  1.
         11    1    3    3    0    0 -0.41220983938E+01 -0.20066232869E+01 -0.11603434247E+01  0.47291256388E+01  0.51100000000E-03 0.  1.
        -11    1    3    3    0    0 -0.76688887131E+01  0.18228715488E+02 -0.94534735415E+01  0.21919536599E+02  0.51100000000E-03 0. -1.
        -12    1    3    3    0    0 -0.13838394903E+02  0.10446636347E+02 -0.12091623737E+02  0.21138608021E+02  0.00000000000E+00 0.  1.
</event>
<event>
 7    1  0.2935819E-010  0.4778727E+02  0.7816164E-02  0.1312668E+00
        -11   -1    0    0    0    0  0.00000000000E+00  0.00000000000E+00  0.45593999997E+02  0.45594000000E+02  0.51100000000E-03 0.  1.
         11   -1    0    0    0    0 -0.00000000000E+00 -0.00000000000E+00 -0.45593999997E+02  0.45594000000E+02  0.51100000000E-03 0. -1.
    9900012    2    1    2    0    0 -0.20833349110E+02  0.26286739044E+02 -0.27542735565E+02  0.47787269970E+02  0.19999995103E+02 0.  0.
        -12    1    1    2    0    0  0.20833349110E+02 -0.26286739044E+02  0.27542735565E+02  0.43400730030E+02  0.00000000000E+00 0.  1.
         11    1    3    3    0    0 -0.11424545257E+02  0.18436637948E+02 -0.16507891505E+02  0.27256931877E+02  0.51100000000E-03 0. -1.
        -11    1    3    3    0    0 -0.49171614234E+01  0.10766709008E+01  0.17939352133E+01  0.53437721231E+01  0.51100000000E-03 0.  1.
        -12    1    3    3    0    0 -0.44916424289E+01  0.67734301957E+01 -0.12828779273E+02  0.15186565970E+02  0.00000000000E+00 0.  1.
</event>
<event>
 7    1  0.2935819E-010  0.4778727E+02  0.7816164E-02  0.1312668E+00
        -11   -1    0    0    0    0  0.00000000000E+00  0.00000000000E+00  0.45593999997E+02  0.45594000000E+02  0.51100000000E-03 0.  1.
         11   -1    0    0    0    0 -0.00000000000E+00 -0.00000000000E+00 -0.45593999997E+02  0.45594000000E+02  0.51100000000E-03 0. -1.
    9900012    2    1    2    0    0 -0.40011352442E+02 -0.16758398202E+02  0.13679244991E+01  0.47787268993E+02  0.19999990644E+02 0.  0.
        -12    1    1    2    0    0  0.40011352442E+02  0.16758398202E+02 -0.13679244991E+01  0.43400731007E+02  0.00000000000E+00 0.  1.
         11    1    3    3    0    0 -0.19336187318E+02 -0.14755889565E+02 -0.47757104075E+01  0.24787735415E+02  0.51100000000E-03 0. -1.
        -11    1    3    3    0    0 -0.98588740097E+01  0.28112277241E+01  0.37818517950E+01  0.10927158886E+02  0.51100000000E-03 0.  1.
         12    1    3    3    0    0 -0.10816291115E+02 -0.48137363607E+01  0.23617831116E+01  0.12072374692E+02  0.00000000000E+00 0. -1.
</event>
<event>
 7    1  0.2935819E-010  0.4778727E+02  0.7816164E-02  0.1312668E+00
        -11   -1    0    0    0    0  0.00000000000E+00  0.00000000000E+00  0.45593999997E+02  0.45594000000E+02  0.51100000000E-03 0.  1.
         11   -1    0    0    0    0 -0.00000000000E+00 -0.00000000000E+00 -0.45593999997E+02  0.45594000000E+02  0.51100000000E-03 0. -1.
    9900012    2    1    2    0    0  0.39068553684E+02  0.13995626471E+02 -0.12704091749E+02  0.47787269656E+02  0.19999993668E+02 0.  0.
        -12    1    1    2    0    0 -0.39068553684E+02 -0.13995626471E+02  0.12704091749E+02  0.43400730344E+02  0.00000000000E+00 0.  1.
         11    1    3    3    0    0  0.23287692242E+02  0.15353924238E+02 -0.93894914894E+01  0.29431652182E+02  0.51100000000E-03 0. -1.
        -11    1    3    3    0    0  0.16369974576E+02 -0.25202217824E+01 -0.37499917646E+01  0.16982050051E+02  0.51100000000E-03 0.  1.
         12    1    3    3    0    0 -0.58911313393E+00  0.11619240153E+01  0.43539150489E+00  0.13735674226E+01  0.00000000000E+00 0. -1.
</event>
<event>
 7    1  0.2935819E-010  0.4778727E+02  0.7816164E-02  0.1312668E+00
        -11   -1    0    0    0    0  0.00000000000E+00  0.00000000000E+00  0.45593999997E+02  0.45594000000E+02  0.51100000000E-03 0.  1.
         11   -1    0    0    0    0 -0.00000000000E+00 -0.00000000000E+00 -0.45593999997E+02  0.45594000000E+02  0.51100000000E-03 0. -1.
    9900012    2    1    2    0    0  0.28593770435E+01 -0.12329788679E+01 -0.43288879001E+02  0.47787270523E+02  0.19999997622E+02 0.  0.
        -12    1    1    2    0    0 -0.28593770435E+01  0.12329788679E+01  0.43288879001E+02  0.43400729477E+02  0.00000000000E+00 0.  1.
         11    1    3    3    0    0  0.86697606162E+01 -0.48817832470E+01 -0.16318758128E+02  0.19112781689E+02  0.51100000000E-03 0. -1.
        -11    1    3    3    0    0 -0.30145729853E+01  0.53254656125E+01 -0.20985593809E+02  0.21859629046E+02  0.51100000000E-03 0.  1.
         12    1    3    3    0    0 -0.27958105875E+01 -0.16766612334E+01 -0.59845270651E+01  0.68148597877E+01  0.00000000000E+00 0. -1.
</event>
<event>
 7    1  0.2935819E-010  0.4778727E+02  0.7816164E-02  0.1312668E+00
        -11   -1    0    0    0    0  0.00000000000E+00  0.00000000000E+00  0.45593999997E+02  0.45594000000E+02  0.51100000000E-03 0. -1.
         11   -1    0    0    0    0 -0.00000000000E+00 -0.00000000000E+00 -0.45593999997E+02  0.45594000000E+02  0.51100000000E-03 0.  1.
    9900012    2    1    2    0    0  0.25066280236E+02 -0.22669054086E+02 -0.27229016054E+02  0.47787265752E+02  0.19999975869E+02 0.  0.
        -12    1    1    2    0    0 -0.25066280236E+02  0.22669054086E+02  0.27229016054E+02  0.43400734248E+02  0.00000000000E+00 0.  1.
         11    1    3    3    0    0  0.12990195315E+02 -0.14130869462E+02 -0.21079855851E+02  0.28509418953E+02  0.51100000000E-03 0. -1.
        -11    1    3    3    0    0  0.35606780969E+01  0.23736046235E+01 -0.25301488531E+01  0.49713258693E+01  0.51100000000E-03 0.  1.
         12    1    3    3    0    0  0.85154068240E+01 -0.10911789248E+02 -0.36190113494E+01  0.14306520930E+02  0.00000000000E+00 0. -1.
</event>
<event>
 7    1  0.2935819E-010  0.4778727E+02  0.7816164E-02  0.1312668E+00
        -11   -1    0    0    0    0  0.00000000000E+00  0.00000000000E+00  0.45593999997E+02  0.45594000000E+02  0.51100000000E-03 0. -1.
         11   -1    0    0    0    0 -0.00000000000E+00 -0.00000000000E+00 -0.45593999997E+02  0.45594000000E+02  0.51100000000E-03 0.  1.
    9900012    2    1    2    0    0  0.99611817976E+01  0.35538522881E+02  0.22834436884E+02  0.47787271214E+02  0.20000000773E+02 0.  0.
        -12    1    1    2    0    0 -0.99611817976E+01 -0.35538522881E+02 -0.22834436884E+02  0.43400728786E+02  0.00000000000E+00 0.  1.
         11    1    3    3    0    0  0.84859530618E+01  0.13033504108E+02  0.18452998433E+02  0.24132898295E+02  0.51100000000E-03 0. -1.
        -11    1    3    3    0    0  0.32960109167E+01  0.10932467979E+02  0.10053569527E+01  0.11462691086E+02  0.51100000000E-03 0.  1.
         12    1    3    3    0    0 -0.18207821809E+01  0.11572550794E+02  0.33760814988E+01  0.12191681833E+02  0.00000000000E+00 0. -1.
</event>
<event>
 7    1  0.2935819E-010  0.4778727E+02  0.7816164E-02  0.1312668E+00
        -11   -1    0    0    0    0  0.00000000000E+00  0.00000000000E+00  0.45593999997E+02  0.45594000000E+02  0.51100000000E-03 0.  1.
         11   -1    0    0    0    0 -0.00000000000E+00 -0.00000000000E+00 -0.45593999997E+02  0.45594000000E+02  0.51100000000E-03 0. -1.
    9900012    2    1    2    0    0 -0.26882033978E+02  0.94481232325E-01 -0.34073017127E+02  0.47787272199E+02  0.20000005264E+02 0.  0.
        -12    1    1    2    0    0  0.26882033978E+02 -0.94481232325E-01  0.34073017127E+02  0.43400727801E+02  0.00000000000E+00 0.  1.
         11    1    3    3    0    0 -0.52367695534E+01 -0.42525956759E+01 -0.58918149967E+01  0.89566628582E+01  0.51100000000E-03 0. -1.
        -11    1    3    3    0    0 -0.93815207835E+01  0.34601640335E+01 -0.24237440727E+01  0.10288838756E+02  0.51100000000E-03 0.  1.
        -12    1    3    3    0    0 -0.12263743641E+02  0.88691287474E+00 -0.25757458057E+02  0.28541770585E+02  0.00000000000E+00 0.  1.
</event>
<event>
 7    1  0.2935819E-010  0.4778727E+02  0.7816164E-02  0.1312668E+00
        -11   -1    0    0    0    0  0.00000000000E+00  0.00000000000E+00  0.45593999997E+02  0.45594000000E+02  0.51100000000E-03 0.  1.
         11   -1    0    0    0    0 -0.00000000000E+00 -0.00000000000E+00 -0.45593999997E+02  0.45594000000E+02  0.51100000000E-03 0. -1.
    9900012    2    1    2    0    0 -0.14554991195E+02  0.28014914071E+02 -0.29781539595E+02  0.47787270977E+02  0.19999999691E+02 0.  0.
        -12    1    1    2    0    0  0.14554991195E+02 -0.28014914071E+02  0.29781539595E+02  0.43400729023E+02  0.00000000000E+00 0.  1.
         11    1    3    3    0    0 -0.17690027886E+01  0.69953155502E+01 -0.39642166470E+01  0.82327895879E+01  0.51100000000E-03 0. -1.
        -11    1    3    3    0    0  0.29846119263E+01  0.97293766621E+01 -0.12034453298E+02  0.15760607381E+02  0.51100000000E-03 0.  1.
        -12    1    3    3    0    0 -0.15770600333E+02  0.11290221858E+02 -0.13782869651E+02  0.23793874008E+02  0.00000000000E+00 0.  1.
</event>
<event>
 7    1  0.2935819E-010  0.4778727E+02  0.7816164E-02  0.1312668E+00
        -11   -1    0    0    0    0  0.00000000000E+00  0.00000000000E+00  0.45593999997E+02  0.45594000000E+02  0.51100000000E-03 0. -1.
         11   -1    0    0    0    0 -0.00000000000E+00 -0.00000000000E+00 -0.45593999997E+02  0.45594000000E+02  0.51100000000E-03 0.  1.
    9900012    2    1    2    0    0  0.39619890207E+02 -0.81765548252E+00  0.17697998286E+02  0.47787269547E+02  0.19999993173E+02 0.  0.
        -12    1    1    2    0    0 -0.39619890207E+02  0.81765548252E+00 -0.17697998286E+02  0.43400730453E+02  0.00000000000E+00 0.  1.
         11    1    3    3    0    0  0.16092833960E+02 -0.73227287440E+01  0.12553986429E+02  0.21684193245E+02  0.51100000000E-03 0. -1.
        -11    1    3    3    0    0  0.18167102078E+02  0.78444648384E+01  0.55830852745E+01  0.20560886847E+02  0.51100000000E-03 0.  1.
        -12    1    3    3    0    0  0.53599541690E+01 -0.13393915769E+01 -0.43907341792E+00  0.55421894551E+01  0.00000000000E+00 0.  1.
</event>
<event>
 7    1  0.2935819E-010  0.4778727E+02  0.7816164E-02  0.1312668E+00
        -11   -1    0    0    0    0  0.00000000000E+00  0.00000000000E+00  0.45593999997E+02  0.45594000000E+02  0.51100000000E-03 0.  1.
         11   -1    0    0    0    0 -0.00000000000E+00 -0.00000000000E+00 -0.45593999997E+02  0.45594000000E+02  0.51100000000E-03 0. -1.
    9900012    2    1    2    0    0  0.69860621692E+01  0.11008715542E+02 -0.41395974686E+02  0.47787267256E+02  0.19999982727E+02 0.  0.
        -12    1    1    2    0    0 -0.69860621692E+01 -0.11008715542E+02  0.41395974686E+02  0.43400732744E+02  0.00000000000E+00 0.  1.
         11    1    3    3    0    0  0.24396403452E+01  0.17443165508E+01 -0.66032651229E+01  0.72524199953E+01  0.51100000000E-03 0. -1.
        -11    1    3    3    0    0  0.35135606615E+01  0.11308296624E+02 -0.36034135182E+02  0.37929956230E+02  0.51100000000E-03 0.  1.
        -12    1    3    3    0    0  0.10328611625E+01 -0.20438976330E+01  0.12414256186E+01  0.26048910307E+01  0.00000000000E+00 0.  1.
</event>
<event>
 7    1  0.2935819E-010  0.4778727E+02  0.7816164E-02  0.1312668E+00
        -11   -1    0    0    0    0  0.00000000000E+00  0.00000000000E+00  0.45593999997E+02  0.45594000000E+02  0.51100000000E-03 0.  1.
         11   -1    0    0    0    0 -0.00000000000E+00 -0.00000000000E+00 -0.45593999997E+02  0.45594000000E+02  0.51100000000E-03 0. -1.
    9900012    2    1    2    0    0  0.85985677233E+01  0.38768302973E+02 -0.17513047491E+02  0.47787268270E+02  0.19999987349E+02 0.  0.
        -12    1    1    2    0    0 -0.85985677233E+01 -0.38768302973E+02  0.17513047491E+02  0.43400731730E+02  0.00000000000E+00 0.  1.
         11    1    3    3    0    0  0.76686113589E+01  0.12529083710E+02 -0.91013557181E+01  0.17280631209E+02  0.51100000000E-03 0. -1.
        -11    1    3    3    0    0 -0.54260113138E+01  0.59311080017E+01 -0.25795568818E+01  0.84423785080E+01  0.51100000000E-03 0.  1.
        -12    1    3    3    0    0  0.63559676782E+01  0.20308111261E+02 -0.58321348907E+01  0.22064258553E+02  0.00000000000E+00 0.  1.
</event>
<event>
 7    1  0.2935819E-010  0.4778726E+02  0.7816164E-02  0.1312668E+00
        -11   -1    0    0    0    0  0.00000000000E+00  0.00000000000E+00  0.45593999997E+02  0.45594000000E+02  0.51100000000E-03 0. -1.
         11   -1    0    0    0    0 -0.00000000000E+00 -0.00000000000E+00 -0.45593999997E+02  0.45594000000E+02  0.51100000000E-03 0.  1.
    9900012    2    1    2    0    0  0.15771019074E+02 -0.64464479705E+00  0.40428743930E+02  0.47787263309E+02  0.19999964732E+02 0.  0.
        -12    1    1    2    0    0 -0.15771019074E+02  0.64464479705E+00 -0.40428743930E+02  0.43400736691E+02  0.00000000000E+00 0.  1.
         11    1    3    3    0    0  0.15207607397E+01  0.78969604316E+01  0.11721676285E+02  0.14215216934E+02  0.51100000000E-03 0.  1.
        -11    1    3    3    0    0  0.35785919861E+01 -0.21486414512E+00  0.87674527177E+01  0.94721019115E+01  0.51100000000E-03 0. -1.
         12    1    3    3    0    0  0.10671666348E+02 -0.83267410835E+01  0.19939614927E+02  0.24099944464E+02  0.00000000000E+00 0. -1.
</event>
<event>
 7    1  0.2935819E-010  0.4778727E+02  0.7816164E-02  0.1312668E+00
        -11   -1    0    0    0    0  0.00000000000E+00  0.00000000000E+00  0.45593999997E+02  0.45594000000E+02  0.51100000000E-03 0.  1.
         11   -1    0    0    0    0 -0.00000000000E+00 -0.00000000000E+00 -0.45593999997E+02  0.45594000000E+02  0.51100000000E-03 0. -1.
    9900012    2    1    2    0    0  0.17939139360E+02  0.13713268462E+01 -0.39495951037E+02  0.47787269515E+02  0.19999993028E+02 0.  0.
        -12    1    1    2    0    0 -0.17939139360E+02 -0.13713268462E+01  0.39495951037E+02  0.43400730485E+02  0.00000000000E+00 0.  1.
         11    1    3    3    0    0  0.72618585844E+01  0.45715346898E+01 -0.21021099461E+02  0.22705068649E+02  0.51100000000E-03 0. -1.
        -11    1    3    3    0    0  0.78185380196E+01 -0.74507739899E+01 -0.16216962972E+02  0.19484184820E+02  0.51100000000E-03 0.  1.
        -12    1    3    3    0    0  0.28587427556E+01  0.42505661463E+01 -0.22578886039E+01  0.55980160463E+01  0.00000000000E+00 0.  1.
</event>
<event>
 7    1  0.2935819E-010  0.4778726E+02  0.7816164E-02  0.1312668E+00
        -11   -1    0    0    0    0  0.00000000000E+00  0.00000000000E+00  0.45593999997E+02  0.45594000000E+02  0.51100000000E-03 0.  1.
         11   -1    0    0    0    0 -0.00000000000E+00 -0.00000000000E+00 -0.45593999997E+02  0.45594000000E+02  0.51100000000E-03 0. -1.
    9900012    2    1    2    0    0  0.34496712056E+02 -0.13512714567E+02 -0.22605481223E+02  0.47787258313E+02  0.19999941952E+02 0.  0.
        -12    1    1    2    0    0 -0.34496712056E+02  0.13512714567E+02  0.22605481223E+02  0.43400741687E+02  0.00000000000E+00 0.  1.
         11    1    3    3    0    0  0.21361372555E+02 -0.28845773730E+01 -0.20207395962E+02  0.29546029782E+02  0.51100000000E-03 0. -1.
        -11    1    3    3    0    0  0.13286139424E+02 -0.10196811509E+02 -0.10084080013E+01  0.16778359654E+02  0.51100000000E-03 0.  1.
        -12    1    3    3    0    0 -0.15079992276E+00 -0.43132568545E+00 -0.13896772599E+01  0.14628688767E+01  0.00000000000E+00 0.  1.
</event>
<event>
 7    1  0.2935819E-010  0.4778727E+02  0.7816164E-02  0.1312668E+00
        -11   -1    0    0    0    0  0.00000000000E+00  0.00000000000E+00  0.45593999997E+02  0.45594000000E+02  0.51100000000E-03 0.  1.
         11   -1    0    0    0    0 -0.00000000000E+00 -0.00000000000E+00 -0.45593999997E+02  0.45594000000E+02  0.51100000000E-03 0. -1.
    9900012    2    1    2    0    0  0.22918521701E+02 -0.28593124100E+02 -0.23255060111E+02  0.47787271855E+02  0.20000003696E+02 0.  0.
        -12    1    1    2    0    0 -0.22918521701E+02  0.28593124100E+02  0.23255060111E+02  0.43400728145E+02  0.00000000000E+00 0.  1.
         11    1    3    3    0    0  0.11082240897E+02 -0.20544084961E+02 -0.18900559354E+02  0.30035090050E+02  0.51100000000E-03 0. -1.
        -11    1    3    3    0    0  0.63955473119E+01  0.61871316944E+00  0.46112706684E+00  0.64419305986E+01  0.51100000000E-03 0.  1.
        -12    1    3    3    0    0  0.54407334919E+01 -0.86677523082E+01 -0.48156278238E+01  0.11310251206E+02  0.00000000000E+00 0.  1.
</event>
<event>
 7    1  0.2935819E-010  0.4778728E+02  0.7816164E-02  0.1312668E+00
        -11   -1    0    0    0    0  0.00000000000E+00  0.00000000000E+00  0.45593999997E+02  0.45594000000E+02  0.51100000000E-03 0. -1.
         11   -1    0    0    0    0 -0.00000000000E+00 -0.00000000000E+00 -0.45593999997E+02  0.45594000000E+02  0.51100000000E-03 0.  1.
    9900012    2    1    2    0    0 -0.24944730298E+02 -0.20109159655E+02  0.29274647923E+02  0.47787275551E+02  0.20000020548E+02 0.  0.
        -12    1    1    2    0    0  0.24944730298E+02  0.20109159655E+02 -0.29274647923E+02  0.43400724449E+02  0.00000000000E+00 0.  1.
         11    1    3    3    0    0 -0.93272124638E+01 -0.16667970750E+02  0.20192967766E+02  0.27795217012E+02  0.51100000000E-03 0. -1.
        -11    1    3    3    0    0 -0.37495660869E+01  0.67755296181E+00 -0.93708343775E+00  0.39238309707E+01  0.51100000000E-03 0.  1.
         12    1    3    3    0    0 -0.11867951747E+02 -0.41187418673E+01  0.10018763594E+02  0.16068227569E+02  0.00000000000E+00 0. -1.
</event>
<event>
 7    1  0.2935819E-010  0.4778727E+02  0.7816164E-02  0.1312668E+00
        -11   -1    0    0    0    0  0.00000000000E+00  0.00000000000E+00  0.45593999997E+02  0.45594000000E+02  0.51100000000E-03 0.  1.
         11   -1    0    0    0    0 -0.00000000000E+00 -0.00000000000E+00 -0.45593999997E+02  0.45594000000E+02  0.51100000000E-03 0. -1.
    9900012    2    1    2    0    0 -0.61276179789E+01  0.17181749092E+02 -0.39380995439E+02  0.47787274134E+02  0.20000014088E+02 0.  0.
        -12    1    1    2    0    0  0.61276179789E+01 -0.17181749092E+02  0.39380995439E+02  0.43400725866E+02  0.00000000000E+00 0.  1.
         11    1    3    3    0    0 -0.17561030681E+00  0.14604383725E+02 -0.18867995193E+02  0.23860429708E+02  0.51100000000E-03 0. -1.
        -11    1    3    3    0    0 -0.80614019739E+01  0.25475521707E+01 -0.95151244472E+01  0.12728464847E+02  0.51100000000E-03 0.  1.
        -12    1    3    3    0    0  0.21093943018E+01  0.29813196133E-01 -0.10997875798E+02  0.11198379580E+02  0.00000000000E+00 0.  1.
</event>
<event>
 7    1  0.2935819E-010  0.4778727E+02  0.7816164E-02  0.1312668E+00
        -11   -1    0    0    0    0  0.00000000000E+00  0.00000000000E+00  0.45593999997E+02  0.45594000000E+02  0.51100000000E-03 0.  1.
         11   -1    0    0    0    0 -0.00000000000E+00 -0.00000000000E+00 -0.45593999997E+02  0.45594000000E+02  0.51100000000E-03 0. -1.
    9900012    2    1    2    0    0 -0.26601273166E+02  0.30257599960E+02 -0.16139173191E+02  0.47787274191E+02  0.20000014348E+02 0.  0.
        -12    1    1    2    0    0  0.26601273166E+02 -0.30257599960E+02  0.16139173191E+02  0.43400725809E+02  0.00000000000E+00 0.  1.
         11    1    3    3    0    0 -0.18051388363E+02  0.24614130962E+02 -0.42229846430E+01  0.30814633933E+02  0.51100000000E-03 0. -1.
        -11    1    3    3    0    0 -0.15452318564E+01  0.40297461573E+01 -0.71378692608E+01  0.83412093504E+01  0.51100000000E-03 0.  1.
         12    1    3    3    0    0 -0.70046529471E+01  0.16137228410E+01 -0.47783192869E+01  0.86314309083E+01  0.00000000000E+00 0. -1.
</event>
<event>
 7    1  0.2935819E-010  0.4778728E+02  0.7816164E-02  0.1312668E+00
        -11   -1    0    0    0    0  0.00000000000E+00  0.00000000000E+00  0.45593999997E+02  0.45594000000E+02  0.51100000000E-03 0. -1.
         11   -1    0    0    0    0 -0.00000000000E+00 -0.00000000000E+00 -0.45593999997E+02  0.45594000000E+02  0.51100000000E-03 0.  1.
    9900012    2    1    2    0    0 -0.13991669614E+02 -0.20681855836E+02  0.35498119540E+02  0.47787280302E+02  0.20000042208E+02 0.  0.
        -12    1    1    2    0    0  0.13991669614E+02  0.20681855836E+02 -0.35498119540E+02  0.43400719698E+02  0.00000000000E+00 0.  1.
         11    1    3    3    0    0 -0.11794569636E+02 -0.18203780697E+02  0.27998599942E+02  0.35417666545E+02  0.51100000000E-03 0. -1.
        -11    1    3    3    0    0 -0.18996848971E+01  0.29660676824E+01  0.59541269955E+00  0.35722369390E+01  0.51100000000E-03 0.  1.
        -12    1    3    3    0    0 -0.29741508150E+00 -0.54441428219E+01  0.69041068992E+01  0.87973768176E+01  0.00000000000E+00 0.  1.
</event>
<event>
 7    1  0.2935819E-010  0.4778727E+02  0.7816164E-02  0.1312668E+00
        -11   -1    0    0    0    0  0.00000000000E+00  0.00000000000E+00  0.45593999997E+02  0.45594000000E+02  0.51100000000E-03 0. -1.
         11   -1    0    0    0    0 -0.00000000000E+00 -0.00000000000E+00 -0.45593999997E+02  0.45594000000E+02  0.51100000000E-03 0.  1.
    9900012    2    1    2    0    0  0.26832363826E+02 -0.25238448838E+02  0.22949253378E+02  0.47787270987E+02  0.19999999738E+02 0.  0.
        -12    1    1    2    0    0 -0.26832363826E+02  0.25238448838E+02 -0.22949253378E+02  0.43400729013E+02  0.00000000000E+00 0.  1.
         11    1    3    3    0    0  0.14468059555E+02 -0.40863445044E+01  0.10751259982E+02  0.18482763596E+02  0.51100000000E-03 0. -1.
        -11    1    3    3    0    0  0.17770767504E+00 -0.88989163626E+01  0.16328199168E+01  0.90492206067E+01  0.51100000000E-03 0.  1.
         12    1    3    3    0    0  0.12186596596E+02 -0.12253187971E+02  0.10565173480E+02  0.20255286784E+02  0.00000000000E+00 0. -1.
</event>
<event>
 7    1  0.2940249E-010  0.4778727E+02  0.7816164E-02  0.1312668E+00
        -11   -1    0    0    0    0  0.00000000000E+00  0.00000000000E+00  0.45593999997E+02  0.45594000000E+02  0.51100000000E-03 0. -1.
         11   -1    0    0    0    0 -0.00000000000E+00 -0.00000000000E+00 -0.45593999997E+02  0.45594000000E+02  0.51100000000E-03 0.  1.
    9900012    2    1    2    0    0  0.26689529742E+01 -0.42260835590E+00  0.43316522786E+02  0.47787273576E+02  0.20000011545E+02 0.  0.
        -12    1    1    2    0    0 -0.26689529742E+01  0.42260835590E+00 -0.43316522786E+02  0.43400726424E+02  0.00000000000E+00 0.  1.
         11    1    3    3    0    0 -0.18714811371E+01 -0.47698849038E+01  0.28766206052E+02  0.29218981066E+02  0.51100000000E-03 0. -1.
        -11    1    3    3    0    0  0.47793816141E+01 -0.95128362098E+00  0.26674119415E+01  0.55554042037E+01  0.51100000000E-03 0.  1.
         12    1    3    3    0    0 -0.23894750278E+00  0.52985601689E+01  0.11882904793E+02  0.13012888307E+02  0.00000000000E+00 0. -1.
</event>
<event>
 7    1  0.2935819E-010  0.4778728E+02  0.7816164E-02  0.1312668E+00
        -11   -1    0    0    0    0  0.00000000000E+00  0.00000000000E+00  0.45593999997E+02  0.45594000000E+02  0.51100000000E-03 0. -1.
         11   -1    0    0    0    0 -0.00000000000E+00 -0.00000000000E+00 -0.45593999997E+02  0.45594000000E+02  0.51100000000E-03 0.  1.
    9900012    2    1    2    0    0  0.33202564872E+02 -0.27949441382E+02  0.20307455683E+00  0.47787276194E+02  0.20000023477E+02 0.  0.
        -12    1    1    2    0    0 -0.33202564872E+02  0.27949441382E+02 -0.20307455683E+00  0.43400723806E+02  0.00000000000E+00 0.  1.
         11    1    3    3    0    0  0.25548695273E+02 -0.12431618764E+02  0.19397458657E+00  0.28413352523E+02  0.51100000000E-03 0. -1.
        -11    1    3    3    0    0 -0.14444956912E+01 -0.30822114511E+01  0.18189161511E+01  0.38594107655E+01  0.51100000000E-03 0.  1.
         12    1    3    3    0    0  0.90983652909E+01 -0.12435611167E+02 -0.18098161809E+01  0.15514512905E+02  0.00000000000E+00 0. -1.
</event>
<event>
 7    1  0.2935819E-010  0.4778727E+02  0.7816164E-02  0.1312668E+00
        -11   -1    0    0    0    0  0.00000000000E+00  0.00000000000E+00  0.45593999997E+02  0.45594000000E+02  0.51100000000E-03 0.  1.
         11   -1    0    0    0    0 -0.00000000000E+00 -0.00000000000E+00 -0.45593999997E+02  0.45594000000E+02  0.51100000000E-03 0. -1.
    9900012    2    1    2    0    0 -0.63270853545E+01  0.38709171121E+02 -0.18579328453E+02  0.47787269779E+02  0.19999994231E+02 0.  0.
        -12    1    1    2    0    0  0.63270853545E+01 -0.38709171121E+02  0.18579328453E+02  0.43400730221E+02  0.00000000000E+00 0.  1.
         11    1    3    3    0    0 -0.24874743558E+01 -0.18989777851E+00  0.20952347418E+00  0.25034955930E+01  0.51100000000E-03 0.  1.
        -11    1    3    3    0    0  0.46976172564E+01  0.18526818189E+02 -0.87611706788E+01  0.21025430127E+02  0.51100000000E-03 0. -1.
        -12    1    3    3    0    0 -0.85372282551E+01  0.20372250710E+02 -0.10027681249E+02  0.24258344059E+02  0.00000000000E+00 0.  1.
</event>
<event>
 7    1  0.2935819E-010  0.4778727E+02  0.7816164E-02  0.1312668E+00
        -11   -1    0    0    0    0  0.00000000000E+00  0.00000000000E+00  0.45593999997E+02  0.45594000000E+02  0.51100000000E-03 0.  1.
         11   -1    0    0    0    0 -0.00000000000E+00 -0.00000000000E+00 -0.45593999997E+02  0.45594000000E+02  0.51100000000E-03 0. -1.
    9900012    2    1    2    0    0 -0.28600542898E+02 -0.25230081250E+02 -0.20714127350E+02  0.47787272750E+02  0.20000007775E+02 0.  0.
        -12    1    1    2    0    0  0.28600542898E+02  0.25230081250E+02  0.20714127350E+02  0.43400727250E+02  0.00000000000E+00 0.  1.
         11    1    3    3    0    0 -0.23523222513E+02 -0.18888983514E+02 -0.92801613300E+01  0.31563540520E+02  0.51100000000E-03 0. -1.
        -11    1    3    3    0    0 -0.24179275251E+01 -0.69072191592E+01 -0.11348385726E+02  0.13503403604E+02  0.51100000000E-03 0.  1.
        -12    1    3    3    0    0 -0.26593928598E+01  0.56612142233E+00 -0.85580293888E-01  0.27203286262E+01  0.00000000000E+00 0.  1.
</event>
<event>
 7    1  0.2935819E-010  0.4778727E+02  0.7816164E-02  0.1312668E+00
        -11   -1    0    0    0    0  0.00000000000E+00  0.00000000000E+00  0.45593999997E+02  0.45594000000E+02  0.51100000000E-03 0.  1.
         11   -1    0    0    0    0 -0.00000000000E+00 -0.00000000000E+00 -0.45593999997E+02  0.45594000000E+02  0.51100000000E-03 0. -1.
    9900012    2    1    2    0    0 -0.16960915817E+02  0.11631813009E+02 -0.38218468625E+02  0.47787273241E+02  0.20000010014E+02 0.  0.
        -12    1    1    2    0    0  0.16960915817E+02 -0.11631813009E+02  0.38218468625E+02  0.43400726759E+02  0.00000000000E+00 0.  1.
         11    1    3    3    0    0 -0.15715573006E+02  0.16958290602E+01 -0.16167270933E+02  0.22610522346E+02  0.51100000000E-03 0. -1.
        -11    1    3    3    0    0 -0.33875576210E+00  0.71263050395E+01 -0.75876453305E+01  0.10414957556E+02  0.51100000000E-03 0.  1.
         12    1    3    3    0    0 -0.90658704899E+00  0.28096789091E+01 -0.14463552361E+02  0.14761793338E+02  0.00000000000E+00 0. -1.
</event>
<event>
 7    1  0.2935819E-010  0.4778727E+02  0.7816164E-02  0.1312668E+00
        -11   -1    0    0    0    0  0.00000000000E+00  0.00000000000E+00  0.45593999997E+02  0.45594000000E+02  0.51100000000E-03 0.  1.
         11   -1    0    0    0    0 -0.00000000000E+00 -0.00000000000E+00 -0.45593999997E+02  0.45594000000E+02  0.51100000000E-03 0. -1.
    9900012    2    1    2    0    0  0.14255881005E+01 -0.27168705042E+02 -0.33814969987E+02  0.47787273850E+02  0.20000012794E+02 0.  0.
        -12    1    1    2    0    0 -0.14255881005E+01  0.27168705042E+02  0.33814969987E+02  0.43400726150E+02  0.00000000000E+00 0.  1.
         11    1    3    3    0    0  0.40537721414E+01 -0.21254038399E+02 -0.29607028667E+02  0.36670742610E+02  0.51100000000E-03 0. -1.
        -11    1    3    3    0    0 -0.14520360557E+01 -0.16714919598E+01 -0.59749860226E+01  0.63720289006E+01  0.51100000000E-03 0.  1.
         12    1    3    3    0    0 -0.11761479852E+01 -0.42431746826E+01  0.17670447023E+01  0.47445023396E+01  0.00000000000E+00 0. -1.
</event>
<event>
 7    1  0.2935819E-010  0.4778726E+02  0.7816164E-02  0.1312668E+00
        -11   -1    0    0    0    0  0.00000000000E+00  0.00000000000E+00  0.45593999997E+02  0.45594000000E+02  0.51100000000E-03 0.  1.
         11   -1    0    0    0    0 -0.00000000000E+00 -0.00000000000E+00 -0.45593999997E+02  0.45594000000E+02  0.51100000000E-03 0. -1.
    9900012    2    1    2    0    0  0.35670989715E+02  0.44724428432E+01 -0.24314646701E+02  0.47787259265E+02  0.19999946290E+02 0.  0.
        -12    1    1    2    0    0 -0.35670989715E+02 -0.44724428432E+01  0.24314646701E+02  0.43400740735E+02  0.00000000000E+00 0.  1.
         11    1    3    3    0    0  0.29682447943E+02  0.30424322783E+01 -0.21185071348E+02  0.36593870502E+02  0.51100000000E-03 0. -1.
        -11    1    3    3    0    0  0.82976245298E+01  0.14405421948E+01 -0.27056341350E+01  0.88456877056E+01  0.51100000000E-03 0.  1.
         12    1    3    3    0    0 -0.23090827576E+01 -0.10531629916E-01 -0.42394121779E+00  0.23477010570E+01  0.00000000000E+00 0. -1.
</event>
<event>
 7    1  0.2935819E-010  0.4778727E+02  0.7816164E-02  0.1312668E+00
        -11   -1    0    0    0    0  0.00000000000E+00  0.00000000000E+00  0.45593999997E+02  0.45594000000E+02  0.51100000000E-03 0. -1.
         11   -1    0    0    0    0 -0.00000000000E+00 -0.00000000000E+00 -0.45593999997E+02  0.45594000000E+02  0.51100000000E-03 0.  1.
    9900012    2    1    2    0    0  0.69532129122E+00 -0.39024431466E+02 -0.18979817865E+02  0.47787271791E+02  0.20000003402E+02 0.  0.
        -12    1    1    2    0    0 -0.69532129122E+00  0.39024431466E+02  0.18979817865E+02  0.43400728209E+02  0.00000000000E+00 0.  1.
         11    1    3    3    0    0 -0.33781822323E+01 -0.32477249331E+02 -0.12586563175E+02  0.34994362576E+02  0.51100000000E-03 0. -1.
        -11    1    3    3    0    0  0.46066985792E+01 -0.73488956947E+01 -0.73990067021E+01  0.11400580694E+02  0.51100000000E-03 0.  1.
         12    1    3    3    0    0 -0.53319505572E+00  0.80171355955E+00  0.10057520121E+01  0.13923285204E+01  0.00000000000E+00 0. -1.
</event>
<event>
 7    1  0.2935819E-010  0.4778728E+02  0.7816164E-02  0.1312668E+00
        -11   -1    0    0    0    0  0.00000000000E+00  0.00000000000E+00  0.45593999997E+02  0.45594000000E+02  0.51100000000E-03 0. -1.
         11   -1    0    0    0    0 -0.00000000000E+00 -0.00000000000E+00 -0.45593999997E+02  0.45594000000E+02  0.51100000000E-03 0.  1.
    9900012    2    1    2    0    0 -0.37015364818E+02  0.99671899257E+01 -0.20350450080E+02  0.47787275051E+02  0.20000018268E+02 0.  0.
        -12    1    1    2    0    0  0.37015364818E+02 -0.99671899257E+01  0.20350450080E+02  0.43400724949E+02  0.00000000000E+00 0.  1.
         11    1    3    3    0    0 -0.81704751106E+01  0.48792240064E+01  0.20384675800E+01  0.97323604934E+01  0.51100000000E-03 0. -1.
        -11    1    3    3    0    0  0.74844147942E+00  0.29171997842E-01 -0.57266910749E+00  0.94284984031E+00  0.51100000000E-03 0.  1.
         12    1    3    3    0    0 -0.29593331187E+02  0.50587939214E+01 -0.21816248553E+02  0.37112064717E+02  0.00000000000E+00 0. -1.
</event>
<event>
 7    1  0.2935819E-010  0.4778727E+02  0.7816164E-02  0.1312668E+00
        -11   -1    0    0    0    0  0.00000000000E+00  0.00000000000E+00  0.45593999997E+02  0.45594000000E+02  0.51100000000E-03 0.  1.
         11   -1    0    0    0    0 -0.00000000000E+00 -0.00000000000E+00 -0.45593999997E+02  0.45594000000E+02  0.51100000000E-03 0. -1.
    9900012    2    1    2    0    0 -0.42062708750E+00  0.17872374924E+02 -0.39547749086E+02  0.47787272237E+02  0.20000005436E+02 0.  0.
        -12    1    1    2    0    0  0.42062708750E+00 -0.17872374924E+02  0.39547749086E+02  0.43400727763E+02  0.00000000000E+00 0.  1.
         11    1    3    3    0    0  0.61520503922E+01  0.78351420997E+01 -0.86772413698E+01  0.13211044387E+02  0.51100000000E-03 0. -1.
        -11    1    3    3    0    0 -0.59579762987E+01  0.11191156939E+01 -0.81264611905E+01  0.10138504488E+02  0.51100000000E-03 0.  1.
        -12    1    3    3    0    0 -0.61470118094E+00  0.89181171308E+01 -0.22744046526E+02  0.24437723361E+02  0.00000000000E+00 0.  1.
</event>
<event>
 7    1  0.2935819E-010  0.4778727E+02  0.7816164E-02  0.1312668E+00
        -11   -1    0    0    0    0  0.00000000000E+00  0.00000000000E+00  0.45593999997E+02  0.45594000000E+02  0.51100000000E-03 0.  1.
         11   -1    0    0    0    0 -0.00000000000E+00 -0.00000000000E+00 -0.45593999997E+02  0.45594000000E+02  0.51100000000E-03 0. -1.
    9900012    2    1    2    0    0 -0.31343736053E+02  0.23074307298E+02 -0.19203379585E+02  0.47787271497E+02  0.20000002065E+02 0.  0.
        -12    1    1    2    0    0  0.31343736053E+02 -0.23074307298E+02  0.19203379585E+02  0.43400728503E+02  0.00000000000E+00 0.  1.
         11    1    3    3    0    0 -0.21132273202E+02  0.23047372418E+02 -0.81200118472E+01  0.32306174932E+02  0.51100000000E-03 0. -1.
        -11    1    3    3    0    0 -0.65818313264E+01 -0.16564197085E+01 -0.74270907348E+01  0.10061108632E+02  0.51100000000E-03 0.  1.
         12    1    3    3    0    0 -0.36296315253E+01  0.16833545888E+01 -0.36562770029E+01  0.54199879339E+01  0.00000000000E+00 0. -1.
</event>
<event>
 7    1  0.2935819E-010  0.4778727E+02  0.7816164E-02  0.1312668E+00
        -11   -1    0    0    0    0  0.00000000000E+00  0.00000000000E+00  0.45593999997E+02  0.45594000000E+02  0.51100000000E-03 0.  1.
         11   -1    0    0    0    0 -0.00000000000E+00 -0.00000000000E+00 -0.45593999997E+02  0.45594000000E+02  0.51100000000E-03 0. -1.
    9900012    2    1    2    0    0 -0.35387949816E+02  0.12135275945E+02 -0.22001163122E+02  0.47787273127E+02  0.20000009494E+02 0.  0.
        -12    1    1    2    0    0  0.35387949816E+02 -0.12135275945E+02  0.22001163122E+02  0.43400726873E+02  0.00000000000E+00 0.  1.
         11    1    3    3    0    0 -0.24240573422E+01 -0.39619181537E+01 -0.30610327181E+01  0.55626226744E+01  0.51100000000E-03 0. -1.
        -11    1    3    3    0    0 -0.41661255697E+01  0.10969259771E+01  0.56700397487E+00  0.43452666926E+01  0.51100000000E-03 0.  1.
         12    1    3    3    0    0 -0.28797766904E+02  0.15000268121E+02 -0.19507134378E+02  0.37879383760E+02  0.00000000000E+00 0. -1.
</event>
<event>
 7    1  0.2935819E-010  0.4778727E+02  0.7816164E-02  0.1312668E+00
        -11   -1    0    0    0    0  0.00000000000E+00  0.00000000000E+00  0.45593999997E+02  0.45594000000E+02  0.51100000000E-03 0.  1.
         11   -1    0    0    0    0 -0.00000000000E+00 -0.00000000000E+00 -0.45593999997E+02  0.45594000000E+02  0.51100000000E-03 0. -1.
    9900012    2    1    2    0    0 -0.50185147927E+01  0.18349738268E+02 -0.39009291430E+02  0.47787271860E+02  0.20000003719E+02 0.  0.
        -12    1    1    2    0    0  0.50185147927E+01 -0.18349738268E+02  0.39009291430E+02  0.43400728140E+02  0.00000000000E+00 0.  1.
         11    1    3    3    0    0  0.55040825167E+01  0.39147846537E+01 -0.13070983927E+02  0.14712956342E+02  0.51100000000E-03 0. -1.
        -11    1    3    3    0    0 -0.69163971937E+01  0.58287955036E+01 -0.54470487994E+01  0.10558491751E+02  0.51100000000E-03 0.  1.
         12    1    3    3    0    0 -0.36062001157E+01  0.86061581106E+01 -0.20491258703E+02  0.22515823768E+02  0.00000000000E+00 0. -1.
</event>
<event>
 7    1  0.2935819E-010  0.4778727E+02  0.7816164E-02  0.1312668E+00
        -11   -1    0    0    0    0  0.00000000000E+00  0.00000000000E+00  0.45593999997E+02  0.45594000000E+02  0.51100000000E-03 0.  1.
         11   -1    0    0    0    0 -0.00000000000E+00 -0.00000000000E+00 -0.45593999997E+02  0.45594000000E+02  0.51100000000E-03 0. -1.
    9900012    2    1    2    0    0 -0.38486149866E+02 -0.12530807902E+01 -0.20021724976E+02  0.47787269430E+02  0.19999992641E+02 0.  0.
        -12    1    1    2    0    0  0.38486149866E+02  0.12530807902E+01  0.20021724976E+02  0.43400730570E+02  0.00000000000E+00 0.  1.
         11    1    3    3    0    0 -0.79443240812E+01 -0.66897113657E+01 -0.88654737885E+01  0.13655077774E+02  0.51100000000E-03 0. -1.
        -11    1    3    3    0    0 -0.13027824447E+02  0.64936105707E+01 -0.33991986837E+01  0.14948101552E+02  0.51100000000E-03 0.  1.
        -12    1    3    3    0    0 -0.17514001338E+02 -0.10569799953E+01 -0.77570525039E+01  0.19184090104E+02  0.00000000000E+00 0.  1.
</event>
<event>
 7    1  0.2935819E-010  0.4778727E+02  0.7816164E-02  0.1312668E+00
        -11   -1    0    0    0    0  0.00000000000E+00  0.00000000000E+00  0.45593999997E+02  0.45594000000E+02  0.51100000000E-03 0. -1.
         11   -1    0    0    0    0 -0.00000000000E+00 -0.00000000000E+00 -0.45593999997E+02  0.45594000000E+02  0.51100000000E-03 0.  1.
    9900012    2    1    2    0    0 -0.26694247866E+01 -0.18942917351E+02  0.38957194719E+02  0.47787274582E+02  0.20000016127E+02 0.  0.
        -12    1    1    2    0    0  0.26694247866E+01  0.18942917351E+02 -0.38957194719E+02  0.43400725418E+02  0.00000000000E+00 0.  1.
         11    1    3    3    0    0  0.45575516799E+01 -0.16318764545E+02  0.29808529490E+02  0.34287341458E+02  0.51100000000E-03 0. -1.
        -11    1    3    3    0    0 -0.39431752837E+01  0.18613764798E+01  0.37579844824E+01  0.57563705013E+01  0.51100000000E-03 0.  1.
         12    1    3    3    0    0 -0.32838011829E+01 -0.44855292857E+01  0.53906807465E+01  0.77435626227E+01  0.00000000000E+00 0. -1.
</event>
<event>
 7    1  0.2935819E-010  0.4778727E+02  0.7816164E-02  0.1312668E+00
        -11   -1    0    0    0    0  0.00000000000E+00  0.00000000000E+00  0.45593999997E+02  0.45594000000E+02  0.51100000000E-03 0. -1.
         11   -1    0    0    0    0 -0.00000000000E+00 -0.00000000000E+00 -0.45593999997E+02  0.45594000000E+02  0.51100000000E-03 0.  1.
    9900012    2    1    2    0    0 -0.38210304519E+02 -0.19848301524E+02  0.54443279061E+01  0.47787272458E+02  0.20000006447E+02 0.  0.
        -12    1    1    2    0    0  0.38210304519E+02  0.19848301524E+02 -0.54443279061E+01  0.43400727542E+02  0.00000000000E+00 0.  1.
         11    1    3    3    0    0 -0.22142020735E+02 -0.16958753843E+02 -0.28215509115E+00  0.27891719665E+02  0.51100000000E-03 0. -1.
        -11    1    3    3    0    0 -0.16741132318E+02 -0.76830128231E+00  0.55880667420E+01  0.17665850909E+02  0.51100000000E-03 0.  1.
         12    1    3    3    0    0  0.67284853429E+00 -0.21212463991E+01  0.13841625525E+00  0.22297018849E+01  0.00000000000E+00 0. -1.
</event>
<event>
 7    1  0.2935819E-010  0.4778727E+02  0.7816164E-02  0.1312668E+00
        -11   -1    0    0    0    0  0.00000000000E+00  0.00000000000E+00  0.45593999997E+02  0.45594000000E+02  0.51100000000E-03 0. -1.
         11   -1    0    0    0    0 -0.00000000000E+00 -0.00000000000E+00 -0.45593999997E+02  0.45594000000E+02  0.51100000000E-03 0.  1.
    9900012    2    1    2    0    0 -0.35770148793E+02  0.65167038925E+01  0.23699204010E+02  0.47787271377E+02  0.20000001518E+02 0.  0.
        -12    1    1    2    0    0  0.35770148793E+02 -0.65167038925E+01 -0.23699204010E+02  0.43400728623E+02  0.00000000000E+00 0.  1.
         11    1    3    3    0    0 -0.58172097824E+01  0.40867444305E+01  0.77241457051E+01  0.10497801524E+02  0.51100000000E-03 0. -1.
        -11    1    3    3    0    0 -0.17371595463E+02 -0.60074482216E+01  0.69177154654E+01  0.19639667782E+02  0.51100000000E-03 0.  1.
        -12    1    3    3    0    0 -0.12581343548E+02  0.84374076835E+01  0.90573428392E+01  0.17649802072E+02  0.00000000000E+00 0.  1.
</event>
<event>
 7    1  0.2935819E-010  0.4778727E+02  0.7816164E-02  0.1312668E+00
        -11   -1    0    0    0    0  0.00000000000E+00  0.00000000000E+00  0.45593999997E+02  0.45594000000E+02  0.51100000000E-03 0. -1.
         11   -1    0    0    0    0 -0.00000000000E+00 -0.00000000000E+00 -0.45593999997E+02  0.45594000000E+02  0.51100000000E-03 0.  1.
    9900012    2    1    2    0    0 -0.30421262524E+01 -0.38228678576E+02  0.20320851728E+02  0.47787269444E+02  0.19999992705E+02 0.  0.
        -12    1    1    2    0    0  0.30421262524E+01  0.38228678576E+02 -0.20320851728E+02  0.43400730556E+02  0.00000000000E+00 0.  1.
         11    1    3    3    0    0 -0.25377020713E+01 -0.20762476797E+02  0.19074384814E+02  0.28308170744E+02  0.51100000000E-03 0. -1.
        -11    1    3    3    0    0 -0.36608161380E+01 -0.91897292610E+01 -0.19115671736E+01  0.10075057717E+02  0.51100000000E-03 0.  1.
        -12    1    3    3    0    0  0.31563919568E+01 -0.82764725174E+01  0.31580340882E+01  0.94040409834E+01  0.00000000000E+00 0.  1.
</event>
<event>
 7    1  0.2935819E-010  0.4778728E+02  0.7816164E-02  0.1312668E+00
        -11   -1    0    0    0    0  0.00000000000E+00  0.00000000000E+00  0.45593999997E+02  0.45594000000E+02  0.51100000000E-03 0.  1.
         11   -1    0    0    0    0 -0.00000000000E+00 -0.00000000000E+00 -0.45593999997E+02  0.45594000000E+02  0.51100000000E-03 0. -1.
    9900012    2    1    2    0    0 -0.11539078897E+01 -0.38474302759E+02 -0.20050416241E+02  0.47787278029E+02  0.20000031844E+02 0.  0.
        -12    1    1    2    0    0  0.11539078897E+01  0.38474302759E+02  0.20050416241E+02  0.43400721971E+02  0.00000000000E+00 0.  1.
         11    1    3    3    0    0  0.54798013168E+01 -0.18981824505E+01 -0.23897995563E+01  0.62723569149E+01  0.51100000000E-03 0. -1.
        -11    1    3    3    0    0 -0.66187440993E+01 -0.24779031589E+02 -0.10493992014E+02  0.27711586902E+02  0.51100000000E-03 0.  1.
         12    1    3    3    0    0 -0.14965107248E-01 -0.11797088719E+02 -0.71666246704E+01  0.13803334212E+02  0.00000000000E+00 0. -1.
</event>
<event>
 7    1  0.2935819E-010  0.4778727E+02  0.7816164E-02  0.1312668E+00
        -11   -1    0    0    0    0  0.00000000000E+00  0.00000000000E+00  0.45593999997E+02  0.45594000000E+02  0.51100000000E-03 0. -1.
         11   -1    0    0    0    0 -0.00000000000E+00 -0.00000000000E+00 -0.45593999997E+02  0.45594000000E+02  0.51100000000E-03 0.  1.
    9900012    2    1    2    0    0  0.31849862713E+02 -0.13519661584E+02  0.26199770489E+02  0.47787274454E+02  0.20000015547E+02 0.  0.
        -12    1    1    2    0    0 -0.31849862713E+02  0.13519661584E+02 -0.26199770489E+02  0.43400725546E+02  0.00000000000E+00 0.  1.
         11    1    3    3    0    0  0.16472650006E+02 -0.18460514509E+01  0.15515884731E+02  0.22704598288E+02  0.51100000000E-03 0. -1.
        -11    1    3    3    0    0  0.11590274976E+02 -0.13514600252E+02  0.60079835876E+01  0.18790283687E+02  0.51100000000E-03 0.  1.
        -12    1    3    3    0    0  0.37869377312E+01  0.18409901193E+01  0.46759021705E+01  0.62923924788E+01  0.00000000000E+00 0.  1.
</event>
<event>
 7    1  0.2935819E-010  0.4778728E+02  0.7816164E-02  0.1312668E+00
        -11   -1    0    0    0    0  0.00000000000E+00  0.00000000000E+00  0.45593999997E+02  0.45594000000E+02  0.51100000000E-03 0.  1.
         11   -1    0    0    0    0 -0.00000000000E+00 -0.00000000000E+00 -0.45593999997E+02  0.45594000000E+02  0.51100000000E-03 0. -1.
    9900012    2    1    2    0    0 -0.29805852292E+02  0.23931254072E+02  0.20555512894E+02  0.47787275782E+02  0.20000021602E+02 0.  0.
        -12    1    1    2    0    0  0.29805852292E+02 -0.23931254072E+02 -0.20555512894E+02  0.43400724218E+02  0.00000000000E+00 0.  1.
         11    1    3    3    0    0 -0.19768235048E+02  0.10826911809E+02  0.18229474385E+02  0.28988254049E+02  0.51100000000E-03 0. -1.
        -11    1    3    3    0    0  0.74893247930E+00  0.33004146144E+01 -0.15408583947E+01  0.37185859327E+01  0.51100000000E-03 0.  1.
         12    1    3    3    0    0 -0.10786549723E+02  0.98039276484E+01  0.38668969044E+01  0.15080435800E+02  0.00000000000E+00 0. -1.
</event>
<event>
 7    1  0.2935819E-010  0.4778727E+02  0.7816164E-02  0.1312668E+00
        -11   -1    0    0    0    0  0.00000000000E+00  0.00000000000E+00  0.45593999997E+02  0.45594000000E+02  0.51100000000E-03 0.  1.
         11   -1    0    0    0    0 -0.00000000000E+00 -0.00000000000E+00 -0.45593999997E+02  0.45594000000E+02  0.51100000000E-03 0. -1.
    9900012    2    1    2    0    0 -0.45116449267E+01  0.38857833513E+01 -0.42990338164E+02  0.47787269273E+02  0.19999991921E+02 0.  0.
        -12    1    1    2    0    0  0.45116449267E+01 -0.38857833513E+01  0.42990338164E+02  0.43400730727E+02  0.00000000000E+00 0.  1.
         11    1    3    3    0    0  0.61861191459E+00  0.46272138419E+00 -0.98319816921E+01  0.98622845241E+01  0.51100000000E-03 0. -1.
        -11    1    3    3    0    0  0.35186031625E+01 -0.37654404314E+01 -0.19815984336E+02  0.20475164110E+02  0.51100000000E-03 0.  1.
        -12    1    3    3    0    0 -0.86488600037E+01  0.71885023985E+01 -0.13342372136E+02  0.17449820638E+02  0.00000000000E+00 0.  1.
</event>
<event>
 7    1  0.2935819E-010  0.4778727E+02  0.7816164E-02  0.1312668E+00
        -11   -1    0    0    0    0  0.00000000000E+00  0.00000000000E+00  0.45593999997E+02  0.45594000000E+02  0.51100000000E-03 0.  1.
         11   -1    0    0    0    0 -0.00000000000E+00 -0.00000000000E+00 -0.45593999997E+02  0.45594000000E+02  0.51100000000E-03 0. -1.
    9900012    2    1    2    0    0  0.36364714337E+02  0.15037638727E+02 -0.18305745646E+02  0.47787270156E+02  0.19999995951E+02 0.  0.
        -12    1    1    2    0    0 -0.36364714337E+02 -0.15037638727E+02  0.18305745646E+02  0.43400729844E+02  0.00000000000E+00 0.  1.
         11    1    3    3    0    0  0.15567756974E+02  0.49599453513E+01 -0.12807148390E+02  0.20760037698E+02  0.51100000000E-03 0. -1.
        -11    1    3    3    0    0  0.18331072231E+02  0.78211138573E+01  0.74657580588E+00  0.19943806226E+02  0.51100000000E-03 0.  1.
        -12    1    3    3    0    0  0.24658851322E+01  0.22565795182E+01 -0.62451730619E+01  0.70834262318E+01  0.00000000000E+00 0.  1.
</event>
<event>
 7    1  0.2935819E-010  0.4778727E+02  0.7816164E-02  0.1312668E+00
        -11   -1    0    0    0    0  0.00000000000E+00  0.00000000000E+00  0.45593999997E+02  0.45594000000E+02  0.51100000000E-03 0. -1.
         11   -1    0    0    0    0 -0.00000000000E+00 -0.00000000000E+00 -0.45593999997E+02  0.45594000000E+02  0.51100000000E-03 0.  1.
    9900012    2    1    2    0    0 -0.13935999644E+02  0.22120235571E+02  0.34642553944E+02  0.47787268997E+02  0.19999990667E+02 0.  0.
        -12    1    1    2    0    0  0.13935999644E+02 -0.22120235571E+02 -0.34642553944E+02  0.43400731003E+02  0.00000000000E+00 0.  1.
         11    1    3    3    0    0 -0.45123912172E+01  0.14617488002E+02  0.75909970204E+01  0.17077935063E+02  0.51100000000E-03 0. -1.
        -11    1    3    3    0    0 -0.26562626618E+01  0.25777409139E+01  0.18018533755E+02  0.18394782915E+02  0.51100000000E-03 0.  1.
        -12    1    3    3    0    0 -0.67673457647E+01  0.49250066553E+01  0.90330231687E+01  0.12314551020E+02  0.00000000000E+00 0.  1.
</event>
<event>
 7    1  0.2935819E-010  0.4778729E+02  0.7816164E-02  0.1312668E+00
        -11   -1    0    0    0    0  0.00000000000E+00  0.00000000000E+00  0.45593999997E+02  0.45594000000E+02  0.51100000000E-03 0.  1.
         11   -1    0    0    0    0 -0.00000000000E+00 -0.00000000000E+00 -0.45593999997E+02  0.45594000000E+02  0.51100000000E-03 0. -1.
    9900012    2    1    2    0    0  0.26524059624E+02  0.28037419087E+02 -0.19849416148E+02  0.47787286533E+02  0.20000070621E+02 0.  0.
        -12    1    1    2    0    0 -0.26524059624E+02 -0.28037419087E+02  0.19849416148E+02  0.43400713467E+02  0.00000000000E+00 0.  1.
         11    1    3    3    0    0  0.78986322759E+01  0.99935248671E+01 -0.11914428405E+02  0.17441689585E+02  0.51100000000E-03 0. -1.
        -11    1    3    3    0    0  0.11111565609E+02  0.14366697493E+02  0.89223110977E+00  0.18184195439E+02  0.51100000000E-03 0.  1.
        -12    1    3    3    0    0  0.75138617388E+01  0.36771967261E+01 -0.88272188531E+01  0.12161401509E+02  0.00000000000E+00 0.  1.
</event>
<event>
 7    1  0.2935819E-010  0.4778727E+02  0.7816164E-02  0.1312668E+00
        -11   -1    0    0    0    0  0.00000000000E+00  0.00000000000E+00  0.45593999997E+02  0.45594000000E+02  0.51100000000E-03 0. -1.
         11   -1    0    0    0    0 -0.00000000000E+00 -0.00000000000E+00 -0.45593999997E+02  0.45594000000E+02  0.51100000000E-03 0.  1.
    9900012    2    1    2    0    0 -0.29712127651E+02 -0.17317836658E+02  0.26474611499E+02  0.47787273623E+02  0.20000011756E+02 0.  0.
        -12    1    1    2    0    0  0.29712127651E+02  0.17317836658E+02 -0.26474611499E+02  0.43400726377E+02  0.00000000000E+00 0.  1.
         11    1    3    3    0    0 -0.12530610197E+02 -0.13278758028E+01  0.11107193973E+02  0.16797297529E+02  0.51100000000E-03 0. -1.
        -11    1    3    3    0    0 -0.16540026435E+02 -0.18000904874E+02  0.15375365206E+02  0.28879177728E+02  0.51100000000E-03 0.  1.
        -12    1    3    3    0    0 -0.64149101912E+00  0.20109440196E+01 -0.79476795573E-02  0.21107983663E+01  0.00000000000E+00 0.  1.
</event>
<event>
 7    1  0.2935819E-010  0.4778728E+02  0.7816164E-02  0.1312668E+00
        -11   -1    0    0    0    0  0.00000000000E+00  0.00000000000E+00  0.45593999997E+02  0.45594000000E+02  0.51100000000E-03 0. -1.
         11   -1    0    0    0    0 -0.00000000000E+00 -0.00000000000E+00 -0.45593999997E+02  0.45594000000E+02  0.51100000000E-03 0.  1.
    9900012    2    1    2    0    0 -0.32290469497E+02  0.12604888598E+02 -0.26116367004E+02  0.47787282697E+02  0.20000053130E+02 0.  0.
        -12    1    1    2    0    0  0.32290469497E+02 -0.12604888598E+02  0.26116367004E+02  0.43400717303E+02  0.00000000000E+00 0.  1.
         11    1    3    3    0    0 -0.23649410060E+01  0.17483360615E+01  0.13213383101E+00  0.29439912629E+01  0.51100000000E-03 0. -1.
        -11    1    3    3    0    0  0.12901931784E+01  0.42409506761E+01 -0.36536040711E+01  0.57444829222E+01  0.51100000000E-03 0.  1.
        -12    1    3    3    0    0 -0.31215721669E+02  0.66156018608E+01 -0.22594896764E+02  0.39098808512E+02  0.00000000000E+00 0.  1.
</event>
<event>
 7    1  0.2935819E-010  0.4778727E+02  0.7816164E-02  0.1312668E+00
        -11   -1    0    0    0    0  0.00000000000E+00  0.00000000000E+00  0.45593999997E+02  0.45594000000E+02  0.51100000000E-03 0.  1.
         11   -1    0    0    0    0 -0.00000000000E+00 -0.00000000000E+00 -0.45593999997E+02  0.45594000000E+02  0.51100000000E-03 0. -1.
    9900012    2    1    2    0    0 -0.13009733365E+01 -0.28330275008E+02 -0.32853105913E+02  0.47787267497E+02  0.19999983827E+02 0.  0.
        -12    1    1    2    0    0  0.13009733365E+01  0.28330275008E+02  0.32853105913E+02  0.43400732503E+02  0.00000000000E+00 0.  1.
         11    1    3    3    0    0  0.10916848920E+01 -0.16142106538E+02 -0.21915385129E+02  0.27240475124E+02  0.51100000000E-03 0. -1.
        -11    1    3    3    0    0 -0.65347257967E+01 -0.57206228927E+01 -0.22916936970E+01  0.89822061756E+01  0.51100000000E-03 0.  1.
        -12    1    3    3    0    0  0.41420675682E+01 -0.64675455777E+01 -0.86460270871E+01  0.11564586198E+02  0.00000000000E+00 0.  1.
</event>
<event>
 7    1  0.2935819E-010  0.4778730E+02  0.7816164E-02  0.1312668E+00
        -11   -1    0    0    0    0  0.00000000000E+00  0.00000000000E+00  0.45593999997E+02  0.45594000000E+02  0.51100000000E-03 0.  1.
         11   -1    0    0    0    0 -0.00000000000E+00 -0.00000000000E+00 -0.45593999997E+02  0.45594000000E+02  0.51100000000E-03 0. -1.
    9900012    2    1    2    0    0 -0.99011515308E+01  0.35263745786E+02 -0.23282096748E+02  0.47787301879E+02  0.20000140585E+02 0.  0.
        -12    1    1    2    0    0  0.99011515308E+01 -0.35263745786E+02  0.23282096748E+02  0.43400698121E+02  0.00000000000E+00 0.  1.
         11    1    3    3    0    0 -0.67384494117E-01  0.25825164016E+02 -0.10615417659E+02  0.27921868302E+02  0.51100000000E-03 0. -1.
        -11    1    3    3    0    0 -0.10796357947E+02  0.75660675694E+01 -0.10617949836E+02  0.16927716396E+02  0.51100000000E-03 0.  1.
         12    1    3    3    0    0  0.96259091006E+00  0.18725142003E+01 -0.20487292518E+01  0.29377171814E+01  0.00000000000E+00 0. -1.
</event>
<event>
 7    1  0.2935819E-010  0.4778727E+02  0.7816164E-02  0.1312668E+00
        -11   -1    0    0    0    0  0.00000000000E+00  0.00000000000E+00  0.45593999997E+02  0.45594000000E+02  0.51100000000E-03 0. -1.
         11   -1    0    0    0    0 -0.00000000000E+00 -0.00000000000E+00 -0.45593999997E+02  0.45594000000E+02  0.51100000000E-03 0.  1.
    9900012    2    1    2    0    0  0.58933588094E+01  0.41366241692E+02  0.11735655179E+02  0.47787271524E+02  0.20000002184E+02 0.  0.
        -12    1    1    2    0    0 -0.58933588094E+01 -0.41366241692E+02 -0.11735655179E+02  0.43400728476E+02  0.00000000000E+00 0.  1.
         11    1    3    3    0    0 -0.51547460245E+01  0.17341088254E+02  0.77741917189E+01  0.19690678138E+02  0.51100000000E-03 0. -1.
        -11    1    3    3    0    0  0.85060343936E+01  0.87424029341E+01  0.30710625846E+01  0.12578300991E+02  0.51100000000E-03 0.  1.
         12    1    3    3    0    0  0.25420704404E+01  0.15282750504E+02  0.89040087541E+00  0.15518292394E+02  0.00000000000E+00 0. -1.
</event>
<event>
 7    1  0.2935819E-010  0.4778727E+02  0.7816164E-02  0.1312668E+00
        -11   -1    0    0    0    0  0.00000000000E+00  0.00000000000E+00  0.45593999997E+02  0.45594000000E+02  0.51100000000E-03 0. -1.
         11   -1    0    0    0    0 -0.00000000000E+00 -0.00000000000E+00 -0.45593999997E+02  0.45594000000E+02  0.51100000000E-03 0.  1.
    9900012    2    1    2    0    0  0.92582301781E+01 -0.17640177819E+02  0.38558174442E+02  0.47787268257E+02  0.19999987290E+02 0.  0.
        -12    1    1    2    0    0 -0.92582301781E+01  0.17640177819E+02 -0.38558174442E+02  0.43400731743E+02  0.00000000000E+00 0.  1.
         11    1    3    3    0    0 -0.73445546649E+00 -0.10662626693E+01  0.13031256392E+02  0.13095418448E+02  0.51100000000E-03 0. -1.
        -11    1    3    3    0    0  0.67243182902E+01 -0.12628845106E+02  0.79169718701E+01  0.16351838705E+02  0.51100000000E-03 0.  1.
         12    1    3    3    0    0  0.32683673544E+01 -0.39450700439E+01  0.17609946180E+02  0.18340011103E+02  0.00000000000E+00 0. -1.
</event>
<event>
 7    1  0.2935819E-010  0.4778727E+02  0.7816164E-02  0.1312668E+00
        -11   -1    0    0    0    0  0.00000000000E+00  0.00000000000E+00  0.45593999997E+02  0.45594000000E+02  0.51100000000E-03 0. -1.
         11   -1    0    0    0    0 -0.00000000000E+00 -0.00000000000E+00 -0.45593999997E+02  0.45594000000E+02  0.51100000000E-03 0.  1.
    9900012    2    1    2    0    0  0.16667599369E+02  0.17608410079E+02  0.35996640726E+02  0.47787272842E+02  0.20000008197E+02 0.  0.
        -12    1    1    2    0    0 -0.16667599369E+02 -0.17608410079E+02 -0.35996640726E+02  0.43400727158E+02  0.00000000000E+00 0.  1.
         11    1    3    3    0    0  0.73871902415E+00 -0.35057852151E+00  0.11216631668E+01  0.13880704655E+01  0.51100000000E-03 0. -1.
        -11    1    3    3    0    0 -0.21568734009E+01  0.10053947135E+02  0.78641703048E+01  0.12945235830E+02  0.51100000000E-03 0.  1.
        -12    1    3    3    0    0  0.18085753746E+02  0.79050414659E+01  0.27010807255E+02  0.33453966546E+02  0.00000000000E+00 0.  1.
</event>
<event>
 7    1  0.2935819E-010  0.4778727E+02  0.7816164E-02  0.1312668E+00
        -11   -1    0    0    0    0  0.00000000000E+00  0.00000000000E+00  0.45593999997E+02  0.45594000000E+02  0.51100000000E-03 0.  1.
         11   -1    0    0    0    0 -0.00000000000E+00 -0.00000000000E+00 -0.45593999997E+02  0.45594000000E+02  0.51100000000E-03 0. -1.
    9900012    2    1    2    0    0  0.49200916771E+00  0.33712375625E+02 -0.27328684862E+02  0.47787270057E+02  0.19999995497E+02 0.  0.
        -12    1    1    2    0    0 -0.49200916771E+00 -0.33712375625E+02  0.27328684862E+02  0.43400729943E+02  0.00000000000E+00 0.  1.
         11    1    3    3    0    0  0.41568158190E+01  0.24306908820E+02 -0.22225145489E+02  0.33197319566E+02  0.51100000000E-03 0. -1.
        -11    1    3    3    0    0 -0.59489088412E+01  0.88159830470E+01 -0.22202725025E+01  0.10864652950E+02  0.51100000000E-03 0.  1.
        -12    1    3    3    0    0  0.22841021898E+01  0.58948375856E+00 -0.28832668710E+01  0.37252975404E+01  0.00000000000E+00 0.  1.
</event>
<event>
 7    1  0.2935819E-010  0.4778727E+02  0.7816164E-02  0.1312668E+00
        -11   -1    0    0    0    0  0.00000000000E+00  0.00000000000E+00  0.45593999997E+02  0.45594000000E+02  0.51100000000E-03 0.  1.
         11   -1    0    0    0    0 -0.00000000000E+00 -0.00000000000E+00 -0.45593999997E+02  0.45594000000E+02  0.51100000000E-03 0. -1.
    9900012    2    1    2    0    0  0.78864958216E+01 -0.42324628715E+02  0.54820288172E+01  0.47787266686E+02  0.19999980128E+02 0.  0.
        -12    1    1    2    0    0 -0.78864958216E+01  0.42324628715E+02 -0.54820288172E+01  0.43400733314E+02  0.00000000000E+00 0.  1.
         11    1    3    3    0    0  0.59230721705E+01 -0.13518819862E+02 -0.50403071154E+01  0.15596344779E+02  0.51100000000E-03 0. -1.
        -11    1    3    3    0    0  0.32708528279E+01 -0.26248078348E+01  0.11042574437E+01  0.43367590612E+01  0.51100000000E-03 0.  1.
         12    1    3    3    0    0 -0.13074291769E+01 -0.26181001019E+02  0.94180784889E+01  0.27854162845E+02  0.00000000000E+00 0. -1.
</event>
<event>
 7    1  0.2935819E-010  0.4778727E+02  0.7816164E-02  0.1312668E+00
        -11   -1    0    0    0    0  0.00000000000E+00  0.00000000000E+00  0.45593999997E+02  0.45594000000E+02  0.51100000000E-03 0.  1.
         11   -1    0    0    0    0 -0.00000000000E+00 -0.00000000000E+00 -0.45593999997E+02  0.45594000000E+02  0.51100000000E-03 0. -1.
    9900012    2    1    2    0    0 -0.18203327799E+02 -0.58486806819E+01 -0.38962228659E+02  0.47787268776E+02  0.19999989658E+02 0.  0.
        -12    1    1    2    0    0  0.18203327799E+02  0.58486806819E+01  0.38962228659E+02  0.43400731224E+02  0.00000000000E+00 0.  1.
         11    1    3    3    0    0 -0.13331965326E+02 -0.98223074729E+01 -0.20027965300E+02  0.25987274152E+02  0.51100000000E-03 0. -1.
        -11    1    3    3    0    0 -0.69300477250E+01  0.46698043857E+01 -0.12745447522E+02  0.15240704290E+02  0.51100000000E-03 0.  1.
        -12    1    3    3    0    0  0.20586852520E+01 -0.69617759471E+00 -0.61888158377E+01  0.65592903338E+01  0.00000000000E+00 0.  1.
</event>
<event>
 7    1  0.2935819E-010  0.4778727E+02  0.7816164E-02  0.1312668E+00
        -11   -1    0    0    0    0  0.00000000000E+00  0.00000000000E+00  0.45593999997E+02  0.45594000000E+02  0.51100000000E-03 0.  1.
         11   -1    0    0    0    0 -0.00000000000E+00 -0.00000000000E+00 -0.45593999997E+02  0.45594000000E+02  0.51100000000E-03 0. -1.
    9900012    2    1    2    0    0 -0.30423989960E+02 -0.30517885404E+02 -0.51635967039E+01  0.47787271601E+02  0.20000002540E+02 0.  0.
        -12    1    1    2    0    0  0.30423989960E+02  0.30517885404E+02  0.51635967039E+01  0.43400728399E+02  0.00000000000E+00 0.  1.
         11    1    3    3    0    0 -0.18821028859E+01 -0.59448010031E+01 -0.34588315519E+01  0.71306722127E+01  0.51100000000E-03 0. -1.
        -11    1    3    3    0    0 -0.17101023610E+02 -0.15662413277E+02 -0.84263753364E+01  0.24673062229E+02  0.51100000000E-03 0.  1.
        -12    1    3    3    0    0 -0.11440863463E+02 -0.89106711241E+01  0.67216101844E+01  0.15983537160E+02  0.00000000000E+00 0.  1.
</event>
<event>
 7    1  0.2935819E-010  0.4778727E+02  0.7816164E-02  0.1312668E+00
        -11   -1    0    0    0    0  0.00000000000E+00  0.00000000000E+00  0.45593999997E+02  0.45594000000E+02  0.51100000000E-03 0.  1.
         11   -1    0    0    0    0 -0.00000000000E+00 -0.00000000000E+00 -0.45593999997E+02  0.45594000000E+02  0.51100000000E-03 0. -1.
    9900012    2    1    2    0    0 -0.22932116401E+01  0.10904172225E+02 -0.41945955430E+02  0.47787274563E+02  0.20000016043E+02 0.  0.
        -12    1    1    2    0    0  0.22932116401E+01 -0.10904172225E+02  0.41945955430E+02  0.43400725437E+02  0.00000000000E+00 0.  1.
         11    1    3    3    0    0 -0.42944479436E+01  0.64828226545E+01 -0.26708366400E+02  0.27817370629E+02  0.51100000000E-03 0. -1.
        -11    1    3    3    0    0 -0.21749261986E+00  0.83620951947E+01 -0.10420562985E+02  0.13362637175E+02  0.51100000000E-03 0.  1.
         12    1    3    3    0    0  0.22187289233E+01 -0.39407456238E+01 -0.48170260446E+01  0.66072667587E+01  0.00000000000E+00 0. -1.
</event>
<event>
 7    1  0.2935819E-010  0.4778728E+02  0.7816164E-02  0.1312668E+00
        -11   -1    0    0    0    0  0.00000000000E+00  0.00000000000E+00  0.45593999997E+02  0.45594000000E+02  0.51100000000E-03 0.  1.
         11   -1    0    0    0    0 -0.00000000000E+00 -0.00000000000E+00 -0.45593999997E+02  0.45594000000E+02  0.51100000000E-03 0. -1.
    9900012    2    1    2    0    0  0.23403365698E+02 -0.27268158584E+02 -0.24338285179E+02  0.47787284292E+02  0.20000060400E+02 0.  0.
        -12    1    1    2    0    0 -0.23403365698E+02  0.27268158584E+02  0.24338285179E+02  0.43400715708E+02  0.00000000000E+00 0.  1.
         11    1    3    3    0    0  0.13092873029E+02 -0.64669458173E+01 -0.62164808125E+01  0.15871022220E+02  0.51100000000E-03 0. -1.
        -11    1    3    3    0    0  0.10339082640E+02 -0.19346832344E+02 -0.19900826454E+02  0.29618228262E+02  0.51100000000E-03 0.  1.
        -12    1    3    3    0    0 -0.28589971782E-01 -0.14543804226E+01  0.17790220875E+01  0.22980338092E+01  0.00000000000E+00 0.  1.
</event>
<event>
 7    1  0.2935819E-010  0.4778727E+02  0.7816164E-02  0.1312668E+00
        -11   -1    0    0    0    0  0.00000000000E+00  0.00000000000E+00  0.45593999997E+02  0.45594000000E+02  0.51100000000E-03 0. -1.
         11   -1    0    0    0    0 -0.00000000000E+00 -0.00000000000E+00 -0.45593999997E+02  0.45594000000E+02  0.51100000000E-03 0.  1.
    9900012    2    1    2    0    0 -0.13213079791E+02 -0.36235064945E+02  0.19901209235E+02  0.47787268000E+02  0.19999986119E+02 0.  0.
        -12    1    1    2    0    0  0.13213079791E+02  0.36235064945E+02 -0.19901209235E+02  0.43400732000E+02  0.00000000000E+00 0.  1.
         11    1    3    3    0    0 -0.27596950661E+01 -0.23018080439E+02  0.60604663577E+01  0.23961994839E+02  0.51100000000E-03 0. -1.
        -11    1    3    3    0    0 -0.97525856112E+01 -0.11918002481E+02  0.15329481662E+02  0.21728891309E+02  0.51100000000E-03 0.  1.
        -12    1    3    3    0    0 -0.70079911347E+00 -0.12989820257E+01 -0.14887387844E+01  0.20963818518E+01  0.00000000000E+00 0.  1.
</event>
<event>
 7    1  0.2935819E-010  0.4778727E+02  0.7816164E-02  0.1312668E+00
        -11   -1    0    0    0    0  0.00000000000E+00  0.00000000000E+00  0.45593999997E+02  0.45594000000E+02  0.51100000000E-03 0. -1.
         11   -1    0    0    0    0 -0.00000000000E+00 -0.00000000000E+00 -0.45593999997E+02  0.45594000000E+02  0.51100000000E-03 0.  1.
    9900012    2    1    2    0    0 -0.20812118227E+02  0.38041848562E+02 -0.18157146792E+01  0.47787270433E+02  0.19999997214E+02 0.  0.
        -12    1    1    2    0    0  0.20812118227E+02 -0.38041848562E+02  0.18157146792E+01  0.43400729567E+02  0.00000000000E+00 0.  1.
         11    1    3    3    0    0 -0.60782007293E+01  0.27054172143E+02 -0.53770442681E+01  0.28245094437E+02  0.51100000000E-03 0. -1.
        -11    1    3    3    0    0 -0.95029722591E+01  0.65065817002E+01 -0.53285032441E+00  0.11529354575E+02  0.51100000000E-03 0.  1.
         12    1    3    3    0    0 -0.52309452384E+01  0.44810947192E+01  0.40941799133E+01  0.80128214214E+01  0.00000000000E+00 0. -1.
</event>
<event>
 7    1  0.2935819E-010  0.4778727E+02  0.7816164E-02  0.1312668E+00
        -11   -1    0    0    0    0  0.00000000000E+00  0.00000000000E+00  0.45593999997E+02  0.45594000000E+02  0.51100000000E-03 0. -1.
         11   -1    0    0    0    0 -0.00000000000E+00 -0.00000000000E+00 -0.45593999997E+02  0.45594000000E+02  0.51100000000E-03 0.  1.
    9900012    2    1    2    0    0 -0.12254664736E+02  0.24918179871E+02  0.33354622706E+02  0.47787270148E+02  0.19999995911E+02 0.  0.
        -12    1    1    2    0    0  0.12254664736E+02 -0.24918179871E+02 -0.33354622706E+02  0.43400729852E+02  0.00000000000E+00 0.  1.
         11    1    3    3    0    0 -0.38255056080E+01  0.52609959314E+01  0.10689617657E+02  0.12513212907E+02  0.51100000000E-03 0. -1.
        -11    1    3    3    0    0 -0.10918959221E+02  0.20869632702E+02  0.22379411632E+02  0.32490049320E+02  0.51100000000E-03 0.  1.
        -12    1    3    3    0    0  0.24898000927E+01 -0.12124487620E+01  0.28559341719E+00  0.27840079206E+01  0.00000000000E+00 0.  1.
</event>
<event>
 7    1  0.2935819E-010  0.4778727E+02  0.7816164E-02  0.1312668E+00
        -11   -1    0    0    0    0  0.00000000000E+00  0.00000000000E+00  0.45593999997E+02  0.45594000000E+02  0.51100000000E-03 0. -1.
         11   -1    0    0    0    0 -0.00000000000E+00 -0.00000000000E+00 -0.45593999997E+02  0.45594000000E+02  0.51100000000E-03 0.  1.
    9900012    2    1    2    0    0  0.22880025350E+01 -0.16069958353E+01  0.43310572688E+02  0.47787273073E+02  0.20000009248E+02 0.  0.
        -12    1    1    2    0    0 -0.22880025350E+01  0.16069958353E+01 -0.43310572688E+02  0.43400726927E+02  0.00000000000E+00 0.  1.
         11    1    3    3    0    0  0.51001380074E+01 -0.70559199178E+01  0.13959660932E+02  0.16452037782E+02  0.51100000000E-03 0. -1.
        -11    1    3    3    0    0  0.10599014142E+01 -0.12937501009E+01  0.10250816346E+01  0.19616250789E+01  0.51100000000E-03 0.  1.
         12    1    3    3    0    0 -0.38720368866E+01  0.67426741834E+01  0.28325830121E+02  0.29373610212E+02  0.00000000000E+00 0. -1.
</event>
<event>
 7    1  0.2935819E-010  0.4778727E+02  0.7816164E-02  0.1312668E+00
        -11   -1    0    0    0    0  0.00000000000E+00  0.00000000000E+00  0.45593999997E+02  0.45594000000E+02  0.51100000000E-03 0. -1.
         11   -1    0    0    0    0 -0.00000000000E+00 -0.00000000000E+00 -0.45593999997E+02  0.45594000000E+02  0.51100000000E-03 0.  1.
    9900012    2    1    2    0    0  0.72593057361E+01 -0.36310791793E+02  0.22637400814E+02  0.47787273784E+02  0.20000012492E+02 0.  0.
        -12    1    1    2    0    0 -0.72593057361E+01  0.36310791793E+02 -0.22637400814E+02  0.43400726216E+02  0.00000000000E+00 0.  1.
         11    1    3    3    0    0  0.67455441049E+01 -0.28449668269E+02  0.20598321732E+02  0.35765581896E+02  0.51100000000E-03 0. -1.
        -11    1    3    3    0    0  0.22533347847E+01  0.12155667282E+01  0.13011919364E-01  0.25603299970E+01  0.51100000000E-03 0.  1.
         12    1    3    3    0    0 -0.17395731535E+01 -0.90766902524E+01  0.20260671625E+01  0.94613618915E+01  0.00000000000E+00 0. -1.
</event>
<event>
 7    1  0.2935819E-010  0.4778727E+02  0.7816164E-02  0.1312668E+00
        -11   -1    0    0    0    0  0.00000000000E+00  0.00000000000E+00  0.45593999997E+02  0.45594000000E+02  0.51100000000E-03 0. -1.
         11   -1    0    0    0    0 -0.00000000000E+00 -0.00000000000E+00 -0.45593999997E+02  0.45594000000E+02  0.51100000000E-03 0.  1.
    9900012    2    1    2    0    0 -0.74087165080E+01 -0.32922455189E+02  0.27291869209E+02  0.47787271194E+02  0.20000000683E+02 0.  0.
        -12    1    1    2    0    0  0.74087165080E+01  0.32922455189E+02 -0.27291869209E+02  0.43400728806E+02  0.00000000000E+00 0.  1.
         11    1    3    3    0    0 -0.44948156397E+01 -0.13244544740E+02  0.16314096532E+01  0.14081293645E+02  0.51100000000E-03 0. -1.
        -11    1    3    3    0    0 -0.36011947540E+01 -0.19015129283E+02  0.19505550198E+02  0.27477449555E+02  0.51100000000E-03 0.  1.
        -12    1    3    3    0    0  0.68729388573E+00 -0.66278116602E+00  0.61549093580E+01  0.62285279934E+01  0.00000000000E+00 0.  1.
</event>
<event>
 7    1  0.2935819E-010  0.4778727E+02  0.7816164E-02  0.1312668E+00
        -11   -1    0    0    0    0  0.00000000000E+00  0.00000000000E+00  0.45593999997E+02  0.45594000000E+02  0.51100000000E-03 0. -1.
         11   -1    0    0    0    0 -0.00000000000E+00 -0.00000000000E+00 -0.45593999997E+02  0.45594000000E+02  0.51100000000E-03 0.  1.
    9900012    2    1    2    0    0 -0.48763082103E+01  0.37847921911E+02  0.20673161789E+02  0.47787271975E+02  0.20000004244E+02 0.  0.
        -12    1    1    2    0    0  0.48763082103E+01 -0.37847921911E+02 -0.20673161789E+02  0.43400728025E+02  0.00000000000E+00 0.  1.
         11    1    3    3    0    0 -0.86682843199E+01  0.88906178631E+01  0.27012284846E+01  0.12707433833E+02  0.51100000000E-03 0. -1.
        -11    1    3    3    0    0 -0.10355510365E+00  0.23254142131E+01  0.43037055750E+01  0.48928679585E+01  0.51100000000E-03 0.  1.
         12    1    3    3    0    0  0.38955312132E+01  0.26631889834E+02  0.13668227730E+02  0.30186970184E+02  0.00000000000E+00 0. -1.
</event>
<event>
 7    1  0.2935819E-010  0.4778732E+02  0.7816164E-02  0.1312668E+00
        -11   -1    0    0    0    0  0.00000000000E+00  0.00000000000E+00  0.45593999997E+02  0.45594000000E+02  0.51100000000E-03 0. -1.
         11   -1    0    0    0    0 -0.00000000000E+00 -0.00000000000E+00 -0.45593999997E+02  0.45594000000E+02  0.51100000000E-03 0.  1.
    9900012    2    1    2    0    0  0.30868609921E+02  0.63119530137E+01  0.29848061789E+02  0.47787324638E+02  0.20000244353E+02 0.  0.
        -12    1    1    2    0    0 -0.30868609921E+02 -0.63119530137E+01 -0.29848061789E+02  0.43400675362E+02  0.00000000000E+00 0.  1.
         11    1    3    3    0    0  0.21364605988E+02  0.74720324537E+01  0.20398061226E+02  0.30468977010E+02  0.51100000000E-03 0. -1.
        -11    1    3    3    0    0  0.19528954839E+00 -0.45795883431E+01  0.26602611055E+01  0.52997883741E+01  0.51100000000E-03 0.  1.
        -12    1    3    3    0    0  0.93087143843E+01  0.34195089031E+01  0.67897394581E+01  0.12018559254E+02  0.00000000000E+00 0.  1.
</event>
<event>
 7    1  0.2935819E-010  0.4778727E+02  0.7816164E-02  0.1312668E+00
        -11   -1    0    0    0    0  0.00000000000E+00  0.00000000000E+00  0.45593999997E+02  0.45594000000E+02  0.51100000000E-03 0.  1.
         11   -1    0    0    0    0 -0.00000000000E+00 -0.00000000000E+00 -0.45593999997E+02  0.45594000000E+02  0.51100000000E-03 0. -1.
    9900012    2    1    2    0    0  0.24740383295E+02  0.11671783671E+02 -0.33694307098E+02  0.47787269240E+02  0.19999991774E+02 0.  0.
        -12    1    1    2    0    0 -0.24740383295E+02 -0.11671783671E+02  0.33694307098E+02  0.43400730760E+02  0.00000000000E+00 0.  1.
         11    1    3    3    0    0  0.16409922239E+02 -0.25618455508E+01 -0.11925372542E+02  0.20446591673E+02  0.51100000000E-03 0. -1.
        -11    1    3    3    0    0  0.46545201186E+01  0.85391297875E+01 -0.13736126278E+02  0.16830402861E+02  0.51100000000E-03 0.  1.
         12    1    3    3    0    0  0.36759409383E+01  0.56944994340E+01 -0.80328082774E+01  0.10510274707E+02  0.00000000000E+00 0. -1.
</event>
<event>
 7    1  0.2935819E-010  0.4778726E+02  0.7816164E-02  0.1312668E+00
        -11   -1    0    0    0    0  0.00000000000E+00  0.00000000000E+00  0.45593999997E+02  0.45594000000E+02  0.51100000000E-03 0.  1.
         11   -1    0    0    0    0 -0.00000000000E+00 -0.00000000000E+00 -0.45593999997E+02  0.45594000000E+02  0.51100000000E-03 0. -1.
    9900012    2    1    2    0    0  0.99247311728E+01  0.28205878613E+02 -0.31457144257E+02  0.47787264961E+02  0.19999972261E+02 0.  0.
        -12    1    1    2    0    0 -0.99247311728E+01 -0.28205878613E+02  0.31457144257E+02  0.43400735039E+02  0.00000000000E+00 0.  1.
         11    1    3    3    0    0  0.55178904981E+01  0.15332178351E+02 -0.20788792108E+02  0.26413948703E+02  0.51100000000E-03 0. -1.
        -11    1    3    3    0    0  0.31198953812E+01  0.41689514344E+01  0.23073194352E+01  0.56954039794E+01  0.51100000000E-03 0.  1.
        -12    1    3    3    0    0  0.12869452935E+01  0.87047488279E+01 -0.12975671584E+02  0.15677912278E+02  0.00000000000E+00 0.  1.
</event>
<event>
 7    1  0.2935819E-010  0.4778727E+02  0.7816164E-02  0.1312668E+00
        -11   -1    0    0    0    0  0.00000000000E+00  0.00000000000E+00  0.45593999997E+02  0.45594000000E+02  0.51100000000E-03 0.  1.
         11   -1    0    0    0    0 -0.00000000000E+00 -0.00000000000E+00 -0.45593999997E+02  0.45594000000E+02  0.51100000000E-03 0. -1.
    9900012    2    1    2    0    0 -0.47874139318E+01 -0.75013204281E+01 -0.42478631180E+02  0.47787271351E+02  0.20000001399E+02 0.  0.
        -12    1    1    2    0    0  0.47874139318E+01  0.75013204281E+01  0.42478631180E+02  0.43400728649E+02  0.00000000000E+00 0.  1.
         11    1    3    3    0    0 -0.45362901041E+01 -0.11071254062E+02 -0.23593655054E+02  0.26453944006E+02  0.51100000000E-03 0. -1.
        -11    1    3    3    0    0 -0.11052919293E+01  0.63311772589E+01 -0.16031364475E+02  0.17271656635E+02  0.51100000000E-03 0.  1.
        -12    1    3    3    0    0  0.85416810154E+00 -0.27612436253E+01 -0.28536116514E+01  0.40616707106E+01  0.00000000000E+00 0.  1.
</event>
<event>
 7    1  0.2935819E-010  0.4778727E+02  0.7816164E-02  0.1312668E+00
        -11   -1    0    0    0    0  0.00000000000E+00  0.00000000000E+00  0.45593999997E+02  0.45594000000E+02  0.51100000000E-03 0.  1.
         11   -1    0    0    0    0 -0.00000000000E+00 -0.00000000000E+00 -0.45593999997E+02  0.45594000000E+02  0.51100000000E-03 0. -1.
    9900012    2    1    2    0    0 -0.25861058960E+02 -0.72258203818E+01 -0.34097162610E+02  0.47787270182E+02  0.19999996066E+02 0.  0.
        -12    1    1    2    0    0  0.25861058960E+02  0.72258203818E+01  0.34097162610E+02  0.43400729818E+02  0.00000000000E+00 0.  1.
         11    1    3    3    0    0 -0.13481857301E+02 -0.66086579940E+01 -0.20570954393E+02  0.25467606909E+02  0.51100000000E-03 0. -1.
        -11    1    3    3    0    0 -0.74630800508E+01  0.34242109619E+01 -0.10029825531E+01  0.82721677219E+01  0.51100000000E-03 0.  1.
        -12    1    3    3    0    0 -0.49161216073E+01 -0.40413733497E+01 -0.12523225664E+02  0.14047495551E+02  0.00000000000E+00 0.  1.
</event>
<event>
 7    1  0.2935819E-010  0.4778727E+02  0.7816164E-02  0.1312668E+00
        -11   -1    0    0    0    0  0.00000000000E+00  0.00000000000E+00  0.45593999997E+02  0.45594000000E+02  0.51100000000E-03 0. -1.
         11   -1    0    0    0    0 -0.00000000000E+00 -0.00000000000E+00 -0.45593999997E+02  0.45594000000E+02  0.51100000000E-03 0.  1.
    9900012    2    1    2    0    0 -0.29334594076E+01 -0.23208742089E+02  0.36556429174E+02  0.47787269506E+02  0.19999992986E+02 0.  0.
        -12    1    1    2    0    0  0.29334594076E+01  0.23208742089E+02 -0.36556429174E+02  0.43400730494E+02  0.00000000000E+00 0.  1.
         11    1    3    3    0    0 -0.61364228860E+00 -0.10009709810E+02  0.58733390204E+01  0.11621831132E+02  0.51100000000E-03 0. -1.
        -11    1    3    3    0    0 -0.75641422730E+01 -0.46290402282E+01  0.17187617316E+02  0.19340590762E+02  0.51100000000E-03 0.  1.
        -12    1    3    3    0    0  0.52443251540E+01 -0.85699920508E+01  0.13495472838E+02  0.16824847613E+02  0.00000000000E+00 0.  1.
</event>
<event>
 7    1  0.2935819E-010  0.4778727E+02  0.7816164E-02  0.1312668E+00
        -11   -1    0    0    0    0  0.00000000000E+00  0.00000000000E+00  0.45593999997E+02  0.45594000000E+02  0.51100000000E-03 0.  1.
         11   -1    0    0    0    0 -0.00000000000E+00 -0.00000000000E+00 -0.45593999997E+02  0.45594000000E+02  0.51100000000E-03 0. -1.
    9900012    2    1    2    0    0  0.13698998480E+02  0.11469889765E+01 -0.41166072630E+02  0.47787266379E+02  0.19999978729E+02 0.  0.
        -12    1    1    2    0    0 -0.13698998480E+02 -0.11469889765E+01  0.41166072630E+02  0.43400733621E+02  0.00000000000E+00 0.  1.
         11    1    3    3    0    0  0.63647642182E+01  0.55089728126E+01 -0.23688983301E+02  0.25140145884E+02  0.51100000000E-03 0. -1.
        -11    1    3    3    0    0  0.82082771928E+01 -0.44979259677E+01 -0.18831571348E+02  0.21029389724E+02  0.51100000000E-03 0.  1.
        -12    1    3    3    0    0 -0.87404293053E+00  0.13594213161E+00  0.13544820187E+01  0.16177307708E+01  0.00000000000E+00 0.  1.
</event>
<event>
 7    1  0.2935819E-010  0.4778727E+02  0.7816164E-02  0.1312668E+00
        -11   -1    0    0    0    0  0.00000000000E+00  0.00000000000E+00  0.45593999997E+02  0.45594000000E+02  0.51100000000E-03 0.  1.
         11   -1    0    0    0    0 -0.00000000000E+00 -0.00000000000E+00 -0.45593999997E+02  0.45594000000E+02  0.51100000000E-03 0. -1.
    9900012    2    1    2    0    0  0.19983152848E+02  0.19086659385E+02 -0.33466341709E+02  0.47787274296E+02  0.20000014827E+02 0.  0.
        -12    1    1    2    0    0 -0.19983152848E+02 -0.19086659385E+02  0.33466341709E+02  0.43400725704E+02  0.00000000000E+00 0.  1.
         11    1    3    3    0    0  0.19578211943E+02  0.11999025822E+02 -0.24323895907E+02  0.33450484539E+02  0.51100000000E-03 0. -1.
        -11    1    3    3    0    0  0.26577310597E+01  0.57108391679E+01 -0.18256442240E+01  0.65582158764E+01  0.51100000000E-03 0.  1.
         12    1    3    3    0    0 -0.22527901550E+01  0.13767943951E+01 -0.73168015778E+01  0.77785738807E+01  0.00000000000E+00 0. -1.
</event>
<event>
 7    1  0.2935819E-010  0.4778727E+02  0.7816164E-02  0.1312668E+00
        -11   -1    0    0    0    0  0.00000000000E+00  0.00000000000E+00  0.45593999997E+02  0.45594000000E+02  0.51100000000E-03 0.  1.
         11   -1    0    0    0    0 -0.00000000000E+00 -0.00000000000E+00 -0.45593999997E+02  0.45594000000E+02  0.51100000000E-03 0. -1.
    9900012    2    1    2    0    0 -0.27185304944E+02  0.23915533928E+02 -0.23929683102E+02  0.47787270728E+02  0.19999998559E+02 0.  0.
        -12    1    1    2    0    0  0.27185304944E+02 -0.23915533928E+02  0.23929683102E+02  0.43400729272E+02  0.00000000000E+00 0.  1.
         11    1    3    3    0    0 -0.24918148308E+02  0.11673293177E+02 -0.16038295268E+02  0.31849753595E+02  0.51100000000E-03 0. -1.
        -11    1    3    3    0    0  0.35551602701E+00  0.34652824754E+01 -0.54314645146E+01  0.64525484356E+01  0.51100000000E-03 0.  1.
         12    1    3    3    0    0 -0.26226726634E+01  0.87769582749E+01 -0.24599233191E+01  0.94849686976E+01  0.00000000000E+00 0. -1.
</event>
<event>
 7    1  0.2935819E-010  0.4778727E+02  0.7816164E-02  0.1312668E+00
        -11   -1    0    0    0    0  0.00000000000E+00  0.00000000000E+00  0.45593999997E+02  0.45594000000E+02  0.51100000000E-03 0.  1.
         11   -1    0    0    0    0 -0.00000000000E+00 -0.00000000000E+00 -0.45593999997E+02  0.45594000000E+02  0.51100000000E-03 0. -1.
    9900012    2    1    2    0    0 -0.27951057533E+02 -0.20034304182E+02 -0.26476180757E+02  0.47787272947E+02  0.20000008675E+02 0.  0.
        -12    1    1    2    0    0  0.27951057533E+02  0.20034304182E+02  0.26476180757E+02  0.43400727053E+02  0.00000000000E+00 0.  1.
         11    1    3    3    0    0 -0.17613770811E+02 -0.86117467384E+01 -0.90858721859E+01  0.21609261387E+02  0.51100000000E-03 0. -1.
        -11    1    3    3    0    0 -0.84254084923E+01 -0.13653733268E+02 -0.16703141136E+02  0.23160459074E+02  0.51100000000E-03 0.  1.
         12    1    3    3    0    0 -0.19118782294E+01  0.22311758243E+01 -0.68716743444E+00  0.30175524861E+01  0.00000000000E+00 0. -1.
</event>
<event>
 7    1  0.2935819E-010  0.4778727E+02  0.7816164E-02  0.1312668E+00
        -11   -1    0    0    0    0  0.00000000000E+00  0.00000000000E+00  0.45593999997E+02  0.45594000000E+02  0.51100000000E-03 0. -1.
         11   -1    0    0    0    0 -0.00000000000E+00 -0.00000000000E+00 -0.45593999997E+02  0.45594000000E+02  0.51100000000E-03 0.  1.
    9900012    2    1    2    0    0  0.12710391280E+02  0.41063491442E+02  0.59882482328E+01  0.47787268523E+02  0.19999988502E+02 0.  0.
        -12    1    1    2    0    0 -0.12710391280E+02 -0.41063491442E+02 -0.59882482328E+01  0.43400731477E+02  0.00000000000E+00 0.  1.
         11    1    3    3    0    0  0.97605332390E+01  0.15923627768E+02  0.62953508664E+01  0.19709423462E+02  0.51100000000E-03 0. -1.
        -11    1    3    3    0    0 -0.45785819063E+01  0.63076432302E+01 -0.17282093636E+00  0.77961299841E+01  0.51100000000E-03 0.  1.
        -12    1    3    3    0    0  0.75284399469E+01  0.18832220444E+02 -0.13428169724E+00  0.20281715077E+02  0.00000000000E+00 0.  1.
</event>
<event>
 7    1  0.2935819E-010  0.4778729E+02  0.7816164E-02  0.1312668E+00
        -11   -1    0    0    0    0  0.00000000000E+00  0.00000000000E+00  0.45593999997E+02  0.45594000000E+02  0.51100000000E-03 0.  1.
         11   -1    0    0    0    0 -0.00000000000E+00 -0.00000000000E+00 -0.45593999997E+02  0.45594000000E+02  0.51100000000E-03 0. -1.
    9900012    2    1    2    0    0  0.12758442848E+01  0.33505705934E+02 -0.27556520267E+02  0.47787286665E+02  0.20000071221E+02 0.  0.
        -12    1    1    2    0    0 -0.12758442848E+01 -0.33505705934E+02  0.27556520267E+02  0.43400713335E+02  0.00000000000E+00 0.  1.
         11    1    3    3    0    0  0.29846753102E+01  0.20404528800E+02 -0.14208089866E+02  0.25042422011E+02  0.51100000000E-03 0. -1.
        -11    1    3    3    0    0 -0.41038189439E+01  0.30560993130E+01 -0.11033105899E+02  0.12161846035E+02  0.51100000000E-03 0.  1.
         12    1    3    3    0    0  0.23949879185E+01  0.10045077821E+02 -0.23153245018E+01  0.10583018620E+02  0.00000000000E+00 0. -1.
</event>
<event>
 7    1  0.2935819E-010  0.4778727E+02  0.7816164E-02  0.1312668E+00
        -11   -1    0    0    0    0  0.00000000000E+00  0.00000000000E+00  0.45593999997E+02  0.45594000000E+02  0.51100000000E-03 0. -1.
         11   -1    0    0    0    0 -0.00000000000E+00 -0.00000000000E+00 -0.45593999997E+02  0.45594000000E+02  0.51100000000E-03 0.  1.
    9900012    2    1    2    0    0 -0.36919227943E+01  0.37831210724E+02  0.20947374705E+02  0.47787270677E+02  0.19999998325E+02 0.  0.
        -12    1    1    2    0    0  0.36919227943E+01 -0.37831210724E+02 -0.20947374705E+02  0.43400729323E+02  0.00000000000E+00 0.  1.
         11    1    3    3    0    0 -0.71194095352E+01  0.19450804204E+02  0.35632462190E+01  0.21017052605E+02  0.51100000000E-03 0. -1.
        -11    1    3    3    0    0  0.59649281847E+01  0.12442313724E+02  0.10562699802E+02  0.17377058624E+02  0.51100000000E-03 0.  1.
        -12    1    3    3    0    0 -0.25374414438E+01  0.59380927956E+01  0.68214286838E+01  0.93931594481E+01  0.00000000000E+00 0.  1.
</event>
<event>
 7    1  0.2935819E-010  0.4778728E+02  0.7816164E-02  0.1312668E+00
        -11   -1    0    0    0    0  0.00000000000E+00  0.00000000000E+00  0.45593999997E+02  0.45594000000E+02  0.51100000000E-03 0. -1.
         11   -1    0    0    0    0 -0.00000000000E+00 -0.00000000000E+00 -0.45593999997E+02  0.45594000000E+02  0.51100000000E-03 0.  1.
    9900012    2    1    2    0    0  0.32153091382E+01  0.32372573575E+02  0.28728054293E+02  0.47787276087E+02  0.20000022992E+02 0.  0.
        -12    1    1    2    0    0 -0.32153091382E+01 -0.32372573575E+02 -0.28728054293E+02  0.43400723913E+02  0.00000000000E+00 0.  1.
         11    1    3    3    0    0 -0.48687717604E+01  0.36698288847E+01  0.92297263796E+01  0.11061664965E+02  0.51100000000E-03 0. -1.
        -11    1    3    3    0    0 -0.45027215821E-01  0.13128706799E+02  0.53828952040E+01  0.14189451388E+02  0.51100000000E-03 0.  1.
         12    1    3    3    0    0  0.81291081145E+01  0.15574037891E+02  0.14115432709E+02  0.22536159734E+02  0.00000000000E+00 0. -1.
</event>
<event>
 7    1  0.2935819E-010  0.4778727E+02  0.7816164E-02  0.1312668E+00
        -11   -1    0    0    0    0  0.00000000000E+00  0.00000000000E+00  0.45593999997E+02  0.45594000000E+02  0.51100000000E-03 0. -1.
         11   -1    0    0    0    0 -0.00000000000E+00 -0.00000000000E+00 -0.45593999997E+02  0.45594000000E+02  0.51100000000E-03 0.  1.
    9900012    2    1    2    0    0 -0.35451164449E+02  0.17389151690E+02  0.18012649482E+02  0.47787271911E+02  0.20000003951E+02 0.  0.
        -12    1    1    2    0    0  0.35451164449E+02 -0.17389151690E+02 -0.18012649482E+02  0.43400728089E+02  0.00000000000E+00 0.  1.
         11    1    3    3    0    0 -0.14514560401E+02  0.14608379243E+02  0.32928396624E+01  0.20854735698E+02  0.51100000000E-03 0. -1.
        -11    1    3    3    0    0 -0.13585079479E+02 -0.45191774092E+00  0.53897747549E+01  0.14622184729E+02  0.51100000000E-03 0.  1.
        -12    1    3    3    0    0 -0.73515245693E+01  0.32326901877E+01  0.93300350646E+01  0.12310351484E+02  0.00000000000E+00 0.  1.
</event>
<event>
 7    1  0.2935819E-010  0.4778727E+02  0.7816164E-02  0.1312668E+00
        -11   -1    0    0    0    0  0.00000000000E+00  0.00000000000E+00  0.45593999997E+02  0.45594000000E+02  0.51100000000E-03 0.  1.
         11   -1    0    0    0    0 -0.00000000000E+00 -0.00000000000E+00 -0.45593999997E+02  0.45594000000E+02  0.51100000000E-03 0. -1.
    9900012    2    1    2    0    0  0.43170612182E+02 -0.31352066929E+01  0.31767789022E+01  0.47787271880E+02  0.20000003810E+02 0.  0.
        -12    1    1    2    0    0 -0.43170612182E+02  0.31352066929E+01 -0.31767789022E+01  0.43400728120E+02  0.00000000000E+00 0.  1.
         11    1    3    3    0    0  0.49068780012E+01 -0.31764739158E+01 -0.41709060583E+01  0.71808005031E+01  0.51100000000E-03 0. -1.
        -11    1    3    3    0    0  0.14714319474E+02 -0.16565158397E+01  0.83035821308E+01  0.16976593262E+02  0.51100000000E-03 0.  1.
        -12    1    3    3    0    0  0.23549414707E+02  0.16977830626E+01 -0.95589717033E+00  0.23629878115E+02  0.00000000000E+00 0.  1.
</event>
<event>
 7    1  0.2935819E-010  0.4778727E+02  0.7816164E-02  0.1312668E+00
        -11   -1    0    0    0    0  0.00000000000E+00  0.00000000000E+00  0.45593999997E+02  0.45594000000E+02  0.51100000000E-03 0.  1.
         11   -1    0    0    0    0 -0.00000000000E+00 -0.00000000000E+00 -0.45593999997E+02  0.45594000000E+02  0.51100000000E-03 0. -1.
    9900012    2    1    2    0    0 -0.17680686628E+02 -0.10898064320E+02 -0.38108378901E+02  0.47787273877E+02  0.20000012913E+02 0.  0.
        -12    1    1    2    0    0  0.17680686628E+02  0.10898064320E+02  0.38108378901E+02  0.43400726123E+02  0.00000000000E+00 0.  1.
         11    1    3    3    0    0  0.12712819966E+00  0.11252721183E+01 -0.22889411505E+01  0.25537522924E+01  0.51100000000E-03 0. -1.
        -11    1    3    3    0    0  0.17782719104E+01 -0.39458930706E+01 -0.14679796803E+02  0.15304533889E+02  0.51100000000E-03 0.  1.
        -12    1    3    3    0    0 -0.19586086738E+02 -0.80774433673E+01 -0.21139640948E+02  0.29928987695E+02  0.00000000000E+00 0.  1.
</event>
<event>
 7    1  0.2935819E-010  0.4778727E+02  0.7816164E-02  0.1312668E+00
        -11   -1    0    0    0    0  0.00000000000E+00  0.00000000000E+00  0.45593999997E+02  0.45594000000E+02  0.51100000000E-03 0. -1.
         11   -1    0    0    0    0 -0.00000000000E+00 -0.00000000000E+00 -0.45593999997E+02  0.45594000000E+02  0.51100000000E-03 0.  1.
    9900012    2    1    2    0    0  0.21857794435E+02  0.24301842808E+02  0.28553114197E+02  0.47787273372E+02  0.20000010614E+02 0.  0.
        -12    1    1    2    0    0 -0.21857794435E+02 -0.24301842808E+02 -0.28553114197E+02  0.43400726628E+02  0.00000000000E+00 0.  1.
         11    1    3    3    0    0  0.34258230317E+01  0.84444439915E+01  0.37799694974E+01  0.98657522486E+01  0.51100000000E-03 0. -1.
        -11    1    3    3    0    0  0.98811513481E+01  0.15304873702E+02  0.22699118373E+02  0.29105433963E+02  0.51100000000E-03 0.  1.
        -12    1    3    3    0    0  0.85508200553E+01  0.55252511406E+00  0.20740263271E+01  0.88160871608E+01  0.00000000000E+00 0.  1.
</event>
<event>
 7    1  0.2935819E-010  0.4778727E+02  0.7816164E-02  0.1312668E+00
        -11   -1    0    0    0    0  0.00000000000E+00  0.00000000000E+00  0.45593999997E+02  0.45594000000E+02  0.51100000000E-03 0. -1.
         11   -1    0    0    0    0 -0.00000000000E+00 -0.00000000000E+00 -0.45593999997E+02  0.45594000000E+02  0.51100000000E-03 0.  1.
    9900012    2    1    2    0    0  0.23109447255E+00 -0.43263665567E+02  0.34387629452E+01  0.47787271278E+02  0.20000001066E+02 0.  0.
        -12    1    1    2    0    0 -0.23109447255E+00  0.43263665567E+02 -0.34387629452E+01  0.43400728722E+02  0.00000000000E+00 0.  1.
         11    1    3    3    0    0 -0.48789651543E+01 -0.35596785456E+02  0.41930360267E+01  0.36173429298E+02  0.51100000000E-03 0. -1.
        -11    1    3    3    0    0  0.11602157263E+01  0.13288091089E+01 -0.71127764246E-01  0.17654726278E+01  0.51100000000E-03 0.  1.
         12    1    3    3    0    0  0.39498439006E+01 -0.89956892204E+01 -0.68314531731E+00  0.98483693530E+01  0.00000000000E+00 0. -1.
</event>
<event>
 7    1  0.2935819E-010  0.4778727E+02  0.7816164E-02  0.1312668E+00
        -11   -1    0    0    0    0  0.00000000000E+00  0.00000000000E+00  0.45593999997E+02  0.45594000000E+02  0.51100000000E-03 0. -1.
         11   -1    0    0    0    0 -0.00000000000E+00 -0.00000000000E+00 -0.45593999997E+02  0.45594000000E+02  0.51100000000E-03 0.  1.
    9900012    2    1    2    0    0 -0.24812446832E+02 -0.34499799334E+02  0.88164382863E+01  0.47787271251E+02  0.20000000943E+02 0.  0.
        -12    1    1    2    0    0  0.24812446832E+02  0.34499799334E+02 -0.88164382863E+01  0.43400728749E+02  0.00000000000E+00 0.  1.
         11    1    3    3    0    0 -0.11571298581E+02 -0.76556687027E+01  0.45204830655E+01  0.14592428912E+02  0.51100000000E-03 0. -1.
        -11    1    3    3    0    0 -0.30852882062E+01 -0.20847225999E+02  0.36046438397E+01  0.21380348282E+02  0.51100000000E-03 0.  1.
        -12    1    3    3    0    0 -0.10155860044E+02 -0.59969046317E+01  0.69131138113E+00  0.11814494057E+02  0.00000000000E+00 0.  1.
</event>
<event>
 7    1  0.2935819E-010  0.4778727E+02  0.7816164E-02  0.1312668E+00
        -11   -1    0    0    0    0  0.00000000000E+00  0.00000000000E+00  0.45593999997E+02  0.45594000000E+02  0.51100000000E-03 0.  1.
         11   -1    0    0    0    0 -0.00000000000E+00 -0.00000000000E+00 -0.45593999997E+02  0.45594000000E+02  0.51100000000E-03 0. -1.
    9900012    2    1    2    0    0 -0.22437471362E+01 -0.37915691934E+02 -0.20999739333E+02  0.47787272494E+02  0.20000006608E+02 0.  0.
        -12    1    1    2    0    0  0.22437471362E+01  0.37915691934E+02  0.20999739333E+02  0.43400727506E+02  0.00000000000E+00 0.  1.
         11    1    3    3    0    0  0.15292235329E+01 -0.19267802583E+02 -0.10994831813E+02  0.22236750389E+02  0.51100000000E-03 0. -1.
        -11    1    3    3    0    0 -0.23298753503E+01  0.17571632634E+01 -0.22062226581E+01  0.36583275633E+01  0.51100000000E-03 0.  1.
        -12    1    3    3    0    0 -0.14430953188E+01 -0.20405052614E+02 -0.77986848615E+01  0.21892194542E+02  0.00000000000E+00 0.  1.
</event>
<event>
 7    1  0.2935819E-010  0.4778727E+02  0.7816164E-02  0.1312668E+00
        -11   -1    0    0    0    0  0.00000000000E+00  0.00000000000E+00  0.45593999997E+02  0.45594000000E+02  0.51100000000E-03 0.  1.
         11   -1    0    0    0    0 -0.00000000000E+00 -0.00000000000E+00 -0.45593999997E+02  0.45594000000E+02  0.51100000000E-03 0. -1.
    9900012    2    1    2    0    0 -0.26042862432E+02  0.29041279192E+02 -0.19026212523E+02  0.47787270240E+02  0.19999996333E+02 0.  0.
        -12    1    1    2    0    0  0.26042862432E+02 -0.29041279192E+02  0.19026212523E+02  0.43400729760E+02  0.00000000000E+00 0.  1.
         11    1    3    3    0    0 -0.49808199404E+01  0.53483597538E+01 -0.86721422919E+01  0.11341056896E+02  0.51100000000E-03 0. -1.
        -11    1    3    3    0    0 -0.31243514592E+01  0.59199490183E+00  0.29293856335E+01  0.43235784318E+01  0.51100000000E-03 0.  1.
        -12    1    3    3    0    0 -0.17937691032E+02  0.23100924536E+02 -0.13283455864E+02  0.32122634912E+02  0.00000000000E+00 0.  1.
</event>
<event>
 7    1  0.2935819E-010  0.4778727E+02  0.7816164E-02  0.1312668E+00
        -11   -1    0    0    0    0  0.00000000000E+00  0.00000000000E+00  0.45593999997E+02  0.45594000000E+02  0.51100000000E-03 0.  1.
         11   -1    0    0    0    0 -0.00000000000E+00 -0.00000000000E+00 -0.45593999997E+02  0.45594000000E+02  0.51100000000E-03 0. -1.
    9900012    2    1    2    0    0 -0.13138879340E+02  0.90751355920E+01 -0.40356348903E+02  0.47787272667E+02  0.20000007396E+02 0.  0.
        -12    1    1    2    0    0  0.13138879340E+02 -0.90751355920E+01  0.40356348903E+02  0.43400727333E+02  0.00000000000E+00 0.  1.
         11    1    3    3    0    0 -0.11362553007E+01  0.10270453119E+02 -0.86750447926E+01  0.13491837747E+02  0.51100000000E-03 0. -1.
        -11    1    3    3    0    0 -0.33091740875E+01 -0.27251381653E+01 -0.95074323232E+01  0.10429203268E+02  0.51100000000E-03 0.  1.
         12    1    3    3    0    0 -0.86934499520E+01  0.15298206387E+01 -0.22173871787E+02  0.23866231652E+02  0.00000000000E+00 0. -1.
</event>
<event>
 7    1  0.2935819E-010  0.4778726E+02  0.7816164E-02  0.1312668E+00
        -11   -1    0    0    0    0  0.00000000000E+00  0.00000000000E+00  0.45593999997E+02  0.45594000000E+02  0.51100000000E-03 0. -1.
         11   -1    0    0    0    0 -0.00000000000E+00 -0.00000000000E+00 -0.45593999997E+02  0.45594000000E+02  0.51100000000E-03 0.  1.
    9900012    2    1    2    0    0  0.16074012936E+02 -0.24693112581E+02  0.31866916969E+02  0.47787261551E+02  0.19999956713E+02 0.  0.
        -12    1    1    2    0    0 -0.16074012936E+02  0.24693112581E+02 -0.31866916969E+02  0.43400738449E+02  0.00000000000E+00 0.  1.
         11    1    3    3    0    0  0.19224498689E+02 -0.16454563026E+02  0.28847012810E+02  0.38372961086E+02  0.51100000000E-03 0. -1.
        -11    1    3    3    0    0 -0.26422559872E+01 -0.77752064909E+01  0.29382330750E+01  0.87217295614E+01  0.51100000000E-03 0.  1.
         12    1    3    3    0    0 -0.50822976533E+00 -0.46334306467E+00  0.81671084923E-01  0.69257090327E+00  0.00000000000E+00 0. -1.
</event>
<event>
 7    1  0.2935819E-010  0.4778727E+02  0.7816164E-02  0.1312668E+00
        -11   -1    0    0    0    0  0.00000000000E+00  0.00000000000E+00  0.45593999997E+02  0.45594000000E+02  0.51100000000E-03 0.  1.
         11   -1    0    0    0    0 -0.00000000000E+00 -0.00000000000E+00 -0.45593999997E+02  0.45594000000E+02  0.51100000000E-03 0. -1.
    9900012    2    1    2    0    0  0.78324994105E+00  0.43366047008E+02 -0.15477560623E+01  0.47787273481E+02  0.20000011108E+02 0.  0.
        -12    1    1    2    0    0 -0.78324994105E+00 -0.43366047008E+02  0.15477560623E+01  0.43400726519E+02  0.00000000000E+00 0.  1.
         11    1    3    3    0    0  0.28026843289E+01  0.26028146751E+02  0.50134546510E+01  0.26654346560E+02  0.51100000000E-03 0. -1.
        -11    1    3    3    0    0  0.30459216286E+01  0.20275180605E+01  0.15831111012E+00  0.36624487330E+01  0.51100000000E-03 0.  1.
         12    1    3    3    0    0 -0.50653560165E+01  0.15310382196E+02 -0.67195218234E+01  0.17470478188E+02  0.00000000000E+00 0. -1.
</event>
<event>
 7    1  0.2935819E-010  0.4778727E+02  0.7816164E-02  0.1312668E+00
        -11   -1    0    0    0    0  0.00000000000E+00  0.00000000000E+00  0.45593999997E+02  0.45594000000E+02  0.51100000000E-03 0.  1.
         11   -1    0    0    0    0 -0.00000000000E+00 -0.00000000000E+00 -0.45593999997E+02  0.45594000000E+02  0.51100000000E-03 0. -1.
    9900012    2    1    2    0    0  0.64914549985E+01 -0.87498007419E+01 -0.42011013437E+02  0.47787271307E+02  0.20000001199E+02 0.  0.
        -12    1    1    2    0    0 -0.64914549985E+01  0.87498007419E+01  0.42011013437E+02  0.43400728693E+02  0.00000000000E+00 0.  1.
         11    1    3    3    0    0  0.20618556051E+01  0.38618335790E+01 -0.22763751333E+02  0.23180883981E+02  0.51100000000E-03 0.  1.
        -11    1    3    3    0    0  0.26613357711E+01 -0.46029385011E+01 -0.23283776435E+01  0.58044029532E+01  0.51100000000E-03 0. -1.
         12    1    3    3    0    0  0.17682636222E+01 -0.80086958198E+01 -0.16918884461E+02  0.18801984373E+02  0.00000000000E+00 0. -1.
</event>
<event>
 7    1  0.2935819E-010  0.4778727E+02  0.7816164E-02  0.1312668E+00
        -11   -1    0    0    0    0  0.00000000000E+00  0.00000000000E+00  0.45593999997E+02  0.45594000000E+02  0.51100000000E-03 0.  1.
         11   -1    0    0    0    0 -0.00000000000E+00 -0.00000000000E+00 -0.45593999997E+02  0.45594000000E+02  0.51100000000E-03 0. -1.
    9900012    2    1    2    0    0 -0.25666888286E+00 -0.31592055717E+02 -0.29757338998E+02  0.47787273191E+02  0.20000009785E+02 0.  0.
        -12    1    1    2    0    0  0.25666888286E+00  0.31592055717E+02  0.29757338998E+02  0.43400726809E+02  0.00000000000E+00 0.  1.
         11    1    3    3    0    0 -0.62960139270E+01 -0.45863995271E+01 -0.83789538184E+01  0.11440354861E+02  0.51100000000E-03 0. -1.
        -11    1    3    3    0    0  0.16276490885E+01 -0.38204979500E+01 -0.85012418940E+01  0.94613191545E+01  0.51100000000E-03 0.  1.
         12    1    3    3    0    0  0.44116959557E+01 -0.23185158240E+02 -0.12877143286E+02  0.26885599175E+02  0.00000000000E+00 0. -1.
</event>
<event>
 7    1  0.2935819E-010  0.4778727E+02  0.7816164E-02  0.1312668E+00
        -11   -1    0    0    0    0  0.00000000000E+00  0.00000000000E+00  0.45593999997E+02  0.45594000000E+02  0.51100000000E-03 0. -1.
         11   -1    0    0    0    0 -0.00000000000E+00 -0.00000000000E+00 -0.45593999997E+02  0.45594000000E+02  0.51100000000E-03 0.  1.
    9900012    2    1    2    0    0  0.25926485026E+02  0.34801675121E+02 -0.53303458085E+00  0.47787270249E+02  0.19999996373E+02 0.  0.
        -12    1    1    2    0    0 -0.25926485026E+02 -0.34801675121E+02  0.53303458085E+00  0.43400729751E+02  0.00000000000E+00 0.  1.
         11    1    3    3    0    0  0.23430500263E+02  0.20269798971E+02 -0.10091954593E+01  0.30997928457E+02  0.51100000000E-03 0. -1.
        -11    1    3    3    0    0 -0.15538405099E+01  0.99337391907E+00 -0.16797939290E+01  0.24945781163E+01  0.51100000000E-03 0.  1.
         12    1    3    3    0    0  0.40498252734E+01  0.13538502231E+02  0.21559548074E+01  0.14294763675E+02  0.00000000000E+00 0. -1.
</event>
<event>
 7    1  0.2935819E-010  0.4778727E+02  0.7816164E-02  0.1312668E+00
        -11   -1    0    0    0    0  0.00000000000E+00  0.00000000000E+00  0.45593999997E+02  0.45594000000E+02  0.51100000000E-03 0.  1.
         11   -1    0    0    0    0 -0.00000000000E+00 -0.00000000000E+00 -0.45593999997E+02  0.45594000000E+02  0.51100000000E-03 0. -1.
    9900012    2    1    2    0    0  0.91466457986E+01 -0.20364500963E+02 -0.37218940199E+02  0.47787267997E+02  0.19999986107E+02 0.  0.
        -12    1    1    2    0    0 -0.91466457986E+01  0.20364500963E+02  0.37218940199E+02  0.43400732003E+02  0.00000000000E+00 0.  1.
         11    1    3    3    0    0  0.12694214610E+02 -0.14762866917E+02 -0.26156626498E+02  0.32607582464E+02  0.51100000000E-03 0. -1.
        -11    1    3    3    0    0 -0.55764024722E+01 -0.58066753335E+01 -0.10124524306E+02  0.12935213012E+02  0.51100000000E-03 0.  1.
        -12    1    3    3    0    0  0.20288336604E+01  0.20504128686E+00 -0.93778939444E+00  0.22444725214E+01  0.00000000000E+00 0.  1.
</event>
<event>
 7    1  0.2935819E-010  0.4778727E+02  0.7816164E-02  0.1312668E+00
        -11   -1    0    0    0    0  0.00000000000E+00  0.00000000000E+00  0.45593999997E+02  0.45594000000E+02  0.51100000000E-03 0.  1.
         11   -1    0    0    0    0 -0.00000000000E+00 -0.00000000000E+00 -0.45593999997E+02  0.45594000000E+02  0.51100000000E-03 0. -1.
    9900012    2    1    2    0    0  0.30986937467E+02 -0.23548071378E+02 -0.19207323132E+02  0.47787271653E+02  0.20000002773E+02 0.  0.
        -12    1    1    2    0    0 -0.30986937467E+02  0.23548071378E+02  0.19207323132E+02  0.43400728347E+02  0.00000000000E+00 0.  1.
         11    1    3    3    0    0  0.29974746261E+02 -0.19966734372E+02 -0.20162163260E+02  0.41275522074E+02  0.51100000000E-03 0. -1.
        -11    1    3    3    0    0 -0.15012123845E+01 -0.34102371965E+01 -0.21901215819E+00  0.37324687469E+01  0.51100000000E-03 0.  1.
         12    1    3    3    0    0  0.25134035904E+01 -0.17109980989E+00  0.11738522862E+01  0.27792808319E+01  0.00000000000E+00 0. -1.
</event>
<event>
 7    1  0.2935819E-010  0.4778727E+02  0.7816164E-02  0.1312668E+00
        -11   -1    0    0    0    0  0.00000000000E+00  0.00000000000E+00  0.45593999997E+02  0.45594000000E+02  0.51100000000E-03 0. -1.
         11   -1    0    0    0    0 -0.00000000000E+00 -0.00000000000E+00 -0.45593999997E+02  0.45594000000E+02  0.51100000000E-03 0.  1.
    9900012    2    1    2    0    0 -0.26783616146E+02  0.28534304751E+02  0.18763123047E+02  0.47787269270E+02  0.19999991907E+02 0.  0.
        -12    1    1    2    0    0  0.26783616146E+02 -0.28534304751E+02 -0.18763123047E+02  0.43400730730E+02  0.00000000000E+00 0.  1.
         11    1    3    3    0    0 -0.13464828577E+02  0.19103048665E+02  0.20335807400E+02  0.30980205613E+02  0.51100000000E-03 0. -1.
        -11    1    3    3    0    0 -0.10060074802E+02  0.52135380554E+01 -0.33709424041E+00  0.11335771560E+02  0.51100000000E-03 0.  1.
        -12    1    3    3    0    0 -0.32587127665E+01  0.42177180303E+01 -0.12355901130E+01  0.54712920965E+01  0.00000000000E+00 0.  1.
</event>
<event>
 7    1  0.2935819E-010  0.4778727E+02  0.7816164E-02  0.1312668E+00
        -11   -1    0    0    0    0  0.00000000000E+00  0.00000000000E+00  0.45593999997E+02  0.45594000000E+02  0.51100000000E-03 0.  1.
         11   -1    0    0    0    0 -0.00000000000E+00 -0.00000000000E+00 -0.45593999997E+02  0.45594000000E+02  0.51100000000E-03 0. -1.
    9900012    2    1    2    0    0  0.24890489629E+01  0.25865225137E+02 -0.34762311366E+02  0.47787268121E+02  0.19999986671E+02 0.  0.
        -12    1    1    2    0    0 -0.24890489629E+01 -0.25865225137E+02  0.34762311366E+02  0.43400731879E+02  0.00000000000E+00 0.  1.
         11    1    3    3    0    0  0.63136601204E+01  0.16836066296E+02 -0.27346663617E+02  0.32728511175E+02  0.51100000000E-03 0. -1.
        -11    1    3    3    0    0 -0.27396227489E+01 -0.10422695953E+01 -0.22015324967E+01  0.36658701982E+01  0.51100000000E-03 0.  1.
         12    1    3    3    0    0 -0.10849884087E+01  0.10071428437E+02 -0.52141152517E+01  0.11392886748E+02  0.00000000000E+00 0. -1.
</event>
<event>
 7    1  0.2935819E-010  0.4778727E+02  0.7816164E-02  0.1312668E+00
        -11   -1    0    0    0    0  0.00000000000E+00  0.00000000000E+00  0.45593999997E+02  0.45594000000E+02  0.51100000000E-03 0.  1.
         11   -1    0    0    0    0 -0.00000000000E+00 -0.00000000000E+00 -0.45593999997E+02  0.45594000000E+02  0.51100000000E-03 0. -1.
    9900012    2    1    2    0    0 -0.17732912262E+02  0.29490456250E+02 -0.26447691146E+02  0.47787267816E+02  0.19999985281E+02 0.  0.
        -12    1    1    2    0    0  0.17732912262E+02 -0.29490456250E+02  0.26447691146E+02  0.43400732184E+02  0.00000000000E+00 0.  1.
         11    1    3    3    0    0 -0.49385884622E+01  0.12916978126E+02 -0.20296261504E+02  0.24559645991E+02  0.51100000000E-03 0. -1.
        -11    1    3    3    0    0 -0.45581744795E+01  0.10658812344E+01 -0.19281304625E+00  0.46851077387E+01  0.51100000000E-03 0.  1.
         12    1    3    3    0    0 -0.82361493202E+01  0.15507596889E+02 -0.59586165959E+01  0.18542514086E+02  0.00000000000E+00 0. -1.
</event>
<event>
 7    1  0.2935819E-010  0.4778728E+02  0.7816164E-02  0.1312668E+00
        -11   -1    0    0    0    0  0.00000000000E+00  0.00000000000E+00  0.45593999997E+02  0.45594000000E+02  0.51100000000E-03 0.  1.
         11   -1    0    0    0    0 -0.00000000000E+00 -0.00000000000E+00 -0.45593999997E+02  0.45594000000E+02  0.51100000000E-03 0. -1.
    9900012    2    1    2    0    0 -0.31430036138E+02 -0.14946906232E+02 -0.25930003430E+02  0.47787282778E+02  0.20000053497E+02 0.  0.
        -12    1    1    2    0    0  0.31430036138E+02  0.14946906232E+02  0.25930003430E+02  0.43400717222E+02  0.00000000000E+00 0.  1.
         11    1    3    3    0    0 -0.33950496225E+02 -0.14819680627E+02 -0.23908058215E+02  0.44089163926E+02  0.51100000000E-03 0. -1.
        -11    1    3    3    0    0  0.19286293787E+01  0.65335832277E+00 -0.95315839887E+00  0.22483326206E+01  0.51100000000E-03 0.  1.
         12    1    3    3    0    0  0.59183070921E+00 -0.78058392805E+00 -0.10687868158E+01  0.14497862307E+01  0.00000000000E+00 0. -1.
</event>
<event>
 7    1  0.3065133E-010  0.4778727E+02  0.7816164E-02  0.1312668E+00
        -11   -1    0    0    0    0  0.00000000000E+00  0.00000000000E+00  0.45593999997E+02  0.45594000000E+02  0.51100000000E-03 0.  1.
         11   -1    0    0    0    0 -0.00000000000E+00 -0.00000000000E+00 -0.45593999997E+02  0.45594000000E+02  0.51100000000E-03 0. -1.
    9900012    2    1    2    0    0  0.41381662966E+02 -0.11517729241E+02 -0.62067008318E+01  0.47787271298E+02  0.20000001155E+02 0.  0.
        -12    1    1    2    0    0 -0.41381662966E+02  0.11517729241E+02  0.62067008318E+01  0.43400728702E+02  0.00000000000E+00 0.  1.
         11    1    3    3    0    0  0.26071732886E+02 -0.42075628051E+01 -0.71413174100E+01  0.27357581309E+02  0.51100000000E-03 0. -1.
        -11    1    3    3    0    0  0.94051820781E+01 -0.86686285377E+01  0.43057525582E+01  0.13496002223E+02  0.51100000000E-03 0.  1.
        -12    1    3    3    0    0  0.59047480012E+01  0.13584621020E+01 -0.33711359799E+01  0.69336877659E+01  0.00000000000E+00 0.  1.
</event>
<event>
 7    1  0.2935819E-010  0.4778727E+02  0.7816164E-02  0.1312668E+00
        -11   -1    0    0    0    0  0.00000000000E+00  0.00000000000E+00  0.45593999997E+02  0.45594000000E+02  0.51100000000E-03 0.  1.
         11   -1    0    0    0    0 -0.00000000000E+00 -0.00000000000E+00 -0.45593999997E+02  0.45594000000E+02  0.51100000000E-03 0. -1.
    9900012    2    1    2    0    0  0.84897700554E+01 -0.37180232666E+01 -0.42399570902E+02  0.47787268378E+02  0.19999987844E+02 0.  0.
        -12    1    1    2    0    0 -0.84897700554E+01  0.37180232666E+01  0.42399570902E+02  0.43400731622E+02  0.00000000000E+00 0.  1.
         11    1    3    3    0    0  0.36041312331E+01 -0.86734951028E+01 -0.30124379601E+02  0.31554675182E+02  0.51100000000E-03 0. -1.
        -11    1    3    3    0    0  0.61166707874E+01  0.50593988196E+01 -0.12656374745E+02  0.14939712175E+02  0.51100000000E-03 0.  1.
         12    1    3    3    0    0 -0.12310319651E+01 -0.10392698340E+00  0.38118344331E+00  0.12928810210E+01  0.00000000000E+00 0. -1.
</event>
<event>
 7    1  0.2935819E-010  0.4778728E+02  0.7816164E-02  0.1312668E+00
        -11   -1    0    0    0    0  0.00000000000E+00  0.00000000000E+00  0.45593999997E+02  0.45594000000E+02  0.51100000000E-03 0.  1.
         11   -1    0    0    0    0 -0.00000000000E+00 -0.00000000000E+00 -0.45593999997E+02  0.45594000000E+02  0.51100000000E-03 0. -1.
    9900012    2    1    2    0    0  0.27762534631E+02 -0.10793158708E+02 -0.31565358262E+02  0.47787280579E+02  0.20000043471E+02 0.  0.
        -12    1    1    2    0    0 -0.27762534631E+02  0.10793158708E+02  0.31565358262E+02  0.43400719421E+02  0.00000000000E+00 0.  1.
         11    1    3    3    0    0  0.24595408262E+01  0.14937352506E+01 -0.55090691705E+01  0.62153382419E+01  0.51100000000E-03 0. -1.
        -11    1    3    3    0    0  0.11144495643E+01  0.16953295031E+01 -0.81233444193E+01  0.83728647888E+01  0.51100000000E-03 0.  1.
        -12    1    3    3    0    0  0.24188544241E+02 -0.13982223461E+02 -0.17932944672E+02  0.33199077548E+02  0.00000000000E+00 0.  1.
</event>
<event>
 7    1  0.2935819E-010  0.4778727E+02  0.7816164E-02  0.1312668E+00
        -11   -1    0    0    0    0  0.00000000000E+00  0.00000000000E+00  0.45593999997E+02  0.45594000000E+02  0.51100000000E-03 0.  1.
         11   -1    0    0    0    0 -0.00000000000E+00 -0.00000000000E+00 -0.45593999997E+02  0.45594000000E+02  0.51100000000E-03 0. -1.
    9900012    2    1    2    0    0  0.21225142055E+02 -0.36271786248E+02 -0.10838534720E+02  0.47787274571E+02  0.20000016079E+02 0.  0.
        -12    1    1    2    0    0 -0.21225142055E+02  0.36271786248E+02  0.10838534720E+02  0.43400725429E+02  0.00000000000E+00 0.  1.
         11    1    3    3    0    0  0.13304233824E+02 -0.22582887974E+02 -0.14439683669E+02  0.29924804621E+02  0.51100000000E-03 0. -1.
        -11    1    3    3    0    0  0.87532940199E+01 -0.87883640027E+01  0.35099934395E+01  0.12890909675E+02  0.51100000000E-03 0.  1.
        -12    1    3    3    0    0 -0.83238578818E+00 -0.49005342708E+01  0.91155509460E-01  0.49715602749E+01  0.00000000000E+00 0.  1.
</event>
<event>
 7    1  0.2935819E-010  0.4778728E+02  0.7816164E-02  0.1312668E+00
        -11   -1    0    0    0    0  0.00000000000E+00  0.00000000000E+00  0.45593999997E+02  0.45594000000E+02  0.51100000000E-03 0. -1.
         11   -1    0    0    0    0 -0.00000000000E+00 -0.00000000000E+00 -0.45593999997E+02  0.45594000000E+02  0.51100000000E-03 0.  1.
    9900012    2    1    2    0    0 -0.22439743189E+02  0.15129835077E+02  0.33928880457E+02  0.47787275203E+02  0.20000018961E+02 0.  0.
        -12    1    1    2    0    0  0.22439743189E+02 -0.15129835077E+02 -0.33928880457E+02  0.43400724797E+02  0.00000000000E+00 0.  1.
         11    1    3    3    0    0 -0.17061551180E+02  0.17011584167E+02  0.25577173768E+02  0.35138046940E+02  0.51100000000E-03 0. -1.
        -11    1    3    3    0    0  0.92249229171E+00  0.54011009167E+00 -0.75854711177E+00  0.13107650138E+01  0.51100000000E-03 0.  1.
         12    1    3    3    0    0 -0.63006843003E+01 -0.24218591810E+01  0.91102538005E+01  0.11338463249E+02  0.00000000000E+00 0. -1.
</event>
<event>
 7    1  0.2935819E-010  0.4778728E+02  0.7816164E-02  0.1312668E+00
        -11   -1    0    0    0    0  0.00000000000E+00  0.00000000000E+00  0.45593999997E+02  0.45594000000E+02  0.51100000000E-03 0.  1.
         11   -1    0    0    0    0 -0.00000000000E+00 -0.00000000000E+00 -0.45593999997E+02  0.45594000000E+02  0.51100000000E-03 0. -1.
    9900012    2    1    2    0    0  0.36585997124E+02 -0.46623640491E+01 -0.22876842326E+02  0.47787277207E+02  0.20000028100E+02 0.  0.
        -12    1    1    2    0    0 -0.36585997124E+02  0.46623640491E+01  0.22876842326E+02  0.43400722793E+02  0.00000000000E+00 0.  1.
         11    1    3    3    0    0  0.15581049110E+02 -0.96062519139E+00 -0.19671261174E+01  0.15734086486E+02  0.51100000000E-03 0. -1.
        -11    1    3    3    0    0  0.11397153209E+02 -0.41329160001E+01 -0.18533568948E+02  0.22146540907E+02  0.51100000000E-03 0.  1.
        -12    1    3    3    0    0  0.96077948049E+01  0.43117714239E+00 -0.23761472609E+01  0.99066498145E+01  0.00000000000E+00 0.  1.
</event>
<event>
 7    1  0.2935819E-010  0.4778727E+02  0.7816164E-02  0.1312668E+00
        -11   -1    0    0    0    0  0.00000000000E+00  0.00000000000E+00  0.45593999997E+02  0.45594000000E+02  0.51100000000E-03 0. -1.
         11   -1    0    0    0    0 -0.00000000000E+00 -0.00000000000E+00 -0.45593999997E+02  0.45594000000E+02  0.51100000000E-03 0.  1.
    9900012    2    1    2    0    0 -0.39444527169E+02  0.16522916831E+02  0.73990556825E+01  0.47787268103E+02  0.19999986588E+02 0.  0.
        -12    1    1    2    0    0  0.39444527169E+02 -0.16522916831E+02 -0.73990556825E+01  0.43400731897E+02  0.00000000000E+00 0.  1.
         11    1    3    3    0    0 -0.20403430337E+01  0.15324851608E+01  0.66751176715E+01  0.71462372374E+01  0.51100000000E-03 0.  1.
        -11    1    3    3    0    0 -0.27472748817E+02  0.13131512451E+02  0.16522581334E+01  0.30494565155E+02  0.51100000000E-03 0. -1.
        -12    1    3    3    0    0 -0.99314353187E+01  0.18589192193E+01 -0.92832012242E+00  0.10146465710E+02  0.00000000000E+00 0.  1.
</event>
<event>
 7    1  0.2935819E-010  0.4778727E+02  0.7816164E-02  0.1312668E+00
        -11   -1    0    0    0    0  0.00000000000E+00  0.00000000000E+00  0.45593999997E+02  0.45594000000E+02  0.51100000000E-03 0. -1.
         11   -1    0    0    0    0 -0.00000000000E+00 -0.00000000000E+00 -0.45593999997E+02  0.45594000000E+02  0.51100000000E-03 0.  1.
    9900012    2    1    2    0    0 -0.10461470938E+02 -0.41943037362E+02  0.38681925617E+01  0.47787266469E+02  0.19999979138E+02 0.  0.
        -12    1    1    2    0    0  0.10461470938E+02  0.41943037362E+02 -0.38681925617E+01  0.43400733531E+02  0.00000000000E+00 0.  1.
         11    1    3    3    0    0 -0.40738096153E+01 -0.10715561285E+02  0.87049917584E+01  0.14394306521E+02  0.51100000000E-03 0. -1.
        -11    1    3    3    0    0 -0.76687862444E+01 -0.23204822499E+02 -0.60543011702E+01  0.25177939404E+02  0.51100000000E-03 0.  1.
        -12    1    3    3    0    0  0.12811249213E+01 -0.80226535778E+01  0.12175019734E+01  0.82150205446E+01  0.00000000000E+00 0.  1.
</event>
<event>
 7    1  0.2935819E-010  0.4778727E+02  0.7816164E-02  0.1312668E+00
        -11   -1    0    0    0    0  0.00000000000E+00  0.00000000000E+00  0.45593999997E+02  0.45594000000E+02  0.51100000000E-03 0.  1.
         11   -1    0    0    0    0 -0.00000000000E+00 -0.00000000000E+00 -0.45593999997E+02  0.45594000000E+02  0.51100000000E-03 0. -1.
    9900012    2    1    2    0    0  0.92918161908E+01 -0.39103226403E+02 -0.16377523262E+02  0.47787269229E+02  0.19999991725E+02 0.  0.
        -12    1    1    2    0    0 -0.92918161908E+01  0.39103226403E+02  0.16377523262E+02  0.43400730771E+02  0.00000000000E+00 0.  1.
         11    1    3    3    0    0  0.36994348861E+01 -0.67523632530E+01  0.30760807614E+01  0.82911097621E+01  0.51100000000E-03 0. -1.
        -11    1    3    3    0    0  0.23106720348E+01 -0.59769846870E+00 -0.76834139791E+00  0.25073486947E+01  0.51100000000E-03 0.  1.
         12    1    3    3    0    0  0.32817092700E+01 -0.31753164681E+02 -0.18685262625E+02  0.36988810773E+02  0.00000000000E+00 0. -1.
</event>
<event>
 7    1  0.2935819E-010  0.4778727E+02  0.7816164E-02  0.1312668E+00
        -11   -1    0    0    0    0  0.00000000000E+00  0.00000000000E+00  0.45593999997E+02  0.45594000000E+02  0.51100000000E-03 0.  1.
         11   -1    0    0    0    0 -0.00000000000E+00 -0.00000000000E+00 -0.45593999997E+02  0.45594000000E+02  0.51100000000E-03 0. -1.
    9900012    2    1    2    0    0 -0.28952667182E+02 -0.27855297934E+02 -0.16414890102E+02  0.47787272161E+02  0.20000005090E+02 0.  0.
        -12    1    1    2    0    0  0.28952667182E+02  0.27855297934E+02  0.16414890102E+02  0.43400727839E+02  0.00000000000E+00 0.  1.
         11    1    3    3    0    0 -0.31620636269E+01 -0.79623769969E+01  0.20980614424E+01  0.88204283285E+01  0.51100000000E-03 0. -1.
        -11    1    3    3    0    0 -0.22276125933E+02 -0.18813305559E+02 -0.12087304316E+02  0.31563732013E+02  0.51100000000E-03 0.  1.
        -12    1    3    3    0    0 -0.35144776213E+01 -0.10796153776E+01 -0.64256472282E+01  0.74031118198E+01  0.00000000000E+00 0.  1.
</event>
<event>
 7    1  0.2935819E-010  0.4778732E+02  0.7816164E-02  0.1312668E+00
        -11   -1    0    0    0    0  0.00000000000E+00  0.00000000000E+00  0.45593999997E+02  0.45594000000E+02  0.51100000000E-03 0. -1.
         11   -1    0    0    0    0 -0.00000000000E+00 -0.00000000000E+00 -0.45593999997E+02  0.45594000000E+02  0.51100000000E-03 0.  1.
    9900012    2    1    2    0    0  0.38332959433E+02  0.16320284277E+02  0.12159410561E+02  0.47787323474E+02  0.20000239045E+02 0.  0.
        -12    1    1    2    0    0 -0.38332959433E+02 -0.16320284277E+02 -0.12159410561E+02  0.43400676526E+02  0.00000000000E+00 0.  1.
         11    1    3    3    0    0  0.15455646128E+02  0.80817205093E+01  0.11429899847E+02  0.20852669239E+02  0.51100000000E-03 0. -1.
        -11    1    3    3    0    0  0.27415990279E+01 -0.11936123559E+01 -0.31723991623E+01  0.43594945111E+01  0.51100000000E-03 0.  1.
         12    1    3    3    0    0  0.20135714276E+02  0.94321761236E+01  0.39019098766E+01  0.22575159723E+02  0.00000000000E+00 0. -1.
</event>
<event>
 7    1  0.2935819E-010  0.4778727E+02  0.7816164E-02  0.1312668E+00
        -11   -1    0    0    0    0  0.00000000000E+00  0.00000000000E+00  0.45593999997E+02  0.45594000000E+02  0.51100000000E-03 0. -1.
         11   -1    0    0    0    0 -0.00000000000E+00 -0.00000000000E+00 -0.45593999997E+02  0.45594000000E+02  0.51100000000E-03 0.  1.
    9900012    2    1    2    0    0  0.58973973597E+01 -0.57332153300E+01  0.42614249586E+02  0.47787270497E+02  0.19999997503E+02 0.  0.
        -12    1    1    2    0    0 -0.58973973597E+01  0.57332153300E+01 -0.42614249586E+02  0.43400729503E+02  0.00000000000E+00 0.  1.
         11    1    3    3    0    0 -0.44913960375E+01  0.15255328350E+00  0.13409565220E+02  0.14142572273E+02  0.51100000000E-03 0. -1.
        -11    1    3    3    0    0  0.12475411923E+02 -0.55508118728E+01  0.28140943459E+02  0.31278748603E+02  0.51100000000E-03 0.  1.
        -12    1    3    3    0    0 -0.20866185259E+01 -0.33495674063E+00  0.10637409071E+01  0.23659496208E+01  0.00000000000E+00 0.  1.
</event>
<event>
 7    1  0.2935819E-010  0.4778728E+02  0.7816164E-02  0.1312668E+00
        -11   -1    0    0    0    0  0.00000000000E+00  0.00000000000E+00  0.45593999997E+02  0.45594000000E+02  0.51100000000E-03 0. -1.
         11   -1    0    0    0    0 -0.00000000000E+00 -0.00000000000E+00 -0.45593999997E+02  0.45594000000E+02  0.51100000000E-03 0.  1.
    9900012    2    1    2    0    0 -0.40876191866E+02 -0.13682646693E+02  0.50542047984E+01  0.47787275718E+02  0.20000021310E+02 0.  0.
        -12    1    1    2    0    0  0.40876191866E+02  0.13682646693E+02 -0.50542047984E+01  0.43400724282E+02  0.00000000000E+00 0.  1.
         11    1    3    3    0    0 -0.13199639500E+01  0.11141135860E+01  0.22621035478E+01  0.28461670073E+01  0.51100000000E-03 0. -1.
        -11    1    3    3    0    0 -0.25228995203E+01 -0.63978089682E+01  0.62190693650E+00  0.69053421408E+01  0.51100000000E-03 0.  1.
        -12    1    3    3    0    0 -0.37033328396E+02 -0.83989513110E+01  0.21701943142E+01  0.38035766570E+02  0.00000000000E+00 0.  1.
</event>
<event>
 7    1  0.2935819E-010  0.4778727E+02  0.7816164E-02  0.1312668E+00
        -11   -1    0    0    0    0  0.00000000000E+00  0.00000000000E+00  0.45593999997E+02  0.45594000000E+02  0.51100000000E-03 0. -1.
         11   -1    0    0    0    0 -0.00000000000E+00 -0.00000000000E+00 -0.45593999997E+02  0.45594000000E+02  0.51100000000E-03 0.  1.
    9900012    2    1    2    0    0  0.22834617571E+02 -0.34901728935E+02  0.12003034546E+02  0.47787270967E+02  0.19999999646E+02 0.  0.
        -12    1    1    2    0    0 -0.22834617571E+02  0.34901728935E+02 -0.12003034546E+02  0.43400729033E+02  0.00000000000E+00 0.  1.
         11    1    3    3    0    0  0.20084641916E+02 -0.27201740808E+02  0.16570814954E+02  0.37655271243E+02  0.51100000000E-03 0. -1.
        -11    1    3    3    0    0  0.18944222864E+00 -0.50511874371E+01 -0.39080596968E+01  0.63893124620E+01  0.51100000000E-03 0.  1.
         12    1    3    3    0    0  0.25605334264E+01 -0.26488006901E+01 -0.65972071069E+00  0.37426872618E+01  0.00000000000E+00 0. -1.
</event>
<event>
 7    1  0.2935819E-010  0.4778727E+02  0.7816164E-02  0.1312668E+00
        -11   -1    0    0    0    0  0.00000000000E+00  0.00000000000E+00  0.45593999997E+02  0.45594000000E+02  0.51100000000E-03 0. -1.
         11   -1    0    0    0    0 -0.00000000000E+00 -0.00000000000E+00 -0.45593999997E+02  0.45594000000E+02  0.51100000000E-03 0.  1.
    9900012    2    1    2    0    0  0.24985560781E+02 -0.14647098015E+02  0.32323485780E+02  0.47787268891E+02  0.19999990183E+02 0.  0.
        -12    1    1    2    0    0 -0.24985560781E+02  0.14647098015E+02 -0.32323485780E+02  0.43400731109E+02  0.00000000000E+00 0.  1.
         11    1    3    3    0    0  0.64867166367E+01 -0.60122190619E+01  0.12467774455E+02  0.15286257583E+02  0.51100000000E-03 0. -1.
        -11    1    3    3    0    0  0.15538271772E+02 -0.27697291995E+01  0.20530825505E+02  0.25896410672E+02  0.51100000000E-03 0.  1.
        -12    1    3    3    0    0  0.29605723726E+01 -0.58651497536E+01 -0.67511418076E+00  0.66046006361E+01  0.00000000000E+00 0.  1.
</event>
<event>
 7    1  0.2935819E-010  0.4778727E+02  0.7816164E-02  0.1312668E+00
        -11   -1    0    0    0    0  0.00000000000E+00  0.00000000000E+00  0.45593999997E+02  0.45594000000E+02  0.51100000000E-03 0. -1.
         11   -1    0    0    0    0 -0.00000000000E+00 -0.00000000000E+00 -0.45593999997E+02  0.45594000000E+02  0.51100000000E-03 0.  1.
    9900012    2    1    2    0    0  0.37758509065E+02 -0.32830406483E+01  0.21145682351E+02  0.47787271380E+02  0.20000001528E+02 0.  0.
        -12    1    1    2    0    0 -0.37758509065E+02  0.32830406483E+01 -0.21145682351E+02  0.43400728620E+02  0.00000000000E+00 0.  1.
         11    1    3    3    0    0  0.28416530143E+02 -0.73688453147E+01  0.19524795060E+02  0.35256441809E+02  0.51100000000E-03 0. -1.
        -11    1    3    3    0    0  0.68792146928E+01  0.13893427972E+01 -0.20917111271E+01  0.73231908276E+01  0.51100000000E-03 0.  1.
         12    1    3    3    0    0  0.24627642285E+01  0.26964618692E+01  0.37125984187E+01  0.52076387428E+01  0.00000000000E+00 0. -1.
</event>
<event>
 7    1  0.2935819E-010  0.4778727E+02  0.7816164E-02  0.1312668E+00
        -11   -1    0    0    0    0  0.00000000000E+00  0.00000000000E+00  0.45593999997E+02  0.45594000000E+02  0.51100000000E-03 0.  1.
         11   -1    0    0    0    0 -0.00000000000E+00 -0.00000000000E+00 -0.45593999997E+02  0.45594000000E+02  0.51100000000E-03 0. -1.
    9900012    2    1    2    0    0 -0.32287444031E+02  0.26974884033E+02 -0.10653652573E+02  0.47787265861E+02  0.19999976366E+02 0.  0.
        -12    1    1    2    0    0  0.32287444031E+02 -0.26974884033E+02  0.10653652573E+02  0.43400734139E+02  0.00000000000E+00 0.  1.
         11    1    3    3    0    0 -0.10938478292E+02  0.42381092084E+01 -0.23295984786E+01  0.11959887388E+02  0.51100000000E-03 0. -1.
        -11    1    3    3    0    0 -0.10393399170E+02  0.11925559533E+02  0.37588285679E+01  0.16259474436E+02  0.51100000000E-03 0.  1.
        -12    1    3    3    0    0 -0.10955566569E+02  0.10811215292E+02 -0.12082882663E+02  0.19567904037E+02  0.00000000000E+00 0.  1.
</event>
<event>
 7    1  0.2935819E-010  0.4778727E+02  0.7816164E-02  0.1312668E+00
        -11   -1    0    0    0    0  0.00000000000E+00  0.00000000000E+00  0.45593999997E+02  0.45594000000E+02  0.51100000000E-03 0.  1.
         11   -1    0    0    0    0 -0.00000000000E+00 -0.00000000000E+00 -0.45593999997E+02  0.45594000000E+02  0.51100000000E-03 0. -1.
    9900012    2    1    2    0    0  0.32708688168E+02  0.24288185580E+02 -0.14961586622E+02  0.47787270574E+02  0.19999997855E+02 0.  0.
        -12    1    1    2    0    0 -0.32708688168E+02 -0.24288185580E+02  0.14961586622E+02  0.43400729426E+02  0.00000000000E+00 0.  1.
         11    1    3    3    0    0  0.15602954179E+02  0.13799721790E+02 -0.11483397599E+02  0.23785561193E+02  0.51100000000E-03 0. -1.
        -11    1    3    3    0    0  0.80700501818E+01  0.10471165442E+02  0.20956054076E+01  0.13385162604E+02  0.51100000000E-03 0.  1.
        -12    1    3    3    0    0  0.90356838076E+01  0.17298347672E-01 -0.55737944311E+01  0.10616546777E+02  0.00000000000E+00 0.  1.
</event>
<event>
 7    1  0.2935819E-010  0.4778727E+02  0.7816164E-02  0.1312668E+00
        -11   -1    0    0    0    0  0.00000000000E+00  0.00000000000E+00  0.45593999997E+02  0.45594000000E+02  0.51100000000E-03 0.  1.
         11   -1    0    0    0    0 -0.00000000000E+00 -0.00000000000E+00 -0.45593999997E+02  0.45594000000E+02  0.51100000000E-03 0. -1.
    9900012    2    1    2    0    0  0.21024257377E+02 -0.15706379598E+02 -0.34567521702E+02  0.47787270571E+02  0.19999997842E+02 0.  0.
        -12    1    1    2    0    0 -0.21024257377E+02  0.15706379598E+02  0.34567521702E+02  0.43400729429E+02  0.00000000000E+00 0.  1.
         11    1    3    3    0    0  0.45192173347E+01  0.16157151158E+00 -0.14067151641E+02  0.14776135700E+02  0.51100000000E-03 0. -1.
        -11    1    3    3    0    0  0.16417662206E+02 -0.89283868412E+01 -0.12838654466E+02  0.22673481705E+02  0.51100000000E-03 0.  1.
         12    1    3    3    0    0  0.87377837144E-01 -0.69395642685E+01 -0.76617155947E+01  0.10337653166E+02  0.00000000000E+00 0. -1.
</event>
<event>
 7    1  0.2935819E-010  0.4778731E+02  0.7816164E-02  0.1312668E+00
        -11   -1    0    0    0    0  0.00000000000E+00  0.00000000000E+00  0.45593999997E+02  0.45594000000E+02  0.51100000000E-03 0.  1.
         11   -1    0    0    0    0 -0.00000000000E+00 -0.00000000000E+00 -0.45593999997E+02  0.45594000000E+02  0.51100000000E-03 0. -1.
    9900012    2    1    2    0    0 -0.29402387343E+02 -0.19165413317E+02 -0.25530500687E+02  0.47787309747E+02  0.20000176460E+02 0.  0.
        -12    1    1    2    0    0  0.29402387343E+02  0.19165413317E+02  0.25530500687E+02  0.43400690253E+02  0.00000000000E+00 0.  1.
         11    1    3    3    0    0 -0.14407247234E+02 -0.62743628539E+01 -0.11542480884E+02  0.19497827246E+02  0.51100000000E-03 0. -1.
        -11    1    3    3    0    0 -0.10064278789E+02 -0.68846941312E+01 -0.16137685079E+02  0.20226556820E+02  0.51100000000E-03 0.  1.
        -12    1    3    3    0    0 -0.49308613201E+01 -0.60063563322E+01  0.21496652758E+01  0.80629256815E+01  0.00000000000E+00 0.  1.
</event>
<event>
 7    1  0.2935819E-010  0.4778727E+02  0.7816164E-02  0.1312668E+00
        -11   -1    0    0    0    0  0.00000000000E+00  0.00000000000E+00  0.45593999997E+02  0.45594000000E+02  0.51100000000E-03 0.  1.
         11   -1    0    0    0    0 -0.00000000000E+00 -0.00000000000E+00 -0.45593999997E+02  0.45594000000E+02  0.51100000000E-03 0. -1.
    9900012    2    1    2    0    0 -0.12859922269E+02 -0.39619872988E+02 -0.12186533620E+02  0.47787268001E+02  0.19999986124E+02 0.  0.
        -12    1    1    2    0    0  0.12859922269E+02  0.39619872988E+02  0.12186533620E+02  0.43400731999E+02  0.00000000000E+00 0.  1.
         11    1    3    3    0    0 -0.35355317653E+01 -0.29519501251E+02 -0.13400568713E+01  0.29760656775E+02  0.51100000000E-03 0. -1.
        -11    1    3    3    0    0 -0.24975357480E+01 -0.38841562620E+01 -0.60831854828E+01  0.76373752402E+01  0.51100000000E-03 0.  1.
        -12    1    3    3    0    0 -0.68268547562E+01 -0.62162154747E+01 -0.47632912662E+01  0.10389235986E+02  0.00000000000E+00 0.  1.
</event>
<event>
 7    1  0.2935819E-010  0.4778728E+02  0.7816164E-02  0.1312668E+00
        -11   -1    0    0    0    0  0.00000000000E+00  0.00000000000E+00  0.45593999997E+02  0.45594000000E+02  0.51100000000E-03 0. -1.
         11   -1    0    0    0    0 -0.00000000000E+00 -0.00000000000E+00 -0.45593999997E+02  0.45594000000E+02  0.51100000000E-03 0.  1.
    9900012    2    1    2    0    0  0.24110645415E+02  0.34242813579E+02 -0.11389880317E+02  0.47787275608E+02  0.20000020805E+02 0.  0.
        -12    1    1    2    0    0 -0.24110645415E+02 -0.34242813579E+02  0.11389880317E+02  0.43400724392E+02  0.00000000000E+00 0.  1.
         11    1    3    3    0    0  0.11188769016E+02  0.12763659662E+02  0.22862516004E+01  0.17126777476E+02  0.51100000000E-03 0. -1.
        -11    1    3    3    0    0  0.25854761202E+01  0.14994477600E+02 -0.82187877559E+01  0.17293568681E+02  0.51100000000E-03 0.  1.
         12    1    3    3    0    0  0.10336400278E+02  0.64846763168E+01 -0.54573441614E+01  0.13366929451E+02  0.00000000000E+00 0. -1.
</event>
<event>
 7    1  0.2935819E-010  0.4778724E+02  0.7816164E-02  0.1312668E+00
        -11   -1    0    0    0    0  0.00000000000E+00  0.00000000000E+00  0.45593999997E+02  0.45594000000E+02  0.51100000000E-03 0.  1.
         11   -1    0    0    0    0 -0.00000000000E+00 -0.00000000000E+00 -0.45593999997E+02  0.45594000000E+02  0.51100000000E-03 0. -1.
    9900012    2    1    2    0    0 -0.59775275746E+01 -0.13132641878E+02 -0.40931999677E+02  0.47787242908E+02  0.19999871714E+02 0.  0.
        -12    1    1    2    0    0  0.59775275746E+01  0.13132641878E+02  0.40931999677E+02  0.43400757092E+02  0.00000000000E+00 0.  1.
         11    1    3    3    0    0  0.24487792761E+01 -0.18777888319E+01 -0.26599849348E+02  0.26778248570E+02  0.51100000000E-03 0. -1.
        -11    1    3    3    0    0 -0.78102608457E+01 -0.70871004318E+01 -0.12657269241E+02  0.16475243000E+02  0.51100000000E-03 0.  1.
         12    1    3    3    0    0 -0.61604600501E+00 -0.41677526148E+01 -0.16748810874E+01  0.45337513380E+01  0.00000000000E+00 0. -1.
</event>
<event>
 7    1  0.2935819E-010  0.4778727E+02  0.7816164E-02  0.1312668E+00
        -11   -1    0    0    0    0  0.00000000000E+00  0.00000000000E+00  0.45593999997E+02  0.45594000000E+02  0.51100000000E-03 0.  1.
         11   -1    0    0    0    0 -0.00000000000E+00 -0.00000000000E+00 -0.45593999997E+02  0.45594000000E+02  0.51100000000E-03 0. -1.
    9900012    2    1    2    0    0 -0.30255096712E+02  0.46752396191E+01  0.30763526608E+02  0.47787270606E+02  0.19999998001E+02 0.  0.
        -12    1    1    2    0    0  0.30255096712E+02 -0.46752396191E+01 -0.30763526608E+02  0.43400729394E+02  0.00000000000E+00 0.  1.
         11    1    3    3    0    0 -0.10533448312E+02  0.81046581435E+01  0.15674672533E+02  0.20550775563E+02  0.51100000000E-03 0. -1.
        -11    1    3    3    0    0 -0.14271652083E+02 -0.23604354429E+01  0.42819061281E+01  0.15085967951E+02  0.51100000000E-03 0.  1.
        -12    1    3    3    0    0 -0.54499963165E+01 -0.10689830816E+01  0.10806947947E+02  0.12150527092E+02  0.00000000000E+00 0.  1.
</event>
<event>
 7    1  0.2935819E-010  0.4778727E+02  0.7816164E-02  0.1312668E+00
        -11   -1    0    0    0    0  0.00000000000E+00  0.00000000000E+00  0.45593999997E+02  0.45594000000E+02  0.51100000000E-03 0.  1.
         11   -1    0    0    0    0 -0.00000000000E+00 -0.00000000000E+00 -0.45593999997E+02  0.45594000000E+02  0.51100000000E-03 0. -1.
    9900012    2    1    2    0    0 -0.42364011886E+02 -0.21170143707E+01 -0.91887024285E+01  0.47787268379E+02  0.19999987846E+02 0.  0.
        -12    1    1    2    0    0  0.42364011886E+02  0.21170143707E+01  0.91887024285E+01  0.43400731621E+02  0.00000000000E+00 0.  1.
         11    1    3    3    0    0 -0.25778981247E+02 -0.71387039022E+01 -0.35876209594E+01  0.26988664138E+02  0.51100000000E-03 0. -1.
        -11    1    3    3    0    0 -0.13267457934E+01  0.36936577774E+01 -0.36485763820E+01  0.53586819325E+01  0.51100000000E-03 0.  1.
        -12    1    3    3    0    0 -0.15258284846E+02  0.13280317541E+01 -0.19525050870E+01  0.15439922309E+02  0.00000000000E+00 0.  1.
</event>
<event>
 7    1  0.2935819E-010  0.4778726E+02  0.7816164E-02  0.1312668E+00
        -11   -1    0    0    0    0  0.00000000000E+00  0.00000000000E+00  0.45593999997E+02  0.45594000000E+02  0.51100000000E-03 0.  1.
         11   -1    0    0    0    0 -0.00000000000E+00 -0.00000000000E+00 -0.45593999997E+02  0.45594000000E+02  0.51100000000E-03 0. -1.
    9900012    2    1    2    0    0  0.17882232869E+02 -0.90592191055E+01 -0.38493903343E+02  0.47787259248E+02  0.19999946216E+02 0.  0.
        -12    1    1    2    0    0 -0.17882232869E+02  0.90592191055E+01  0.38493903343E+02  0.43400740752E+02  0.00000000000E+00 0.  1.
         11    1    3    3    0    0  0.16032600874E+02 -0.22364482366E+01 -0.26999521734E+02  0.31480472767E+02  0.51100000000E-03 0. -1.
        -11    1    3    3    0    0  0.48938381880E+01 -0.56373200451E+01 -0.10516418506E+02  0.12896669646E+02  0.51100000000E-03 0.  1.
         12    1    3    3    0    0 -0.30442061929E+01 -0.11854508238E+01 -0.97796310409E+00  0.34101168358E+01  0.00000000000E+00 0. -1.
</event>
<event>
 7    1  0.2935819E-010  0.4778727E+02  0.7816164E-02  0.1312668E+00
        -11   -1    0    0    0    0  0.00000000000E+00  0.00000000000E+00  0.45593999997E+02  0.45594000000E+02  0.51100000000E-03 0.  1.
         11   -1    0    0    0    0 -0.00000000000E+00 -0.00000000000E+00 -0.45593999997E+02  0.45594000000E+02  0.51100000000E-03 0. -1.
    9900012    2    1    2    0    0 -0.13185832997E+01 -0.10375541771E+02 -0.42121642310E+02  0.47787270976E+02  0.19999999687E+02 0.  0.
        -12    1    1    2    0    0  0.13185832997E+01  0.10375541771E+02  0.42121642310E+02  0.43400729024E+02  0.00000000000E+00 0.  1.
         11    1    3    3    0    0  0.76207460644E+01 -0.10831247276E+01 -0.26015358794E+02  0.27130201311E+02  0.51100000000E-03 0. -1.
        -11    1    3    3    0    0 -0.62997161183E+01 -0.59175046231E+01 -0.11081831826E+02  0.14053835100E+02  0.51100000000E-03 0.  1.
         12    1    3    3    0    0 -0.26396132458E+01 -0.33749124200E+01 -0.50244516897E+01  0.66032345643E+01  0.00000000000E+00 0. -1.
</event>
<event>
 7    1  0.2935819E-010  0.4778726E+02  0.7816164E-02  0.1312668E+00
        -11   -1    0    0    0    0  0.00000000000E+00  0.00000000000E+00  0.45593999997E+02  0.45594000000E+02  0.51100000000E-03 0.  1.
         11   -1    0    0    0    0 -0.00000000000E+00 -0.00000000000E+00 -0.45593999997E+02  0.45594000000E+02  0.51100000000E-03 0. -1.
    9900012    2    1    2    0    0  0.32843472716E+02 -0.24021535627E+02 -0.15096223498E+02  0.47787264547E+02  0.19999970378E+02 0.  0.
        -12    1    1    2    0    0 -0.32843472716E+02  0.24021535627E+02  0.15096223498E+02  0.43400735453E+02  0.00000000000E+00 0.  1.
         11    1    3    3    0    0  0.18078958495E+02 -0.18289651779E+02 -0.40371215491E+01  0.26031873792E+02  0.51100000000E-03 0. -1.
        -11    1    3    3    0    0  0.65395030225E+01  0.19551780575E+01 -0.15042555036E+01  0.69893208468E+01  0.51100000000E-03 0.  1.
         12    1    3    3    0    0  0.82250111985E+01 -0.76870619051E+01 -0.95548464456E+01  0.14766069909E+02  0.00000000000E+00 0. -1.
</event>
<event>
 7    1  0.2935819E-010  0.4778726E+02  0.7816164E-02  0.1312668E+00
        -11   -1    0    0    0    0  0.00000000000E+00  0.00000000000E+00  0.45593999997E+02  0.45594000000E+02  0.51100000000E-03 0. -1.
         11   -1    0    0    0    0 -0.00000000000E+00 -0.00000000000E+00 -0.45593999997E+02  0.45594000000E+02  0.51100000000E-03 0.  1.
    9900012    2    1    2    0    0  0.81957557289E+00  0.24612493327E+02  0.35737621634E+02  0.47787261160E+02  0.19999954931E+02 0.  0.
        -12    1    1    2    0    0 -0.81957557289E+00 -0.24612493327E+02 -0.35737621634E+02  0.43400738840E+02  0.00000000000E+00 0.  1.
         11    1    3    3    0    0  0.60182219452E+01  0.10159027522E+02  0.54892132623E+01  0.13021378501E+02  0.51100000000E-03 0. -1.
        -11    1    3    3    0    0 -0.61013170675E+01  0.60595823843E+01  0.17101983330E+02  0.19142164003E+02  0.51100000000E-03 0.  1.
         12    1    3    3    0    0  0.90267069513E+00  0.83938834204E+01  0.13146425041E+02  0.15623718656E+02  0.00000000000E+00 0. -1.
</event>
<event>
 7    1  0.2935819E-010  0.4778727E+02  0.7816164E-02  0.1312668E+00
        -11   -1    0    0    0    0  0.00000000000E+00  0.00000000000E+00  0.45593999997E+02  0.45594000000E+02  0.51100000000E-03 0. -1.
         11   -1    0    0    0    0 -0.00000000000E+00 -0.00000000000E+00 -0.45593999997E+02  0.45594000000E+02  0.51100000000E-03 0.  1.
    9900012    2    1    2    0    0  0.23261951455E+02 -0.17316031002E+02  0.32290248809E+02  0.47787268631E+02  0.19999988998E+02 0.  0.
        -12    1    1    2    0    0 -0.23261951455E+02  0.17316031002E+02 -0.32290248809E+02  0.43400731369E+02  0.00000000000E+00 0.  1.
         11    1    3    3    0    0  0.15970201628E+02 -0.13500837677E+02  0.22381286971E+02  0.30630735622E+02  0.51100000000E-03 0. -1.
        -11    1    3    3    0    0  0.12963896309E+00  0.35842674296E+01  0.16128471645E+01  0.39325634776E+01  0.51100000000E-03 0.  1.
        -12    1    3    3    0    0  0.71621108637E+01 -0.73994607547E+01  0.82961146740E+01  0.13223969531E+02  0.00000000000E+00 0.  1.
</event>
<event>
 7    1  0.2935819E-010  0.4778726E+02  0.7816164E-02  0.1312668E+00
        -11   -1    0    0    0    0  0.00000000000E+00  0.00000000000E+00  0.45593999997E+02  0.45594000000E+02  0.51100000000E-03 0.  1.
         11   -1    0    0    0    0 -0.00000000000E+00 -0.00000000000E+00 -0.45593999997E+02  0.45594000000E+02  0.51100000000E-03 0. -1.
    9900012    2    1    2    0    0 -0.65342459279E+01 -0.34966090951E+02 -0.24865640198E+02  0.47787263270E+02  0.19999964554E+02 0.  0.
        -12    1    1    2    0    0  0.65342459279E+01  0.34966090951E+02  0.24865640198E+02  0.43400736730E+02  0.00000000000E+00 0.  1.
         11    1    3    3    0    0  0.22089028978E+01 -0.58208360203E+01 -0.10206084666E+02  0.11955147363E+02  0.51100000000E-03 0. -1.
        -11    1    3    3    0    0 -0.11673753018E+02 -0.21252323054E+02 -0.11538289901E+02  0.26852744344E+02  0.51100000000E-03 0.  1.
         12    1    3    3    0    0  0.29306041918E+01 -0.78929318766E+01 -0.31212656304E+01  0.89793715634E+01  0.00000000000E+00 0. -1.
</event>
<event>
 7    1  0.2935819E-010  0.4778727E+02  0.7816164E-02  0.1312668E+00
        -11   -1    0    0    0    0  0.00000000000E+00  0.00000000000E+00  0.45593999997E+02  0.45594000000E+02  0.51100000000E-03 0.  1.
         11   -1    0    0    0    0 -0.00000000000E+00 -0.00000000000E+00 -0.45593999997E+02  0.45594000000E+02  0.51100000000E-03 0. -1.
    9900012    2    1    2    0    0  0.26393163561E+02  0.15820138321E+02 -0.30606331876E+02  0.47787269474E+02  0.19999992841E+02 0.  0.
        -12    1    1    2    0    0 -0.26393163561E+02 -0.15820138321E+02  0.30606331876E+02  0.43400730526E+02  0.00000000000E+00 0.  1.
         11    1    3    3    0    0  0.56616762244E+01  0.49322066933E+01 -0.95700835912E+01  0.12164199141E+02  0.51100000000E-03 0. -1.
        -11    1    3    3    0    0  0.93044343471E+01  0.11951044971E+02 -0.18428866651E+02  0.23854205095E+02  0.51100000000E-03 0.  1.
        -12    1    3    3    0    0  0.11427052990E+02 -0.10631133433E+01 -0.26073816338E+01  0.11768865238E+02  0.00000000000E+00 0.  1.
</event>
<event>
 7    1  0.2935819E-010  0.4778727E+02  0.7816164E-02  0.1312668E+00
        -11   -1    0    0    0    0  0.00000000000E+00  0.00000000000E+00  0.45593999997E+02  0.45594000000E+02  0.51100000000E-03 0.  1.
         11   -1    0    0    0    0 -0.00000000000E+00 -0.00000000000E+00 -0.45593999997E+02  0.45594000000E+02  0.51100000000E-03 0. -1.
    9900012    2    1    2    0    0  0.23001019673E+02 -0.36646102530E+02 -0.34116686486E+01  0.47787271669E+02  0.20000002849E+02 0.  0.
        -12    1    1    2    0    0 -0.23001019673E+02  0.36646102530E+02  0.34116686486E+01  0.43400728331E+02  0.00000000000E+00 0.  1.
         11    1    3    3    0    0 -0.11415485951E+01 -0.70994903572E+01 -0.42941398626E+01  0.83752930664E+01  0.51100000000E-03 0. -1.
        -11    1    3    3    0    0  0.14356799443E+02 -0.10696933907E+02 -0.18476592285E+01  0.17998775795E+02  0.51100000000E-03 0.  1.
         12    1    3    3    0    0  0.97857688257E+01 -0.18849678266E+02  0.27301304425E+01  0.21413202808E+02  0.00000000000E+00 0. -1.
</event>
<event>
 7    1  0.2935819E-010  0.4778727E+02  0.7816164E-02  0.1312668E+00
        -11   -1    0    0    0    0  0.00000000000E+00  0.00000000000E+00  0.45593999997E+02  0.45594000000E+02  0.51100000000E-03 0.  1.
         11   -1    0    0    0    0 -0.00000000000E+00 -0.00000000000E+00 -0.45593999997E+02  0.45594000000E+02  0.51100000000E-03 0. -1.
    9900012    2    1    2    0    0 -0.39184402530E+02  0.13167435134E+02 -0.13222139593E+02  0.47787265846E+02  0.19999976300E+02 0.  0.
        -12    1    1    2    0    0  0.39184402530E+02 -0.13167435134E+02  0.13222139593E+02  0.43400734154E+02  0.00000000000E+00 0.  1.
         11    1    3    3    0    0 -0.14961795931E+02 -0.17304036652E+01 -0.71984887221E-01  0.15061700316E+02  0.51100000000E-03 0. -1.
        -11    1    3    3    0    0 -0.16274016387E+02  0.11509649416E+02 -0.13506182295E+02  0.24077636916E+02  0.51100000000E-03 0.  1.
        -12    1    3    3    0    0 -0.79485902122E+01  0.33881893836E+01  0.35602758929E+00  0.86479286136E+01  0.00000000000E+00 0.  1.
</event>
<event>
 7    1  0.2935819E-010  0.4778727E+02  0.7816164E-02  0.1312668E+00
        -11   -1    0    0    0    0  0.00000000000E+00  0.00000000000E+00  0.45593999997E+02  0.45594000000E+02  0.51100000000E-03 0. -1.
         11   -1    0    0    0    0 -0.00000000000E+00 -0.00000000000E+00 -0.45593999997E+02  0.45594000000E+02  0.51100000000E-03 0.  1.
    9900012    2    1    2    0    0  0.32521600649E+02  0.28736221830E+02  0.44513780469E+00  0.47787273030E+02  0.20000009053E+02 0.  0.
        -12    1    1    2    0    0 -0.32521600649E+02 -0.28736221830E+02 -0.44513780469E+00  0.43400726970E+02  0.00000000000E+00 0.  1.
         11    1    3    3    0    0  0.95715675641E+01  0.14453593388E+02 -0.12173188330E+01  0.17378237334E+02  0.51100000000E-03 0. -1.
        -11    1    3    3    0    0  0.42082356228E+01  0.12120095505E+01  0.57181584456E+01  0.72024683601E+01  0.51100000000E-03 0.  1.
        -12    1    3    3    0    0  0.18741797462E+02  0.13070618892E+02 -0.40557018080E+01  0.23206567335E+02  0.00000000000E+00 0.  1.
</event>
<event>
 7    1  0.2935819E-010  0.4778728E+02  0.7816164E-02  0.1312668E+00
        -11   -1    0    0    0    0  0.00000000000E+00  0.00000000000E+00  0.45593999997E+02  0.45594000000E+02  0.51100000000E-03 0. -1.
         11   -1    0    0    0    0 -0.00000000000E+00 -0.00000000000E+00 -0.45593999997E+02  0.45594000000E+02  0.51100000000E-03 0.  1.
    9900012    2    1    2    0    0 -0.66287488599E+01 -0.41292000709E+02  0.11604013146E+02  0.47787277021E+02  0.20000027251E+02 0.  0.
        -12    1    1    2    0    0  0.66287488599E+01  0.41292000709E+02 -0.11604013146E+02  0.43400722979E+02  0.00000000000E+00 0.  1.
         11    1    3    3    0    0 -0.76406291730E+01 -0.10494964028E+02  0.67513742059E+01  0.14632311439E+02  0.51100000000E-03 0. -1.
        -11    1    3    3    0    0  0.43475370140E+01 -0.50494025132E+01 -0.36471283159E+00  0.66731221733E+01  0.51100000000E-03 0.  1.
         12    1    3    3    0    0 -0.33356567010E+01 -0.25747634167E+02  0.52173517719E+01  0.26481843409E+02  0.00000000000E+00 0. -1.
</event>
<event>
 7    1  0.2935819E-010  0.4778732E+02  0.7816164E-02  0.1312668E+00
        -11   -1    0    0    0    0  0.00000000000E+00  0.00000000000E+00  0.45593999997E+02  0.45594000000E+02  0.51100000000E-03 0. -1.
         11   -1    0    0    0    0 -0.00000000000E+00 -0.00000000000E+00 -0.45593999997E+02  0.45594000000E+02  0.51100000000E-03 0.  1.
    9900012    2    1    2    0    0  0.30284478698E+02  0.11894808179E+02  0.28722523225E+02  0.47787315074E+02  0.20000200747E+02 0.  0.
        -12    1    1    2    0    0 -0.30284478698E+02 -0.11894808179E+02 -0.28722523225E+02  0.43400684926E+02  0.00000000000E+00 0.  1.
         11    1    3    3    0    0  0.46354401218E+01 -0.14175792595E+00  0.93252407002E+01  0.10414773872E+02  0.51100000000E-03 0. -1.
        -11    1    3    3    0    0  0.22612335992E+01 -0.26035605146E+01 -0.31443546643E+00  0.34627409182E+01  0.51100000000E-03 0.  1.
        -12    1    3    3    0    0  0.23387804977E+02  0.14640126620E+02  0.19711717992E+02  0.33909800283E+02  0.00000000000E+00 0.  1.
</event>
<event>
 7    1  0.2935819E-010  0.4778727E+02  0.7816164E-02  0.1312668E+00
        -11   -1    0    0    0    0  0.00000000000E+00  0.00000000000E+00  0.45593999997E+02  0.45594000000E+02  0.51100000000E-03 0. -1.
         11   -1    0    0    0    0 -0.00000000000E+00 -0.00000000000E+00 -0.45593999997E+02  0.45594000000E+02  0.51100000000E-03 0.  1.
    9900012    2    1    2    0    0  0.38088897420E+01 -0.37709477820E+02  0.21144996072E+02  0.47787271695E+02  0.20000002965E+02 0.  0.
        -12    1    1    2    0    0 -0.38088897420E+01  0.37709477820E+02 -0.21144996072E+02  0.43400728305E+02  0.00000000000E+00 0.  1.
         11    1    3    3    0    0 -0.13880168154E+01 -0.86071664355E+01 -0.23476848770E+01  0.90289273599E+01  0.51100000000E-03 0. -1.
        -11    1    3    3    0    0 -0.11549572046E+01 -0.10901753153E+01  0.32544308924E+01  0.36212883145E+01  0.51100000000E-03 0.  1.
         12    1    3    3    0    0  0.63518637620E+01 -0.28012136069E+02  0.20238250057E+02  0.35137056020E+02  0.00000000000E+00 0. -1.
</event>
<event>
 7    1  0.2935819E-010  0.4778727E+02  0.7816164E-02  0.1312668E+00
        -11   -1    0    0    0    0  0.00000000000E+00  0.00000000000E+00  0.45593999997E+02  0.45594000000E+02  0.51100000000E-03 0. -1.
         11   -1    0    0    0    0 -0.00000000000E+00 -0.00000000000E+00 -0.45593999997E+02  0.45594000000E+02  0.51100000000E-03 0.  1.
    9900012    2    1    2    0    0  0.40530051654E+02  0.15285356132E+02 -0.27011153117E+01  0.47787271629E+02  0.20000002667E+02 0.  0.
        -12    1    1    2    0    0 -0.40530051654E+02 -0.15285356132E+02  0.27011153117E+01  0.43400728371E+02  0.00000000000E+00 0.  1.
         11    1    3    3    0    0  0.78826688547E+01  0.27230906701E+01  0.60869454918E+00  0.83619495565E+01  0.51100000000E-03 0. -1.
        -11    1    3    3    0    0  0.28366826650E+02  0.11455287988E+02  0.40299056637E+01  0.30856775868E+02  0.51100000000E-03 0.  1.
        -12    1    3    3    0    0  0.42805561496E+01  0.11069774745E+01 -0.73397155246E+01  0.85685462047E+01  0.00000000000E+00 0.  1.
</event>
<event>
 7    1  0.2935819E-010  0.4778727E+02  0.7816164E-02  0.1312668E+00
        -11   -1    0    0    0    0  0.00000000000E+00  0.00000000000E+00  0.45593999997E+02  0.45594000000E+02  0.51100000000E-03 0.  1.
         11   -1    0    0    0    0 -0.00000000000E+00 -0.00000000000E+00 -0.45593999997E+02  0.45594000000E+02  0.51100000000E-03 0. -1.
    9900012    2    1    2    0    0 -0.29925230805E+02 -0.22453386656E+02  0.21998849522E+02  0.47787269691E+02  0.19999993829E+02 0.  0.
        -12    1    1    2    0    0  0.29925230805E+02  0.22453386656E+02 -0.21998849522E+02  0.43400730309E+02  0.00000000000E+00 0.  1.
         11    1    3    3    0    0 -0.93430084405E+01 -0.56546626910E+01  0.19012069149E+01  0.11085197556E+02  0.51100000000E-03 0. -1.
        -11    1    3    3    0    0 -0.29629974050E+01  0.88537711623E+00 -0.17284570570E+01  0.35427122829E+01  0.51100000000E-03 0.  1.
        -12    1    3    3    0    0 -0.17619224959E+02 -0.17684101082E+02  0.21826099664E+02  0.33159359852E+02  0.00000000000E+00 0.  1.
</event>
<event>
 7    1  0.2935819E-010  0.4778725E+02  0.7816164E-02  0.1312668E+00
        -11   -1    0    0    0    0  0.00000000000E+00  0.00000000000E+00  0.45593999997E+02  0.45594000000E+02  0.51100000000E-03 0.  1.
         11   -1    0    0    0    0 -0.00000000000E+00 -0.00000000000E+00 -0.45593999997E+02  0.45594000000E+02  0.51100000000E-03 0. -1.
    9900012    2    1    2    0    0  0.26193286857E+02 -0.27824208208E+02 -0.20575477503E+02  0.47787249854E+02  0.19999903384E+02 0.  0.
        -12    1    1    2    0    0 -0.26193286857E+02  0.27824208208E+02  0.20575477503E+02  0.43400750146E+02  0.00000000000E+00 0.  1.
         11    1    3    3    0    0  0.16642605571E+02 -0.18570683954E+02 -0.22370094309E+02  0.33500264810E+02  0.51100000000E-03 0. -1.
        -11    1    3    3    0    0  0.10123515104E+02 -0.85020475305E+01  0.18000462272E+01  0.13342058947E+02  0.51100000000E-03 0.  1.
         12    1    3    3    0    0 -0.57283381841E+00 -0.75147672318E+00 -0.54294219745E-02  0.94492609638E+00  0.00000000000E+00 0. -1.
</event>
<event>
 7    1  0.2935819E-010  0.4778727E+02  0.7816164E-02  0.1312668E+00
        -11   -1    0    0    0    0  0.00000000000E+00  0.00000000000E+00  0.45593999997E+02  0.45594000000E+02  0.51100000000E-03 0.  1.
         11   -1    0    0    0    0 -0.00000000000E+00 -0.00000000000E+00 -0.45593999997E+02  0.45594000000E+02  0.51100000000E-03 0. -1.
    9900012    2    1    2    0    0  0.35305525333E+02  0.23340199810E+02 -0.96113772666E+01  0.47787267067E+02  0.19999981864E+02 0.  0.
        -12    1    1    2    0    0 -0.35305525333E+02 -0.23340199810E+02  0.96113772666E+01  0.43400732933E+02  0.00000000000E+00 0.  1.
         11    1    3    3    0    0  0.17830098936E+02  0.10487773281E+02 -0.29388575800E+00  0.20687972002E+02  0.51100000000E-03 0. -1.
        -11    1    3    3    0    0  0.16386004762E+02  0.10357663144E+02 -0.12380593041E+02  0.23001335226E+02  0.51100000000E-03 0.  1.
        -12    1    3    3    0    0  0.10894216350E+01  0.24947633851E+01  0.30631015322E+01  0.40979598391E+01  0.00000000000E+00 0.  1.
</event>
<event>
 7    1  0.2935819E-010  0.4778727E+02  0.7816164E-02  0.1312668E+00
        -11   -1    0    0    0    0  0.00000000000E+00  0.00000000000E+00  0.45593999997E+02  0.45594000000E+02  0.51100000000E-03 0.  1.
         11   -1    0    0    0    0 -0.00000000000E+00 -0.00000000000E+00 -0.45593999997E+02  0.45594000000E+02  0.51100000000E-03 0. -1.
    9900012    2    1    2    0    0 -0.34269455064E+02  0.18173568724E+02 -0.19466610106E+02  0.47787273513E+02  0.20000011255E+02 0.  0.
        -12    1    1    2    0    0  0.34269455064E+02 -0.18173568724E+02  0.19466610106E+02  0.43400726487E+02  0.00000000000E+00 0.  1.
         11    1    3    3    0    0 -0.19494251535E+02  0.11990335481E+02 -0.24708974304E+01  0.23019542182E+02  0.51100000000E-03 0. -1.
        -11    1    3    3    0    0 -0.12194450881E+02  0.79253942091E+01 -0.11880392999E+02  0.18779250351E+02  0.51100000000E-03 0.  1.
         12    1    3    3    0    0 -0.25807526479E+01 -0.17421609660E+01 -0.51153196768E+01  0.59884809808E+01  0.00000000000E+00 0. -1.
</event>
<event>
 7    1  0.2935819E-010  0.4778727E+02  0.7816164E-02  0.1312668E+00
        -11   -1    0    0    0    0  0.00000000000E+00  0.00000000000E+00  0.45593999997E+02  0.45594000000E+02  0.51100000000E-03 0. -1.
         11   -1    0    0    0    0 -0.00000000000E+00 -0.00000000000E+00 -0.45593999997E+02  0.45594000000E+02  0.51100000000E-03 0.  1.
    9900012    2    1    2    0    0  0.82485673399E+01 -0.36305981610E+02 -0.22303819110E+02  0.47787268315E+02  0.19999987557E+02 0.  0.
        -12    1    1    2    0    0 -0.82485673399E+01  0.36305981610E+02  0.22303819110E+02  0.43400731685E+02  0.00000000000E+00 0.  1.
         11    1    3    3    0    0 -0.43317505421E+01 -0.24628729449E+01 -0.23352819806E+01  0.55030308096E+01  0.51100000000E-03 0. -1.
        -11    1    3    3    0    0  0.12034236630E+02 -0.19842461310E+02 -0.11338575716E+02  0.25828461465E+02  0.51100000000E-03 0.  1.
        -12    1    3    3    0    0  0.54608125209E+00 -0.14000647355E+02 -0.86299614143E+01  0.16455776041E+02  0.00000000000E+00 0.  1.
</event>
<event>
 7    1  0.2935819E-010  0.4778727E+02  0.7816164E-02  0.1312668E+00
        -11   -1    0    0    0    0  0.00000000000E+00  0.00000000000E+00  0.45593999997E+02  0.45594000000E+02  0.51100000000E-03 0.  1.
         11   -1    0    0    0    0 -0.00000000000E+00 -0.00000000000E+00 -0.45593999997E+02  0.45594000000E+02  0.51100000000E-03 0. -1.
    9900012    2    1    2    0    0  0.26520889052E+02  0.30242283973E+02 -0.16299389495E+02  0.47787269661E+02  0.19999993693E+02 0.  0.
        -12    1    1    2    0    0 -0.26520889052E+02 -0.30242283973E+02  0.16299389495E+02  0.43400730339E+02  0.00000000000E+00 0.  1.
         11    1    3    3    0    0  0.22370251448E+01  0.65482827811E+01 -0.28312040951E+01  0.74766306427E+01  0.51100000000E-03 0. -1.
        -11    1    3    3    0    0 -0.16175495069E+00 -0.22721338404E+01 -0.13360610739E+01  0.26407984223E+01  0.51100000000E-03 0.  1.
        -12    1    3    3    0    0  0.24445618858E+02  0.25966135033E+02 -0.12132124326E+02  0.37669840596E+02  0.00000000000E+00 0.  1.
</event>
<event>
 7    1  0.2935819E-010  0.4778727E+02  0.7816164E-02  0.1312668E+00
        -11   -1    0    0    0    0  0.00000000000E+00  0.00000000000E+00  0.45593999997E+02  0.45594000000E+02  0.51100000000E-03 0.  1.
         11   -1    0    0    0    0 -0.00000000000E+00 -0.00000000000E+00 -0.45593999997E+02  0.45594000000E+02  0.51100000000E-03 0. -1.
    9900012    2    1    2    0    0 -0.44513821018E+01 -0.39824225258E+02 -0.16668522063E+02  0.47787270193E+02  0.19999996118E+02 0.  0.
        -12    1    1    2    0    0  0.44513821018E+01  0.39824225258E+02  0.16668522063E+02  0.43400729807E+02  0.00000000000E+00 0.  1.
         11    1    3    3    0    0 -0.52787703737E+00 -0.11897113331E+02 -0.13145532683E+02  0.17737671481E+02  0.51100000000E-03 0. -1.
        -11    1    3    3    0    0 -0.50271488559E+01 -0.58316069282E+01 -0.42950054238E+00  0.77113122075E+01  0.51100000000E-03 0.  1.
         12    1    3    3    0    0  0.11036437915E+01 -0.22095504999E+02 -0.30934888370E+01  0.22338286505E+02  0.00000000000E+00 0. -1.
</event>
<event>
 7    1  0.2935819E-010  0.4778726E+02  0.7816164E-02  0.1312668E+00
        -11   -1    0    0    0    0  0.00000000000E+00  0.00000000000E+00  0.45593999997E+02  0.45594000000E+02  0.51100000000E-03 0. -1.
         11   -1    0    0    0    0 -0.00000000000E+00 -0.00000000000E+00 -0.45593999997E+02  0.45594000000E+02  0.51100000000E-03 0.  1.
    9900012    2    1    2    0    0 -0.13852384763E+02  0.81187598067E+01  0.40321475000E+02  0.47787260714E+02  0.19999952898E+02 0.  0.
        -12    1    1    2    0    0  0.13852384763E+02 -0.81187598067E+01 -0.40321475000E+02  0.43400739286E+02  0.00000000000E+00 0.  1.
         11    1    3    3    0    0 -0.54399954200E-01 -0.18455222446E+01  0.10613873776E+01  0.21296608032E+01  0.51100000000E-03 0. -1.
        -11    1    3    3    0    0 -0.11761921148E+02  0.81993544680E+01  0.13295531826E+02  0.19553602471E+02  0.51100000000E-03 0.  1.
        -12    1    3    3    0    0 -0.20360636601E+01  0.17649275833E+01  0.25964555797E+02  0.26103997440E+02  0.00000000000E+00 0.  1.
</event>
<event>
 7    1  0.2935819E-010  0.4778727E+02  0.7816164E-02  0.1312668E+00
        -11   -1    0    0    0    0  0.00000000000E+00  0.00000000000E+00  0.45593999997E+02  0.45594000000E+02  0.51100000000E-03 0.  1.
         11   -1    0    0    0    0 -0.00000000000E+00 -0.00000000000E+00 -0.45593999997E+02  0.45594000000E+02  0.51100000000E-03 0. -1.
    9900012    2    1    2    0    0 -0.42088025174E+02 -0.31879216565E+01  0.10102402058E+02  0.47787271494E+02  0.20000002050E+02 0.  0.
        -12    1    1    2    0    0  0.42088025174E+02  0.31879216565E+01 -0.10102402058E+02  0.43400728506E+02  0.00000000000E+00 0.  1.
         11    1    3    3    0    0 -0.34468550524E+02 -0.80797344473E+01  0.80700147004E+01  0.36310993122E+02  0.51100000000E-03 0. -1.
        -11    1    3    3    0    0 -0.16816030703E+01  0.42373170505E+01  0.29533904192E+01  0.54318652323E+01  0.51100000000E-03 0.  1.
        -12    1    3    3    0    0 -0.59378715792E+01  0.65449574026E+00 -0.92100306191E+00  0.60444131398E+01  0.00000000000E+00 0.  1.
</event>
<event>
 7    1  0.2935819E-010  0.4778727E+02  0.7816164E-02  0.1312668E+00
        -11   -1    0    0    0    0  0.00000000000E+00  0.00000000000E+00  0.45593999997E+02  0.45594000000E+02  0.51100000000E-03 0.  1.
         11   -1    0    0    0    0 -0.00000000000E+00 -0.00000000000E+00 -0.45593999997E+02  0.45594000000E+02  0.51100000000E-03 0. -1.
    9900012    2    1    2    0    0  0.26025025024E+02  0.16536621545E+02 -0.30542776774E+02  0.47787274284E+02  0.20000014771E+02 0.  0.
        -12    1    1    2    0    0 -0.26025025024E+02 -0.16536621545E+02  0.30542776774E+02  0.43400725716E+02  0.00000000000E+00 0.  1.
         11    1    3    3    0    0  0.21299696439E+02  0.10583550314E+02 -0.21635996429E+02  0.32152837314E+02  0.51100000000E-03 0. -1.
        -11    1    3    3    0    0 -0.15917688035E+01 -0.19140180242E+01 -0.31612119571E+01  0.40237363507E+01  0.51100000000E-03 0.  1.
         12    1    3    3    0    0  0.63170973888E+01  0.78670892555E+01 -0.57455683872E+01  0.11610700619E+02  0.00000000000E+00 0. -1.
</event>
<event>
 7    1  0.2935819E-010  0.4778727E+02  0.7816164E-02  0.1312668E+00
        -11   -1    0    0    0    0  0.00000000000E+00  0.00000000000E+00  0.45593999997E+02  0.45594000000E+02  0.51100000000E-03 0. -1.
         11   -1    0    0    0    0 -0.00000000000E+00 -0.00000000000E+00 -0.45593999997E+02  0.45594000000E+02  0.51100000000E-03 0.  1.
    9900012    2    1    2    0    0 -0.43169972680E+02  0.16086664395E+01  0.41699644152E+01  0.47787274751E+02  0.20000016900E+02 0.  0.
        -12    1    1    2    0    0  0.43169972680E+02 -0.16086664395E+01 -0.41699644152E+01  0.43400725249E+02  0.00000000000E+00 0.  1.
         11    1    3    3    0    0 -0.86321613091E+01 -0.73421919930E+01 -0.16872465818E+01  0.11457259420E+02  0.51100000000E-03 0. -1.
        -11    1    3    3    0    0 -0.24559710794E+02  0.80075001725E+01  0.42051415686E+01  0.26172173566E+02  0.51100000000E-03 0.  1.
         12    1    3    3    0    0 -0.99781005767E+01  0.94335826006E+00  0.16520694283E+01  0.10157841765E+02  0.00000000000E+00 0. -1.
</event>
<event>
 7    1  0.2935819E-010  0.4778727E+02  0.7816164E-02  0.1312668E+00
        -11   -1    0    0    0    0  0.00000000000E+00  0.00000000000E+00  0.45593999997E+02  0.45594000000E+02  0.51100000000E-03 0.  1.
         11   -1    0    0    0    0 -0.00000000000E+00 -0.00000000000E+00 -0.45593999997E+02  0.45594000000E+02  0.51100000000E-03 0. -1.
    9900012    2    1    2    0    0 -0.15636774838E+02  0.13674035029E+02 -0.38106894195E+02  0.47787270207E+02  0.19999996183E+02 0.  0.
        -12    1    1    2    0    0  0.15636774838E+02 -0.13674035029E+02  0.38106894195E+02  0.43400729793E+02  0.00000000000E+00 0.  1.
         11    1    3    3    0    0 -0.24672188787E+01  0.94605627155E+01 -0.19087995045E+02  0.21446234424E+02  0.51100000000E-03 0. -1.
        -11    1    3    3    0    0 -0.10337068526E+02 -0.27056403381E+01 -0.12252991505E+02  0.16257652858E+02  0.51100000000E-03 0.  1.
        -12    1    3    3    0    0 -0.28324874333E+01  0.69191126519E+01 -0.67659076456E+01  0.10083382925E+02  0.00000000000E+00 0.  1.
</event>
<event>
 7    1  0.2935819E-010  0.4778727E+02  0.7816164E-02  0.1312668E+00
        -11   -1    0    0    0    0  0.00000000000E+00  0.00000000000E+00  0.45593999997E+02  0.45594000000E+02  0.51100000000E-03 0.  1.
         11   -1    0    0    0    0 -0.00000000000E+00 -0.00000000000E+00 -0.45593999997E+02  0.45594000000E+02  0.51100000000E-03 0. -1.
    9900012    2    1    2    0    0 -0.24177170426E+02 -0.14292500822E+02 -0.33087942605E+02  0.47787273100E+02  0.20000009373E+02 0.  0.
        -12    1    1    2    0    0  0.24177170426E+02  0.14292500822E+02  0.33087942605E+02  0.43400726900E+02  0.00000000000E+00 0.  1.
         11    1    3    3    0    0 -0.15352894165E+02 -0.18046944491E+02 -0.24655342524E+02  0.34194875054E+02  0.51100000000E-03 0. -1.
        -11    1    3    3    0    0 -0.52591093198E+01  0.37686911807E+01 -0.75042216425E+01  0.99083099858E+01  0.51100000000E-03 0.  1.
         12    1    3    3    0    0 -0.35651669416E+01 -0.14247512118E-01 -0.92837843866E+00  0.36840880606E+01  0.00000000000E+00 0. -1.
</event>
<event>
 7    1  0.2935819E-010  0.4778727E+02  0.7816164E-02  0.1312668E+00
        -11   -1    0    0    0    0  0.00000000000E+00  0.00000000000E+00  0.45593999997E+02  0.45594000000E+02  0.51100000000E-03 0.  1.
         11   -1    0    0    0    0 -0.00000000000E+00 -0.00000000000E+00 -0.45593999997E+02  0.45594000000E+02  0.51100000000E-03 0. -1.
    9900012    2    1    2    0    0 -0.42304961305E+02 -0.74599152950E+01 -0.61857601866E+01  0.47787265948E+02  0.19999976761E+02 0.  0.
        -12    1    1    2    0    0  0.42304961305E+02  0.74599152950E+01  0.61857601866E+01  0.43400734052E+02  0.00000000000E+00 0.  1.
         11    1    3    3    0    0 -0.33556012707E+02 -0.89136602405E+01 -0.20530918114E+01  0.34780375413E+02  0.51100000000E-03 0. -1.
        -11    1    3    3    0    0 -0.14551733747E+01 -0.23584031673E+01  0.13854586333E+01  0.30982399739E+01  0.51100000000E-03 0.  1.
         12    1    3    3    0    0 -0.72937752234E+01  0.38121481127E+01 -0.55181270086E+01  0.99086505603E+01  0.00000000000E+00 0. -1.
</event>
<event>
 7    1  0.2935819E-010  0.4778727E+02  0.7816164E-02  0.1312668E+00
        -11   -1    0    0    0    0  0.00000000000E+00  0.00000000000E+00  0.45593999997E+02  0.45594000000E+02  0.51100000000E-03 0.  1.
         11   -1    0    0    0    0 -0.00000000000E+00 -0.00000000000E+00 -0.45593999997E+02  0.45594000000E+02  0.51100000000E-03 0. -1.
    9900012    2    1    2    0    0 -0.96713529052E+01  0.53442448462E+01 -0.41970551501E+02  0.47787271742E+02  0.20000003181E+02 0.  0.
        -12    1    1    2    0    0  0.96713529052E+01 -0.53442448462E+01  0.41970551501E+02  0.43400728258E+02  0.00000000000E+00 0.  1.
         11    1    3    3    0    0 -0.36338037722E+01  0.56003269360E+00 -0.20208849280E+02  0.20540588014E+02  0.51100000000E-03 0. -1.
        -11    1    3    3    0    0  0.23139247378E+01 -0.35475327765E+01 -0.34438809714E+01  0.54588966741E+01  0.51100000000E-03 0.  1.
        -12    1    3    3    0    0 -0.83514738708E+01  0.83317449291E+01 -0.18317821250E+02  0.21787787055E+02  0.00000000000E+00 0.  1.
</event>
<event>
 7    1  0.2935819E-010  0.4778727E+02  0.7816164E-02  0.1312668E+00
        -11   -1    0    0    0    0  0.00000000000E+00  0.00000000000E+00  0.45593999997E+02  0.45594000000E+02  0.51100000000E-03 0.  1.
         11   -1    0    0    0    0 -0.00000000000E+00 -0.00000000000E+00 -0.45593999997E+02  0.45594000000E+02  0.51100000000E-03 0. -1.
    9900012    2    1    2    0    0  0.30734876455E+02  0.30085263878E+02 -0.58195796644E+01  0.47787271426E+02  0.20000001738E+02 0.  0.
        -12    1    1    2    0    0 -0.30734876455E+02 -0.30085263878E+02  0.58195796644E+01  0.43400728574E+02  0.00000000000E+00 0.  1.
         11    1    3    3    0    0  0.10693986831E+02  0.16769638482E+01  0.31253064379E+01  0.11266814221E+02  0.51100000000E-03 0. -1.
        -11    1    3    3    0    0  0.10993353398E+02  0.19388629214E+02 -0.32157263046E+01  0.22519184214E+02  0.51100000000E-03 0.  1.
         12    1    3    3    0    0  0.90475362261E+01  0.90196708161E+01 -0.57291597978E+01  0.14001272991E+02  0.00000000000E+00 0. -1.
</event>
<event>
 7    1  0.2935819E-010  0.4778727E+02  0.7816164E-02  0.1312668E+00
        -11   -1    0    0    0    0  0.00000000000E+00  0.00000000000E+00  0.45593999997E+02  0.45594000000E+02  0.51100000000E-03 0.  1.
         11   -1    0    0    0    0 -0.00000000000E+00 -0.00000000000E+00 -0.45593999997E+02  0.45594000000E+02  0.51100000000E-03 0. -1.
    9900012    2    1    2    0    0  0.14236594249E+02 -0.14616108066E+02 -0.38305507550E+02  0.47787272593E+02  0.20000007060E+02 0.  0.
        -12    1    1    2    0    0 -0.14236594249E+02  0.14616108066E+02  0.38305507550E+02  0.43400727407E+02  0.00000000000E+00 0.  1.
         11    1    3    3    0    0  0.12732926382E+01 -0.11594317622E+02 -0.27155224890E+02  0.29554284197E+02  0.51100000000E-03 0. -1.
        -11    1    3    3    0    0  0.50508258618E+00 -0.16726778856E+01 -0.58572623539E+00  0.18428334737E+01  0.51100000000E-03 0.  1.
         12    1    3    3    0    0  0.12458219024E+02 -0.13491125588E+01 -0.10564556424E+02  0.16390154923E+02  0.00000000000E+00 0. -1.
</event>
<event>
 7    1  0.2935819E-010  0.4778728E+02  0.7816164E-02  0.1312668E+00
        -11   -1    0    0    0    0  0.00000000000E+00  0.00000000000E+00  0.45593999997E+02  0.45594000000E+02  0.51100000000E-03 0.  1.
         11   -1    0    0    0    0 -0.00000000000E+00 -0.00000000000E+00 -0.45593999997E+02  0.45594000000E+02  0.51100000000E-03 0. -1.
    9900012    2    1    2    0    0  0.65572335286E+01  0.21065326277E+01 -0.42850764333E+02  0.47787276560E+02  0.20000025146E+02 0.  0.
        -12    1    1    2    0    0 -0.65572335286E+01 -0.21065326277E+01  0.42850764333E+02  0.43400723440E+02  0.00000000000E+00 0.  1.
         11    1    3    3    0    0  0.51623724022E+01  0.71946362533E+00 -0.31706248520E+02  0.32131820867E+02  0.51100000000E-03 0. -1.
        -11    1    3    3    0    0 -0.43300993632E+01 -0.86068699220E+00 -0.25867553192E+01  0.51168199046E+01  0.51100000000E-03 0.  1.
        -12    1    3    3    0    0  0.57249604896E+01  0.22477559946E+01 -0.85577604934E+01  0.10538635788E+02  0.00000000000E+00 0.  1.
</event>
<event>
 7    1  0.2935819E-010  0.4778727E+02  0.7816164E-02  0.1312668E+00
        -11   -1    0    0    0    0  0.00000000000E+00  0.00000000000E+00  0.45593999997E+02  0.45594000000E+02  0.51100000000E-03 0.  1.
         11   -1    0    0    0    0 -0.00000000000E+00 -0.00000000000E+00 -0.45593999997E+02  0.45594000000E+02  0.51100000000E-03 0. -1.
    9900012    2    1    2    0    0 -0.14316232847E+02 -0.32039120105E+02 -0.25537493904E+02  0.47787270341E+02  0.19999996791E+02 0.  0.
        -12    1    1    2    0    0  0.14316232847E+02  0.32039120105E+02  0.25537493904E+02  0.43400729659E+02  0.00000000000E+00 0.  1.
         11    1    3    3    0    0 -0.80510108848E+01 -0.24186340869E+02 -0.10518170602E+02  0.27575891172E+02  0.51100000000E-03 0. -1.
        -11    1    3    3    0    0 -0.53075212411E+01  0.63728430065E-01 -0.41874520360E+01  0.67608134017E+01  0.51100000000E-03 0.  1.
         12    1    3    3    0    0 -0.95770072151E+00 -0.79165076666E+01 -0.10831871267E+02  0.13450565767E+02  0.00000000000E+00 0. -1.
</event>
<event>
 7    1  0.2935819E-010  0.4778727E+02  0.7816164E-02  0.1312668E+00
        -11   -1    0    0    0    0  0.00000000000E+00  0.00000000000E+00  0.45593999997E+02  0.45594000000E+02  0.51100000000E-03 0.  1.
         11   -1    0    0    0    0 -0.00000000000E+00 -0.00000000000E+00 -0.45593999997E+02  0.45594000000E+02  0.51100000000E-03 0. -1.
    9900012    2    1    2    0    0  0.37726153791E+02 -0.18294841430E+02  0.11209790835E+02  0.47787270589E+02  0.19999997924E+02 0.  0.
        -12    1    1    2    0    0 -0.37726153791E+02  0.18294841430E+02 -0.11209790835E+02  0.43400729411E+02  0.00000000000E+00 0.  1.
         11    1    3    3    0    0  0.17633361371E+02 -0.58251518605E+01 -0.20963192748E+01  0.18688562872E+02  0.51100000000E-03 0. -1.
        -11    1    3    3    0    0  0.88235520055E+01 -0.93789889303E+01  0.11519148753E+02  0.17277479319E+02  0.51100000000E-03 0.  1.
        -12    1    3    3    0    0  0.11269240414E+02 -0.30907006393E+01  0.17869613565E+01  0.11821228399E+02  0.00000000000E+00 0.  1.
</event>
<event>
 7    1  0.2935819E-010  0.4778727E+02  0.7816164E-02  0.1312668E+00
        -11   -1    0    0    0    0  0.00000000000E+00  0.00000000000E+00  0.45593999997E+02  0.45594000000E+02  0.51100000000E-03 0.  1.
         11   -1    0    0    0    0 -0.00000000000E+00 -0.00000000000E+00 -0.45593999997E+02  0.45594000000E+02  0.51100000000E-03 0. -1.
    9900012    2    1    2    0    0 -0.21374236341E+02 -0.37643538344E+02  0.31191828443E+01  0.47787271206E+02  0.20000000739E+02 0.  0.
        -12    1    1    2    0    0  0.21374236341E+02  0.37643538344E+02 -0.31191828443E+01  0.43400728794E+02  0.00000000000E+00 0.  1.
         11    1    3    3    0    0 -0.58590772194E+01 -0.19126565320E+02  0.39529544358E+01  0.20390687478E+02  0.51100000000E-03 0. -1.
        -11    1    3    3    0    0 -0.10645018985E+02 -0.13520247064E+02 -0.65137167521E+01  0.18399511300E+02  0.51100000000E-03 0.  1.
        -12    1    3    3    0    0 -0.48701401364E+01 -0.49967259599E+01  0.56799451606E+01  0.89970724291E+01  0.00000000000E+00 0.  1.
</event>
<event>
 7    1  0.2935819E-010  0.4778728E+02  0.7816164E-02  0.1312668E+00
        -11   -1    0    0    0    0  0.00000000000E+00  0.00000000000E+00  0.45593999997E+02  0.45594000000E+02  0.51100000000E-03 0. -1.
         11   -1    0    0    0    0 -0.00000000000E+00 -0.00000000000E+00 -0.45593999997E+02  0.45594000000E+02  0.51100000000E-03 0.  1.
    9900012    2    1    2    0    0  0.46266274518E+01  0.34335292474E+02  0.26140088097E+02  0.47787283455E+02  0.20000056586E+02 0.  0.
        -12    1    1    2    0    0 -0.46266274518E+01 -0.34335292474E+02 -0.26140088097E+02  0.43400716545E+02  0.00000000000E+00 0.  1.
         11    1    3    3    0    0  0.46668935827E+01  0.61110373745E+00  0.85003074846E+01  0.97164073136E+01  0.51100000000E-03 0. -1.
        -11    1    3    3    0    0 -0.46108908814E+00  0.18648914449E+02  0.99549285245E+01  0.21144626160E+02  0.51100000000E-03 0.  1.
         12    1    3    3    0    0  0.42082295724E+00  0.15075274288E+02  0.76848520879E+01  0.16926249981E+02  0.00000000000E+00 0. -1.
</event>
<event>
 7    1  0.2935819E-010  0.4778727E+02  0.7816164E-02  0.1312668E+00
        -11   -1    0    0    0    0  0.00000000000E+00  0.00000000000E+00  0.45593999997E+02  0.45594000000E+02  0.51100000000E-03 0.  1.
         11   -1    0    0    0    0 -0.00000000000E+00 -0.00000000000E+00 -0.45593999997E+02  0.45594000000E+02  0.51100000000E-03 0. -1.
    9900012    2    1    2    0    0 -0.24650058085E+02  0.18912760459E+02 -0.30303552241E+02  0.47787272469E+02  0.20000006495E+02 0.  0.
        -12    1    1    2    0    0  0.24650058085E+02 -0.18912760459E+02  0.30303552241E+02  0.43400727531E+02  0.00000000000E+00 0.  1.
         11    1    3    3    0    0 -0.20794607297E+02  0.12827181145E+02 -0.22703557104E+02  0.33352717644E+02  0.51100000000E-03 0. -1.
        -11    1    3    3    0    0 -0.66823568655E+00 -0.10424300517E+01  0.18187210435E+01  0.22002149533E+01  0.51100000000E-03 0.  1.
        -12    1    3    3    0    0 -0.31872151017E+01  0.71280093656E+01 -0.94187161803E+01  0.12234339872E+02  0.00000000000E+00 0.  1.
</event>
<event>
 7    1  0.1168930E-009  0.4778727E+02  0.7816164E-02  0.1312668E+00
        -11   -1    0    0    0    0  0.00000000000E+00  0.00000000000E+00  0.45593999997E+02  0.45594000000E+02  0.51100000000E-03 0.  1.
         11   -1    0    0    0    0 -0.00000000000E+00 -0.00000000000E+00 -0.45593999997E+02  0.45594000000E+02  0.51100000000E-03 0. -1.
    9900012    2    1    2    0    0 -0.23951642304E+02  0.28340985646E+02 -0.22510677161E+02  0.47787271634E+02  0.20000002690E+02 0.  0.
        -12    1    1    2    0    0  0.23951642304E+02 -0.28340985646E+02  0.22510677161E+02  0.43400728366E+02  0.00000000000E+00 0.  1.
         11    1    3    3    0    0 -0.19025761368E+02  0.14471569417E+02 -0.55765258370E+01  0.24545947887E+02  0.51100000000E-03 0. -1.
        -11    1    3    3    0    0 -0.35355495327E+01  0.85033127322E+01 -0.60258028280E+01  0.11005304989E+02  0.51100000000E-03 0.  1.
         12    1    3    3    0    0 -0.13903314037E+01  0.53661034971E+01 -0.10908348496E+02  0.12236018758E+02  0.00000000000E+00 0. -1.
</event>
<event>
 7    1  0.2935819E-010  0.4778728E+02  0.7816164E-02  0.1312668E+00
        -11   -1    0    0    0    0  0.00000000000E+00  0.00000000000E+00  0.45593999997E+02  0.45594000000E+02  0.51100000000E-03 0.  1.
         11   -1    0    0    0    0 -0.00000000000E+00 -0.00000000000E+00 -0.45593999997E+02  0.45594000000E+02  0.51100000000E-03 0. -1.
    9900012    2    1    2    0    0  0.34983712704E+02  0.75128729585E+01 -0.24562560931E+02  0.47787276341E+02  0.20000024151E+02 0.  0.
        -12    1    1    2    0    0 -0.34983712704E+02 -0.75128729585E+01  0.24562560931E+02  0.43400723659E+02  0.00000000000E+00 0.  1.
         11    1    3    3    0    0  0.23951573448E+01 -0.17911297953E+00 -0.39071194633E+01  0.45863321868E+01  0.51100000000E-03 0. -1.
        -11    1    3    3    0    0  0.26838729269E+02  0.54544701543E+01 -0.23793014380E+02  0.36279142314E+02  0.51100000000E-03 0.  1.
        -12    1    3    3    0    0  0.57498260895E+01  0.22375157837E+01  0.31375729129E+01  0.69218018410E+01  0.00000000000E+00 0.  1.
</event>
<event>
 7    1  0.2935819E-010  0.4778727E+02  0.7816164E-02  0.1312668E+00
        -11   -1    0    0    0    0  0.00000000000E+00  0.00000000000E+00  0.45593999997E+02  0.45594000000E+02  0.51100000000E-03 0. -1.
         11   -1    0    0    0    0 -0.00000000000E+00 -0.00000000000E+00 -0.45593999997E+02  0.45594000000E+02  0.51100000000E-03 0.  1.
    9900012    2    1    2    0    0  0.24134079023E+02 -0.16171718135E+02  0.32243525010E+02  0.47787272555E+02  0.20000006887E+02 0.  0.
        -12    1    1    2    0    0 -0.24134079023E+02  0.16171718135E+02 -0.32243525010E+02  0.43400727445E+02  0.00000000000E+00 0.  1.
         11    1    3    3    0    0  0.26988912982E+01 -0.36263194958E+01  0.50893229284E+01  0.68070122268E+01  0.51100000000E-03 0. -1.
        -11    1    3    3    0    0  0.12872572044E+02 -0.14333113577E+02  0.25690469947E+02  0.32111392094E+02  0.51100000000E-03 0.  1.
        -12    1    3    3    0    0  0.85626156807E+01  0.17877149382E+01  0.14637321339E+01  0.88688682342E+01  0.00000000000E+00 0.  1.
</event>
<event>
 7    1  0.2935819E-010  0.4778727E+02  0.7816164E-02  0.1312668E+00
        -11   -1    0    0    0    0  0.00000000000E+00  0.00000000000E+00  0.45593999997E+02  0.45594000000E+02  0.51100000000E-03 0.  1.
         11   -1    0    0    0    0 -0.00000000000E+00 -0.00000000000E+00 -0.45593999997E+02  0.45594000000E+02  0.51100000000E-03 0. -1.
    9900012    2    1    2    0    0  0.22197538417E+02 -0.28467416510E+02 -0.24093537515E+02  0.47787273456E+02  0.20000010997E+02 0.  0.
        -12    1    1    2    0    0 -0.22197538417E+02  0.28467416510E+02  0.24093537515E+02  0.43400726544E+02  0.00000000000E+00 0.  1.
         11    1    3    3    0    0  0.10881018485E+02 -0.13982244079E+02 -0.22562538760E+02  0.28687416550E+02  0.51100000000E-03 0. -1.
        -11    1    3    3    0    0  0.64766762850E+01 -0.67063374582E+01  0.15143561864E+01  0.94453995535E+01  0.51100000000E-03 0.  1.
         12    1    3    3    0    0  0.48398436469E+01 -0.77788349726E+01 -0.30453549419E+01  0.96544573529E+01  0.00000000000E+00 0. -1.
</event>
<event>
 7    1  0.2935819E-010  0.4778725E+02  0.7816164E-02  0.1312668E+00
        -11   -1    0    0    0    0  0.00000000000E+00  0.00000000000E+00  0.45593999997E+02  0.45594000000E+02  0.51100000000E-03 0.  1.
         11   -1    0    0    0    0 -0.00000000000E+00 -0.00000000000E+00 -0.45593999997E+02  0.45594000000E+02  0.51100000000E-03 0. -1.
    9900012    2    1    2    0    0  0.38162808474E+02 -0.34615310460E+01 -0.20377509217E+02  0.47787250816E+02  0.19999907770E+02 0.  0.
        -12    1    1    2    0    0 -0.38162808474E+02  0.34615310460E+01  0.20377509217E+02  0.43400749184E+02  0.00000000000E+00 0.  1.
         11    1    3    3    0    0  0.21990379902E+02  0.74163684523E+01 -0.14167446506E+02  0.27189995771E+02  0.51100000000E-03 0. -1.
        -11    1    3    3    0    0  0.10793903715E+02 -0.83201642700E+01 -0.50216164782E+01  0.14524122115E+02  0.51100000000E-03 0.  1.
         12    1    3    3    0    0  0.53785248579E+01 -0.25577352283E+01 -0.11884462328E+01  0.60731329306E+01  0.00000000000E+00 0. -1.
</event>
<event>
 7    1  0.2935819E-010  0.4778727E+02  0.7816164E-02  0.1312668E+00
        -11   -1    0    0    0    0  0.00000000000E+00  0.00000000000E+00  0.45593999997E+02  0.45594000000E+02  0.51100000000E-03 0.  1.
         11   -1    0    0    0    0 -0.00000000000E+00 -0.00000000000E+00 -0.45593999997E+02  0.45594000000E+02  0.51100000000E-03 0. -1.
    9900012    2    1    2    0    0 -0.22951255179E+01  0.42494964693E+02  0.85166505773E+01  0.47787274632E+02  0.20000016359E+02 0.  0.
        -12    1    1    2    0    0  0.22951255179E+01 -0.42494964693E+02 -0.85166505773E+01  0.43400725368E+02  0.00000000000E+00 0.  1.
         11    1    3    3    0    0 -0.73407364234E+01  0.36896704334E+02  0.32724932045E+01  0.37761917509E+02  0.51100000000E-03 0. -1.
        -11    1    3    3    0    0  0.46137429006E+01  0.25824168092E+01  0.22256866913E+01  0.57366524767E+01  0.51100000000E-03 0.  1.
         12    1    3    3    0    0  0.43186800498E+00  0.30158435494E+01  0.30184706815E+01  0.42887046463E+01  0.00000000000E+00 0. -1.
</event>
<event>
 7    1  0.2935819E-010  0.4778727E+02  0.7816164E-02  0.1312668E+00
        -11   -1    0    0    0    0  0.00000000000E+00  0.00000000000E+00  0.45593999997E+02  0.45594000000E+02  0.51100000000E-03 0. -1.
         11   -1    0    0    0    0 -0.00000000000E+00 -0.00000000000E+00 -0.45593999997E+02  0.45594000000E+02  0.51100000000E-03 0.  1.
    9900012    2    1    2    0    0 -0.39579297602E+02  0.16784412272E+02  0.59485992160E+01  0.47787272741E+02  0.20000007733E+02 0.  0.
        -12    1    1    2    0    0  0.39579297602E+02 -0.16784412272E+02 -0.59485992160E+01  0.43400727259E+02  0.00000000000E+00 0.  1.
         11    1    3    3    0    0 -0.15944868425E+02  0.14273855359E+02  0.88954317457E+01  0.23175644157E+02  0.51100000000E-03 0. -1.
        -11    1    3    3    0    0 -0.10679652334E+02 -0.16257581747E+01 -0.19381684777E+01  0.10975179311E+02  0.51100000000E-03 0.  1.
         12    1    3    3    0    0 -0.12954776844E+02  0.41363150879E+01 -0.10086640519E+01  0.13636449272E+02  0.00000000000E+00 0. -1.
</event>
<event>
 7    1  0.2935819E-010  0.4778727E+02  0.7816164E-02  0.1312668E+00
        -11   -1    0    0    0    0  0.00000000000E+00  0.00000000000E+00  0.45593999997E+02  0.45594000000E+02  0.51100000000E-03 0. -1.
         11   -1    0    0    0    0 -0.00000000000E+00 -0.00000000000E+00 -0.45593999997E+02  0.45594000000E+02  0.51100000000E-03 0.  1.
    9900012    2    1    2    0    0  0.13667864680E+02  0.38648174666E+02 -0.14252409205E+02  0.47787273070E+02  0.20000009235E+02 0.  0.
        -12    1    1    2    0    0 -0.13667864680E+02 -0.38648174666E+02  0.14252409205E+02  0.43400726930E+02  0.00000000000E+00 0.  1.
         11    1    3    3    0    0  0.57388315535E+01  0.16899607092E+02 -0.15495352663E+02  0.23635500034E+02  0.51100000000E-03 0.  1.
        -11    1    3    3    0    0  0.22245674561E+01  0.12361706518E+02  0.32770867733E+01  0.12980746758E+02  0.51100000000E-03 0. -1.
        -12    1    3    3    0    0  0.57044656705E+01  0.93868610563E+01 -0.20341433147E+01  0.11171026278E+02  0.00000000000E+00 0.  1.
</event>
<event>
 7    1  0.2935819E-010  0.4778727E+02  0.7816164E-02  0.1312668E+00
        -11   -1    0    0    0    0  0.00000000000E+00  0.00000000000E+00  0.45593999997E+02  0.45594000000E+02  0.51100000000E-03 0.  1.
         11   -1    0    0    0    0 -0.00000000000E+00 -0.00000000000E+00 -0.45593999997E+02  0.45594000000E+02  0.51100000000E-03 0. -1.
    9900012    2    1    2    0    0  0.39911973886E+02 -0.16846730478E+02  0.26163169919E+01  0.47787273026E+02  0.20000009035E+02 0.  0.
        -12    1    1    2    0    0 -0.39911973886E+02  0.16846730478E+02 -0.26163169919E+01  0.43400726974E+02  0.00000000000E+00 0.  1.
         11    1    3    3    0    0  0.29357837295E+02 -0.95554912559E+01  0.16845217381E+00  0.30874235216E+02  0.51100000000E-03 0. -1.
        -11    1    3    3    0    0  0.74112223164E+01 -0.85852410414E+01  0.52596505061E+01  0.12501860008E+02  0.51100000000E-03 0.  1.
         12    1    3    3    0    0  0.31429142744E+01  0.12940018190E+01 -0.28117856880E+01  0.44111778018E+01  0.00000000000E+00 0. -1.
</event>
<event>
 7    1  0.2935819E-010  0.4778727E+02  0.7816164E-02  0.1312668E+00
        -11   -1    0    0    0    0  0.00000000000E+00  0.00000000000E+00  0.45593999997E+02  0.45594000000E+02  0.51100000000E-03 0.  1.
         11   -1    0    0    0    0 -0.00000000000E+00 -0.00000000000E+00 -0.45593999997E+02  0.45594000000E+02  0.51100000000E-03 0. -1.
    9900012    2    1    2    0    0 -0.26261100878E+02 -0.10774407725E+02 -0.32831231957E+02  0.47787273359E+02  0.20000010552E+02 0.  0.
        -12    1    1    2    0    0  0.26261100878E+02  0.10774407725E+02  0.32831231957E+02  0.43400726641E+02  0.00000000000E+00 0.  1.
         11    1    3    3    0    0 -0.18582436226E+02 -0.11822281386E+02 -0.30060756291E+02  0.37265565101E+02  0.51100000000E-03 0. -1.
        -11    1    3    3    0    0 -0.69015578741E+01  0.26212842029E+00  0.64050531472E+00  0.69361703928E+01  0.51100000000E-03 0.  1.
        -12    1    3    3    0    0 -0.77710677784E+00  0.78574524029E+00 -0.34109809814E+01  0.35855378651E+01  0.00000000000E+00 0.  1.
</event>
<event>
 7    1  0.2935819E-010  0.4778728E+02  0.7816164E-02  0.1312668E+00
        -11   -1    0    0    0    0  0.00000000000E+00  0.00000000000E+00  0.45593999997E+02  0.45594000000E+02  0.51100000000E-03 0.  1.
         11   -1    0    0    0    0 -0.00000000000E+00 -0.00000000000E+00 -0.45593999997E+02  0.45594000000E+02  0.51100000000E-03 0. -1.
    9900012    2    1    2    0    0  0.21448645211E+02  0.65824682371E+01 -0.37151706909E+02  0.47787278857E+02  0.20000035619E+02 0.  0.
        -12    1    1    2    0    0 -0.21448645211E+02 -0.65824682371E+01  0.37151706909E+02  0.43400721143E+02  0.00000000000E+00 0.  1.
         11    1    3    3    0    0  0.15602369709E+02  0.10363486727E+02 -0.34444067891E+02  0.39207519825E+02  0.51100000000E-03 0. -1.
        -11    1    3    3    0    0  0.53943612071E+01 -0.12772003172E+01 -0.23059075917E+01  0.60039639877E+01  0.51100000000E-03 0.  1.
         12    1    3    3    0    0  0.45191429436E+00 -0.25038181723E+01 -0.40173142673E+00  0.25757950440E+01  0.00000000000E+00 0. -1.
</event>
<event>
 7    1  0.2935819E-010  0.4778727E+02  0.7816164E-02  0.1312668E+00
        -11   -1    0    0    0    0  0.00000000000E+00  0.00000000000E+00  0.45593999997E+02  0.45594000000E+02  0.51100000000E-03 0.  1.
         11   -1    0    0    0    0 -0.00000000000E+00 -0.00000000000E+00 -0.45593999997E+02  0.45594000000E+02  0.51100000000E-03 0. -1.
    9900012    2    1    2    0    0  0.21258685068E+02 -0.88717043961E+00 -0.37827295539E+02  0.47787273624E+02  0.20000011761E+02 0.  0.
        -12    1    1    2    0    0 -0.21258685068E+02  0.88717043961E+00  0.37827295539E+02  0.43400726376E+02  0.00000000000E+00 0.  1.
         11    1    3    3    0    0  0.89240380164E+01  0.27517739378E-01 -0.29098365284E+02  0.30436065354E+02  0.51100000000E-03 0. -1.
        -11    1    3    3    0    0  0.70824287021E+01  0.34367333756E+01 -0.29338822789E+01  0.84011664728E+01  0.51100000000E-03 0.  1.
         12    1    3    3    0    0  0.52522183495E+01 -0.43514215546E+01 -0.57950479752E+01  0.89500417972E+01  0.00000000000E+00 0. -1.
</event>
<event>
 7    1  0.2935819E-010  0.4778727E+02  0.7816164E-02  0.1312668E+00
        -11   -1    0    0    0    0  0.00000000000E+00  0.00000000000E+00  0.45593999997E+02  0.45594000000E+02  0.51100000000E-03 0.  1.
         11   -1    0    0    0    0 -0.00000000000E+00 -0.00000000000E+00 -0.45593999997E+02  0.45594000000E+02  0.51100000000E-03 0. -1.
    9900012    2    1    2    0    0 -0.34887069552E+02  0.39336931752E+01  0.25515519007E+02  0.47787271042E+02  0.19999999990E+02 0.  0.
        -12    1    1    2    0    0  0.34887069552E+02 -0.39336931752E+01 -0.25515519007E+02  0.43400728958E+02  0.00000000000E+00 0.  1.
         11    1    3    3    0    0 -0.52128839896E+01 -0.48048803302E+00 -0.20377922653E+01  0.56176174502E+01  0.51100000000E-03 0. -1.
        -11    1    3    3    0    0 -0.12755664551E+02  0.72144956524E+01  0.14525258294E+02  0.20633445045E+02  0.51100000000E-03 0.  1.
        -12    1    3    3    0    0 -0.16918521011E+02 -0.28003144442E+01  0.13028052978E+02  0.21536208547E+02  0.00000000000E+00 0.  1.
</event>
<event>
 7    1  0.2935819E-010  0.4778726E+02  0.7816164E-02  0.1312668E+00
        -11   -1    0    0    0    0  0.00000000000E+00  0.00000000000E+00  0.45593999997E+02  0.45594000000E+02  0.51100000000E-03 0. -1.
         11   -1    0    0    0    0 -0.00000000000E+00 -0.00000000000E+00 -0.45593999997E+02  0.45594000000E+02  0.51100000000E-03 0.  1.
    9900012    2    1    2    0    0 -0.34588565475E+02 -0.25001851657E+02 -0.78843506809E+01  0.47787257684E+02  0.19999939085E+02 0.  0.
        -12    1    1    2    0    0  0.34588565475E+02  0.25001851657E+02  0.78843506809E+01  0.43400742316E+02  0.00000000000E+00 0.  1.
         11    1    3    3    0    0 -0.60278446269E+01 -0.95829988991E+01 -0.46249764837E+01  0.12229439336E+02  0.51100000000E-03 0.  1.
        -11    1    3    3    0    0 -0.24566265471E+02 -0.77616308098E+01 -0.60827182152E+01  0.26471565371E+02  0.51100000000E-03 0. -1.
        -12    1    3    3    0    0 -0.39944553771E+01 -0.76572219480E+01  0.28233440181E+01  0.90862529771E+01  0.00000000000E+00 0.  1.
</event>
<event>
 7    1  0.2935819E-010  0.4778727E+02  0.7816164E-02  0.1312668E+00
        -11   -1    0    0    0    0  0.00000000000E+00  0.00000000000E+00  0.45593999997E+02  0.45594000000E+02  0.51100000000E-03 0.  1.
         11   -1    0    0    0    0 -0.00000000000E+00 -0.00000000000E+00 -0.45593999997E+02  0.45594000000E+02  0.51100000000E-03 0. -1.
    9900012    2    1    2    0    0 -0.25109843137E+02  0.17066044708E+02 -0.31014019999E+02  0.47787267969E+02  0.19999985979E+02 0.  0.
        -12    1    1    2    0    0  0.25109843137E+02 -0.17066044708E+02  0.31014019999E+02  0.43400732031E+02  0.00000000000E+00 0.  1.
         11    1    3    3    0    0 -0.23120018493E+02  0.13087589380E+02 -0.32536388828E+02  0.42005200263E+02  0.51100000000E-03 0. -1.
        -11    1    3    3    0    0 -0.18028005813E+01  0.50389164985E+00  0.13316812851E+01  0.22972531504E+01  0.51100000000E-03 0.  1.
         12    1    3    3    0    0 -0.18702406302E+00  0.34745636777E+01  0.19068754443E+00  0.34848145561E+01  0.00000000000E+00 0. -1.
</event>
<event>
 7    1  0.2935819E-010  0.4778727E+02  0.7816164E-02  0.1312668E+00
        -11   -1    0    0    0    0  0.00000000000E+00  0.00000000000E+00  0.45593999997E+02  0.45594000000E+02  0.51100000000E-03 0.  1.
         11   -1    0    0    0    0 -0.00000000000E+00 -0.00000000000E+00 -0.45593999997E+02  0.45594000000E+02  0.51100000000E-03 0. -1.
    9900012    2    1    2    0    0  0.19723197625E+02  0.19689399247E+02 -0.33270800110E+02  0.47787272964E+02  0.20000008754E+02 0.  0.
        -12    1    1    2    0    0 -0.19723197625E+02 -0.19689399247E+02  0.33270800110E+02  0.43400727036E+02  0.00000000000E+00 0.  1.
         11    1    3    3    0    0  0.91720548185E+01  0.17534363593E+02 -0.24308181390E+02  0.31344348437E+02  0.51100000000E-03 0. -1.
        -11    1    3    3    0    0  0.22329984075E+01 -0.14295117436E+00  0.16385436048E+01  0.27733630005E+01  0.51100000000E-03 0.  1.
        -12    1    3    3    0    0  0.83181443989E+01  0.22979868289E+01 -0.10601162325E+02  0.13669561527E+02  0.00000000000E+00 0.  1.
</event>
<event>
 7    1  0.2935819E-010  0.4778727E+02  0.7816164E-02  0.1312668E+00
        -11   -1    0    0    0    0  0.00000000000E+00  0.00000000000E+00  0.45593999997E+02  0.45594000000E+02  0.51100000000E-03 0.  1.
         11   -1    0    0    0    0 -0.00000000000E+00 -0.00000000000E+00 -0.45593999997E+02  0.45594000000E+02  0.51100000000E-03 0. -1.
    9900012    2    1    2    0    0  0.10989001478E+02 -0.29798867465E+02 -0.29578586074E+02  0.47787269478E+02  0.19999992859E+02 0.  0.
        -12    1    1    2    0    0 -0.10989001478E+02  0.29798867465E+02  0.29578586074E+02  0.43400730522E+02  0.00000000000E+00 0.  1.
         11    1    3    3    0    0  0.17493638878E+01  0.11506209222E+01  0.10168078993E+01  0.23276814825E+01  0.51100000000E-03 0. -1.
        -11    1    3    3    0    0  0.41702472699E+01 -0.30541234734E+01 -0.35028818145E+01  0.62441023174E+01  0.51100000000E-03 0.  1.
         12    1    3    3    0    0  0.50693903208E+01 -0.27895364914E+02 -0.27092512159E+02  0.39215485678E+02  0.00000000000E+00 0. -1.
</event>
<event>
 7    1  0.2935819E-010  0.4778726E+02  0.7816164E-02  0.1312668E+00
        -11   -1    0    0    0    0  0.00000000000E+00  0.00000000000E+00  0.45593999997E+02  0.45594000000E+02  0.51100000000E-03 0.  1.
         11   -1    0    0    0    0 -0.00000000000E+00 -0.00000000000E+00 -0.45593999997E+02  0.45594000000E+02  0.51100000000E-03 0. -1.
    9900012    2    1    2    0    0 -0.10291474065E+02  0.12314758854E+02 -0.40324390873E+02  0.47787260106E+02  0.19999950128E+02 0.  0.
        -12    1    1    2    0    0  0.10291474065E+02 -0.12314758854E+02  0.40324390873E+02  0.43400739894E+02  0.00000000000E+00 0.  1.
         11    1    3    3    0    0 -0.81137870232E+01  0.10375253873E+02 -0.28908163169E+02  0.31767299710E+02  0.51100000000E-03 0. -1.
        -11    1    3    3    0    0 -0.27886032879E+01 -0.42148744916E+01 -0.51856920145E+01  0.72410549789E+01  0.51100000000E-03 0.  1.
        -12    1    3    3    0    0  0.61091624648E+00  0.61543794723E+01 -0.62305356898E+01  0.87789054176E+01  0.00000000000E+00 0.  1.
</event>
<event>
 7    1  0.2935819E-010  0.4778727E+02  0.7816164E-02  0.1312668E+00
        -11   -1    0    0    0    0  0.00000000000E+00  0.00000000000E+00  0.45593999997E+02  0.45594000000E+02  0.51100000000E-03 0.  1.
         11   -1    0    0    0    0 -0.00000000000E+00 -0.00000000000E+00 -0.45593999997E+02  0.45594000000E+02  0.51100000000E-03 0. -1.
    9900012    2    1    2    0    0 -0.25328690550E+02 -0.19544451454E+02 -0.29327379063E+02  0.47787270624E+02  0.19999998084E+02 0.  0.
        -12    1    1    2    0    0  0.25328690550E+02  0.19544451454E+02  0.29327379063E+02  0.43400729376E+02  0.00000000000E+00 0.  1.
         11    1    3    3    0    0 -0.59557597162E+01 -0.32464317861E+01  0.13226339289E+01  0.69108432126E+01  0.51100000000E-03 0.  1.
        -11    1    3    3    0    0 -0.19899393296E+02 -0.14844128154E+02 -0.25881324398E+02  0.35863309204E+02  0.51100000000E-03 0. -1.
        -12    1    3    3    0    0  0.52646246145E+00 -0.14538915136E+01 -0.47686885944E+01  0.50131182080E+01  0.00000000000E+00 0.  1.
</event>
<event>
 7    1  0.2935819E-010  0.4778727E+02  0.7816164E-02  0.1312668E+00
        -11   -1    0    0    0    0  0.00000000000E+00  0.00000000000E+00  0.45593999997E+02  0.45594000000E+02  0.51100000000E-03 0. -1.
         11   -1    0    0    0    0 -0.00000000000E+00 -0.00000000000E+00 -0.45593999997E+02  0.45594000000E+02  0.51100000000E-03 0.  1.
    9900012    2    1    2    0    0 -0.40255683920E+02 -0.15686187389E+02  0.41287677481E+01  0.47787270907E+02  0.19999999374E+02 0.  0.
        -12    1    1    2    0    0  0.40255683920E+02  0.15686187389E+02 -0.41287677481E+01  0.43400729093E+02  0.00000000000E+00 0.  1.
         11    1    3    3    0    0 -0.10429258873E+02 -0.11076881170E+02 -0.38519209673E+01  0.15694076350E+02  0.51100000000E-03 0. -1.
        -11    1    3    3    0    0 -0.10290588386E+02  0.10620691705E+01  0.51452709267E+01  0.11554134041E+02  0.51100000000E-03 0.  1.
         12    1    3    3    0    0 -0.19535836661E+02 -0.56713753896E+01  0.28354177887E+01  0.20539060516E+02  0.00000000000E+00 0. -1.
</event>
<event>
 7    1  0.2935819E-010  0.4778727E+02  0.7816164E-02  0.1312668E+00
        -11   -1    0    0    0    0  0.00000000000E+00  0.00000000000E+00  0.45593999997E+02  0.45594000000E+02  0.51100000000E-03 0.  1.
         11   -1    0    0    0    0 -0.00000000000E+00 -0.00000000000E+00 -0.45593999997E+02  0.45594000000E+02  0.51100000000E-03 0. -1.
    9900012    2    1    2    0    0 -0.10404569131E+02  0.31318902649E+02 -0.28186778806E+02  0.47787271648E+02  0.20000002754E+02 0.  0.
        -12    1    1    2    0    0  0.10404569131E+02 -0.31318902649E+02  0.28186778806E+02  0.43400728352E+02  0.00000000000E+00 0.  1.
         11    1    3    3    0    0 -0.15557282276E+00  0.12224656558E+02 -0.21587861769E+02  0.24809316937E+02  0.51100000000E-03 0. -1.
        -11    1    3    3    0    0 -0.77485615307E+01  0.11653737456E+02 -0.28615059766E+01  0.14284187733E+02  0.51100000000E-03 0.  1.
         12    1    3    3    0    0 -0.25004347778E+01  0.74405086353E+01 -0.37374110609E+01  0.86937669780E+01  0.00000000000E+00 0. -1.
</event>
<event>
 7    1  0.2935819E-010  0.4778727E+02  0.7816164E-02  0.1312668E+00
        -11   -1    0    0    0    0  0.00000000000E+00  0.00000000000E+00  0.45593999997E+02  0.45594000000E+02  0.51100000000E-03 0. -1.
         11   -1    0    0    0    0 -0.00000000000E+00 -0.00000000000E+00 -0.45593999997E+02  0.45594000000E+02  0.51100000000E-03 0.  1.
    9900012    2    1    2    0    0 -0.21048193152E+02 -0.17118096963E+02  0.33875764540E+02  0.47787273027E+02  0.20000009041E+02 0.  0.
        -12    1    1    2    0    0  0.21048193152E+02  0.17118096963E+02 -0.33875764540E+02  0.43400726973E+02  0.00000000000E+00 0.  1.
         11    1    3    3    0    0  0.32146154037E+01 -0.42557281114E+01  0.55605542252E+01  0.77048515563E+01  0.51100000000E-03 0. -1.
        -11    1    3    3    0    0 -0.13701224903E+02 -0.87779033012E+01  0.11981073990E+02  0.20206961286E+02  0.51100000000E-03 0.  1.
         12    1    3    3    0    0 -0.10561583653E+02 -0.40844655505E+01  0.16334136325E+02  0.19875460185E+02  0.00000000000E+00 0. -1.
</event>
<event>
 7    1  0.2935819E-010  0.4778727E+02  0.7816164E-02  0.1312668E+00
        -11   -1    0    0    0    0  0.00000000000E+00  0.00000000000E+00  0.45593999997E+02  0.45594000000E+02  0.51100000000E-03 0.  1.
         11   -1    0    0    0    0 -0.00000000000E+00 -0.00000000000E+00 -0.45593999997E+02  0.45594000000E+02  0.51100000000E-03 0. -1.
    9900012    2    1    2    0    0  0.50976297699E+01 -0.18804140257E+02 -0.38781975200E+02  0.47787272811E+02  0.20000008055E+02 0.  0.
        -12    1    1    2    0    0 -0.50976297699E+01  0.18804140257E+02  0.38781975200E+02  0.43400727189E+02  0.00000000000E+00 0.  1.
         11    1    3    3    0    0 -0.22341765372E+01 -0.76134949653E+01 -0.88074887934E+01  0.11854480566E+02  0.51100000000E-03 0. -1.
        -11    1    3    3    0    0  0.61492200034E+01  0.18678903041E+01 -0.12824704453E+02  0.14344858501E+02  0.51100000000E-03 0.  1.
        -12    1    3    3    0    0  0.11825863037E+01 -0.13058535596E+02 -0.17149781954E+02  0.21587933744E+02  0.00000000000E+00 0.  1.
</event>
<event>
 7    1  0.2935819E-010  0.4778728E+02  0.7816164E-02  0.1312668E+00
        -11   -1    0    0    0    0  0.00000000000E+00  0.00000000000E+00  0.45593999997E+02  0.45594000000E+02  0.51100000000E-03 0.  1.
         11   -1    0    0    0    0 -0.00000000000E+00 -0.00000000000E+00 -0.45593999997E+02  0.45594000000E+02  0.51100000000E-03 0. -1.
    9900012    2    1    2    0    0  0.10764879977E+02 -0.21223431335E+02 -0.36294706768E+02  0.47787280905E+02  0.20000044959E+02 0.  0.
        -12    1    1    2    0    0 -0.10764879977E+02  0.21223431335E+02  0.36294706768E+02  0.43400719095E+02  0.00000000000E+00 0.  1.
         11    1    3    3    0    0  0.52888962751E+01 -0.73541810657E+01 -0.25784718543E+02  0.27329619711E+02  0.51100000000E-03 0. -1.
        -11    1    3    3    0    0  0.69840293074E+01 -0.51763093229E+01 -0.45651401401E+01  0.98189280644E+01  0.51100000000E-03 0.  1.
         12    1    3    3    0    0 -0.15080456059E+01 -0.86929409466E+01 -0.59448480852E+01  0.10638733130E+02  0.00000000000E+00 0. -1.
</event>
<event>
 7    1  0.2935819E-010  0.4778726E+02  0.7816164E-02  0.1312668E+00
        -11   -1    0    0    0    0  0.00000000000E+00  0.00000000000E+00  0.45593999997E+02  0.45594000000E+02  0.51100000000E-03 0.  1.
         11   -1    0    0    0    0 -0.00000000000E+00 -0.00000000000E+00 -0.45593999997E+02  0.45594000000E+02  0.51100000000E-03 0. -1.
    9900012    2    1    2    0    0 -0.45753176372E+01 -0.17517908839E+02 -0.39443800822E+02  0.47787261701E+02  0.19999957401E+02 0.  0.
        -12    1    1    2    0    0  0.45753176372E+01  0.17517908839E+02  0.39443800822E+02  0.43400738299E+02  0.00000000000E+00 0.  1.
         11    1    3    3    0    0  0.39298902955E+01  0.25145032273E+01 -0.69874073841E+01  0.84018228039E+01  0.51100000000E-03 0. -1.
        -11    1    3    3    0    0 -0.73562699901E+01 -0.11422058453E+02 -0.20916647605E+02  0.24941617324E+02  0.51100000000E-03 0.  1.
         12    1    3    3    0    0 -0.11489379427E+01 -0.86103536133E+01 -0.11539745833E+02  0.14443821573E+02  0.00000000000E+00 0. -1.
</event>
<event>
 7    1  0.2935819E-010  0.4778727E+02  0.7816164E-02  0.1312668E+00
        -11   -1    0    0    0    0  0.00000000000E+00  0.00000000000E+00  0.45593999997E+02  0.45594000000E+02  0.51100000000E-03 0. -1.
         11   -1    0    0    0    0 -0.00000000000E+00 -0.00000000000E+00 -0.45593999997E+02  0.45594000000E+02  0.51100000000E-03 0.  1.
    9900012    2    1    2    0    0  0.15807514934E+02  0.94436039186E+01  0.39300942074E+02  0.47787271536E+02  0.20000002239E+02 0.  0.
        -12    1    1    2    0    0 -0.15807514934E+02 -0.94436039186E+01 -0.39300942074E+02  0.43400728464E+02  0.00000000000E+00 0.  1.
         11    1    3    3    0    0  0.14545961329E+02  0.33343494031E+01  0.22373469185E+02  0.26893772524E+02  0.51100000000E-03 0. -1.
        -11    1    3    3    0    0 -0.29360514722E+01 -0.41168317949E+00  0.91645589490E+00  0.31031875477E+01  0.51100000000E-03 0.  1.
         12    1    3    3    0    0  0.41976050766E+01  0.65209376950E+01  0.16011016994E+02  0.17790311464E+02  0.00000000000E+00 0. -1.
</event>
<event>
 7    1  0.2935819E-010  0.4778727E+02  0.7816164E-02  0.1312668E+00
        -11   -1    0    0    0    0  0.00000000000E+00  0.00000000000E+00  0.45593999997E+02  0.45594000000E+02  0.51100000000E-03 0.  1.
         11   -1    0    0    0    0 -0.00000000000E+00 -0.00000000000E+00 -0.45593999997E+02  0.45594000000E+02  0.51100000000E-03 0. -1.
    9900012    2    1    2    0    0  0.22460484571E+02  0.66285772835E+01 -0.36540547631E+02  0.47787273910E+02  0.20000013065E+02 0.  0.
        -12    1    1    2    0    0 -0.22460484571E+02 -0.66285772835E+01  0.36540547631E+02  0.43400726090E+02  0.00000000000E+00 0.  1.
         11    1    3    3    0    0  0.22514916730E+01 -0.29749518502E+01 -0.12341710488E+02  0.12893307229E+02  0.51100000000E-03 0. -1.
        -11    1    3    3    0    0  0.12013752657E+02  0.10377913159E+02 -0.10912782551E+02  0.19264479171E+02  0.51100000000E-03 0.  1.
         12    1    3    3    0    0  0.81952402418E+01 -0.77438402570E+00 -0.13286054591E+02  0.15629487510E+02  0.00000000000E+00 0. -1.
</event>
<event>
 7    1  0.2935819E-010  0.4778727E+02  0.7816164E-02  0.1312668E+00
        -11   -1    0    0    0    0  0.00000000000E+00  0.00000000000E+00  0.45593999997E+02  0.45594000000E+02  0.51100000000E-03 0.  1.
         11   -1    0    0    0    0 -0.00000000000E+00 -0.00000000000E+00 -0.45593999997E+02  0.45594000000E+02  0.51100000000E-03 0. -1.
    9900012    2    1    2    0    0 -0.92343447807E+01  0.11155238159E+01 -0.42392286501E+02  0.47787268766E+02  0.19999989610E+02 0.  0.
        -12    1    1    2    0    0  0.92343447807E+01 -0.11155238159E+01  0.42392286501E+02  0.43400731234E+02  0.00000000000E+00 0.  1.
         11    1    3    3    0    0 -0.36179458705E+01  0.54154315332E+01 -0.37470721330E+01  0.75137860525E+01  0.51100000000E-03 0. -1.
        -11    1    3    3    0    0 -0.24192098983E+01  0.11619102315E+01 -0.28176709054E+01  0.38912570605E+01  0.51100000000E-03 0.  1.
         12    1    3    3    0    0 -0.31971890119E+01 -0.54618179488E+01 -0.35827543462E+02  0.36382225653E+02  0.00000000000E+00 0. -1.
</event>
<event>
 7    1  0.2935819E-010  0.4778728E+02  0.7816164E-02  0.1312668E+00
        -11   -1    0    0    0    0  0.00000000000E+00  0.00000000000E+00  0.45593999997E+02  0.45594000000E+02  0.51100000000E-03 0.  1.
         11   -1    0    0    0    0 -0.00000000000E+00 -0.00000000000E+00 -0.45593999997E+02  0.45594000000E+02  0.51100000000E-03 0. -1.
    9900012    2    1    2    0    0 -0.89620683550E+00  0.54901713558E+01 -0.43042737737E+02  0.47787280650E+02  0.20000043795E+02 0.  0.
        -12    1    1    2    0    0  0.89620683550E+00 -0.54901713558E+01  0.43042737737E+02  0.43400719350E+02  0.00000000000E+00 0.  1.
         11    1    3    3    0    0  0.36222699330E+00  0.73796326227E+01 -0.29392633307E+02  0.30307046689E+02  0.51100000000E-03 0. -1.
        -11    1    3    3    0    0  0.17895528949E+01 -0.57300613627E+01 -0.70828912240E+01  0.92845813657E+01  0.51100000000E-03 0.  1.
        -12    1    3    3    0    0 -0.30479867237E+01  0.38406000958E+01 -0.65672132066E+01  0.81956525954E+01  0.00000000000E+00 0.  1.
</event>
<event>
 7    1  0.2935819E-010  0.4778727E+02  0.7816164E-02  0.1312668E+00
        -11   -1    0    0    0    0  0.00000000000E+00  0.00000000000E+00  0.45593999997E+02  0.45594000000E+02  0.51100000000E-03 0.  1.
         11   -1    0    0    0    0 -0.00000000000E+00 -0.00000000000E+00 -0.45593999997E+02  0.45594000000E+02  0.51100000000E-03 0. -1.
    9900012    2    1    2    0    0 -0.42407590762E+01  0.38817275809E+02 -0.18943556541E+02  0.47787271052E+02  0.20000000034E+02 0.  0.
        -12    1    1    2    0    0  0.42407590762E+01 -0.38817275809E+02  0.18943556541E+02  0.43400728948E+02  0.00000000000E+00 0.  1.
         11    1    3    3    0    0 -0.59911498418E+01  0.24250981838E+02 -0.58144025850E+01  0.25647831764E+02  0.51100000000E-03 0. -1.
        -11    1    3    3    0    0 -0.89733518170E+00  0.12779972022E+02 -0.13848283541E+02  0.18865520205E+02  0.51100000000E-03 0.  1.
        -12    1    3    3    0    0  0.26477259473E+01  0.17863219493E+01  0.71912958472E+00  0.32739190824E+01  0.00000000000E+00 0.  1.
</event>
<event>
 7    1  0.2935819E-010  0.4778727E+02  0.7816164E-02  0.1312668E+00
        -11   -1    0    0    0    0  0.00000000000E+00  0.00000000000E+00  0.45593999997E+02  0.45594000000E+02  0.51100000000E-03 0. -1.
         11   -1    0    0    0    0 -0.00000000000E+00 -0.00000000000E+00 -0.45593999997E+02  0.45594000000E+02  0.51100000000E-03 0.  1.
    9900012    2    1    2    0    0  0.20700416068E+02 -0.19642701995E+02  0.32699850724E+02  0.47787271845E+02  0.20000003649E+02 0.  0.
        -12    1    1    2    0    0 -0.20700416068E+02  0.19642701995E+02 -0.32699850724E+02  0.43400728155E+02  0.00000000000E+00 0.  1.
         11    1    3    3    0    0  0.68696028274E+01 -0.17842636125E+02  0.17652067892E+02  0.26022040812E+02  0.51100000000E-03 0. -1.
        -11    1    3    3    0    0  0.92643566512E+01 -0.82945535333E+00  0.47181632032E+01  0.10429638758E+02  0.51100000000E-03 0.  1.
         12    1    3    3    0    0  0.45664565889E+01 -0.97061051675E+00  0.10329619629E+02  0.11335592275E+02  0.00000000000E+00 0. -1.
</event>
<event>
 7    1  0.2935819E-010  0.4778727E+02  0.7816164E-02  0.1312668E+00
        -11   -1    0    0    0    0  0.00000000000E+00  0.00000000000E+00  0.45593999997E+02  0.45594000000E+02  0.51100000000E-03 0.  1.
         11   -1    0    0    0    0 -0.00000000000E+00 -0.00000000000E+00 -0.45593999997E+02  0.45594000000E+02  0.51100000000E-03 0. -1.
    9900012    2    1    2    0    0  0.29952766386E+02 -0.17058293365E+02 -0.26371762435E+02  0.47787269124E+02  0.19999991243E+02 0.  0.
        -12    1    1    2    0    0 -0.29952766386E+02  0.17058293365E+02  0.26371762435E+02  0.43400730876E+02  0.00000000000E+00 0.  1.
         11    1    3    3    0    0  0.19538110482E+02 -0.80799541861E+01 -0.23087390300E+02  0.31305766434E+02  0.51100000000E-03 0. -1.
        -11    1    3    3    0    0  0.70478456623E+01 -0.99359317265E+01 -0.83705932301E+00  0.12210468309E+02  0.51100000000E-03 0.  1.
        -12    1    3    3    0    0  0.33668102413E+01  0.95759254773E+00 -0.24473128115E+01  0.42710343813E+01  0.00000000000E+00 0.  1.
</event>
<event>
 7    1  0.2935819E-010  0.4778727E+02  0.7816164E-02  0.1312668E+00
        -11   -1    0    0    0    0  0.00000000000E+00  0.00000000000E+00  0.45593999997E+02  0.45594000000E+02  0.51100000000E-03 0. -1.
         11   -1    0    0    0    0 -0.00000000000E+00 -0.00000000000E+00 -0.45593999997E+02  0.45594000000E+02  0.51100000000E-03 0.  1.
    9900012    2    1    2    0    0  0.22197470026E+01  0.42913411226E+02  0.60938713305E+01  0.47787269504E+02  0.19999992974E+02 0.  0.
        -12    1    1    2    0    0 -0.22197470026E+01 -0.42913411226E+02 -0.60938713305E+01  0.43400730496E+02  0.00000000000E+00 0.  1.
         11    1    3    3    0    0 -0.18937907399E+00  0.31139778960E+02  0.10114201402E+02  0.32741697701E+02  0.51100000000E-03 0. -1.
        -11    1    3    3    0    0  0.38379022936E+01  0.12367756048E+02 -0.36589709794E+01  0.13456557976E+02  0.51100000000E-03 0.  1.
        -12    1    3    3    0    0 -0.14287762170E+01 -0.59412378127E+00 -0.36135909258E+00  0.15890138261E+01  0.00000000000E+00 0.  1.
</event>
<event>
 7    1  0.2935819E-010  0.4778727E+02  0.7816164E-02  0.1312668E+00
        -11   -1    0    0    0    0  0.00000000000E+00  0.00000000000E+00  0.45593999997E+02  0.45594000000E+02  0.51100000000E-03 0.  1.
         11   -1    0    0    0    0 -0.00000000000E+00 -0.00000000000E+00 -0.45593999997E+02  0.45594000000E+02  0.51100000000E-03 0. -1.
    9900012    2    1    2    0    0 -0.31067219342E+02 -0.11914543124E+02 -0.27865657725E+02  0.47787270329E+02  0.19999996738E+02 0.  0.
        -12    1    1    2    0    0  0.31067219342E+02  0.11914543124E+02  0.27865657725E+02  0.43400729671E+02  0.00000000000E+00 0.  1.
         11    1    3    3    0    0 -0.21994823615E+02 -0.14316882191E+02 -0.23347171249E+02  0.35125998735E+02  0.51100000000E-03 0. -1.
        -11    1    3    3    0    0 -0.29530468388E+01  0.37197948978E+01 -0.42859364830E+01  0.63973909925E+01  0.51100000000E-03 0.  1.
        -12    1    3    3    0    0 -0.61193488891E+01 -0.13174558303E+01 -0.23254999297E+00  0.62638806015E+01  0.00000000000E+00 0.  1.
</event>
<event>
 7    1  0.2935819E-010  0.4778727E+02  0.7816164E-02  0.1312668E+00
        -11   -1    0    0    0    0  0.00000000000E+00  0.00000000000E+00  0.45593999997E+02  0.45594000000E+02  0.51100000000E-03 0.  1.
         11   -1    0    0    0    0 -0.00000000000E+00 -0.00000000000E+00 -0.45593999997E+02  0.45594000000E+02  0.51100000000E-03 0. -1.
    9900012    2    1    2    0    0 -0.50347016385E+01 -0.41353171197E+02  0.12173344204E+02  0.47787270769E+02  0.19999998744E+02 0.  0.
        -12    1    1    2    0    0  0.50347016385E+01  0.41353171197E+02 -0.12173344204E+02  0.43400729231E+02  0.00000000000E+00 0.  1.
         11    1    3    3    0    0  0.25411381596E+01 -0.66364818321E+01 -0.37568067308E+01  0.80382753951E+01  0.51100000000E-03 0.  1.
        -11    1    3    3    0    0 -0.90579078241E+01 -0.31637404492E+02  0.13574008799E+02  0.35598100683E+02  0.51100000000E-03 0. -1.
         12    1    3    3    0    0  0.14820680260E+01 -0.30792848733E+01  0.23561421363E+01  0.41508946904E+01  0.00000000000E+00 0. -1.
</event>
<event>
 7    1  0.2935819E-010  0.4778727E+02  0.7816164E-02  0.1312668E+00
        -11   -1    0    0    0    0  0.00000000000E+00  0.00000000000E+00  0.45593999997E+02  0.45594000000E+02  0.51100000000E-03 0.  1.
         11   -1    0    0    0    0 -0.00000000000E+00 -0.00000000000E+00 -0.45593999997E+02  0.45594000000E+02  0.51100000000E-03 0. -1.
    9900012    2    1    2    0    0  0.10637467896E+02 -0.93609975864E+01 -0.41022421087E+02  0.47787273844E+02  0.20000012765E+02 0.  0.
        -12    1    1    2    0    0 -0.10637467896E+02  0.93609975864E+01  0.41022421087E+02  0.43400726156E+02  0.00000000000E+00 0.  1.
         11    1    3    3    0    0 -0.55992587933E+00 -0.76850283014E+01 -0.67787862599E+01  0.10262802756E+02  0.51100000000E-03 0. -1.
        -11    1    3    3    0    0  0.17203610234E+01 -0.15975219247E+01 -0.40333340331E+00  0.23820991679E+01  0.51100000000E-03 0.  1.
         12    1    3    3    0    0  0.94770327524E+01 -0.78447360345E-01 -0.33840301423E+02  0.35142371920E+02  0.00000000000E+00 0. -1.
</event>
<event>
 7    1  0.2935819E-010  0.4778727E+02  0.7816164E-02  0.1312668E+00
        -11   -1    0    0    0    0  0.00000000000E+00  0.00000000000E+00  0.45593999997E+02  0.45594000000E+02  0.51100000000E-03 0. -1.
         11   -1    0    0    0    0 -0.00000000000E+00 -0.00000000000E+00 -0.45593999997E+02  0.45594000000E+02  0.51100000000E-03 0.  1.
    9900012    2    1    2    0    0 -0.33546366608E+02 -0.16725795926E+02  0.21874923791E+02  0.47787271287E+02  0.20000001104E+02 0.  0.
        -12    1    1    2    0    0  0.33546366608E+02  0.16725795926E+02 -0.21874923791E+02  0.43400728713E+02  0.00000000000E+00 0.  1.
         11    1    3    3    0    0 -0.14431171306E+02 -0.10668420363E+02  0.14794677351E+02  0.23258468919E+02  0.51100000000E-03 0. -1.
        -11    1    3    3    0    0 -0.14444466891E+02  0.15577378573E+01  0.49108759986E+01  0.15335771071E+02  0.51100000000E-03 0.  1.
        -12    1    3    3    0    0 -0.46707284116E+01 -0.76151134206E+01  0.21693704409E+01  0.91930312962E+01  0.00000000000E+00 0.  1.
</event>
<event>
 7    1  0.2935819E-010  0.4778725E+02  0.7816164E-02  0.1312668E+00
        -11   -1    0    0    0    0  0.00000000000E+00  0.00000000000E+00  0.45593999997E+02  0.45594000000E+02  0.51100000000E-03 0.  1.
         11   -1    0    0    0    0 -0.00000000000E+00 -0.00000000000E+00 -0.45593999997E+02  0.45594000000E+02  0.51100000000E-03 0. -1.
    9900012    2    1    2    0    0  0.35592984912E+01 -0.10451685901E+02 -0.41972835878E+02  0.47787247753E+02  0.19999893805E+02 0.  0.
        -12    1    1    2    0    0 -0.35592984912E+01  0.10451685901E+02  0.41972835878E+02  0.43400752247E+02  0.00000000000E+00 0.  1.
         11    1    3    3    0    0  0.52882622464E+00  0.42709766259E+01 -0.47873878239E+01  0.64373892963E+01  0.51100000000E-03 0. -1.
        -11    1    3    3    0    0 -0.28987343720E+01 -0.80670529976E+01 -0.23529060199E+02  0.25041898473E+02  0.51100000000E-03 0.  1.
         12    1    3    3    0    0  0.59292066386E+01 -0.66556095293E+01 -0.13656387855E+02  0.16307959983E+02  0.00000000000E+00 0. -1.
</event>
<event>
 7    1  0.3482888E-010  0.4778727E+02  0.7816164E-02  0.1312668E+00
        -11   -1    0    0    0    0  0.00000000000E+00  0.00000000000E+00  0.45593999997E+02  0.45594000000E+02  0.51100000000E-03 0.  1.
         11   -1    0    0    0    0 -0.00000000000E+00 -0.00000000000E+00 -0.45593999997E+02  0.45594000000E+02  0.51100000000E-03 0. -1.
    9900012    2    1    2    0    0  0.16523244727E+02  0.39722971952E+02  0.57176372584E+01  0.47787268522E+02  0.19999988501E+02 0.  0.
        -12    1    1    2    0    0 -0.16523244727E+02 -0.39722971952E+02 -0.57176372584E+01  0.43400731478E+02  0.00000000000E+00 0.  1.
         11    1    3    3    0    0  0.12517470808E+02  0.22686651480E+02  0.71550333620E-01  0.25910931101E+02  0.51100000000E-03 0. -1.
        -11    1    3    3    0    0  0.18486907487E+01  0.33715703171E+01  0.69894423777E+01  0.79773083743E+01  0.51100000000E-03 0.  1.
        -12    1    3    3    0    0  0.21570831703E+01  0.13664750155E+02 -0.13433554529E+01  0.13899029048E+02  0.00000000000E+00 0.  1.
</event>
<event>
 7    1  0.2935819E-010  0.4778727E+02  0.7816164E-02  0.1312668E+00
        -11   -1    0    0    0    0  0.00000000000E+00  0.00000000000E+00  0.45593999997E+02  0.45594000000E+02  0.51100000000E-03 0.  1.
         11   -1    0    0    0    0 -0.00000000000E+00 -0.00000000000E+00 -0.45593999997E+02  0.45594000000E+02  0.51100000000E-03 0. -1.
    9900012    2    1    2    0    0 -0.34429922318E+02 -0.97101076523E+01 -0.24574735718E+02  0.47787269856E+02  0.19999994582E+02 0.  0.
        -12    1    1    2    0    0  0.34429922318E+02  0.97101076523E+01  0.24574735718E+02  0.43400730144E+02  0.00000000000E+00 0.  1.
         11    1    3    3    0    0  0.12200336368E+01 -0.19156888618E+01  0.86238739327E+00  0.24294151904E+01  0.51100000000E-03 0. -1.
        -11    1    3    3    0    0 -0.30801404971E+01 -0.35297306380E+01 -0.36907160258E+01  0.59638619118E+01  0.51100000000E-03 0.  1.
         12    1    3    3    0    0 -0.32569815457E+02 -0.42646881525E+01 -0.21746407086E+02  0.39393992754E+02  0.00000000000E+00 0. -1.
</event>
<event>
 7    1  0.2935819E-010  0.4778727E+02  0.7816164E-02  0.1312668E+00
        -11   -1    0    0    0    0  0.00000000000E+00  0.00000000000E+00  0.45593999997E+02  0.45594000000E+02  0.51100000000E-03 0. -1.
         11   -1    0    0    0    0 -0.00000000000E+00 -0.00000000000E+00 -0.45593999997E+02  0.45594000000E+02  0.51100000000E-03 0.  1.
    9900012    2    1    2    0    0 -0.28190019011E+02 -0.24477132310E+01  0.32908286504E+02  0.47787265070E+02  0.19999972758E+02 0.  0.
        -12    1    1    2    0    0  0.28190019011E+02  0.24477132310E+01 -0.32908286504E+02  0.43400734930E+02  0.00000000000E+00 0.  1.
         11    1    3    3    0    0 -0.39608958486E+01 -0.51536501701E+01  0.63481225469E+01  0.90855636111E+01  0.51100000000E-03 0. -1.
        -11    1    3    3    0    0 -0.11899655450E+02  0.60092345784E+01  0.20782701431E+02  0.24690754931E+02  0.51100000000E-03 0.  1.
        -12    1    3    3    0    0 -0.12329467712E+02 -0.33032976392E+01  0.57774625262E+01  0.14010946527E+02  0.00000000000E+00 0.  1.
</event>
<event>
 7    1  0.2935819E-010  0.4778727E+02  0.7816164E-02  0.1312668E+00
        -11   -1    0    0    0    0  0.00000000000E+00  0.00000000000E+00  0.45593999997E+02  0.45594000000E+02  0.51100000000E-03 0.  1.
         11   -1    0    0    0    0 -0.00000000000E+00 -0.00000000000E+00 -0.45593999997E+02  0.45594000000E+02  0.51100000000E-03 0. -1.
    9900012    2    1    2    0    0  0.25190785306E+02  0.97917115273E+01 -0.33958362257E+02  0.47787266756E+02  0.19999980448E+02 0.  0.
        -12    1    1    2    0    0 -0.25190785306E+02 -0.97917115273E+01  0.33958362257E+02  0.43400733244E+02  0.00000000000E+00 0.  1.
         11    1    3    3    0    0  0.20960736067E+02  0.60946941890E+00 -0.18175481861E+02  0.27750172082E+02  0.51100000000E-03 0. -1.
        -11    1    3    3    0    0  0.49182882286E+00  0.47418275925E+01 -0.21690836355E+01  0.52375326812E+01  0.51100000000E-03 0.  1.
         12    1    3    3    0    0  0.37382204157E+01  0.44404145159E+01 -0.13613796760E+02  0.14799561993E+02  0.00000000000E+00 0. -1.
</event>
<event>
 7    1  0.2935819E-010  0.4778727E+02  0.7816164E-02  0.1312668E+00
        -11   -1    0    0    0    0  0.00000000000E+00  0.00000000000E+00  0.45593999997E+02  0.45594000000E+02  0.51100000000E-03 0.  1.
         11   -1    0    0    0    0 -0.00000000000E+00 -0.00000000000E+00 -0.45593999997E+02  0.45594000000E+02  0.51100000000E-03 0. -1.
    9900012    2    1    2    0    0  0.39657837308E+02 -0.14417332617E+02 -0.10149886608E+02  0.47787265699E+02  0.19999975628E+02 0.  0.
        -12    1    1    2    0    0 -0.39657837308E+02  0.14417332617E+02  0.10149886608E+02  0.43400734301E+02  0.00000000000E+00 0.  1.
         11    1    3    3    0    0  0.37253644891E+02 -0.16782758294E+02 -0.88400592052E+01  0.41804804516E+02  0.51100000000E-03 0. -1.
        -11    1    3    3    0    0 -0.87989865947E+00  0.15365671842E+01  0.85127738938E+00  0.19646714273E+01  0.51100000000E-03 0.  1.
         12    1    3    3    0    0  0.32840910762E+01  0.82885849267E+00 -0.21611047926E+01  0.40177897558E+01  0.00000000000E+00 0. -1.
</event>
<event>
 7    1  0.2935819E-010  0.4778727E+02  0.7816164E-02  0.1312668E+00
        -11   -1    0    0    0    0  0.00000000000E+00  0.00000000000E+00  0.45593999997E+02  0.45594000000E+02  0.51100000000E-03 0.  1.
         11   -1    0    0    0    0 -0.00000000000E+00 -0.00000000000E+00 -0.45593999997E+02  0.45594000000E+02  0.51100000000E-03 0. -1.
    9900012    2    1    2    0    0 -0.23233917593E+02 -0.35529551820E+02 -0.90254661038E+01  0.47787273996E+02  0.20000013458E+02 0.  0.
        -12    1    1    2    0    0  0.23233917593E+02  0.35529551820E+02  0.90254661038E+01  0.43400726004E+02  0.00000000000E+00 0.  1.
         11    1    3    3    0    0 -0.15579194110E+02 -0.13224389245E+02  0.79502570672E+00  0.20450619212E+02  0.51100000000E-03 0. -1.
        -11    1    3    3    0    0 -0.30598634575E+01 -0.18266575558E+02 -0.41175720889E+01  0.18973269279E+02  0.51100000000E-03 0.  1.
         12    1    3    3    0    0 -0.45948600253E+01 -0.40385870182E+01 -0.57029197216E+01  0.83633855050E+01  0.00000000000E+00 0. -1.
</event>
<event>
 7    1  0.2935819E-010  0.4778726E+02  0.7816164E-02  0.1312668E+00
        -11   -1    0    0    0    0  0.00000000000E+00  0.00000000000E+00  0.45593999997E+02  0.45594000000E+02  0.51100000000E-03 0. -1.
         11   -1    0    0    0    0 -0.00000000000E+00 -0.00000000000E+00 -0.45593999997E+02  0.45594000000E+02  0.51100000000E-03 0.  1.
    9900012    2    1    2    0    0  0.16020051270E+02 -0.35289379517E+02  0.19535665088E+02  0.47787256230E+02  0.19999932457E+02 0.  0.
        -12    1    1    2    0    0 -0.16020051270E+02  0.35289379517E+02 -0.19535665088E+02  0.43400743770E+02  0.00000000000E+00 0.  1.
         11    1    3    3    0    0  0.24893614850E+01 -0.86970346276E+01  0.80936994109E+01  0.12138504946E+02  0.51100000000E-03 0. -1.
        -11    1    3    3    0    0  0.15972025825E+02 -0.25198728017E+02  0.12874595946E+02  0.32493641280E+02  0.51100000000E-03 0.  1.
        -12    1    3    3    0    0 -0.24413360402E+01 -0.13936168721E+01 -0.14326302695E+01  0.31551100038E+01  0.00000000000E+00 0.  1.
</event>
<event>
 7    1  0.2935819E-010  0.4778727E+02  0.7816164E-02  0.1312668E+00
        -11   -1    0    0    0    0  0.00000000000E+00  0.00000000000E+00  0.45593999997E+02  0.45594000000E+02  0.51100000000E-03 0.  1.
         11   -1    0    0    0    0 -0.00000000000E+00 -0.00000000000E+00 -0.45593999997E+02  0.45594000000E+02  0.51100000000E-03 0. -1.
    9900012    2    1    2    0    0  0.10738062173E+02  0.40214597619E+02 -0.12292418713E+02  0.47787269607E+02  0.19999993445E+02 0.  0.
        -12    1    1    2    0    0 -0.10738062173E+02 -0.40214597619E+02  0.12292418713E+02  0.43400730393E+02  0.00000000000E+00 0.  1.
         11    1    3    3    0    0  0.68394886649E+01  0.34560697789E+01 -0.59211823597E+01  0.96841842358E+01  0.51100000000E-03 0. -1.
        -11    1    3    3    0    0 -0.55106653999E+00  0.31951906410E+01 -0.23578497261E+01  0.40090364373E+01  0.51100000000E-03 0.  1.
         12    1    3    3    0    0  0.44496400483E+01  0.33563337199E+02 -0.40133866269E+01  0.34094048934E+02  0.00000000000E+00 0. -1.
</event>
<event>
 7    1  0.2935819E-010  0.4778727E+02  0.7816164E-02  0.1312668E+00
        -11   -1    0    0    0    0  0.00000000000E+00  0.00000000000E+00  0.45593999997E+02  0.45594000000E+02  0.51100000000E-03 0.  1.
         11   -1    0    0    0    0 -0.00000000000E+00 -0.00000000000E+00 -0.45593999997E+02  0.45594000000E+02  0.51100000000E-03 0. -1.
    9900012    2    1    2    0    0 -0.37833322174E+02  0.29109549993E+01 -0.21066301490E+02  0.47787274382E+02  0.20000015217E+02 0.  0.
        -12    1    1    2    0    0  0.37833322174E+02 -0.29109549993E+01  0.21066301490E+02  0.43400725618E+02  0.00000000000E+00 0.  1.
         11    1    3    3    0    0 -0.12206683337E+02  0.15808086240E+01 -0.10806152440E+02  0.16379102686E+02  0.51100000000E-03 0. -1.
        -11    1    3    3    0    0 -0.54543434255E-01 -0.35455748759E+01 -0.21247238280E+01  0.41338272573E+01  0.51100000000E-03 0.  1.
        -12    1    3    3    0    0 -0.25572095402E+02  0.48757212512E+01 -0.81354252227E+01  0.27274344438E+02  0.00000000000E+00 0.  1.
</event>
<event>
 7    1  0.2935819E-010  0.4778727E+02  0.7816164E-02  0.1312668E+00
        -11   -1    0    0    0    0  0.00000000000E+00  0.00000000000E+00  0.45593999997E+02  0.45594000000E+02  0.51100000000E-03 0.  1.
         11   -1    0    0    0    0 -0.00000000000E+00 -0.00000000000E+00 -0.45593999997E+02  0.45594000000E+02  0.51100000000E-03 0. -1.
    9900012    2    1    2    0    0  0.27470648680E+02 -0.31047745924E+02  0.12846174219E+02  0.47787271229E+02  0.20000000839E+02 0.  0.
        -12    1    1    2    0    0 -0.27470648680E+02  0.31047745924E+02 -0.12846174219E+02  0.43400728771E+02  0.00000000000E+00 0.  1.
         11    1    3    3    0    0  0.13565670741E+02 -0.15003449169E+02  0.84899442692E+01  0.21936500714E+02  0.51100000000E-03 0. -1.
        -11    1    3    3    0    0 -0.10493225560E+01  0.30952890835E+00 -0.24380927315E+01  0.26722990851E+01  0.51100000000E-03 0.  1.
        -12    1    3    3    0    0  0.14954300494E+02 -0.16353825663E+02  0.67943226813E+01  0.23178471429E+02  0.00000000000E+00 0.  1.
</event>
<event>
 7    1  0.2935819E-010  0.4778727E+02  0.7816164E-02  0.1312668E+00
        -11   -1    0    0    0    0  0.00000000000E+00  0.00000000000E+00  0.45593999997E+02  0.45594000000E+02  0.51100000000E-03 0.  1.
         11   -1    0    0    0    0 -0.00000000000E+00 -0.00000000000E+00 -0.45593999997E+02  0.45594000000E+02  0.51100000000E-03 0. -1.
    9900012    2    1    2    0    0  0.37784463372E+02 -0.13557555131E+02  0.16496983150E+02  0.47787269286E+02  0.19999991983E+02 0.  0.
        -12    1    1    2    0    0 -0.37784463372E+02  0.13557555131E+02 -0.16496983150E+02  0.43400730714E+02  0.00000000000E+00 0.  1.
         11    1    3    3    0    0  0.82002128034E+01 -0.16980657766E-01  0.10375520549E+02  0.13224795094E+02  0.51100000000E-03 0. -1.
        -11    1    3    3    0    0  0.14253046640E+02 -0.18792672630E+01  0.51666887089E+01  0.15276637602E+02  0.51100000000E-03 0.  1.
         12    1    3    3    0    0  0.15331203929E+02 -0.11661307210E+02  0.95477389219E+00  0.19285836589E+02  0.00000000000E+00 0. -1.
</event>
<event>
 7    1  0.2935819E-010  0.4778728E+02  0.7816164E-02  0.1312668E+00
        -11   -1    0    0    0    0  0.00000000000E+00  0.00000000000E+00  0.45593999997E+02  0.45594000000E+02  0.51100000000E-03 0.  1.
         11   -1    0    0    0    0 -0.00000000000E+00 -0.00000000000E+00 -0.45593999997E+02  0.45594000000E+02  0.51100000000E-03 0. -1.
    9900012    2    1    2    0    0  0.12368863079E+02 -0.41599581208E+02 -0.32927641805E+00  0.47787281647E+02  0.20000048343E+02 0.  0.
        -12    1    1    2    0    0 -0.12368863079E+02  0.41599581208E+02  0.32927641805E+00  0.43400718353E+02  0.00000000000E+00 0.  1.
         11    1    3    3    0    0  0.47779049481E+01 -0.71259537632E+01 -0.83519446144E+00  0.86200430844E+01  0.51100000000E-03 0. -1.
        -11    1    3    3    0    0  0.10288375434E+02 -0.27321826366E+02  0.59348486473E+01  0.29791866235E+02  0.51100000000E-03 0.  1.
        -12    1    3    3    0    0 -0.26974173034E+01 -0.71518010789E+01 -0.54289306039E+01  0.93753723277E+01  0.00000000000E+00 0.  1.
</event>
<event>
 7    1  0.2935819E-010  0.4778727E+02  0.7816164E-02  0.1312668E+00
        -11   -1    0    0    0    0  0.00000000000E+00  0.00000000000E+00  0.45593999997E+02  0.45594000000E+02  0.51100000000E-03 0.  1.
         11   -1    0    0    0    0 -0.00000000000E+00 -0.00000000000E+00 -0.45593999997E+02  0.45594000000E+02  0.51100000000E-03 0. -1.
    9900012    2    1    2    0    0  0.46425883481E+01  0.39950510248E+02  0.16310305631E+02  0.47787274597E+02  0.20000016199E+02 0.  0.
        -12    1    1    2    0    0 -0.46425883481E+01 -0.39950510248E+02 -0.16310305631E+02  0.43400725403E+02  0.00000000000E+00 0.  1.
         11    1    3    3    0    0 -0.63694598648E+01  0.64741207889E+01  0.15548205023E+01  0.92142132607E+01  0.51100000000E-03 0. -1.
        -11    1    3    3    0    0  0.21208756739E+01  0.37156823137E+01  0.35289681076E+01  0.55459917820E+01  0.51100000000E-03 0.  1.
         12    1    3    3    0    0  0.88911725390E+01  0.29760707146E+02  0.11226517021E+02  0.33027069555E+02  0.00000000000E+00 0. -1.
</event>
<event>
 7    1  0.2935819E-010  0.4778727E+02  0.7816164E-02  0.1312668E+00
        -11   -1    0    0    0    0  0.00000000000E+00  0.00000000000E+00  0.45593999997E+02  0.45594000000E+02  0.51100000000E-03 0. -1.
         11   -1    0    0    0    0 -0.00000000000E+00 -0.00000000000E+00 -0.45593999997E+02  0.45594000000E+02  0.51100000000E-03 0.  1.
    9900012    2    1    2    0    0 -0.16768999643E+02  0.37740996970E+02  0.13343201662E+02  0.47787271528E+02  0.20000002205E+02 0.  0.
        -12    1    1    2    0    0  0.16768999643E+02 -0.37740996970E+02 -0.13343201662E+02  0.43400728472E+02  0.00000000000E+00 0.  1.
         11    1    3    3    0    0 -0.29139523049E+00  0.95454499662E+01 -0.31031525712E+01  0.10041418345E+02  0.51100000000E-03 0. -1.
        -11    1    3    3    0    0 -0.32119347853E+01  0.75276673588E+00  0.47152885395E+00  0.33324949430E+01  0.51100000000E-03 0.  1.
         12    1    3    3    0    0 -0.13265669627E+02  0.27442780268E+02  0.15974825379E+02  0.34413358240E+02  0.00000000000E+00 0. -1.
</event>
<event>
 7    1  0.2935819E-010  0.4778726E+02  0.7816164E-02  0.1312668E+00
        -11   -1    0    0    0    0  0.00000000000E+00  0.00000000000E+00  0.45593999997E+02  0.45594000000E+02  0.51100000000E-03 0. -1.
         11   -1    0    0    0    0 -0.00000000000E+00 -0.00000000000E+00 -0.45593999997E+02  0.45594000000E+02  0.51100000000E-03 0.  1.
    9900012    2    1    2    0    0  0.37546910968E+01  0.82934914286E+01  0.42435179024E+02  0.47787261249E+02  0.19999955339E+02 0.  0.
        -12    1    1    2    0    0 -0.37546910968E+01 -0.82934914286E+01 -0.42435179024E+02  0.43400738751E+02  0.00000000000E+00 0.  1.
         11    1    3    3    0    0  0.14197420329E+01  0.44742751722E+00  0.57661443534E+01  0.59551893159E+01  0.51100000000E-03 0. -1.
        -11    1    3    3    0    0 -0.54632220759E+01  0.10310722875E+02  0.18013612008E+02  0.21462712305E+02  0.51100000000E-03 0.  1.
        -12    1    3    3    0    0  0.77981711399E+01 -0.24646589632E+01  0.18655422663E+02  0.20369359629E+02  0.00000000000E+00 0.  1.
</event>
<event>
 7    1  0.2935819E-010  0.4778727E+02  0.7816164E-02  0.1312668E+00
        -11   -1    0    0    0    0  0.00000000000E+00  0.00000000000E+00  0.45593999997E+02  0.45594000000E+02  0.51100000000E-03 0.  1.
         11   -1    0    0    0    0 -0.00000000000E+00 -0.00000000000E+00 -0.45593999997E+02  0.45594000000E+02  0.51100000000E-03 0. -1.
    9900012    2    1    2    0    0 -0.13667234923E+02  0.99801108646E+00 -0.41180506752E+02  0.47787268751E+02  0.19999989545E+02 0.  0.
        -12    1    1    2    0    0  0.13667234923E+02 -0.99801108646E+00  0.41180506752E+02  0.43400731249E+02  0.00000000000E+00 0.  1.
         11    1    3    3    0    0 -0.63449265433E+01  0.74581299054E+01 -0.22072117735E+02  0.24146639023E+02  0.51100000000E-03 0. -1.
        -11    1    3    3    0    0 -0.90423054751E+01 -0.25470953428E+01 -0.15082302319E+02  0.17768703568E+02  0.51100000000E-03 0.  1.
         12    1    3    3    0    0  0.17199970953E+01 -0.39130234762E+01 -0.40260866982E+01  0.58719261605E+01  0.00000000000E+00 0. -1.
</event>
<event>
 7    1  0.2935819E-010  0.4778728E+02  0.7816164E-02  0.1312668E+00
        -11   -1    0    0    0    0  0.00000000000E+00  0.00000000000E+00  0.45593999997E+02  0.45594000000E+02  0.51100000000E-03 0.  1.
         11   -1    0    0    0    0 -0.00000000000E+00 -0.00000000000E+00 -0.45593999997E+02  0.45594000000E+02  0.51100000000E-03 0. -1.
    9900012    2    1    2    0    0  0.41660367363E+02 -0.73495835311E+01 -0.96963649944E+01  0.47787284787E+02  0.20000062659E+02 0.  0.
        -12    1    1    2    0    0 -0.41660367363E+02  0.73495835311E+01  0.96963649944E+01  0.43400715213E+02  0.00000000000E+00 0.  1.
         11    1    3    3    0    0  0.10828840663E+02 -0.89788705444E+01 -0.79325002601E+01  0.16149565536E+02  0.51100000000E-03 0.  1.
        -11    1    3    3    0    0  0.22289543641E+02  0.18064414845E+01 -0.41994722890E+01  0.22753517405E+02  0.51100000000E-03 0. -1.
         12    1    3    3    0    0  0.85419830586E+01 -0.17715447112E+00  0.24356075547E+01  0.88842018460E+01  0.00000000000E+00 0. -1.
</event>
<event>
 7    1  0.2935819E-010  0.4778727E+02  0.7816164E-02  0.1312668E+00
        -11   -1    0    0    0    0  0.00000000000E+00  0.00000000000E+00  0.45593999997E+02  0.45594000000E+02  0.51100000000E-03 0.  1.
         11   -1    0    0    0    0 -0.00000000000E+00 -0.00000000000E+00 -0.45593999997E+02  0.45594000000E+02  0.51100000000E-03 0. -1.
    9900012    2    1    2    0    0 -0.22541632594E+01 -0.24235674938E+02 -0.35932908392E+02  0.47787273080E+02  0.20000009282E+02 0.  0.
        -12    1    1    2    0    0  0.22541632594E+01  0.24235674938E+02  0.35932908392E+02  0.43400726920E+02  0.00000000000E+00 0.  1.
         11    1    3    3    0    0 -0.24317793084E+01 -0.88307601743E+01 -0.10243740090E+02  0.13741546025E+02  0.51100000000E-03 0. -1.
        -11    1    3    3    0    0 -0.32611510614E+01 -0.13592368138E+02 -0.26603717497E+02  0.30052376990E+02  0.51100000000E-03 0.  1.
        -12    1    3    3    0    0  0.34387671104E+01 -0.18125466259E+01  0.91454919565E+00  0.39933500650E+01  0.00000000000E+00 0.  1.
</event>
<event>
 7    1  0.2935819E-010  0.4778727E+02  0.7816164E-02  0.1312668E+00
        -11   -1    0    0    0    0  0.00000000000E+00  0.00000000000E+00  0.45593999997E+02  0.45594000000E+02  0.51100000000E-03 0. -1.
         11   -1    0    0    0    0 -0.00000000000E+00 -0.00000000000E+00 -0.45593999997E+02  0.45594000000E+02  0.51100000000E-03 0.  1.
    9900012    2    1    2    0    0 -0.13506290557E+02  0.40181480845E+02  0.93087020109E+01  0.47787271658E+02  0.20000002796E+02 0.  0.
        -12    1    1    2    0    0  0.13506290557E+02 -0.40181480845E+02 -0.93087020109E+01  0.43400728342E+02  0.00000000000E+00 0.  1.
         11    1    3    3    0    0 -0.67814567453E+01  0.23197561267E+02  0.90226144001E+01  0.25797724226E+02  0.51100000000E-03 0. -1.
        -11    1    3    3    0    0 -0.20163561924E+01 -0.15833849314E+01  0.11614044492E+01  0.28145444909E+01  0.51100000000E-03 0.  1.
        -12    1    3    3    0    0 -0.47084776190E+01  0.18567304509E+02 -0.87531683837E+00  0.19175002941E+02  0.00000000000E+00 0.  1.
</event>
<event>
 7    1  0.2935819E-010  0.4778727E+02  0.7816164E-02  0.1312668E+00
        -11   -1    0    0    0    0  0.00000000000E+00  0.00000000000E+00  0.45593999997E+02  0.45594000000E+02  0.51100000000E-03 0.  1.
         11   -1    0    0    0    0 -0.00000000000E+00 -0.00000000000E+00 -0.45593999997E+02  0.45594000000E+02  0.51100000000E-03 0. -1.
    9900012    2    1    2    0    0 -0.17151132164E+02  0.14918488492E+02 -0.36971618096E+02  0.47787272149E+02  0.20000005036E+02 0.  0.
        -12    1    1    2    0    0  0.17151132164E+02 -0.14918488492E+02  0.36971618096E+02  0.43400727851E+02  0.00000000000E+00 0.  1.
         11    1    3    3    0    0  0.10275631630E+01 -0.10370195356E+01 -0.12165981996E+02  0.12253261352E+02  0.51100000000E-03 0. -1.
        -11    1    3    3    0    0 -0.10377008574E+02  0.91869010148E+01 -0.85811248254E+01  0.16300833130E+02  0.51100000000E-03 0.  1.
        -12    1    3    3    0    0 -0.78016867532E+01  0.67686070129E+01 -0.16224511274E+02  0.19233177667E+02  0.00000000000E+00 0.  1.
</event>
<event>
 7    1  0.2935819E-010  0.4778727E+02  0.7816164E-02  0.1312668E+00
        -11   -1    0    0    0    0  0.00000000000E+00  0.00000000000E+00  0.45593999997E+02  0.45594000000E+02  0.51100000000E-03 0.  1.
         11   -1    0    0    0    0 -0.00000000000E+00 -0.00000000000E+00 -0.45593999997E+02  0.45594000000E+02  0.51100000000E-03 0. -1.
    9900012    2    1    2    0    0 -0.25650728822E+02  0.12441907249E+02 -0.32724031005E+02  0.47787272468E+02  0.20000006491E+02 0.  0.
        -12    1    1    2    0    0  0.25650728822E+02 -0.12441907249E+02  0.32724031005E+02  0.43400727532E+02  0.00000000000E+00 0.  1.
         11    1    3    3    0    0  0.66025842898E+00  0.15303959175E+01 -0.39455474058E+01  0.42831527465E+01  0.51100000000E-03 0. -1.
        -11    1    3    3    0    0 -0.97916879143E+01  0.10713943038E+02 -0.20243592575E+02  0.24909210510E+02  0.51100000000E-03 0.  1.
        -12    1    3    3    0    0 -0.16519299336E+02  0.19756829356E+00 -0.85348910242E+01  0.18594909212E+02  0.00000000000E+00 0.  1.
</event>
<event>
 7    1  0.2935819E-010  0.4778727E+02  0.7816164E-02  0.1312668E+00
        -11   -1    0    0    0    0  0.00000000000E+00  0.00000000000E+00  0.45593999997E+02  0.45594000000E+02  0.51100000000E-03 0.  1.
         11   -1    0    0    0    0 -0.00000000000E+00 -0.00000000000E+00 -0.45593999997E+02  0.45594000000E+02  0.51100000000E-03 0. -1.
    9900012    2    1    2    0    0  0.19890878721E+02 -0.33128223600E+01 -0.38431779646E+02  0.47787268035E+02  0.19999986281E+02 0.  0.
        -12    1    1    2    0    0 -0.19890878721E+02  0.33128223600E+01  0.38431779646E+02  0.43400731965E+02  0.00000000000E+00 0.  1.
         11    1    3    3    0    0  0.17289649708E+02 -0.91927328185E+01 -0.24859237640E+02  0.31645221124E+02  0.51100000000E-03 0. -1.
        -11    1    3    3    0    0  0.36363218700E+01  0.54892930616E+01 -0.75462514832E+01  0.10015043024E+02  0.51100000000E-03 0.  1.
         12    1    3    3    0    0 -0.10350928564E+01  0.39061739698E+00 -0.60262905233E+01  0.61270038880E+01  0.00000000000E+00 0. -1.
</event>
<event>
 7    1  0.2935819E-010  0.4778727E+02  0.7816164E-02  0.1312668E+00
        -11   -1    0    0    0    0  0.00000000000E+00  0.00000000000E+00  0.45593999997E+02  0.45594000000E+02  0.51100000000E-03 0.  1.
         11   -1    0    0    0    0 -0.00000000000E+00 -0.00000000000E+00 -0.45593999997E+02  0.45594000000E+02  0.51100000000E-03 0. -1.
    9900012    2    1    2    0    0 -0.30702029405E+02 -0.13959316657E+02 -0.27315676107E+02  0.47787270832E+02  0.19999999030E+02 0.  0.
        -12    1    1    2    0    0  0.30702029405E+02  0.13959316657E+02  0.27315676107E+02  0.43400729168E+02  0.00000000000E+00 0.  1.
         11    1    3    3    0    0 -0.10455668790E+02 -0.67100822803E+00 -0.13955545282E+02  0.17450745149E+02  0.51100000000E-03 0. -1.
        -11    1    3    3    0    0 -0.71729994062E+01 -0.25664386342E+01  0.15722883933E+01  0.77788571653E+01  0.51100000000E-03 0.  1.
        -12    1    3    3    0    0 -0.13073361210E+02 -0.10721869795E+02 -0.14932419219E+02  0.22557668517E+02  0.00000000000E+00 0.  1.
</event>
<event>
 7    1  0.2935819E-010  0.4778727E+02  0.7816164E-02  0.1312668E+00
        -11   -1    0    0    0    0  0.00000000000E+00  0.00000000000E+00  0.45593999997E+02  0.45594000000E+02  0.51100000000E-03 0. -1.
         11   -1    0    0    0    0 -0.00000000000E+00 -0.00000000000E+00 -0.45593999997E+02  0.45594000000E+02  0.51100000000E-03 0.  1.
    9900012    2    1    2    0    0 -0.18011231535E+02 -0.33732415684E+02  0.20526635181E+02  0.47787273265E+02  0.20000010124E+02 0.  0.
        -12    1    1    2    0    0  0.18011231535E+02  0.33732415684E+02 -0.20526635181E+02  0.43400726735E+02  0.00000000000E+00 0.  1.
         11    1    3    3    0    0 -0.90378451603E+01 -0.11722731683E+02  0.72808432816E+00  0.14820094140E+02  0.51100000000E-03 0. -1.
        -11    1    3    3    0    0  0.18148030872E+00 -0.13545948943E+02  0.12955493241E+02  0.18744878588E+02  0.51100000000E-03 0.  1.
        -12    1    3    3    0    0 -0.91548666834E+01 -0.84637350575E+01  0.68430576115E+01  0.14222300538E+02  0.00000000000E+00 0.  1.
</event>
<event>
 7    1 -0.3248487E-010  0.4778727E+02  0.7816164E-02  0.1312668E+00
        -11   -1    0    0    0    0  0.00000000000E+00  0.00000000000E+00  0.45593999997E+02  0.45594000000E+02  0.51100000000E-03 0.  1.
         11   -1    0    0    0    0 -0.00000000000E+00 -0.00000000000E+00 -0.45593999997E+02  0.45594000000E+02  0.51100000000E-03 0. -1.
    9900012    2    1    2    0    0  0.57925009124E+01  0.24528440504E+02 -0.35333071715E+02  0.47787269393E+02  0.19999992471E+02 0.  0.
        -12    1    1    2    0    0 -0.57925009124E+01 -0.24528440504E+02  0.35333071715E+02  0.43400730607E+02  0.00000000000E+00 0.  1.
         11    1    3    3    0    0 -0.14121599148E+01 -0.16011264870E+01  0.26249687657E+00  0.21509780388E+01  0.51100000000E-03 0. -1.
        -11    1    3    3    0    0  0.22285374041E+00  0.12650773285E+02 -0.11168325097E+02  0.16876706262E+02  0.51100000000E-03 0.  1.
         12    1    3    3    0    0  0.69818070867E+01  0.13478793706E+02 -0.24427243495E+02  0.28759585093E+02  0.00000000000E+00 0. -1.
</event>
<event>
 7    1  0.2935819E-010  0.4778728E+02  0.7816164E-02  0.1312668E+00
        -11   -1    0    0    0    0  0.00000000000E+00  0.00000000000E+00  0.45593999997E+02  0.45594000000E+02  0.51100000000E-03 0.  1.
         11   -1    0    0    0    0 -0.00000000000E+00 -0.00000000000E+00 -0.45593999997E+02  0.45594000000E+02  0.51100000000E-03 0. -1.
    9900012    2    1    2    0    0 -0.26009697661E+02 -0.78819848424E+01 -0.33837740899E+02  0.47787276888E+02  0.20000026645E+02 0.  0.
        -12    1    1    2    0    0  0.26009697661E+02  0.78819848424E+01  0.33837740899E+02  0.43400723112E+02  0.00000000000E+00 0.  1.
         11    1    3    3    0    0 -0.85015790540E+00 -0.21113620735E+01 -0.21526215303E+01  0.31327939580E+01  0.51100000000E-03 0. -1.
        -11    1    3    3    0    0 -0.17005575023E+01  0.49822157269E+01 -0.29582445957E+01  0.60386737548E+01  0.51100000000E-03 0.  1.
        -12    1    3    3    0    0 -0.23458982253E+02 -0.10752838496E+02 -0.28726874773E+02  0.38615809176E+02  0.00000000000E+00 0.  1.
</event>
<event>
 7    1  0.2935819E-010  0.4778727E+02  0.7816164E-02  0.1312668E+00
        -11   -1    0    0    0    0  0.00000000000E+00  0.00000000000E+00  0.45593999997E+02  0.45594000000E+02  0.51100000000E-03 0. -1.
         11   -1    0    0    0    0 -0.00000000000E+00 -0.00000000000E+00 -0.45593999997E+02  0.45594000000E+02  0.51100000000E-03 0.  1.
    9900012    2    1    2    0    0 -0.40371285676E+02 -0.43864345639E+01  0.15314757614E+02  0.47787270558E+02  0.19999997783E+02 0.  0.
        -12    1    1    2    0    0  0.40371285676E+02  0.43864345639E+01 -0.15314757614E+02  0.43400729442E+02  0.00000000000E+00 0.  1.
         11    1    3    3    0    0 -0.42384422048E+01  0.10003292324E+01  0.29786408103E+01  0.52761114691E+01  0.51100000000E-03 0. -1.
        -11    1    3    3    0    0 -0.13929681135E+02  0.65257550272E+01  0.61465841934E+01  0.16565083540E+02  0.51100000000E-03 0.  1.
        -12    1    3    3    0    0 -0.22203162336E+02 -0.11912518824E+02  0.61895326108E+01  0.25946075549E+02  0.00000000000E+00 0.  1.
</event>
<event>
 7    1  0.2935819E-010  0.4778727E+02  0.7816164E-02  0.1312668E+00
        -11   -1    0    0    0    0  0.00000000000E+00  0.00000000000E+00  0.45593999997E+02  0.45594000000E+02  0.51100000000E-03 0.  1.
         11   -1    0    0    0    0 -0.00000000000E+00 -0.00000000000E+00 -0.45593999997E+02  0.45594000000E+02  0.51100000000E-03 0. -1.
    9900012    2    1    2    0    0  0.17732662562E+02  0.20445127134E+02 -0.33928936199E+02  0.47787271243E+02  0.20000000905E+02 0.  0.
        -12    1    1    2    0    0 -0.17732662562E+02 -0.20445127134E+02  0.33928936199E+02  0.43400728757E+02  0.00000000000E+00 0.  1.
         11    1    3    3    0    0 -0.27268871842E+01 -0.16872576101E+00 -0.54464737294E+01  0.60933126002E+01  0.51100000000E-03 0. -1.
        -11    1    3    3    0    0  0.72074749429E+01  0.32412190402E+01 -0.39272754313E+01  0.88247769657E+01  0.51100000000E-03 0.  1.
         12    1    3    3    0    0  0.13252074803E+02  0.17372633855E+02 -0.24555187038E+02  0.32869181677E+02  0.00000000000E+00 0. -1.
</event>
<event>
 7    1  0.2935819E-010  0.4778727E+02  0.7816164E-02  0.1312668E+00
        -11   -1    0    0    0    0  0.00000000000E+00  0.00000000000E+00  0.45593999997E+02  0.45594000000E+02  0.51100000000E-03 0. -1.
         11   -1    0    0    0    0 -0.00000000000E+00 -0.00000000000E+00 -0.45593999997E+02  0.45594000000E+02  0.51100000000E-03 0.  1.
    9900012    2    1    2    0    0 -0.30360024562E+02  0.25054143987E+02  0.18280645307E+02  0.47787271721E+02  0.20000003083E+02 0.  0.
        -12    1    1    2    0    0  0.30360024562E+02 -0.25054143987E+02 -0.18280645307E+02  0.43400728279E+02  0.00000000000E+00 0.  1.
         11    1    3    3    0    0 -0.64767167589E+01  0.54085241766E+01  0.90303475965E+01  0.12359092674E+02  0.51100000000E-03 0. -1.
        -11    1    3    3    0    0 -0.16783294867E+02  0.11252857821E+02 -0.12245010799E+01  0.20243645890E+02  0.51100000000E-03 0.  1.
        -12    1    3    3    0    0 -0.71000129360E+01  0.83927619892E+01  0.10474798791E+02  0.15184533157E+02  0.00000000000E+00 0.  1.
</event>
<event>
 7    1  0.2935819E-010  0.4778727E+02  0.7816164E-02  0.1312668E+00
        -11   -1    0    0    0    0  0.00000000000E+00  0.00000000000E+00  0.45593999997E+02  0.45594000000E+02  0.51100000000E-03 0.  1.
         11   -1    0    0    0    0 -0.00000000000E+00 -0.00000000000E+00 -0.45593999997E+02  0.45594000000E+02  0.51100000000E-03 0. -1.
    9900012    2    1    2    0    0 -0.25447259344E+02 -0.27850677538E+02  0.21456936976E+02  0.47787269686E+02  0.19999993804E+02 0.  0.
        -12    1    1    2    0    0  0.25447259344E+02  0.27850677538E+02 -0.21456936976E+02  0.43400730314E+02  0.00000000000E+00 0.  1.
         11    1    3    3    0    0 -0.83854422004E+01 -0.22343417337E+02  0.11937756843E+02  0.26684339562E+02  0.51100000000E-03 0. -1.
        -11    1    3    3    0    0 -0.66188549924E+01 -0.50224042849E+01  0.51295160252E+01  0.97645133584E+01  0.51100000000E-03 0.  1.
         12    1    3    3    0    0 -0.10442962151E+02 -0.48485591596E+00  0.43896641081E+01  0.11338416765E+02  0.00000000000E+00 0. -1.
</event>
<event>
 7    1  0.2935819E-010  0.4778727E+02  0.7816164E-02  0.1312668E+00
        -11   -1    0    0    0    0  0.00000000000E+00  0.00000000000E+00  0.45593999997E+02  0.45594000000E+02  0.51100000000E-03 0.  1.
         11   -1    0    0    0    0 -0.00000000000E+00 -0.00000000000E+00 -0.45593999997E+02  0.45594000000E+02  0.51100000000E-03 0. -1.
    9900012    2    1    2    0    0 -0.22232650764E+01 -0.21843124606E+02 -0.37437395129E+02  0.47787267815E+02  0.19999985277E+02 0.  0.
        -12    1    1    2    0    0  0.22232650764E+01  0.21843124606E+02  0.37437395129E+02  0.43400732185E+02  0.00000000000E+00 0.  1.
         11    1    3    3    0    0 -0.73382619394E+01 -0.15334813429E+02 -0.17463488455E+02  0.24371705326E+02  0.51100000000E-03 0. -1.
        -11    1    3    3    0    0  0.84705734848E+00  0.22688445827E+01 -0.47515864392E+01  0.53331731494E+01  0.51100000000E-03 0.  1.
        -12    1    3    3    0    0  0.42679395146E+01 -0.87771557594E+01 -0.15222320235E+02  0.18082389340E+02  0.00000000000E+00 0.  1.
</event>
<event>
 7    1  0.2935819E-010  0.4778726E+02  0.7816164E-02  0.1312668E+00
        -11   -1    0    0    0    0  0.00000000000E+00  0.00000000000E+00  0.45593999997E+02  0.45594000000E+02  0.51100000000E-03 0.  1.
         11   -1    0    0    0    0 -0.00000000000E+00 -0.00000000000E+00 -0.45593999997E+02  0.45594000000E+02  0.51100000000E-03 0. -1.
    9900012    2    1    2    0    0  0.32531378586E+02  0.32950225493E+01 -0.28539029165E+02  0.47787263233E+02  0.19999964384E+02 0.  0.
        -12    1    1    2    0    0 -0.32531378586E+02 -0.32950225493E+01  0.28539029165E+02  0.43400736767E+02  0.00000000000E+00 0.  1.
         11    1    3    3    0    0  0.13701452917E+02  0.89231868636E+01 -0.62593052099E+01  0.17508054655E+02  0.51100000000E-03 0. -1.
        -11    1    3    3    0    0  0.40353587553E+01 -0.38900813103E+01 -0.58488504502E+01  0.81009817143E+01  0.51100000000E-03 0.  1.
         12    1    3    3    0    0  0.14794566913E+02 -0.17380830041E+01 -0.16430873504E+02  0.22178226863E+02  0.00000000000E+00 0. -1.
</event>
<event>
 7    1  0.2935819E-010  0.4778727E+02  0.7816164E-02  0.1312668E+00
        -11   -1    0    0    0    0  0.00000000000E+00  0.00000000000E+00  0.45593999997E+02  0.45594000000E+02  0.51100000000E-03 0. -1.
         11   -1    0    0    0    0 -0.00000000000E+00 -0.00000000000E+00 -0.45593999997E+02  0.45594000000E+02  0.51100000000E-03 0.  1.
    9900012    2    1    2    0    0 -0.27282851663E+02  0.75415826768E+01  0.32899755872E+02  0.47787269585E+02  0.19999993345E+02 0.  0.
        -12    1    1    2    0    0  0.27282851663E+02 -0.75415826768E+01 -0.32899755872E+02  0.43400730415E+02  0.00000000000E+00 0.  1.
         11    1    3    3    0    0 -0.14004351719E+02 -0.85336027355E+00  0.25084775078E+02  0.28741886365E+02  0.51100000000E-03 0. -1.
        -11    1    3    3    0    0 -0.36673109986E-01 -0.10106628705E+01 -0.21321770712E-01  0.10115528824E+01  0.51100000000E-03 0.  1.
         12    1    3    3    0    0 -0.13241826834E+02  0.94056058208E+01  0.78363025646E+01  0.18033830338E+02  0.00000000000E+00 0. -1.
</event>
<event>
 7    1  0.2935819E-010  0.4778727E+02  0.7816164E-02  0.1312668E+00
        -11   -1    0    0    0    0  0.00000000000E+00  0.00000000000E+00  0.45593999997E+02  0.45594000000E+02  0.51100000000E-03 0.  1.
         11   -1    0    0    0    0 -0.00000000000E+00 -0.00000000000E+00 -0.45593999997E+02  0.45594000000E+02  0.51100000000E-03 0. -1.
    9900012    2    1    2    0    0 -0.30948777438E+02 -0.83057855311E+01 -0.29271326212E+02  0.47787269172E+02  0.19999991464E+02 0.  0.
        -12    1    1    2    0    0  0.30948777438E+02  0.83057855311E+01  0.29271326212E+02  0.43400730828E+02  0.00000000000E+00 0.  1.
         11    1    3    3    0    0 -0.77647954987E+00  0.40615751240E+01 -0.34536187021E+01  0.53876521213E+01  0.51100000000E-03 0. -1.
        -11    1    3    3    0    0 -0.10479580620E+02 -0.81780646069E+01 -0.12596604692E+02  0.18313295736E+02  0.51100000000E-03 0.  1.
         12    1    3    3    0    0 -0.19692717268E+02 -0.41892960482E+01 -0.13221102817E+02  0.24086321315E+02  0.00000000000E+00 0. -1.
</event>
<event>
 7    1  0.2935819E-010  0.4778728E+02  0.7816164E-02  0.1312668E+00
        -11   -1    0    0    0    0  0.00000000000E+00  0.00000000000E+00  0.45593999997E+02  0.45594000000E+02  0.51100000000E-03 0. -1.
         11   -1    0    0    0    0 -0.00000000000E+00 -0.00000000000E+00 -0.45593999997E+02  0.45594000000E+02  0.51100000000E-03 0.  1.
    9900012    2    1    2    0    0  0.12681305518E+02  0.18652794029E+02  0.37079382240E+02  0.47787276249E+02  0.20000023732E+02 0.  0.
        -12    1    1    2    0    0 -0.12681305518E+02 -0.18652794029E+02 -0.37079382240E+02  0.43400723751E+02  0.00000000000E+00 0.  1.
         11    1    3    3    0    0  0.29236093840E+01  0.31179167173E+01  0.72811371435E+01  0.84429766581E+01  0.51100000000E-03 0. -1.
        -11    1    3    3    0    0  0.11254778641E+02  0.18883162494E+02  0.26279741172E+02  0.34261766801E+02  0.51100000000E-03 0.  1.
        -12    1    3    3    0    0 -0.14970825074E+01 -0.33482851817E+01  0.35185039254E+01  0.50825327903E+01  0.00000000000E+00 0.  1.
</event>
<event>
 7    1  0.2935819E-010  0.4778727E+02  0.7816164E-02  0.1312668E+00
        -11   -1    0    0    0    0  0.00000000000E+00  0.00000000000E+00  0.45593999997E+02  0.45594000000E+02  0.51100000000E-03 0.  1.
         11   -1    0    0    0    0 -0.00000000000E+00 -0.00000000000E+00 -0.45593999997E+02  0.45594000000E+02  0.51100000000E-03 0. -1.
    9900012    2    1    2    0    0 -0.92442455846E+01 -0.36057726533E+02 -0.22316082904E+02  0.47787271028E+02  0.19999999924E+02 0.  0.
        -12    1    1    2    0    0  0.92442455846E+01  0.36057726533E+02  0.22316082904E+02  0.43400728972E+02  0.00000000000E+00 0.  1.
         11    1    3    3    0    0 -0.39837983718E+00 -0.66304080901E+01 -0.32866553213E+01  0.74110135203E+01  0.51100000000E-03 0. -1.
        -11    1    3    3    0    0 -0.31310474138E+01 -0.14090301419E+01 -0.97125153348E+01  0.10301542517E+02  0.51100000000E-03 0.  1.
        -12    1    3    3    0    0 -0.57148183336E+01 -0.28018288301E+02 -0.93169122480E+01  0.30074714990E+02  0.00000000000E+00 0.  1.
</event>
<event>
 7    1  0.2935819E-010  0.4778725E+02  0.7816164E-02  0.1312668E+00
        -11   -1    0    0    0    0  0.00000000000E+00  0.00000000000E+00  0.45593999997E+02  0.45594000000E+02  0.51100000000E-03 0.  1.
         11   -1    0    0    0    0 -0.00000000000E+00 -0.00000000000E+00 -0.45593999997E+02  0.45594000000E+02  0.51100000000E-03 0. -1.
    9900012    2    1    2    0    0 -0.13387752824E+02 -0.55888209806E+01 -0.40904254657E+02  0.47787252372E+02  0.19999914867E+02 0.  0.
        -12    1    1    2    0    0  0.13387752824E+02  0.55888209806E+01  0.40904254657E+02  0.43400747628E+02  0.00000000000E+00 0.  1.
         11    1    3    3    0    0 -0.51631445200E+00 -0.10461219421E+01 -0.97858773133E+01  0.98551685314E+01  0.51100000000E-03 0. -1.
        -11    1    3    3    0    0 -0.13648999616E+02 -0.80179226498E+01 -0.30435569127E+02  0.34306065681E+02  0.51100000000E-03 0.  1.
        -12    1    3    3    0    0  0.77756124444E+00  0.34752236113E+01 -0.68280821608E+00  0.36260181601E+01  0.00000000000E+00 0.  1.
</event>
<event>
 7    1  0.2935819E-010  0.4778728E+02  0.7816164E-02  0.1312668E+00
        -11   -1    0    0    0    0  0.00000000000E+00  0.00000000000E+00  0.45593999997E+02  0.45594000000E+02  0.51100000000E-03 0.  1.
         11   -1    0    0    0    0 -0.00000000000E+00 -0.00000000000E+00 -0.45593999997E+02  0.45594000000E+02  0.51100000000E-03 0. -1.
    9900012    2    1    2    0    0 -0.28197961794E+02 -0.15967242511E+02 -0.28871179085E+02  0.47787275761E+02  0.20000021506E+02 0.  0.
        -12    1    1    2    0    0  0.28197961794E+02  0.15967242511E+02  0.28871179085E+02  0.43400724239E+02  0.00000000000E+00 0.  1.
         11    1    3    3    0    0 -0.10525784244E+02  0.22789415828E+01 -0.12217611847E+02  0.16286673945E+02  0.51100000000E-03 0. -1.
        -11    1    3    3    0    0 -0.51999821988E+01 -0.10697327921E+02 -0.97018343680E+01  0.15349209422E+02  0.51100000000E-03 0.  1.
         12    1    3    3    0    0 -0.12472195351E+02 -0.75488561728E+01 -0.69517328700E+01  0.16151392394E+02  0.00000000000E+00 0. -1.
</event>
<event>
 7    1  0.2935819E-010  0.4778727E+02  0.7816164E-02  0.1312668E+00
        -11   -1    0    0    0    0  0.00000000000E+00  0.00000000000E+00  0.45593999997E+02  0.45594000000E+02  0.51100000000E-03 0.  1.
         11   -1    0    0    0    0 -0.00000000000E+00 -0.00000000000E+00 -0.45593999997E+02  0.45594000000E+02  0.51100000000E-03 0. -1.
    9900012    2    1    2    0    0 -0.18970395193E+02  0.25894043129E+01 -0.38949229649E+02  0.47787269606E+02  0.19999993443E+02 0.  0.
        -12    1    1    2    0    0  0.18970395193E+02 -0.25894043129E+01  0.38949229649E+02  0.43400730394E+02  0.00000000000E+00 0.  1.
         11    1    3    3    0    0 -0.29802088825E+01 -0.37449244432E+01 -0.40544067758E+01  0.62725049728E+01  0.51100000000E-03 0. -1.
        -11    1    3    3    0    0 -0.16917420126E+02  0.53890910750E+01 -0.35765470729E+02  0.39930067656E+02  0.51100000000E-03 0.  1.
        -12    1    3    3    0    0  0.92723381528E+00  0.94523768112E+00  0.87064785556E+00  0.15846969775E+01  0.00000000000E+00 0.  1.
</event>
<event>
 7    1  0.2935819E-010  0.4778727E+02  0.7816164E-02  0.1312668E+00
        -11   -1    0    0    0    0  0.00000000000E+00  0.00000000000E+00  0.45593999997E+02  0.45594000000E+02  0.51100000000E-03 0.  1.
         11   -1    0    0    0    0 -0.00000000000E+00 -0.00000000000E+00 -0.45593999997E+02  0.45594000000E+02  0.51100000000E-03 0. -1.
    9900012    2    1    2    0    0  0.81853081752E+01  0.18531840954E+02 -0.38382221838E+02  0.47787270140E+02  0.19999995878E+02 0.  0.
        -12    1    1    2    0    0 -0.81853081752E+01 -0.18531840954E+02  0.38382221838E+02  0.43400729860E+02  0.00000000000E+00 0.  1.
         11    1    3    3    0    0  0.97716635559E+01  0.18945100156E+02 -0.25659978564E+02  0.33359207556E+02  0.51100000000E-03 0. -1.
        -11    1    3    3    0    0 -0.15358911462E+01  0.10226929960E+01 -0.12853470171E+02  0.12985243867E+02  0.51100000000E-03 0.  1.
        -12    1    3    3    0    0 -0.50464234529E-01 -0.14359521979E+01  0.13122689693E+00  0.14428187177E+01  0.00000000000E+00 0.  1.
</event>
<event>
 7    1  0.2935819E-010  0.4778730E+02  0.7816164E-02  0.1312668E+00
        -11   -1    0    0    0    0  0.00000000000E+00  0.00000000000E+00  0.45593999997E+02  0.45594000000E+02  0.51100000000E-03 0.  1.
         11   -1    0    0    0    0 -0.00000000000E+00 -0.00000000000E+00 -0.45593999997E+02  0.45594000000E+02  0.51100000000E-03 0. -1.
    9900012    2    1    2    0    0  0.36301883431E+01 -0.82084949273E+01 -0.42462489609E+02  0.47787300925E+02  0.20000136237E+02 0.  0.
        -12    1    1    2    0    0 -0.36301883431E+01  0.82084949273E+01  0.42462489609E+02  0.43400699075E+02  0.00000000000E+00 0.  1.
         11    1    3    3    0    0  0.82359336350E+01 -0.65522520038E+01 -0.31982876317E+02  0.33669971590E+02  0.51100000000E-03 0.  1.
        -11    1    3    3    0    0 -0.40120486843E+01 -0.40299304411E+01 -0.33968896118E+01  0.66238760028E+01  0.51100000000E-03 0. -1.
         12    1    3    3    0    0 -0.59369660762E+00  0.23736875175E+01 -0.70827236811E+01  0.74934533318E+01  0.00000000000E+00 0. -1.
</event>
<event>
 7    1  0.2935819E-010  0.4778727E+02  0.7816164E-02  0.1312668E+00
        -11   -1    0    0    0    0  0.00000000000E+00  0.00000000000E+00  0.45593999997E+02  0.45594000000E+02  0.51100000000E-03 0. -1.
         11   -1    0    0    0    0 -0.00000000000E+00 -0.00000000000E+00 -0.45593999997E+02  0.45594000000E+02  0.51100000000E-03 0.  1.
    9900012    2    1    2    0    0 -0.26873401188E+02 -0.17400367156E+02 -0.29303083528E+02  0.47787272209E+02  0.20000005308E+02 0.  0.
        -12    1    1    2    0    0  0.26873401188E+02  0.17400367156E+02  0.29303083528E+02  0.43400727791E+02  0.00000000000E+00 0.  1.
         11    1    3    3    0    0 -0.11816624322E+02 -0.84115625212E+01 -0.68307555898E+01  0.16032660933E+02  0.51100000000E-03 0. -1.
        -11    1    3    3    0    0 -0.15994644176E+02 -0.39402039544E+01 -0.20391942977E+02  0.26214217291E+02  0.51100000000E-03 0.  1.
        -12    1    3    3    0    0  0.93786730973E+00 -0.50486006806E+01 -0.20803849610E+01  0.55403939849E+01  0.00000000000E+00 0.  1.
</event>
<event>
 7    1  0.2935819E-010  0.4778727E+02  0.7816164E-02  0.1312668E+00
        -11   -1    0    0    0    0  0.00000000000E+00  0.00000000000E+00  0.45593999997E+02  0.45594000000E+02  0.51100000000E-03 0. -1.
         11   -1    0    0    0    0 -0.00000000000E+00 -0.00000000000E+00 -0.45593999997E+02  0.45594000000E+02  0.51100000000E-03 0.  1.
    9900012    2    1    2    0    0 -0.15898507153E+02 -0.39920874589E+02  0.60978915902E+01  0.47787273745E+02  0.20000012312E+02 0.  0.
        -12    1    1    2    0    0  0.15898507153E+02  0.39920874589E+02 -0.60978915902E+01  0.43400726255E+02  0.00000000000E+00 0.  1.
         11    1    3    3    0    0 -0.37098101598E+01 -0.14012970021E+02  0.89038495225E+01  0.17011894568E+02  0.51100000000E-03 0. -1.
        -11    1    3    3    0    0 -0.97157308564E+01 -0.90862457524E+01 -0.35120432285E+01  0.13758260640E+02  0.51100000000E-03 0.  1.
        -12    1    3    3    0    0 -0.24729661364E+01 -0.16821658816E+02  0.70608529620E+00  0.17017118536E+02  0.00000000000E+00 0.  1.
</event>
<event>
 7    1  0.2935819E-010  0.4778724E+02  0.7816164E-02  0.1312668E+00
        -11   -1    0    0    0    0  0.00000000000E+00  0.00000000000E+00  0.45593999997E+02  0.45594000000E+02  0.51100000000E-03 0. -1.
         11   -1    0    0    0    0 -0.00000000000E+00 -0.00000000000E+00 -0.45593999997E+02  0.45594000000E+02  0.51100000000E-03 0.  1.
    9900012    2    1    2    0    0  0.32945887722E+02 -0.28252321831E+02 -0.29741778579E-01  0.47787238587E+02  0.19999852014E+02 0.  0.
        -12    1    1    2    0    0 -0.32945887722E+02  0.28252321831E+02  0.29741778579E-01  0.43400761413E+02  0.00000000000E+00 0.  1.
         11    1    3    3    0    0  0.51835440569E+01 -0.13774211602E+02 -0.82855299507E+00  0.14740574432E+02  0.51100000000E-03 0. -1.
        -11    1    3    3    0    0  0.18989705882E+02 -0.69075932090E+01  0.48329490409E+01  0.20776938421E+02  0.51100000000E-03 0.  1.
        -12    1    3    3    0    0  0.87726377831E+01 -0.75705170192E+01 -0.40341378244E+01  0.12269725734E+02  0.00000000000E+00 0.  1.
</event>
<event>
 7    1  0.2935819E-010  0.4778727E+02  0.7816164E-02  0.1312668E+00
        -11   -1    0    0    0    0  0.00000000000E+00  0.00000000000E+00  0.45593999997E+02  0.45594000000E+02  0.51100000000E-03 0. -1.
         11   -1    0    0    0    0 -0.00000000000E+00 -0.00000000000E+00 -0.45593999997E+02  0.45594000000E+02  0.51100000000E-03 0.  1.
    9900012    2    1    2    0    0 -0.43188280028E+02 -0.24367766450E+01  0.35295670144E+01  0.47787271256E+02  0.20000000965E+02 0.  0.
        -12    1    1    2    0    0  0.43188280028E+02  0.24367766450E+01 -0.35295670144E+01  0.43400728744E+02  0.00000000000E+00 0.  1.
         11    1    3    3    0    0 -0.25759793630E+01  0.28570126685E+01 -0.32356139369E+01  0.50266677706E+01  0.51100000000E-03 0.  1.
        -11    1    3    3    0    0 -0.39168286156E+02 -0.32834672864E+01  0.78097412272E+01  0.40074029696E+02  0.51100000000E-03 0. -1.
         12    1    3    3    0    0 -0.14440145091E+01 -0.20103220271E+01 -0.10445602760E+01  0.26865737892E+01  0.00000000000E+00 0. -1.
</event>
<event>
 7    1  0.2935819E-010  0.4778727E+02  0.7816164E-02  0.1312668E+00
        -11   -1    0    0    0    0  0.00000000000E+00  0.00000000000E+00  0.45593999997E+02  0.45594000000E+02  0.51100000000E-03 0. -1.
         11   -1    0    0    0    0 -0.00000000000E+00 -0.00000000000E+00 -0.45593999997E+02  0.45594000000E+02  0.51100000000E-03 0.  1.
    9900012    2    1    2    0    0  0.40782800400E+02  0.87462596419E+01  0.11995393945E+02  0.47787270258E+02  0.19999996416E+02 0.  0.
        -12    1    1    2    0    0 -0.40782800400E+02 -0.87462596419E+01 -0.11995393945E+02  0.43400729742E+02  0.00000000000E+00 0.  1.
         11    1    3    3    0    0  0.23683978496E+02 -0.31683685949E+01  0.19769687668E+01  0.23976609492E+02  0.51100000000E-03 0. -1.
        -11    1    3    3    0    0  0.10805817063E+02  0.91082710923E+01  0.40673456726E+01  0.14706107091E+02  0.51100000000E-03 0.  1.
        -12    1    3    3    0    0  0.62930048416E+01  0.28063571444E+01  0.59510795053E+01  0.91045536758E+01  0.00000000000E+00 0.  1.
</event>
<event>
 7    1  0.2935819E-010  0.4778727E+02  0.7816164E-02  0.1312668E+00
        -11   -1    0    0    0    0  0.00000000000E+00  0.00000000000E+00  0.45593999997E+02  0.45594000000E+02  0.51100000000E-03 0. -1.
         11   -1    0    0    0    0 -0.00000000000E+00 -0.00000000000E+00 -0.45593999997E+02  0.45594000000E+02  0.51100000000E-03 0.  1.
    9900012    2    1    2    0    0  0.10226432309E+01  0.30139323628E+02  0.31212154065E+02  0.47787272018E+02  0.20000004440E+02 0.  0.
        -12    1    1    2    0    0 -0.10226432309E+01 -0.30139323628E+02 -0.31212154065E+02  0.43400727982E+02  0.00000000000E+00 0.  1.
         11    1    3    3    0    0 -0.84977101140E+01  0.17131357549E+02  0.18738985741E+02  0.26773943966E+02  0.51100000000E-03 0. -1.
        -11    1    3    3    0    0  0.59466635877E+01  0.10625672101E+02  0.11173132217E+02  0.16525937166E+02  0.51100000000E-03 0.  1.
         12    1    3    3    0    0  0.35736897572E+01  0.23822939781E+01  0.13000361078E+01  0.44873908856E+01  0.00000000000E+00 0. -1.
</event>
<event>
 7    1  0.2935819E-010  0.4778727E+02  0.7816164E-02  0.1312668E+00
        -11   -1    0    0    0    0  0.00000000000E+00  0.00000000000E+00  0.45593999997E+02  0.45594000000E+02  0.51100000000E-03 0. -1.
         11   -1    0    0    0    0 -0.00000000000E+00 -0.00000000000E+00 -0.45593999997E+02  0.45594000000E+02  0.51100000000E-03 0.  1.
    9900012    2    1    2    0    0 -0.35952492112E+01  0.38786562098E+02  0.19138961763E+02  0.47787273351E+02  0.20000010518E+02 0.  0.
        -12    1    1    2    0    0  0.35952492112E+01 -0.38786562098E+02 -0.19138961763E+02  0.43400726649E+02  0.00000000000E+00 0.  1.
         11    1    3    3    0    0  0.17631511380E+01  0.11562942101E+01 -0.12337066377E+01  0.24428979849E+01  0.51100000000E-03 0.  1.
        -11    1    3    3    0    0 -0.91716442406E+01  0.21067300838E+02  0.80324507018E+01  0.24340716653E+02  0.51100000000E-03 0. -1.
        -12    1    3    3    0    0  0.38132438914E+01  0.16562967050E+02  0.12340217699E+02  0.21003658713E+02  0.00000000000E+00 0.  1.
</event>
<event>
 7    1  0.2935819E-010  0.4778727E+02  0.7816164E-02  0.1312668E+00
        -11   -1    0    0    0    0  0.00000000000E+00  0.00000000000E+00  0.45593999997E+02  0.45594000000E+02  0.51100000000E-03 0.  1.
         11   -1    0    0    0    0 -0.00000000000E+00 -0.00000000000E+00 -0.45593999997E+02  0.45594000000E+02  0.51100000000E-03 0. -1.
    9900012    2    1    2    0    0  0.35047838582E+01 -0.27476679486E+02 -0.33412148227E+02  0.47787273340E+02  0.20000010467E+02 0.  0.
        -12    1    1    2    0    0 -0.35047838582E+01  0.27476679486E+02  0.33412148227E+02  0.43400726660E+02  0.00000000000E+00 0.  1.
         11    1    3    3    0    0  0.11301724032E+02 -0.13946251797E+02 -0.17145693785E+02  0.24823410743E+02  0.51100000000E-03 0. -1.
        -11    1    3    3    0    0 -0.70809081620E+01 -0.96129639508E+01 -0.10178985096E+02  0.15689489290E+02  0.51100000000E-03 0.  1.
         12    1    3    3    0    0 -0.71603201207E+00 -0.39174637385E+01 -0.60874693448E+01  0.72743733069E+01  0.00000000000E+00 0. -1.
</event>
<event>
 7    1  0.3543654E-010  0.4778729E+02  0.7816164E-02  0.1312668E+00
        -11   -1    0    0    0    0  0.00000000000E+00  0.00000000000E+00  0.45593999997E+02  0.45594000000E+02  0.51100000000E-03 0.  1.
         11   -1    0    0    0    0 -0.00000000000E+00 -0.00000000000E+00 -0.45593999997E+02  0.45594000000E+02  0.51100000000E-03 0. -1.
    9900012    2    1    2    0    0 -0.41757441636E+02 -0.81244716205E+01 -0.85982843507E+01  0.47787291886E+02  0.20000095023E+02 0.  0.
        -12    1    1    2    0    0  0.41757441636E+02  0.81244716205E+01  0.85982843507E+01  0.43400708114E+02  0.00000000000E+00 0.  1.
         11    1    3    3    0    0 -0.12609255006E+02 -0.26475010903E+01 -0.16056806053E+01  0.12983866308E+02  0.51100000000E-03 0. -1.
        -11    1    3    3    0    0 -0.25317211368E+02 -0.10754048339E+02 -0.64979582219E+01  0.28263655257E+02  0.51100000000E-03 0.  1.
        -12    1    3    3    0    0 -0.38309752607E+01  0.52770778093E+01 -0.49464552344E+00  0.65397703207E+01  0.00000000000E+00 0.  1.
</event>
<event>
 7    1  0.2935819E-010  0.4778727E+02  0.7816164E-02  0.1312668E+00
        -11   -1    0    0    0    0  0.00000000000E+00  0.00000000000E+00  0.45593999997E+02  0.45594000000E+02  0.51100000000E-03 0.  1.
         11   -1    0    0    0    0 -0.00000000000E+00 -0.00000000000E+00 -0.45593999997E+02  0.45594000000E+02  0.51100000000E-03 0. -1.
    9900012    2    1    2    0    0  0.21736416780E+02 -0.27404048821E+02 -0.25693772579E+02  0.47787266648E+02  0.19999979953E+02 0.  0.
        -12    1    1    2    0    0 -0.21736416780E+02  0.27404048821E+02  0.25693772579E+02  0.43400733352E+02  0.00000000000E+00 0.  1.
         11    1    3    3    0    0  0.80757178683E+01 -0.68408786523E+01 -0.58501982078E+01  0.12092959074E+02  0.51100000000E-03 0. -1.
        -11    1    3    3    0    0  0.39762595033E+01 -0.16633474900E+02 -0.18438731669E+02  0.25148955300E+02  0.51100000000E-03 0.  1.
        -12    1    3    3    0    0  0.96844394083E+01 -0.39296952689E+01 -0.14048427016E+01  0.10545352274E+02  0.00000000000E+00 0.  1.
</event>
<event>
 7    1  0.2935819E-010  0.4778727E+02  0.7816164E-02  0.1312668E+00
        -11   -1    0    0    0    0  0.00000000000E+00  0.00000000000E+00  0.45593999997E+02  0.45594000000E+02  0.51100000000E-03 0.  1.
         11   -1    0    0    0    0 -0.00000000000E+00 -0.00000000000E+00 -0.45593999997E+02  0.45594000000E+02  0.51100000000E-03 0. -1.
    9900012    2    1    2    0    0 -0.80372955604E+01 -0.25101614893E+02 -0.34480926693E+02  0.47787268489E+02  0.19999988347E+02 0.  0.
        -12    1    1    2    0    0  0.80372955604E+01  0.25101614893E+02  0.34480926693E+02  0.43400731511E+02  0.00000000000E+00 0.  1.
         11    1    3    3    0    0 -0.49850573323E+01 -0.77765865057E+01 -0.13975351700E+02  0.16752210292E+02  0.51100000000E-03 0. -1.
        -11    1    3    3    0    0 -0.15381563408E+00  0.16760837180E+01 -0.78347043536E+01  0.80134579582E+01  0.51100000000E-03 0.  1.
        -12    1    3    3    0    0 -0.28984225940E+01 -0.19001112105E+02 -0.12670870640E+02  0.23021600238E+02  0.00000000000E+00 0.  1.
</event>
<event>
 7    1  0.2935819E-010  0.4778729E+02  0.7816164E-02  0.1312668E+00
        -11   -1    0    0    0    0  0.00000000000E+00  0.00000000000E+00  0.45593999997E+02  0.45594000000E+02  0.51100000000E-03 0.  1.
         11   -1    0    0    0    0 -0.00000000000E+00 -0.00000000000E+00 -0.45593999997E+02  0.45594000000E+02  0.51100000000E-03 0. -1.
    9900012    2    1    2    0    0 -0.32863095276E+02 -0.15600144835E+02 -0.23670117625E+02  0.47787285508E+02  0.20000065947E+02 0.  0.
        -12    1    1    2    0    0  0.32863095276E+02  0.15600144835E+02  0.23670117625E+02  0.43400714492E+02  0.00000000000E+00 0.  1.
         11    1    3    3    0    0 -0.20323724058E+02 -0.78059667812E+01 -0.12921072273E+02  0.25316812318E+02  0.51100000000E-03 0. -1.
        -11    1    3    3    0    0  0.14170015626E+01 -0.15654872045E+01 -0.61619630961E+01  0.65137111599E+01  0.51100000000E-03 0.  1.
        -12    1    3    3    0    0 -0.13956372780E+02 -0.62286908497E+01 -0.45870822558E+01  0.15956762030E+02  0.00000000000E+00 0.  1.
</event>
<event>
 7    1  0.2935819E-010  0.4778727E+02  0.7816164E-02  0.1312668E+00
        -11   -1    0    0    0    0  0.00000000000E+00  0.00000000000E+00  0.45593999997E+02  0.45594000000E+02  0.51100000000E-03 0.  1.
         11   -1    0    0    0    0 -0.00000000000E+00 -0.00000000000E+00 -0.45593999997E+02  0.45594000000E+02  0.51100000000E-03 0. -1.
    9900012    2    1    2    0    0 -0.16638500236E+02 -0.36366630010E+02  0.16859764094E+02  0.47787272890E+02  0.20000008413E+02 0.  0.
        -12    1    1    2    0    0  0.16638500236E+02  0.36366630010E+02 -0.16859764094E+02  0.43400727110E+02  0.00000000000E+00 0.  1.
         11    1    3    3    0    0 -0.36503835325E+01 -0.14297664529E+02  0.11993835158E+02  0.19015798510E+02  0.51100000000E-03 0. -1.
        -11    1    3    3    0    0 -0.93861960898E+01 -0.20783869408E+02  0.28867844397E+00  0.22806868266E+02  0.51100000000E-03 0.  1.
        -12    1    3    3    0    0 -0.36019206137E+01 -0.12850960735E+01  0.45772504921E+01  0.59646061138E+01  0.00000000000E+00 0.  1.
</event>
<event>
 7    1  0.2935819E-010  0.4778727E+02  0.7816164E-02  0.1312668E+00
        -11   -1    0    0    0    0  0.00000000000E+00  0.00000000000E+00  0.45593999997E+02  0.45594000000E+02  0.51100000000E-03 0.  1.
         11   -1    0    0    0    0 -0.00000000000E+00 -0.00000000000E+00 -0.45593999997E+02  0.45594000000E+02  0.51100000000E-03 0. -1.
    9900012    2    1    2    0    0 -0.40255371314E+02  0.77414565613E+01 -0.14254759216E+02  0.47787271554E+02  0.20000002325E+02 0.  0.
        -12    1    1    2    0    0  0.40255371314E+02 -0.77414565613E+01  0.14254759216E+02  0.43400728446E+02  0.00000000000E+00 0.  1.
         11    1    3    3    0    0 -0.29698259392E+02  0.10502233258E+02 -0.12671156227E+02  0.33953522862E+02  0.51100000000E-03 0. -1.
        -11    1    3    3    0    0 -0.91787258380E+01 -0.53914972424E+01 -0.44924196895E+00  0.10654532797E+02  0.51100000000E-03 0.  1.
        -12    1    3    3    0    0 -0.13783860838E+01  0.26307205454E+01 -0.11343610198E+01  0.31792158950E+01  0.00000000000E+00 0.  1.
</event>
<event>
 7    1  0.2935819E-010  0.4778727E+02  0.7816164E-02  0.1312668E+00
        -11   -1    0    0    0    0  0.00000000000E+00  0.00000000000E+00  0.45593999997E+02  0.45594000000E+02  0.51100000000E-03 0.  1.
         11   -1    0    0    0    0 -0.00000000000E+00 -0.00000000000E+00 -0.45593999997E+02  0.45594000000E+02  0.51100000000E-03 0. -1.
    9900012    2    1    2    0    0  0.16223930847E+02  0.11227789336E+02 -0.38656747549E+02  0.47787270552E+02  0.19999997756E+02 0.  0.
        -12    1    1    2    0    0 -0.16223930847E+02 -0.11227789336E+02  0.38656747549E+02  0.43400729448E+02  0.00000000000E+00 0.  1.
         11    1    3    3    0    0  0.13751057816E+02  0.19240848927E+01 -0.19594740272E+02  0.24015568707E+02  0.51100000000E-03 0. -1.
        -11    1    3    3    0    0  0.31005706464E+00  0.33173935063E+01  0.34299885190E+00  0.33494601852E+01  0.51100000000E-03 0.  1.
         12    1    3    3    0    0  0.21628159664E+01  0.59863109373E+01 -0.19405006129E+02  0.20422241660E+02  0.00000000000E+00 0. -1.
</event>
<event>
 7    1  0.2935819E-010  0.4778726E+02  0.7816164E-02  0.1312668E+00
        -11   -1    0    0    0    0  0.00000000000E+00  0.00000000000E+00  0.45593999997E+02  0.45594000000E+02  0.51100000000E-03 0. -1.
         11   -1    0    0    0    0 -0.00000000000E+00 -0.00000000000E+00 -0.45593999997E+02  0.45594000000E+02  0.51100000000E-03 0.  1.
    9900012    2    1    2    0    0 -0.43261577648E+02 -0.24720949402E+01  0.24390240904E+01  0.47787260462E+02  0.19999951748E+02 0.  0.
        -12    1    1    2    0    0  0.43261577648E+02  0.24720949402E+01 -0.24390240904E+01  0.43400739538E+02  0.00000000000E+00 0.  1.
         11    1    3    3    0    0 -0.10687882891E+02 -0.79051252808E+01 -0.31148102539E+01  0.13653713399E+02  0.51100000000E-03 0. -1.
        -11    1    3    3    0    0 -0.16645900822E+02  0.15066624491E+01  0.59015895633E+01  0.17725258970E+02  0.51100000000E-03 0.  1.
         12    1    3    3    0    0 -0.15927793935E+02  0.39263678915E+01 -0.34775521902E+00  0.16408288093E+02  0.00000000000E+00 0. -1.
</event>
<event>
 7    1  0.2935819E-010  0.4778727E+02  0.7816164E-02  0.1312668E+00
        -11   -1    0    0    0    0  0.00000000000E+00  0.00000000000E+00  0.45593999997E+02  0.45594000000E+02  0.51100000000E-03 0. -1.
         11   -1    0    0    0    0 -0.00000000000E+00 -0.00000000000E+00 -0.45593999997E+02  0.45594000000E+02  0.51100000000E-03 0.  1.
    9900012    2    1    2    0    0 -0.23133392375E+02 -0.36214440160E+00  0.36719727316E+02  0.47787269989E+02  0.19999995187E+02 0.  0.
        -12    1    1    2    0    0  0.23133392375E+02  0.36214440160E+00 -0.36719727316E+02  0.43400730011E+02  0.00000000000E+00 0.  1.
         11    1    3    3    0    0 -0.83351782234E+01 -0.50688687681E+00  0.19293274600E+02  0.21022905969E+02  0.51100000000E-03 0. -1.
        -11    1    3    3    0    0 -0.58003495647E+01  0.67068699202E+01  0.54399610453E+01  0.10402852284E+02  0.51100000000E-03 0.  1.
        -12    1    3    3    0    0 -0.89978645866E+01 -0.65621274450E+01  0.11986491671E+02  0.16361511736E+02  0.00000000000E+00 0.  1.
</event>
<event>
 7    1  0.2935819E-010  0.4778727E+02  0.7816164E-02  0.1312668E+00
        -11   -1    0    0    0    0  0.00000000000E+00  0.00000000000E+00  0.45593999997E+02  0.45594000000E+02  0.51100000000E-03 0.  1.
         11   -1    0    0    0    0 -0.00000000000E+00 -0.00000000000E+00 -0.45593999997E+02  0.45594000000E+02  0.51100000000E-03 0. -1.
    9900012    2    1    2    0    0 -0.19396701115E+02  0.34191104411E+02 -0.18394550610E+02  0.47787272735E+02  0.20000007708E+02 0.  0.
        -12    1    1    2    0    0  0.19396701115E+02 -0.34191104411E+02  0.18394550610E+02  0.43400727265E+02  0.00000000000E+00 0.  1.
         11    1    3    3    0    0 -0.59579919042E+01  0.14521054836E+02  0.22937341563E+01  0.15862531883E+02  0.51100000000E-03 0.  1.
        -11    1    3    3    0    0 -0.23714878572E+01  0.40285855852E+01 -0.68338004819E+01  0.82797515519E+01  0.51100000000E-03 0. -1.
         12    1    3    3    0    0 -0.11067221354E+02  0.15641463989E+02 -0.13854484285E+02  0.23644989301E+02  0.00000000000E+00 0. -1.
</event>
<event>
 7    1  0.2935819E-010  0.4778727E+02  0.7816164E-02  0.1312668E+00
        -11   -1    0    0    0    0  0.00000000000E+00  0.00000000000E+00  0.45593999997E+02  0.45594000000E+02  0.51100000000E-03 0. -1.
         11   -1    0    0    0    0 -0.00000000000E+00 -0.00000000000E+00 -0.45593999997E+02  0.45594000000E+02  0.51100000000E-03 0.  1.
    9900012    2    1    2    0    0 -0.26175539195E+02  0.22509549148E+02  0.26301801609E+02  0.47787269328E+02  0.19999992174E+02 0.  0.
        -12    1    1    2    0    0  0.26175539195E+02 -0.22509549148E+02 -0.26301801609E+02  0.43400730672E+02  0.00000000000E+00 0.  1.
         11    1    3    3    0    0  0.25057616237E+00  0.72468608222E+01  0.23106411974E+01  0.76104430353E+01  0.51100000000E-03 0.  1.
        -11    1    3    3    0    0 -0.37637789181E+01  0.48973726772E+01  0.97341617849E+00  0.62528257773E+01  0.51100000000E-03 0. -1.
         12    1    3    3    0    0 -0.22662336439E+02  0.10365315648E+02  0.23017744233E+02  0.33924000515E+02  0.00000000000E+00 0. -1.
</event>
<event>
 7    1  0.2935819E-010  0.4778727E+02  0.7816164E-02  0.1312668E+00
        -11   -1    0    0    0    0  0.00000000000E+00  0.00000000000E+00  0.45593999997E+02  0.45594000000E+02  0.51100000000E-03 0.  1.
         11   -1    0    0    0    0 -0.00000000000E+00 -0.00000000000E+00 -0.45593999997E+02  0.45594000000E+02  0.51100000000E-03 0. -1.
    9900012    2    1    2    0    0  0.25098364841E+02  0.11355940413E+02 -0.33537112673E+02  0.47787271587E+02  0.20000002473E+02 0.  0.
        -12    1    1    2    0    0 -0.25098364841E+02 -0.11355940413E+02  0.33537112673E+02  0.43400728413E+02  0.00000000000E+00 0.  1.
         11    1    3    3    0    0  0.18484066393E+02  0.48854624074E+01 -0.29908240567E+02  0.35496919689E+02  0.51100000000E-03 0. -1.
        -11    1    3    3    0    0  0.66344216385E+01  0.76063038813E+01 -0.42999762570E+01  0.10970925452E+02  0.51100000000E-03 0.  1.
         12    1    3    3    0    0 -0.20123191305E-01 -0.11358258759E+01  0.67110415043E+00  0.13194264450E+01  0.00000000000E+00 0. -1.
</event>
<event>
 7    1  0.2935819E-010  0.4778727E+02  0.7816164E-02  0.1312668E+00
        -11   -1    0    0    0    0  0.00000000000E+00  0.00000000000E+00  0.45593999997E+02  0.45594000000E+02  0.51100000000E-03 0. -1.
         11   -1    0    0    0    0 -0.00000000000E+00 -0.00000000000E+00 -0.45593999997E+02  0.45594000000E+02  0.51100000000E-03 0.  1.
    9900012    2    1    2    0    0 -0.12252243560E+02 -0.40777250722E+02  0.84096106117E+01  0.47787271903E+02  0.20000003916E+02 0.  0.
        -12    1    1    2    0    0  0.12252243560E+02  0.40777250722E+02 -0.84096106117E+01  0.43400728097E+02  0.00000000000E+00 0.  1.
         11    1    3    3    0    0  0.24126994674E+00 -0.39080660966E+01 -0.90221843180E+00  0.40181077838E+01  0.51100000000E-03 0. -1.
        -11    1    3    3    0    0  0.68142533506E+00  0.17917125436E+01  0.57164889865E+00  0.20003392338E+01  0.51100000000E-03 0.  1.
        -12    1    3    3    0    0 -0.13174938842E+02 -0.38660897169E+02  0.87401801449E+01  0.41768824886E+02  0.00000000000E+00 0.  1.
</event>
<event>
 7    1  0.2935819E-010  0.4778728E+02  0.7816164E-02  0.1312668E+00
        -11   -1    0    0    0    0  0.00000000000E+00  0.00000000000E+00  0.45593999997E+02  0.45594000000E+02  0.51100000000E-03 0. -1.
         11   -1    0    0    0    0 -0.00000000000E+00 -0.00000000000E+00 -0.45593999997E+02  0.45594000000E+02  0.51100000000E-03 0.  1.
    9900012    2    1    2    0    0 -0.70879669077E+01 -0.41396254229E+02  0.10942292368E+02  0.47787275337E+02  0.20000019570E+02 0.  0.
        -12    1    1    2    0    0  0.70879669077E+01  0.41396254229E+02 -0.10942292368E+02  0.43400724663E+02  0.00000000000E+00 0.  1.
         11    1    3    3    0    0 -0.10618815914E+02 -0.13188381336E+02  0.50620946920E+01  0.17672505668E+02  0.51100000000E-03 0. -1.
        -11    1    3    3    0    0  0.43156208134E+01 -0.76873773529E+01  0.24161507820E+00  0.88192251178E+01  0.51100000000E-03 0.  1.
         12    1    3    3    0    0 -0.78477180755E+00 -0.20520495540E+02  0.56385825976E+01  0.21295544550E+02  0.00000000000E+00 0. -1.
</event>
<event>
 7    1  0.2935819E-010  0.4778728E+02  0.7816164E-02  0.1312668E+00
        -11   -1    0    0    0    0  0.00000000000E+00  0.00000000000E+00  0.45593999997E+02  0.45594000000E+02  0.51100000000E-03 0.  1.
         11   -1    0    0    0    0 -0.00000000000E+00 -0.00000000000E+00 -0.45593999997E+02  0.45594000000E+02  0.51100000000E-03 0. -1.
    9900012    2    1    2    0    0  0.37596241317E+02 -0.87886966979E+01 -0.19821815278E+02  0.47787275216E+02  0.20000019020E+02 0.  0.
        -12    1    1    2    0    0 -0.37596241317E+02  0.87886966979E+01  0.19821815278E+02  0.43400724784E+02  0.00000000000E+00 0.  1.
         11    1    3    3    0    0  0.19243813202E+02 -0.63766058370E+01 -0.21047817708E+02  0.29223211307E+02  0.51100000000E-03 0. -1.
        -11    1    3    3    0    0  0.13011565125E+02 -0.20186750198E+01  0.78513468623E+00  0.13190614564E+02  0.51100000000E-03 0.  1.
         12    1    3    3    0    0  0.53408629901E+01 -0.39341584113E+00  0.44086774288E+00  0.53734493456E+01  0.00000000000E+00 0. -1.
</event>
<event>
 7    1  0.2935819E-010  0.4778727E+02  0.7816164E-02  0.1312668E+00
        -11   -1    0    0    0    0  0.00000000000E+00  0.00000000000E+00  0.45593999997E+02  0.45594000000E+02  0.51100000000E-03 0.  1.
         11   -1    0    0    0    0 -0.00000000000E+00 -0.00000000000E+00 -0.45593999997E+02  0.45594000000E+02  0.51100000000E-03 0. -1.
    9900012    2    1    2    0    0  0.23566106028E+02 -0.32980400168E+02 -0.15509843877E+02  0.47787269526E+02  0.19999993078E+02 0.  0.
        -12    1    1    2    0    0 -0.23566106028E+02  0.32980400168E+02  0.15509843877E+02  0.43400730474E+02  0.00000000000E+00 0.  1.
         11    1    3    3    0    0  0.13763963256E+01 -0.78724304660E+01  0.22494448790E+01  0.83023870550E+01  0.51100000000E-03 0. -1.
        -11    1    3    3    0    0  0.21444104809E+02 -0.18927539539E+02 -0.12046960531E+02  0.31035957248E+02  0.51100000000E-03 0.  1.
        -12    1    3    3    0    0  0.74560489357E+00 -0.61804301632E+01 -0.57123282258E+01  0.84489252227E+01  0.00000000000E+00 0.  1.
</event>
<event>
 7    1  0.2935819E-010  0.4778728E+02  0.7816164E-02  0.1312668E+00
        -11   -1    0    0    0    0  0.00000000000E+00  0.00000000000E+00  0.45593999997E+02  0.45594000000E+02  0.51100000000E-03 0. -1.
         11   -1    0    0    0    0 -0.00000000000E+00 -0.00000000000E+00 -0.45593999997E+02  0.45594000000E+02  0.51100000000E-03 0.  1.
    9900012    2    1    2    0    0  0.35313426202E+02  0.44156116161E+01  0.24841238420E+02  0.47787276247E+02  0.20000023721E+02 0.  0.
        -12    1    1    2    0    0 -0.35313426202E+02 -0.44156116161E+01 -0.24841238420E+02  0.43400723753E+02  0.00000000000E+00 0.  1.
         11    1    3    3    0    0  0.31828286352E+02  0.67547545045E+01  0.14969714707E+02  0.35815623395E+02  0.51100000000E-03 0. -1.
        -11    1    3    3    0    0  0.40179184425E+01 -0.15858453223E+01  0.10130800414E+02  0.11013250714E+02  0.51100000000E-03 0.  1.
         12    1    3    3    0    0 -0.53277859274E+00 -0.75329756608E+00 -0.25927670029E+00  0.95840213859E+00  0.00000000000E+00 0. -1.
</event>
<event>
 7    1  0.2935819E-010  0.4778728E+02  0.7816164E-02  0.1312668E+00
        -11   -1    0    0    0    0  0.00000000000E+00  0.00000000000E+00  0.45593999997E+02  0.45594000000E+02  0.51100000000E-03 0.  1.
         11   -1    0    0    0    0 -0.00000000000E+00 -0.00000000000E+00 -0.45593999997E+02  0.45594000000E+02  0.51100000000E-03 0. -1.
    9900012    2    1    2    0    0  0.56835603037E+01  0.35670119504E+02 -0.24061641292E+02  0.47787275757E+02  0.20000021485E+02 0.  0.
        -12    1    1    2    0    0 -0.56835603037E+01 -0.35670119504E+02  0.24061641292E+02  0.43400724243E+02  0.00000000000E+00 0.  1.
         11    1    3    3    0    0 -0.56085430124E+01  0.89357304400E+01 -0.99577916633E+01  0.14507261916E+02  0.51100000000E-03 0. -1.
        -11    1    3    3    0    0  0.34435370287E+01  0.12438055966E+02 -0.22079431447E+01  0.13093440979E+02  0.51100000000E-03 0.  1.
         12    1    3    3    0    0  0.78485662874E+01  0.14296333098E+02 -0.11895906484E+02  0.20186572862E+02  0.00000000000E+00 0. -1.
</event>
<event>
 7    1  0.2935819E-010  0.4778727E+02  0.7816164E-02  0.1312668E+00
        -11   -1    0    0    0    0  0.00000000000E+00  0.00000000000E+00  0.45593999997E+02  0.45594000000E+02  0.51100000000E-03 0.  1.
         11   -1    0    0    0    0 -0.00000000000E+00 -0.00000000000E+00 -0.45593999997E+02  0.45594000000E+02  0.51100000000E-03 0. -1.
    9900012    2    1    2    0    0  0.10624079911E+02  0.33212556834E+02 -0.25839469024E+02  0.47787272300E+02  0.20000005724E+02 0.  0.
        -12    1    1    2    0    0 -0.10624079911E+02 -0.33212556834E+02  0.25839469024E+02  0.43400727700E+02  0.00000000000E+00 0.  1.
         11    1    3    3    0    0  0.37824579129E+00  0.21514817557E+02 -0.19594919012E+02  0.29103114880E+02  0.51100000000E-03 0. -1.
        -11    1    3    3    0    0  0.90121058191E+01  0.62942785193E+01 -0.97376942599E+00  0.11035588817E+02  0.51100000000E-03 0.  1.
        -12    1    3    3    0    0  0.12337283011E+01  0.54034607579E+01 -0.52707805864E+01  0.76485686029E+01  0.00000000000E+00 0.  1.
</event>
<event>
 7    1  0.2935819E-010  0.4778727E+02  0.7816164E-02  0.1312668E+00
        -11   -1    0    0    0    0  0.00000000000E+00  0.00000000000E+00  0.45593999997E+02  0.45594000000E+02  0.51100000000E-03 0. -1.
         11   -1    0    0    0    0 -0.00000000000E+00 -0.00000000000E+00 -0.45593999997E+02  0.45594000000E+02  0.51100000000E-03 0.  1.
    9900012    2    1    2    0    0 -0.70705517313E+00  0.31690119670E+02  0.29645564788E+02  0.47787272778E+02  0.20000007906E+02 0.  0.
        -12    1    1    2    0    0  0.70705517313E+00 -0.31690119670E+02 -0.29645564788E+02  0.43400727222E+02  0.00000000000E+00 0.  1.
         11    1    3    3    0    0  0.13032992562E+01  0.29492397800E+02  0.16933529642E+02  0.34032991984E+02  0.51100000000E-03 0. -1.
        -11    1    3    3    0    0 -0.30756681623E+01  0.24256303245E+01  0.11369464260E+02  0.12025312259E+02  0.51100000000E-03 0.  1.
        -12    1    3    3    0    0  0.10653137330E+01 -0.22790845403E+00  0.13425708858E+01  0.17289685354E+01  0.00000000000E+00 0.  1.
</event>
<event>
 7    1  0.2935819E-010  0.4778727E+02  0.7816164E-02  0.1312668E+00
        -11   -1    0    0    0    0  0.00000000000E+00  0.00000000000E+00  0.45593999997E+02  0.45594000000E+02  0.51100000000E-03 0. -1.
         11   -1    0    0    0    0 -0.00000000000E+00 -0.00000000000E+00 -0.45593999997E+02  0.45594000000E+02  0.51100000000E-03 0.  1.
    9900012    2    1    2    0    0 -0.23472922294E+02  0.36387561709E+02  0.29310288092E+01  0.47787266619E+02  0.19999979822E+02 0.  0.
        -12    1    1    2    0    0  0.23472922294E+02 -0.36387561709E+02 -0.29310288092E+01  0.43400733381E+02  0.00000000000E+00 0.  1.
         11    1    3    3    0    0 -0.73433356424E+01  0.15223770843E+01 -0.71233887236E+00  0.75332355117E+01  0.51100000000E-03 0. -1.
        -11    1    3    3    0    0 -0.96092248291E-01  0.12773349011E+02  0.17268875365E+01  0.12889911540E+02  0.51100000000E-03 0.  1.
         12    1    3    3    0    0 -0.16033494404E+02  0.22091835613E+02  0.19164801451E+01  0.27364119568E+02  0.00000000000E+00 0. -1.
</event>
<event>
 7    1  0.2935819E-010  0.4778728E+02  0.7816164E-02  0.1312668E+00
        -11   -1    0    0    0    0  0.00000000000E+00  0.00000000000E+00  0.45593999997E+02  0.45594000000E+02  0.51100000000E-03 0.  1.
         11   -1    0    0    0    0 -0.00000000000E+00 -0.00000000000E+00 -0.45593999997E+02  0.45594000000E+02  0.51100000000E-03 0. -1.
    9900012    2    1    2    0    0  0.26763694262E+02 -0.34125092977E+02 -0.16749272916E+01  0.47787277856E+02  0.20000031055E+02 0.  0.
        -12    1    1    2    0    0 -0.26763694262E+02  0.34125092977E+02  0.16749272916E+01  0.43400722144E+02  0.00000000000E+00 0.  1.
         11    1    3    3    0    0 -0.57705108078E+00 -0.75659928152E+01  0.38583679406E+01  0.85125929455E+01  0.51100000000E-03 0. -1.
        -11    1    3    3    0    0  0.43032383175E-01 -0.24034506826E+01 -0.70775184968E+00  0.25058611118E+01  0.51100000000E-03 0.  1.
         12    1    3    3    0    0  0.27297712959E+02 -0.24155649479E+02 -0.48255433825E+01  0.36768823798E+02  0.00000000000E+00 0. -1.
</event>
<event>
 7    1  0.2935819E-010  0.4778727E+02  0.7816164E-02  0.1312668E+00
        -11   -1    0    0    0    0  0.00000000000E+00  0.00000000000E+00  0.45593999997E+02  0.45594000000E+02  0.51100000000E-03 0. -1.
         11   -1    0    0    0    0 -0.00000000000E+00 -0.00000000000E+00 -0.45593999997E+02  0.45594000000E+02  0.51100000000E-03 0.  1.
    9900012    2    1    2    0    0  0.93223966313E+00 -0.18613662223E+02  0.39195479471E+02  0.47787273012E+02  0.20000008971E+02 0.  0.
        -12    1    1    2    0    0 -0.93223966313E+00  0.18613662223E+02 -0.39195479471E+02  0.43400726988E+02  0.00000000000E+00 0.  1.
         11    1    3    3    0    0  0.17083507001E+01  0.96051749969E-01 -0.14208841162E+01  0.22240953185E+01  0.51100000000E-03 0. -1.
        -11    1    3    3    0    0 -0.77591924886E+00 -0.96248503170E+01  0.11260555858E+02  0.14833742373E+02  0.51100000000E-03 0.  1.
         12    1    3    3    0    0 -0.19178808810E-03 -0.90848636555E+01  0.29355807729E+02  0.30729435320E+02  0.00000000000E+00 0. -1.
</event>
<event>
 7    1  0.2935819E-010  0.4778728E+02  0.7816164E-02  0.1312668E+00
        -11   -1    0    0    0    0  0.00000000000E+00  0.00000000000E+00  0.45593999997E+02  0.45594000000E+02  0.51100000000E-03 0. -1.
         11   -1    0    0    0    0 -0.00000000000E+00 -0.00000000000E+00 -0.45593999997E+02  0.45594000000E+02  0.51100000000E-03 0.  1.
    9900012    2    1    2    0    0  0.23900221868E+02  0.31803044766E+02  0.17348437681E+02  0.47787279364E+02  0.20000037934E+02 0.  0.
        -12    1    1    2    0    0 -0.23900221868E+02 -0.31803044766E+02 -0.17348437681E+02  0.43400720636E+02  0.00000000000E+00 0.  1.
         11    1    3    3    0    0  0.68643497985E+01  0.15425495700E+02  0.10139164132E+02  0.19694361257E+02  0.51100000000E-03 0. -1.
        -11    1    3    3    0    0  0.18695797773E+02  0.11766406857E+02  0.46907145170E+01  0.22582825059E+02  0.51100000000E-03 0.  1.
        -12    1    3    3    0    0 -0.16599257037E+01  0.46111422085E+01  0.25185590319E+01  0.55100930487E+01  0.00000000000E+00 0.  1.
</event>
<event>
 7    1  0.2935819E-010  0.4778727E+02  0.7816164E-02  0.1312668E+00
        -11   -1    0    0    0    0  0.00000000000E+00  0.00000000000E+00  0.45593999997E+02  0.45594000000E+02  0.51100000000E-03 0. -1.
         11   -1    0    0    0    0 -0.00000000000E+00 -0.00000000000E+00 -0.45593999997E+02  0.45594000000E+02  0.51100000000E-03 0.  1.
    9900012    2    1    2    0    0 -0.98739397542E+01  0.76171890682E+01  0.41570505802E+02  0.47787271801E+02  0.20000003448E+02 0.  0.
        -12    1    1    2    0    0  0.98739397542E+01 -0.76171890682E+01 -0.41570505802E+02  0.43400728199E+02  0.00000000000E+00 0.  1.
         11    1    3    3    0    0 -0.56734600739E+01 -0.40341553062E+01  0.27648355681E+02  0.28511298294E+02  0.51100000000E-03 0. -1.
        -11    1    3    3    0    0 -0.38818283048E+01  0.79711728513E+01  0.12483811645E+02  0.15311882349E+02  0.51100000000E-03 0.  1.
         12    1    3    3    0    0 -0.31865137548E+00  0.36801715231E+01  0.14383384758E+01  0.39640911580E+01  0.00000000000E+00 0. -1.
</event>
<event>
 7    1  0.2935819E-010  0.4778727E+02  0.7816164E-02  0.1312668E+00
        -11   -1    0    0    0    0  0.00000000000E+00  0.00000000000E+00  0.45593999997E+02  0.45594000000E+02  0.51100000000E-03 0.  1.
         11   -1    0    0    0    0 -0.00000000000E+00 -0.00000000000E+00 -0.45593999997E+02  0.45594000000E+02  0.51100000000E-03 0. -1.
    9900012    2    1    2    0    0 -0.17211764995E+02 -0.13304072105E+02 -0.37555027276E+02  0.47787271175E+02  0.20000000594E+02 0.  0.
        -12    1    1    2    0    0  0.17211764995E+02  0.13304072105E+02  0.37555027276E+02  0.43400728825E+02  0.00000000000E+00 0.  1.
         11    1    3    3    0    0 -0.12223862929E+02 -0.23419969271E+01 -0.14810639812E+02  0.19345873627E+02  0.51100000000E-03 0. -1.
        -11    1    3    3    0    0  0.84995281209E+00 -0.75885132104E+01 -0.19534315030E+02  0.20973731582E+02  0.51100000000E-03 0.  1.
        -12    1    3    3    0    0 -0.58378548786E+01 -0.33735619674E+01 -0.32100724342E+01  0.74676659649E+01  0.00000000000E+00 0.  1.
</event>
<event>
 7    1  0.2935819E-010  0.4778727E+02  0.7816164E-02  0.1312668E+00
        -11   -1    0    0    0    0  0.00000000000E+00  0.00000000000E+00  0.45593999997E+02  0.45594000000E+02  0.51100000000E-03 0. -1.
         11   -1    0    0    0    0 -0.00000000000E+00 -0.00000000000E+00 -0.45593999997E+02  0.45594000000E+02  0.51100000000E-03 0.  1.
    9900012    2    1    2    0    0 -0.27047303607E+02  0.23289337192E+02  0.24691570568E+02  0.47787268251E+02  0.19999987262E+02 0.  0.
        -12    1    1    2    0    0  0.27047303607E+02 -0.23289337192E+02 -0.24691570568E+02  0.43400731749E+02  0.00000000000E+00 0.  1.
         11    1    3    3    0    0 -0.14772880902E+02  0.21741534598E+02  0.17706567785E+02  0.31693136162E+02  0.51100000000E-03 0. -1.
        -11    1    3    3    0    0 -0.82750902119E+01  0.53495121333E+00  0.37318175155E+00  0.83007563328E+01  0.51100000000E-03 0.  1.
        -12    1    3    3    0    0 -0.39993324933E+01  0.10128513810E+01  0.66118210319E+01  0.77933757558E+01  0.00000000000E+00 0.  1.
</event>
<event>
 7    1  0.2935819E-010  0.4778727E+02  0.7816164E-02  0.1312668E+00
        -11   -1    0    0    0    0  0.00000000000E+00  0.00000000000E+00  0.45593999997E+02  0.45594000000E+02  0.51100000000E-03 0.  1.
         11   -1    0    0    0    0 -0.00000000000E+00 -0.00000000000E+00 -0.45593999997E+02  0.45594000000E+02  0.51100000000E-03 0. -1.
    9900012    2    1    2    0    0 -0.66387375435E+01 -0.20006086201E+02 -0.37938197740E+02  0.47787272252E+02  0.20000005507E+02 0.  0.
        -12    1    1    2    0    0  0.66387375435E+01  0.20006086201E+02  0.37938197740E+02  0.43400727748E+02  0.00000000000E+00 0.  1.
         11    1    3    3    0    0 -0.11489515923E+02 -0.19116396659E+02 -0.36202864890E+02  0.42521677106E+02  0.51100000000E-03 0. -1.
        -11    1    3    3    0    0  0.41262915713E+01 -0.78790728680E+00 -0.17041062794E+01  0.45333275302E+01  0.51100000000E-03 0.  1.
         12    1    3    3    0    0  0.72448680850E+00 -0.10178225532E+00 -0.31226570795E-01  0.73226761632E+00  0.00000000000E+00 0. -1.
</event>
<event>
 7    1  0.2935819E-010  0.4778727E+02  0.7816164E-02  0.1312668E+00
        -11   -1    0    0    0    0  0.00000000000E+00  0.00000000000E+00  0.45593999997E+02  0.45594000000E+02  0.51100000000E-03 0.  1.
         11   -1    0    0    0    0 -0.00000000000E+00 -0.00000000000E+00 -0.45593999997E+02  0.45594000000E+02  0.51100000000E-03 0. -1.
    9900012    2    1    2    0    0 -0.28982065535E+02 -0.30427853865E+02 -0.10853983932E+02  0.47787269814E+02  0.19999994388E+02 0.  0.
        -12    1    1    2    0    0  0.28982065535E+02  0.30427853865E+02  0.10853983932E+02  0.43400730186E+02  0.00000000000E+00 0.  1.
         11    1    3    3    0    0 -0.26683412029E+01 -0.13153455319E+02 -0.55274501736E+01  0.14515031425E+02  0.51100000000E-03 0. -1.
        -11    1    3    3    0    0 -0.18594994774E+02 -0.94203995708E+01 -0.72969116436E+01  0.22085349862E+02  0.51100000000E-03 0.  1.
         12    1    3    3    0    0 -0.77187295588E+01 -0.78539989752E+01  0.19703778849E+01  0.11186888527E+02  0.00000000000E+00 0. -1.
</event>
<event>
 7    1  0.2935819E-010  0.4778727E+02  0.7816164E-02  0.1312668E+00
        -11   -1    0    0    0    0  0.00000000000E+00  0.00000000000E+00  0.45593999997E+02  0.45594000000E+02  0.51100000000E-03 0. -1.
         11   -1    0    0    0    0 -0.00000000000E+00 -0.00000000000E+00 -0.45593999997E+02  0.45594000000E+02  0.51100000000E-03 0.  1.
    9900012    2    1    2    0    0  0.42117712920E+02  0.76432506912E+01  0.71625521507E+01  0.47787272171E+02  0.20000005137E+02 0.  0.
        -12    1    1    2    0    0 -0.42117712920E+02 -0.76432506912E+01 -0.71625521507E+01  0.43400727829E+02  0.00000000000E+00 0.  1.
         11    1    3    3    0    0  0.22173261519E+02  0.73457847112E+01 -0.21290444228E+01  0.23455210718E+02  0.51100000000E-03 0. -1.
        -11    1    3    3    0    0  0.13450798390E+02  0.76005507801E+00  0.11230597704E+02  0.17539326843E+02  0.51100000000E-03 0.  1.
        -12    1    3    3    0    0  0.64936530114E+01 -0.46258909802E+00 -0.19390011302E+01  0.67927346106E+01  0.00000000000E+00 0.  1.
</event>
<event>
 7    1  0.2935819E-010  0.4778727E+02  0.7816164E-02  0.1312668E+00
        -11   -1    0    0    0    0  0.00000000000E+00  0.00000000000E+00  0.45593999997E+02  0.45594000000E+02  0.51100000000E-03 0.  1.
         11   -1    0    0    0    0 -0.00000000000E+00 -0.00000000000E+00 -0.45593999997E+02  0.45594000000E+02  0.51100000000E-03 0. -1.
    9900012    2    1    2    0    0 -0.23545697316E+02 -0.40083512404E+00 -0.36456309602E+02  0.47787273731E+02  0.20000012248E+02 0.  0.
        -12    1    1    2    0    0  0.23545697316E+02  0.40083512404E+00  0.36456309602E+02  0.43400726269E+02  0.00000000000E+00 0.  1.
         11    1    3    3    0    0 -0.13569310210E+02  0.96663815469E+00 -0.13161597371E+02  0.18928502701E+02  0.51100000000E-03 0. -1.
        -11    1    3    3    0    0  0.75417015582E+00  0.48295406320E+00 -0.15358609734E+02  0.15384697283E+02  0.51100000000E-03 0.  1.
        -12    1    3    3    0    0 -0.10730557261E+02 -0.18504273419E+01 -0.79361024971E+01  0.13474073747E+02  0.00000000000E+00 0.  1.
</event>
<event>
 7    1  0.2935819E-010  0.4778727E+02  0.7816164E-02  0.1312668E+00
        -11   -1    0    0    0    0  0.00000000000E+00  0.00000000000E+00  0.45593999997E+02  0.45594000000E+02  0.51100000000E-03 0.  1.
         11   -1    0    0    0    0 -0.00000000000E+00 -0.00000000000E+00 -0.45593999997E+02  0.45594000000E+02  0.51100000000E-03 0. -1.
    9900012    2    1    2    0    0  0.40009611254E+02 -0.15721925742E+01 -0.16744627526E+02  0.47787270361E+02  0.19999996885E+02 0.  0.
        -12    1    1    2    0    0 -0.40009611254E+02  0.15721925742E+01  0.16744627526E+02  0.43400729639E+02  0.00000000000E+00 0.  1.
         11    1    3    3    0    0  0.11227114928E+02 -0.50655264217E+01 -0.83306898923E+01  0.14869702818E+02  0.51100000000E-03 0. -1.
        -11    1    3    3    0    0  0.62377778649E+01  0.51502266437E+01  0.15112487633E+01  0.82291299819E+01  0.51100000000E-03 0.  1.
        -12    1    3    3    0    0  0.22544718461E+02 -0.16568927962E+01 -0.99251863966E+01  0.24688437562E+02  0.00000000000E+00 0.  1.
</event>
<event>
 7    1  0.2935819E-010  0.4778727E+02  0.7816164E-02  0.1312668E+00
        -11   -1    0    0    0    0  0.00000000000E+00  0.00000000000E+00  0.45593999997E+02  0.45594000000E+02  0.51100000000E-03 0. -1.
         11   -1    0    0    0    0 -0.00000000000E+00 -0.00000000000E+00 -0.45593999997E+02  0.45594000000E+02  0.51100000000E-03 0.  1.
    9900012    2    1    2    0    0 -0.12044216686E+02 -0.37969417574E+02  0.17230296872E+02  0.47787274697E+02  0.20000016653E+02 0.  0.
        -12    1    1    2    0    0  0.12044216686E+02  0.37969417574E+02 -0.17230296872E+02  0.43400725303E+02  0.00000000000E+00 0.  1.
         11    1    3    3    0    0 -0.81061849299E+01 -0.30941948264E+02  0.14972049821E+02  0.35316804394E+02  0.51100000000E-03 0. -1.
        -11    1    3    3    0    0 -0.52077073589E+01 -0.71268124402E+01 -0.10846905417E+01  0.88931560948E+01  0.51100000000E-03 0.  1.
         12    1    3    3    0    0  0.12696756025E+01  0.99343129854E-01  0.33429375934E+01  0.35773142085E+01  0.00000000000E+00 0. -1.
</event>
<event>
 7    1  0.2935819E-010  0.4778727E+02  0.7816164E-02  0.1312668E+00
        -11   -1    0    0    0    0  0.00000000000E+00  0.00000000000E+00  0.45593999997E+02  0.45594000000E+02  0.51100000000E-03 0. -1.
         11   -1    0    0    0    0 -0.00000000000E+00 -0.00000000000E+00 -0.45593999997E+02  0.45594000000E+02  0.51100000000E-03 0.  1.
    9900012    2    1    2    0    0  0.35710783820E+02 -0.50570167733E+01  0.24141038029E+02  0.47787271702E+02  0.20000002999E+02 0.  0.
        -12    1    1    2    0    0 -0.35710783820E+02  0.50570167733E+01 -0.24141038029E+02  0.43400728298E+02  0.00000000000E+00 0.  1.
         11    1    3    3    0    0  0.17781120460E+02  0.66899240927E+01  0.11161440069E+02  0.22034088905E+02  0.51100000000E-03 0. -1.
        -11    1    3    3    0    0  0.84306035271E+01 -0.73943851681E+01  0.37865439450E+01  0.11835958903E+02  0.51100000000E-03 0.  1.
         12    1    3    3    0    0  0.94990598322E+01 -0.43525556980E+01  0.91930540154E+01  0.13917223895E+02  0.00000000000E+00 0. -1.
</event>
<event>
 7    1  0.2935819E-010  0.4778728E+02  0.7816164E-02  0.1312668E+00
        -11   -1    0    0    0    0  0.00000000000E+00  0.00000000000E+00  0.45593999997E+02  0.45594000000E+02  0.51100000000E-03 0.  1.
         11   -1    0    0    0    0 -0.00000000000E+00 -0.00000000000E+00 -0.45593999997E+02  0.45594000000E+02  0.51100000000E-03 0. -1.
    9900012    2    1    2    0    0 -0.35110190779E+02  0.20603728170E+02 -0.15046050490E+02  0.47787277122E+02  0.20000027708E+02 0.  0.
        -12    1    1    2    0    0  0.35110190779E+02 -0.20603728170E+02  0.15046050490E+02  0.43400722878E+02  0.00000000000E+00 0.  1.
         11    1    3    3    0    0 -0.21727867440E+02  0.17258509475E+02 -0.78886248698E+01  0.28847647658E+02  0.51100000000E-03 0. -1.
        -11    1    3    3    0    0  0.21861232019E+00  0.19595578110E+01 -0.46357939005E+01  0.50376823551E+01  0.51100000000E-03 0.  1.
        -12    1    3    3    0    0 -0.13600935659E+02  0.13856608836E+01 -0.25216317201E+01  0.13901947109E+02  0.00000000000E+00 0.  1.
</event>
<event>
 7    1  0.2935819E-010  0.4778727E+02  0.7816164E-02  0.1312668E+00
        -11   -1    0    0    0    0  0.00000000000E+00  0.00000000000E+00  0.45593999997E+02  0.45594000000E+02  0.51100000000E-03 0.  1.
         11   -1    0    0    0    0 -0.00000000000E+00 -0.00000000000E+00 -0.45593999997E+02  0.45594000000E+02  0.51100000000E-03 0. -1.
    9900012    2    1    2    0    0  0.20310917873E+02 -0.33432432700E+02 -0.18797939189E+02  0.47787268914E+02  0.19999990285E+02 0.  0.
        -12    1    1    2    0    0 -0.20310917873E+02  0.33432432700E+02  0.18797939189E+02  0.43400731086E+02  0.00000000000E+00 0.  1.
         11    1    3    3    0    0  0.93999217236E-01 -0.12741507028E+02 -0.19526726077E+01  0.12890607735E+02  0.51100000000E-03 0. -1.
        -11    1    3    3    0    0  0.18755815940E+02 -0.20408575151E+02 -0.12693623397E+02  0.30486368207E+02  0.51100000000E-03 0.  1.
         12    1    3    3    0    0  0.14611027165E+01 -0.28235052042E+00 -0.41516431843E+01  0.44102929715E+01  0.00000000000E+00 0. -1.
</event>
<event>
 7    1  0.2935819E-010  0.4778727E+02  0.7816164E-02  0.1312668E+00
        -11   -1    0    0    0    0  0.00000000000E+00  0.00000000000E+00  0.45593999997E+02  0.45594000000E+02  0.51100000000E-03 0. -1.
         11   -1    0    0    0    0 -0.00000000000E+00 -0.00000000000E+00 -0.45593999997E+02  0.45594000000E+02  0.51100000000E-03 0.  1.
    9900012    2    1    2    0    0  0.18324465614E+01 -0.23209390917E+02  0.36627719490E+02  0.47787268184E+02  0.19999986959E+02 0.  0.
        -12    1    1    2    0    0 -0.18324465614E+01  0.23209390917E+02 -0.36627719490E+02  0.43400731816E+02  0.00000000000E+00 0.  1.
         11    1    3    3    0    0 -0.73454724612E+00 -0.78046199425E+01  0.18855324704E+02  0.20419963812E+02  0.51100000000E-03 0. -1.
        -11    1    3    3    0    0 -0.21655359642E+01 -0.99620256995E+01  0.25289844266E+01  0.10503678619E+02  0.51100000000E-03 0.  1.
        -12    1    3    3    0    0  0.47325297717E+01 -0.54427452746E+01  0.15243410359E+02  0.16863625753E+02  0.00000000000E+00 0.  1.
</event>
<event>
 7    1  0.2935819E-010  0.4778727E+02  0.7816164E-02  0.1312668E+00
        -11   -1    0    0    0    0  0.00000000000E+00  0.00000000000E+00  0.45593999997E+02  0.45594000000E+02  0.51100000000E-03 0. -1.
         11   -1    0    0    0    0 -0.00000000000E+00 -0.00000000000E+00 -0.45593999997E+02  0.45594000000E+02  0.51100000000E-03 0.  1.
    9900012    2    1    2    0    0 -0.22051470743E+02  0.37149115608E+02  0.41592536223E+01  0.47787267943E+02  0.19999985861E+02 0.  0.
        -12    1    1    2    0    0  0.22051470743E+02 -0.37149115608E+02 -0.41592536223E+01  0.43400732057E+02  0.00000000000E+00 0.  1.
         11    1    3    3    0    0 -0.15517121439E+02  0.23672286381E+02  0.73362317724E+01  0.29240015341E+02  0.51100000000E-03 0. -1.
        -11    1    3    3    0    0 -0.69708730672E+01  0.31648821359E+01 -0.30058865664E+01  0.82246522458E+01  0.51100000000E-03 0.  1.
         12    1    3    3    0    0  0.43652376298E+00  0.10311947090E+02 -0.17109158370E+00  0.10322600357E+02  0.00000000000E+00 0. -1.
</event>
<event>
 7    1  0.2935819E-010  0.4778727E+02  0.7816164E-02  0.1312668E+00
        -11   -1    0    0    0    0  0.00000000000E+00  0.00000000000E+00  0.45593999997E+02  0.45594000000E+02  0.51100000000E-03 0.  1.
         11   -1    0    0    0    0 -0.00000000000E+00 -0.00000000000E+00 -0.45593999997E+02  0.45594000000E+02  0.51100000000E-03 0. -1.
    9900012    2    1    2    0    0 -0.25082365537E+02 -0.13067708434E+02 -0.32920100352E+02  0.47787273373E+02  0.20000010615E+02 0.  0.
        -12    1    1    2    0    0  0.25082365537E+02  0.13067708434E+02  0.32920100352E+02  0.43400726627E+02  0.00000000000E+00 0.  1.
         11    1    3    3    0    0 -0.94595007110E+01 -0.30434846076E+01 -0.26221823193E+02  0.28041557804E+02  0.51100000000E-03 0. -1.
        -11    1    3    3    0    0 -0.63696939593E+01 -0.42244945945E+01 -0.30944530301E+01  0.82459078052E+01  0.51100000000E-03 0.  1.
         12    1    3    3    0    0 -0.92531708663E+01 -0.57997292316E+01 -0.36038241288E+01  0.11499807763E+02  0.00000000000E+00 0. -1.
</event>
<event>
 7    1  0.2935819E-010  0.4778727E+02  0.7816164E-02  0.1312668E+00
        -11   -1    0    0    0    0  0.00000000000E+00  0.00000000000E+00  0.45593999997E+02  0.45594000000E+02  0.51100000000E-03 0.  1.
         11   -1    0    0    0    0 -0.00000000000E+00 -0.00000000000E+00 -0.45593999997E+02  0.45594000000E+02  0.51100000000E-03 0. -1.
    9900012    2    1    2    0    0  0.18971152540E+02  0.12766810120E+02 -0.36888036782E+02  0.47787270433E+02  0.19999997212E+02 0.  0.
        -12    1    1    2    0    0 -0.18971152540E+02 -0.12766810120E+02  0.36888036782E+02  0.43400729567E+02  0.00000000000E+00 0.  1.
         11    1    3    3    0    0 -0.42703049324E+00  0.75469034794E+01 -0.17456292599E+02  0.19022624917E+02  0.51100000000E-03 0. -1.
        -11    1    3    3    0    0  0.88701363193E+01 -0.10527355007E+01 -0.75580075764E+01  0.11700899501E+02  0.51100000000E-03 0.  1.
         12    1    3    3    0    0  0.10528046714E+02  0.62726421409E+01 -0.11873736606E+02  0.17063746014E+02  0.00000000000E+00 0. -1.
</event>
<event>
 7    1  0.2935819E-010  0.4778727E+02  0.7816164E-02  0.1312668E+00
        -11   -1    0    0    0    0  0.00000000000E+00  0.00000000000E+00  0.45593999997E+02  0.45594000000E+02  0.51100000000E-03 0.  1.
         11   -1    0    0    0    0 -0.00000000000E+00 -0.00000000000E+00 -0.45593999997E+02  0.45594000000E+02  0.51100000000E-03 0. -1.
    9900012    2    1    2    0    0  0.28252118227E+02 -0.46678646118E+01 -0.32613682443E+02  0.47787269282E+02  0.19999991963E+02 0.  0.
        -12    1    1    2    0    0 -0.28252118227E+02  0.46678646118E+01  0.32613682443E+02  0.43400730718E+02  0.00000000000E+00 0.  1.
         11    1    3    3    0    0  0.94899980056E+01 -0.31194553598E+01 -0.10283432374E+02  0.14336667867E+02  0.51100000000E-03 0. -1.
        -11    1    3    3    0    0  0.82959000391E+01 -0.88542465340E+01 -0.10443976776E+02  0.16009256394E+02  0.51100000000E-03 0.  1.
        -12    1    3    3    0    0  0.10466220183E+02  0.73058372820E+01 -0.11886273294E+02  0.17441345020E+02  0.00000000000E+00 0.  1.
</event>
<event>
 7    1  0.2935819E-010  0.4778728E+02  0.7816164E-02  0.1312668E+00
        -11   -1    0    0    0    0  0.00000000000E+00  0.00000000000E+00  0.45593999997E+02  0.45594000000E+02  0.51100000000E-03 0. -1.
         11   -1    0    0    0    0 -0.00000000000E+00 -0.00000000000E+00 -0.45593999997E+02  0.45594000000E+02  0.51100000000E-03 0.  1.
    9900012    2    1    2    0    0  0.33730506629E+02 -0.24206705071E+02  0.12645582937E+02  0.47787280932E+02  0.20000045079E+02 0.  0.
        -12    1    1    2    0    0 -0.33730506629E+02  0.24206705071E+02 -0.12645582937E+02  0.43400719068E+02  0.00000000000E+00 0.  1.
         11    1    3    3    0    0  0.24911258319E+02 -0.90754091435E+01  0.95737298286E+01  0.28188475398E+02  0.51100000000E-03 0. -1.
        -11    1    3    3    0    0  0.10226620792E+02 -0.14644996246E+02  0.27123596789E+01  0.18067002606E+02  0.51100000000E-03 0.  1.
         12    1    3    3    0    0 -0.14073724820E+01 -0.48629968070E+00  0.35949342982E+00  0.15318029275E+01  0.00000000000E+00 0. -1.
</event>
<event>
 7    1  0.2935819E-010  0.4778727E+02  0.7816164E-02  0.1312668E+00
        -11   -1    0    0    0    0  0.00000000000E+00  0.00000000000E+00  0.45593999997E+02  0.45594000000E+02  0.51100000000E-03 0. -1.
         11   -1    0    0    0    0 -0.00000000000E+00 -0.00000000000E+00 -0.45593999997E+02  0.45594000000E+02  0.51100000000E-03 0.  1.
    9900012    2    1    2    0    0  0.63229089871E+01 -0.39086752264E+02  0.17772735032E+02  0.47787268541E+02  0.19999988587E+02 0.  0.
        -12    1    1    2    0    0 -0.63229089871E+01  0.39086752264E+02 -0.17772735032E+02  0.43400731459E+02  0.00000000000E+00 0.  1.
         11    1    3    3    0    0  0.24154498091E+01 -0.29226959752E+02  0.14082170572E+02  0.32532400809E+02  0.51100000000E-03 0. -1.
        -11    1    3    3    0    0  0.29284290347E+01 -0.20278405372E+01 -0.31917550386E+01  0.47827956618E+01  0.51100000000E-03 0.  1.
        -12    1    3    3    0    0  0.97903014337E+00 -0.78319519745E+01  0.68823194992E+01  0.10472072070E+02  0.00000000000E+00 0.  1.
</event>
<event>
 7    1  0.2935819E-010  0.4778728E+02  0.7816164E-02  0.1312668E+00
        -11   -1    0    0    0    0  0.00000000000E+00  0.00000000000E+00  0.45593999997E+02  0.45594000000E+02  0.51100000000E-03 0. -1.
         11   -1    0    0    0    0 -0.00000000000E+00 -0.00000000000E+00 -0.45593999997E+02  0.45594000000E+02  0.51100000000E-03 0.  1.
    9900012    2    1    2    0    0 -0.14121610634E+02 -0.80962948401E+01  0.40232484843E+02  0.47787277498E+02  0.20000029424E+02 0.  0.
        -12    1    1    2    0    0  0.14121610634E+02  0.80962948401E+01 -0.40232484843E+02  0.43400722502E+02  0.00000000000E+00 0.  1.
         11    1    3    3    0    0  0.55229259475E+00  0.17246735174E+01  0.14884640169E+02  0.14994400258E+02  0.51100000000E-03 0. -1.
        -11    1    3    3    0    0  0.16078285607E+01 -0.24532577041E+01  0.36831885762E+01  0.47084460698E+01  0.51100000000E-03 0.  1.
         12    1    3    3    0    0 -0.16281731790E+02 -0.73677106534E+01  0.21664656098E+02  0.28084431170E+02  0.00000000000E+00 0. -1.
</event>
<event>
 7    1  0.2935819E-010  0.4778727E+02  0.7816164E-02  0.1312668E+00
        -11   -1    0    0    0    0  0.00000000000E+00  0.00000000000E+00  0.45593999997E+02  0.45594000000E+02  0.51100000000E-03 0.  1.
         11   -1    0    0    0    0 -0.00000000000E+00 -0.00000000000E+00 -0.45593999997E+02  0.45594000000E+02  0.51100000000E-03 0. -1.
    9900012    2    1    2    0    0 -0.15376509505E+02  0.18203775903E+00 -0.40585134728E+02  0.47787270246E+02  0.19999996360E+02 0.  0.
        -12    1    1    2    0    0  0.15376509505E+02 -0.18203775903E+00  0.40585134728E+02  0.43400729754E+02  0.00000000000E+00 0.  1.
         11    1    3    3    0    0 -0.45823529773E+01  0.50322281538E+01 -0.10894696421E+02  0.12845843272E+02  0.51100000000E-03 0. -1.
        -11    1    3    3    0    0 -0.11047708607E+02 -0.67087471774E+01 -0.30322280498E+02  0.32962097157E+02  0.51100000000E-03 0.  1.
        -12    1    3    3    0    0  0.25355207999E+00  0.18585567827E+01  0.63184219052E+00  0.19793298172E+01  0.00000000000E+00 0.  1.
</event>
<event>
 7    1  0.2935819E-010  0.4778728E+02  0.7816164E-02  0.1312668E+00
        -11   -1    0    0    0    0  0.00000000000E+00  0.00000000000E+00  0.45593999997E+02  0.45594000000E+02  0.51100000000E-03 0.  1.
         11   -1    0    0    0    0 -0.00000000000E+00 -0.00000000000E+00 -0.45593999997E+02  0.45594000000E+02  0.51100000000E-03 0. -1.
    9900012    2    1    2    0    0  0.24837648968E+02 -0.27457183817E+01 -0.35484855229E+02  0.47787277353E+02  0.20000028762E+02 0.  0.
        -12    1    1    2    0    0 -0.24837648968E+02  0.27457183817E+01  0.35484855229E+02  0.43400722647E+02  0.00000000000E+00 0.  1.
         11    1    3    3    0    0  0.22931732281E+02  0.20318523454E+01 -0.25598131010E+02  0.34427562807E+02  0.51100000000E-03 0. -1.
        -11    1    3    3    0    0  0.21664754541E+01  0.15167435135E+01 -0.35232058898E+01  0.44053497912E+01  0.51100000000E-03 0.  1.
         12    1    3    3    0    0 -0.26055876712E+00 -0.62943142406E+01 -0.63635183287E+01  0.89543647542E+01  0.00000000000E+00 0. -1.
</event>
<event>
 7    1  0.2935819E-010  0.4778727E+02  0.7816164E-02  0.1312668E+00
        -11   -1    0    0    0    0  0.00000000000E+00  0.00000000000E+00  0.45593999997E+02  0.45594000000E+02  0.51100000000E-03 0.  1.
         11   -1    0    0    0    0 -0.00000000000E+00 -0.00000000000E+00 -0.45593999997E+02  0.45594000000E+02  0.51100000000E-03 0. -1.
    9900012    2    1    2    0    0 -0.38366448438E+02 -0.11903376668E+02 -0.16430116922E+02  0.47787268625E+02  0.19999988967E+02 0.  0.
        -12    1    1    2    0    0  0.38366448438E+02  0.11903376668E+02  0.16430116922E+02  0.43400731375E+02  0.00000000000E+00 0.  1.
         11    1    3    3    0    0 -0.54857163093E+01 -0.64777568199E+01 -0.88127478815E+01  0.12235969203E+02  0.51100000000E-03 0. -1.
        -11    1    3    3    0    0 -0.14832543602E+02  0.13289019859E+01 -0.17385513146E+00  0.14892970022E+02  0.51100000000E-03 0.  1.
        -12    1    3    3    0    0 -0.18048188527E+02 -0.67545218337E+01 -0.74435139090E+01  0.20658329400E+02  0.00000000000E+00 0.  1.
</event>
<event>
 7    1  0.2935819E-010  0.4778731E+02  0.7816164E-02  0.1312668E+00
        -11   -1    0    0    0    0  0.00000000000E+00  0.00000000000E+00  0.45593999997E+02  0.45594000000E+02  0.51100000000E-03 0.  1.
         11   -1    0    0    0    0 -0.00000000000E+00 -0.00000000000E+00 -0.45593999997E+02  0.45594000000E+02  0.51100000000E-03 0. -1.
    9900012    2    1    2    0    0  0.28551833172E+01 -0.34015388203E+02 -0.26803386222E+02  0.47787306234E+02  0.20000160444E+02 0.  0.
        -12    1    1    2    0    0 -0.28551833172E+01  0.34015388203E+02  0.26803386222E+02  0.43400693766E+02  0.00000000000E+00 0.  1.
         11    1    3    3    0    0  0.39038765787E+01 -0.30971035142E+02 -0.28876015654E+02  0.42523752779E+02  0.51100000000E-03 0. -1.
        -11    1    3    3    0    0 -0.16902272690E+01 -0.33186290909E+01  0.24620664899E+01  0.44645200107E+01  0.51100000000E-03 0.  1.
         12    1    3    3    0    0  0.64153400750E+00  0.27427602970E+00 -0.38943705801E+00  0.79903344448E+00  0.00000000000E+00 0. -1.
</event>
<event>
 7    1  0.2935819E-010  0.4778726E+02  0.7816164E-02  0.1312668E+00
        -11   -1    0    0    0    0  0.00000000000E+00  0.00000000000E+00  0.45593999997E+02  0.45594000000E+02  0.51100000000E-03 0.  1.
         11   -1    0    0    0    0 -0.00000000000E+00 -0.00000000000E+00 -0.45593999997E+02  0.45594000000E+02  0.51100000000E-03 0. -1.
    9900012    2    1    2    0    0 -0.24136798288E+02 -0.24972867815E+02  0.26026818467E+02  0.47787257633E+02  0.19999938853E+02 0.  0.
        -12    1    1    2    0    0  0.24136798288E+02  0.24972867815E+02 -0.26026818467E+02  0.43400742367E+02  0.00000000000E+00 0.  1.
         11    1    3    3    0    0 -0.12222879879E+02 -0.22480707819E+01  0.61093868469E+01  0.13848365343E+02  0.51100000000E-03 0. -1.
        -11    1    3    3    0    0 -0.65290637483E+00 -0.10960683403E+02  0.10128325875E+02  0.14938067234E+02  0.51100000000E-03 0.  1.
         12    1    3    3    0    0 -0.11261012034E+02 -0.11764113629E+02  0.97891057444E+01  0.19000825056E+02  0.00000000000E+00 0. -1.
</event>
<event>
 7    1  0.2935819E-010  0.4778727E+02  0.7816164E-02  0.1312668E+00
        -11   -1    0    0    0    0  0.00000000000E+00  0.00000000000E+00  0.45593999997E+02  0.45594000000E+02  0.51100000000E-03 0.  1.
         11   -1    0    0    0    0 -0.00000000000E+00 -0.00000000000E+00 -0.45593999997E+02  0.45594000000E+02  0.51100000000E-03 0. -1.
    9900012    2    1    2    0    0  0.41041278614E+01  0.28315823940E+02 -0.32634237335E+02  0.47787271926E+02  0.20000004020E+02 0.  0.
        -12    1    1    2    0    0 -0.41041278614E+01 -0.28315823940E+02  0.32634237335E+02  0.43400728074E+02  0.00000000000E+00 0.  1.
         11    1    3    3    0    0  0.52299097968E+01  0.19126296019E+02 -0.26460430034E+02  0.33065412651E+02  0.51100000000E-03 0. -1.
        -11    1    3    3    0    0  0.19526735630E+01  0.31930174143E+01 -0.69931074236E+01  0.79316988061E+01  0.51100000000E-03 0.  1.
         12    1    3    3    0    0 -0.30784554985E+01  0.59965105062E+01  0.81930012269E+00  0.67901604692E+01  0.00000000000E+00 0. -1.
</event>
<event>
 7    1  0.2935819E-010  0.4778727E+02  0.7816164E-02  0.1312668E+00
        -11   -1    0    0    0    0  0.00000000000E+00  0.00000000000E+00  0.45593999997E+02  0.45594000000E+02  0.51100000000E-03 0.  1.
         11   -1    0    0    0    0 -0.00000000000E+00 -0.00000000000E+00 -0.45593999997E+02  0.45594000000E+02  0.51100000000E-03 0. -1.
    9900012    2    1    2    0    0  0.20546370612E+01  0.42221769288E+02 -0.98348466124E+01  0.47787267942E+02  0.19999985856E+02 0.  0.
        -12    1    1    2    0    0 -0.20546370612E+01 -0.42221769288E+02  0.98348466124E+01  0.43400732058E+02  0.00000000000E+00 0.  1.
         11    1    3    3    0    0 -0.44098149773E+01  0.12482175975E+02 -0.85737223544E+01  0.15772124158E+02  0.51100000000E-03 0. -1.
        -11    1    3    3    0    0  0.32161732795E+01  0.33761795968E+01  0.23267543031E+01  0.52111558297E+01  0.51100000000E-03 0.  1.
         12    1    3    3    0    0  0.32482787591E+01  0.26363413716E+02 -0.35878785611E+01  0.26803987954E+02  0.00000000000E+00 0. -1.
</event>
<event>
 7    1  0.2935819E-010  0.4778727E+02  0.7816164E-02  0.1312668E+00
        -11   -1    0    0    0    0  0.00000000000E+00  0.00000000000E+00  0.45593999997E+02  0.45594000000E+02  0.51100000000E-03 0.  1.
         11   -1    0    0    0    0 -0.00000000000E+00 -0.00000000000E+00 -0.45593999997E+02  0.45594000000E+02  0.51100000000E-03 0. -1.
    9900012    2    1    2    0    0 -0.41463465617E+02 -0.11457752259E+02 -0.57553998198E+01  0.47787266194E+02  0.19999977884E+02 0.  0.
        -12    1    1    2    0    0  0.41463465617E+02  0.11457752259E+02  0.57553998198E+01  0.43400733806E+02  0.00000000000E+00 0.  1.
         11    1    3    3    0    0 -0.10398902571E+02 -0.31997481585E+01 -0.88443818565E+01  0.14021364186E+02  0.51100000000E-03 0. -1.
        -11    1    3    3    0    0 -0.22917706673E+02 -0.17598312760E+01  0.38987106736E+01  0.23313477442E+02  0.51100000000E-03 0.  1.
         12    1    3    3    0    0 -0.81468563730E+01 -0.64981728249E+01 -0.80972863689E+00  0.10452424565E+02  0.00000000000E+00 0. -1.
</event>
<event>
 7    1  0.2935819E-010  0.4778727E+02  0.7816164E-02  0.1312668E+00
        -11   -1    0    0    0    0  0.00000000000E+00  0.00000000000E+00  0.45593999997E+02  0.45594000000E+02  0.51100000000E-03 0. -1.
         11   -1    0    0    0    0 -0.00000000000E+00 -0.00000000000E+00 -0.45593999997E+02  0.45594000000E+02  0.51100000000E-03 0.  1.
    9900012    2    1    2    0    0 -0.40453646850E+02  0.10645576335E+02  0.11567085532E+02  0.47787270667E+02  0.19999998279E+02 0.  0.
        -12    1    1    2    0    0  0.40453646850E+02 -0.10645576335E+02 -0.11567085532E+02  0.43400729333E+02  0.00000000000E+00 0.  1.
         11    1    3    3    0    0 -0.99977581939E+01  0.18743300502E+01  0.58279203108E+01  0.11723179494E+02  0.51100000000E-03 0. -1.
        -11    1    3    3    0    0 -0.13456930180E+02  0.11943915525E+02  0.53336921274E+01  0.18766842034E+02  0.51100000000E-03 0.  1.
        -12    1    3    3    0    0 -0.16998958475E+02 -0.31726692402E+01  0.40547309397E+00  0.17297249139E+02  0.00000000000E+00 0.  1.
</event>
<event>
 7    1  0.2935819E-010  0.4778728E+02  0.7816164E-02  0.1312668E+00
        -11   -1    0    0    0    0  0.00000000000E+00  0.00000000000E+00  0.45593999997E+02  0.45594000000E+02  0.51100000000E-03 0.  1.
         11   -1    0    0    0    0 -0.00000000000E+00 -0.00000000000E+00 -0.45593999997E+02  0.45594000000E+02  0.51100000000E-03 0. -1.
    9900012    2    1    2    0    0 -0.54779508717E+01  0.10097351800E+02 -0.41852813079E+02  0.47787280861E+02  0.20000044757E+02 0.  0.
        -12    1    1    2    0    0  0.54779508717E+01 -0.10097351800E+02  0.41852813079E+02  0.43400719139E+02  0.00000000000E+00 0.  1.
         11    1    3    3    0    0 -0.69108093943E+01  0.84355343987E+01 -0.26229385636E+02  0.28405953569E+02  0.51100000000E-03 0. -1.
        -11    1    3    3    0    0  0.71012494231E-01 -0.22363545183E+01  0.85360186250E+00  0.23947777990E+01  0.51100000000E-03 0.  1.
         12    1    3    3    0    0  0.13618460284E+01  0.38981719195E+01 -0.16477029306E+02  0.16986549493E+02  0.00000000000E+00 0. -1.
</event>
<event>
 7    1  0.2935819E-010  0.4778727E+02  0.7816164E-02  0.1312668E+00
        -11   -1    0    0    0    0  0.00000000000E+00  0.00000000000E+00  0.45593999997E+02  0.45594000000E+02  0.51100000000E-03 0.  1.
         11   -1    0    0    0    0 -0.00000000000E+00 -0.00000000000E+00 -0.45593999997E+02  0.45594000000E+02  0.51100000000E-03 0. -1.
    9900012    2    1    2    0    0 -0.27877570264E+02  0.42770787116E+01 -0.32987432665E+02  0.47787273740E+02  0.20000012289E+02 0.  0.
        -12    1    1    2    0    0  0.27877570264E+02 -0.42770787116E+01  0.32987432665E+02  0.43400726260E+02  0.00000000000E+00 0.  1.
         11    1    3    3    0    0  0.58145224091E+00 -0.18384124007E+01 -0.96922355702E+01  0.98821696743E+01  0.51100000000E-03 0.  1.
        -11    1    3    3    0    0 -0.21999842825E+02  0.19944393651E+01 -0.18900740143E+02  0.29072475830E+02  0.51100000000E-03 0. -1.
        -12    1    3    3    0    0 -0.64591796797E+01  0.41210517471E+01 -0.43944569517E+01  0.88326282350E+01  0.00000000000E+00 0.  1.
</event>
<event>
 7    1  0.2935819E-010  0.4778727E+02  0.7816164E-02  0.1312668E+00
        -11   -1    0    0    0    0  0.00000000000E+00  0.00000000000E+00  0.45593999997E+02  0.45594000000E+02  0.51100000000E-03 0.  1.
         11   -1    0    0    0    0 -0.00000000000E+00 -0.00000000000E+00 -0.45593999997E+02  0.45594000000E+02  0.51100000000E-03 0. -1.
    9900012    2    1    2    0    0 -0.15258179376E+02 -0.34686309048E+01 -0.40481846241E+02  0.47787270590E+02  0.19999997927E+02 0.  0.
        -12    1    1    2    0    0  0.15258179376E+02  0.34686309048E+01  0.40481846241E+02  0.43400729410E+02  0.00000000000E+00 0.  1.
         11    1    3    3    0    0 -0.44329694288E+01  0.19306882169E+01 -0.31905262508E+02  0.32269560749E+02  0.51100000000E-03 0. -1.
        -11    1    3    3    0    0 -0.63971525723E+01 -0.41432244450E+01 -0.27729314672E+01  0.81104265620E+01  0.51100000000E-03 0.  1.
         12    1    3    3    0    0 -0.44280573746E+01 -0.12560946766E+01 -0.58036522659E+01  0.74072832788E+01  0.00000000000E+00 0. -1.
</event>
<event>
 7    1  0.2935819E-010  0.4778727E+02  0.7816164E-02  0.1312668E+00
        -11   -1    0    0    0    0  0.00000000000E+00  0.00000000000E+00  0.45593999997E+02  0.45594000000E+02  0.51100000000E-03 0.  1.
         11   -1    0    0    0    0 -0.00000000000E+00 -0.00000000000E+00 -0.45593999997E+02  0.45594000000E+02  0.51100000000E-03 0. -1.
    9900012    2    1    2    0    0  0.39160180154E+02 -0.18656056919E+02 -0.14335958731E+01  0.47787269977E+02  0.19999995133E+02 0.  0.
        -12    1    1    2    0    0 -0.39160180154E+02  0.18656056919E+02  0.14335958731E+01  0.43400730023E+02  0.00000000000E+00 0.  1.
         11    1    3    3    0    0  0.25584690581E+02 -0.18827097980E+02 -0.41775035068E+01  0.32038844334E+02  0.51100000000E-03 0. -1.
        -11    1    3    3    0    0  0.11409525882E+02  0.29088233817E+01  0.32649862870E+01  0.12218783493E+02  0.51100000000E-03 0.  1.
        -12    1    3    3    0    0  0.21659636899E+01 -0.27377823209E+01 -0.52107865327E+00  0.35296421498E+01  0.00000000000E+00 0.  1.
</event>
<event>
 7    1  0.2935819E-010  0.4778728E+02  0.7816164E-02  0.1312668E+00
        -11   -1    0    0    0    0  0.00000000000E+00  0.00000000000E+00  0.45593999997E+02  0.45594000000E+02  0.51100000000E-03 0.  1.
         11   -1    0    0    0    0 -0.00000000000E+00 -0.00000000000E+00 -0.45593999997E+02  0.45594000000E+02  0.51100000000E-03 0. -1.
    9900012    2    1    2    0    0 -0.19401558747E+02 -0.10129881872E+02 -0.37477827057E+02  0.47787279851E+02  0.20000040153E+02 0.  0.
        -12    1    1    2    0    0  0.19401558747E+02  0.10129881872E+02  0.37477827057E+02  0.43400720149E+02  0.00000000000E+00 0.  1.
         11    1    3    3    0    0 -0.52269358587E+01 -0.54719979100E+01 -0.27487761256E+02  0.28510360199E+02  0.51100000000E-03 0. -1.
        -11    1    3    3    0    0 -0.29817226464E+01  0.14127626359E+01 -0.37391299779E+00  0.33205992526E+01  0.51100000000E-03 0.  1.
         12    1    3    3    0    0 -0.11192900242E+02 -0.60706465980E+01 -0.96161528034E+01  0.15956320399E+02  0.00000000000E+00 0. -1.
</event>
<event>
 7    1  0.2935819E-010  0.4778727E+02  0.7816164E-02  0.1312668E+00
        -11   -1    0    0    0    0  0.00000000000E+00  0.00000000000E+00  0.45593999997E+02  0.45594000000E+02  0.51100000000E-03 0.  1.
         11   -1    0    0    0    0 -0.00000000000E+00 -0.00000000000E+00 -0.45593999997E+02  0.45594000000E+02  0.51100000000E-03 0. -1.
    9900012    2    1    2    0    0 -0.95247513966E+01 -0.16771849354E+02 -0.38879393852E+02  0.47787273207E+02  0.20000009858E+02 0.  0.
        -12    1    1    2    0    0  0.95247513966E+01  0.16771849354E+02  0.38879393852E+02  0.43400726793E+02  0.00000000000E+00 0.  1.
         11    1    3    3    0    0 -0.51887415317E+01 -0.17032309398E+02 -0.36099265990E+02  0.40251454724E+02  0.51100000000E-03 0. -1.
        -11    1    3    3    0    0 -0.37429518685E+01 -0.11870095577E+01 -0.39597891433E+01  0.55766128340E+01  0.51100000000E-03 0.  1.
         12    1    3    3    0    0 -0.59305799634E+00  0.14474696013E+01  0.11796612818E+01  0.19592056485E+01  0.00000000000E+00 0. -1.
</event>
<event>
 7    1  0.2935819E-010  0.4778724E+02  0.7816164E-02  0.1312668E+00
        -11   -1    0    0    0    0  0.00000000000E+00  0.00000000000E+00  0.45593999997E+02  0.45594000000E+02  0.51100000000E-03 0.  1.
         11   -1    0    0    0    0 -0.00000000000E+00 -0.00000000000E+00 -0.45593999997E+02  0.45594000000E+02  0.51100000000E-03 0. -1.
    9900012    2    1    2    0    0  0.43121996342E+02 -0.31678577287E+01  0.37528208775E+01  0.47787244757E+02  0.19999880145E+02 0.  0.
        -12    1    1    2    0    0 -0.43121996342E+02  0.31678577287E+01 -0.37528208775E+01  0.43400755243E+02  0.00000000000E+00 0.  1.
         11    1    3    3    0    0  0.13100364271E+02  0.63232991404E+01  0.54905515115E+01  0.15548305767E+02  0.51100000000E-03 0. -1.
        -11    1    3    3    0    0  0.21121259373E+02 -0.75194043830E+01 -0.41689504685E+01  0.22804148483E+02  0.51100000000E-03 0.  1.
         12    1    3    3    0    0  0.89003726980E+01 -0.19717524862E+01  0.24312198344E+01  0.94347905071E+01  0.00000000000E+00 0. -1.
</event>
<event>
 7    1  0.2935819E-010  0.4778727E+02  0.7816164E-02  0.1312668E+00
        -11   -1    0    0    0    0  0.00000000000E+00  0.00000000000E+00  0.45593999997E+02  0.45594000000E+02  0.51100000000E-03 0. -1.
         11   -1    0    0    0    0 -0.00000000000E+00 -0.00000000000E+00 -0.45593999997E+02  0.45594000000E+02  0.51100000000E-03 0.  1.
    9900012    2    1    2    0    0 -0.17277012915E+01  0.33307214040E+02  0.27771707143E+02  0.47787272166E+02  0.20000005114E+02 0.  0.
        -12    1    1    2    0    0  0.17277012915E+01 -0.33307214040E+02 -0.27771707143E+02  0.43400727834E+02  0.00000000000E+00 0.  1.
         11    1    3    3    0    0 -0.11095301035E+01  0.27122571166E+02  0.25838263221E+02  0.37476402845E+02  0.51100000000E-03 0. -1.
        -11    1    3    3    0    0 -0.17814331936E+01  0.35118018731E+01 -0.27439215736E+01  0.47995169009E+01  0.51100000000E-03 0.  1.
        -12    1    3    3    0    0  0.11632620056E+01  0.26728410012E+01  0.46773654960E+01  0.55113524197E+01  0.00000000000E+00 0.  1.
</event>
<event>
 7    1  0.2935819E-010  0.4778728E+02  0.7816164E-02  0.1312668E+00
        -11   -1    0    0    0    0  0.00000000000E+00  0.00000000000E+00  0.45593999997E+02  0.45594000000E+02  0.51100000000E-03 0.  1.
         11   -1    0    0    0    0 -0.00000000000E+00 -0.00000000000E+00 -0.45593999997E+02  0.45594000000E+02  0.51100000000E-03 0. -1.
    9900012    2    1    2    0    0 -0.17479686057E+02  0.38222518776E+02 -0.10822317848E+02  0.47787275008E+02  0.20000018071E+02 0.  0.
        -12    1    1    2    0    0  0.17479686057E+02 -0.38222518776E+02  0.10822317848E+02  0.43400724992E+02  0.00000000000E+00 0.  1.
         11    1    3    3    0    0 -0.11135045501E+02  0.10289449924E+02  0.28584643994E+01  0.15428312838E+02  0.51100000000E-03 0. -1.
        -11    1    3    3    0    0 -0.58100297037E+01  0.24340915865E+02 -0.93678960205E+01  0.26720668150E+02  0.51100000000E-03 0.  1.
         12    1    3    3    0    0 -0.53461085304E+00  0.35921529873E+01 -0.43128862265E+01  0.56382940196E+01  0.00000000000E+00 0. -1.
</event>
<event>
 7    1  0.2935819E-010  0.4778727E+02  0.7816164E-02  0.1312668E+00
        -11   -1    0    0    0    0  0.00000000000E+00  0.00000000000E+00  0.45593999997E+02  0.45594000000E+02  0.51100000000E-03 0.  1.
         11   -1    0    0    0    0 -0.00000000000E+00 -0.00000000000E+00 -0.45593999997E+02  0.45594000000E+02  0.51100000000E-03 0. -1.
    9900012    2    1    2    0    0  0.20183623648E+02  0.20830896007E+02 -0.32284955809E+02  0.47787271163E+02  0.20000000540E+02 0.  0.
        -12    1    1    2    0    0 -0.20183623648E+02 -0.20830896007E+02  0.32284955809E+02  0.43400728837E+02  0.00000000000E+00 0.  1.
         11    1    3    3    0    0  0.14984084494E+02  0.16509643036E+02 -0.13040528193E+02  0.25829178793E+02  0.51100000000E-03 0. -1.
        -11    1    3    3    0    0  0.38078318010E+01  0.67211559575E+01 -0.12942513654E+02  0.15072563829E+02  0.51100000000E-03 0.  1.
         12    1    3    3    0    0  0.13917073526E+01 -0.23999029871E+01 -0.63019139619E+01  0.68855285408E+01  0.00000000000E+00 0. -1.
</event>
<event>
 7    1  0.2935819E-010  0.4778727E+02  0.7816164E-02  0.1312668E+00
        -11   -1    0    0    0    0  0.00000000000E+00  0.00000000000E+00  0.45593999997E+02  0.45594000000E+02  0.51100000000E-03 0.  1.
         11   -1    0    0    0    0 -0.00000000000E+00 -0.00000000000E+00 -0.45593999997E+02  0.45594000000E+02  0.51100000000E-03 0. -1.
    9900012    2    1    2    0    0  0.38374313386E+02  0.20036169509E+02 -0.30963933930E+01  0.47787266498E+02  0.19999979271E+02 0.  0.
        -12    1    1    2    0    0 -0.38374313386E+02 -0.20036169509E+02  0.30963933930E+01  0.43400733502E+02  0.00000000000E+00 0.  1.
         11    1    3    3    0    0  0.22172058532E+02  0.17835151939E+01 -0.18052252827E+01  0.22316808566E+02  0.51100000000E-03 0. -1.
        -11    1    3    3    0    0  0.28253099644E+01  0.67412410413E+01 -0.26385227410E+01  0.77710044195E+01  0.51100000000E-03 0.  1.
        -12    1    3    3    0    0  0.13376944890E+02  0.11511413273E+02  0.13473546307E+01  0.17699453513E+02  0.00000000000E+00 0.  1.
</event>
<event>
 7    1  0.2935819E-010  0.4778727E+02  0.7816164E-02  0.1312668E+00
        -11   -1    0    0    0    0  0.00000000000E+00  0.00000000000E+00  0.45593999997E+02  0.45594000000E+02  0.51100000000E-03 0.  1.
         11   -1    0    0    0    0 -0.00000000000E+00 -0.00000000000E+00 -0.45593999997E+02  0.45594000000E+02  0.51100000000E-03 0. -1.
    9900012    2    1    2    0    0  0.78979816321E+01  0.37445178809E+02 -0.20472027395E+02  0.47787269182E+02  0.19999991510E+02 0.  0.
        -12    1    1    2    0    0 -0.78979816321E+01 -0.37445178809E+02  0.20472027395E+02  0.43400730818E+02  0.00000000000E+00 0.  1.
         11    1    3    3    0    0 -0.64318666578E+01  0.13767684656E+02 -0.61278358347E+01  0.16385006005E+02  0.51100000000E-03 0. -1.
        -11    1    3    3    0    0  0.96367804743E+01  0.14682731233E+02 -0.71374340342E+01  0.18957665975E+02  0.51100000000E-03 0.  1.
         12    1    3    3    0    0  0.46930678157E+01  0.89947629193E+01 -0.72067575257E+01  0.12444597202E+02  0.00000000000E+00 0. -1.
</event>
<event>
 7    1  0.2935819E-010  0.4778727E+02  0.7816164E-02  0.1312668E+00
        -11   -1    0    0    0    0  0.00000000000E+00  0.00000000000E+00  0.45593999997E+02  0.45594000000E+02  0.51100000000E-03 0.  1.
         11   -1    0    0    0    0 -0.00000000000E+00 -0.00000000000E+00 -0.45593999997E+02  0.45594000000E+02  0.51100000000E-03 0. -1.
    9900012    2    1    2    0    0 -0.22124068695E+02  0.22088757687E+02 -0.30103748024E+02  0.47787271010E+02  0.19999999843E+02 0.  0.
        -12    1    1    2    0    0  0.22124068695E+02 -0.22088757687E+02  0.30103748024E+02  0.43400728990E+02  0.00000000000E+00 0.  1.
         11    1    3    3    0    0 -0.96580484983E+01  0.60047424753E+01 -0.69171739096E+01  0.13310977731E+02  0.51100000000E-03 0. -1.
        -11    1    3    3    0    0 -0.82750399214E+00 -0.29469987802E+01 -0.16893113771E+01  0.34961890477E+01  0.51100000000E-03 0.  1.
        -12    1    3    3    0    0 -0.11638516204E+02  0.19031013992E+02 -0.21497262738E+02  0.30980104232E+02  0.00000000000E+00 0.  1.
</event>
<event>
 7    1  0.2935819E-010  0.4778727E+02  0.7816164E-02  0.1312668E+00
        -11   -1    0    0    0    0  0.00000000000E+00  0.00000000000E+00  0.45593999997E+02  0.45594000000E+02  0.51100000000E-03 0. -1.
         11   -1    0    0    0    0 -0.00000000000E+00 -0.00000000000E+00 -0.45593999997E+02  0.45594000000E+02  0.51100000000E-03 0.  1.
    9900012    2    1    2    0    0  0.97614524185E+01 -0.15494436774E+02  0.39347928666E+02  0.47787274032E+02  0.20000013620E+02 0.  0.
        -12    1    1    2    0    0 -0.97614524185E+01  0.15494436774E+02 -0.39347928666E+02  0.43400725968E+02  0.00000000000E+00 0.  1.
         11    1    3    3    0    0  0.11652614579E+02 -0.51620345006E+01  0.19390832395E+02  0.23204189448E+02  0.51100000000E-03 0. -1.
        -11    1    3    3    0    0 -0.22017171646E+01 -0.11788445299E+02  0.13958862355E+02  0.18402848680E+02  0.51100000000E-03 0.  1.
         12    1    3    3    0    0  0.31055500393E+00  0.14560430262E+01  0.59982339158E+01  0.61802359028E+01  0.00000000000E+00 0. -1.
</event>
<event>
 7    1  0.2935819E-010  0.4778727E+02  0.7816164E-02  0.1312668E+00
        -11   -1    0    0    0    0  0.00000000000E+00  0.00000000000E+00  0.45593999997E+02  0.45594000000E+02  0.51100000000E-03 0.  1.
         11   -1    0    0    0    0 -0.00000000000E+00 -0.00000000000E+00 -0.45593999997E+02  0.45594000000E+02  0.51100000000E-03 0. -1.
    9900012    2    1    2    0    0 -0.37241597530E+02 -0.13806986652E+02 -0.17494395163E+02  0.47787270408E+02  0.19999997098E+02 0.  0.
        -12    1    1    2    0    0  0.37241597530E+02  0.13806986652E+02  0.17494395163E+02  0.43400729592E+02  0.00000000000E+00 0.  1.
         11    1    3    3    0    0 -0.16976168541E+02 -0.10039621059E+02 -0.42015846818E+01  0.20165257337E+02  0.51100000000E-03 0. -1.
        -11    1    3    3    0    0 -0.41266111057E+01 -0.53228148158E+01 -0.12721108535E+00  0.67362793664E+01  0.51100000000E-03 0.  1.
         12    1    3    3    0    0 -0.16138817883E+02  0.15554492227E+01 -0.13165599396E+02  0.20885733705E+02  0.00000000000E+00 0. -1.
</event>
<event>
 7    1  0.2935819E-010  0.4778727E+02  0.7816164E-02  0.1312668E+00
        -11   -1    0    0    0    0  0.00000000000E+00  0.00000000000E+00  0.45593999997E+02  0.45594000000E+02  0.51100000000E-03 0. -1.
         11   -1    0    0    0    0 -0.00000000000E+00 -0.00000000000E+00 -0.45593999997E+02  0.45594000000E+02  0.51100000000E-03 0.  1.
    9900012    2    1    2    0    0 -0.19487974419E+01  0.34583994539E+02  0.26149050270E+02  0.47787270516E+02  0.19999997591E+02 0.  0.
        -12    1    1    2    0    0  0.19487974419E+01 -0.34583994539E+02 -0.26149050270E+02  0.43400729484E+02  0.00000000000E+00 0.  1.
         11    1    3    3    0    0 -0.63592307442E+01  0.11134289514E+02  0.48200457050E+01  0.13698359738E+02  0.51100000000E-03 0.  1.
        -11    1    3    3    0    0  0.32395858983E+01  0.43099397518E+01  0.11135985538E+02  0.12372577404E+02  0.51100000000E-03 0. -1.
        -12    1    3    3    0    0  0.11708474040E+01  0.19139765273E+02  0.10193019027E+02  0.21716333375E+02  0.00000000000E+00 0.  1.
</event>
<event>
 7    1  0.2935819E-010  0.4778727E+02  0.7816164E-02  0.1312668E+00
        -11   -1    0    0    0    0  0.00000000000E+00  0.00000000000E+00  0.45593999997E+02  0.45594000000E+02  0.51100000000E-03 0.  1.
         11   -1    0    0    0    0 -0.00000000000E+00 -0.00000000000E+00 -0.45593999997E+02  0.45594000000E+02  0.51100000000E-03 0. -1.
    9900012    2    1    2    0    0 -0.11342617611E+02 -0.18197851306E+01 -0.41852796835E+02  0.47787271952E+02  0.20000004137E+02 0.  0.
        -12    1    1    2    0    0  0.11342617611E+02  0.18197851306E+01  0.41852796835E+02  0.43400728048E+02  0.00000000000E+00 0.  1.
         11    1    3    3    0    0  0.11627733274E+01  0.31839638573E+01 -0.20233969735E+02  0.20515925501E+02  0.51100000000E-03 0. -1.
        -11    1    3    3    0    0 -0.62245722177E+01  0.10972702989E+01 -0.36907244690E+01  0.73192041076E+01  0.51100000000E-03 0.  1.
         12    1    3    3    0    0 -0.62808187206E+01 -0.61010192867E+01 -0.17928102631E+02  0.19952142344E+02  0.00000000000E+00 0. -1.
</event>
<event>
 7    1  0.2935819E-010  0.4778728E+02  0.7816164E-02  0.1312668E+00
        -11   -1    0    0    0    0  0.00000000000E+00  0.00000000000E+00  0.45593999997E+02  0.45594000000E+02  0.51100000000E-03 0.  1.
         11   -1    0    0    0    0 -0.00000000000E+00 -0.00000000000E+00 -0.45593999997E+02  0.45594000000E+02  0.51100000000E-03 0. -1.
    9900012    2    1    2    0    0 -0.44601130019E+01  0.72273550050E+01 -0.42561664685E+02  0.47787279164E+02  0.20000037019E+02 0.  0.
        -12    1    1    2    0    0  0.44601130019E+01 -0.72273550050E+01  0.42561664685E+02  0.43400720836E+02  0.00000000000E+00 0.  1.
         11    1    3    3    0    0 -0.79424246738E+01  0.82414379093E+01 -0.18179450937E+02  0.21482454356E+02  0.51100000000E-03 0. -1.
        -11    1    3    3    0    0  0.29868684840E+01  0.60238513291E+00 -0.15656608868E+01  0.34257182404E+01  0.51100000000E-03 0.  1.
         12    1    3    3    0    0  0.49544318795E+00 -0.16164680372E+01 -0.22816552861E+02  0.22879106568E+02  0.00000000000E+00 0. -1.
</event>
<event>
 7    1  0.2935819E-010  0.4778727E+02  0.7816164E-02  0.1312668E+00
        -11   -1    0    0    0    0  0.00000000000E+00  0.00000000000E+00  0.45593999997E+02  0.45594000000E+02  0.51100000000E-03 0. -1.
         11   -1    0    0    0    0 -0.00000000000E+00 -0.00000000000E+00 -0.45593999997E+02  0.45594000000E+02  0.51100000000E-03 0.  1.
    9900012    2    1    2    0    0  0.45513654363E+01 -0.13410358447E+02  0.41025243790E+02  0.47787271100E+02  0.20000000252E+02 0.  0.
        -12    1    1    2    0    0 -0.45513654363E+01  0.13410358447E+02 -0.41025243790E+02  0.43400728900E+02  0.00000000000E+00 0.  1.
         11    1    3    3    0    0  0.70343949759E+01 -0.31102447395E+01  0.86084841520E+01  0.11543930642E+02  0.51100000000E-03 0. -1.
        -11    1    3    3    0    0 -0.22637955854E+01 -0.24860471705E+01  0.25752427893E+02  0.25970998126E+02  0.51100000000E-03 0.  1.
        -12    1    3    3    0    0 -0.21923395415E+00 -0.78140665372E+01  0.66643317450E+01  0.10272342332E+02  0.00000000000E+00 0.  1.
</event>
<event>
 7    1  0.2935819E-010  0.4778727E+02  0.7816164E-02  0.1312668E+00
        -11   -1    0    0    0    0  0.00000000000E+00  0.00000000000E+00  0.45593999997E+02  0.45594000000E+02  0.51100000000E-03 0.  1.
         11   -1    0    0    0    0 -0.00000000000E+00 -0.00000000000E+00 -0.45593999997E+02  0.45594000000E+02  0.51100000000E-03 0. -1.
    9900012    2    1    2    0    0 -0.38140600455E+02 -0.16567480801E+02 -0.12427261281E+02  0.47787266756E+02  0.19999980448E+02 0.  0.
        -12    1    1    2    0    0  0.38140600455E+02  0.16567480801E+02  0.12427261281E+02  0.43400733244E+02  0.00000000000E+00 0.  1.
         11    1    3    3    0    0 -0.26596423955E+02 -0.23152063366E+01 -0.93534160879E+01  0.28288095382E+02  0.51100000000E-03 0. -1.
        -11    1    3    3    0    0 -0.75355664354E+00 -0.76784643925E+00  0.12961343268E+01  0.16844584362E+01  0.51100000000E-03 0.  1.
         12    1    3    3    0    0 -0.10790619857E+02 -0.13484428025E+02 -0.43699795201E+01  0.17814712938E+02  0.00000000000E+00 0. -1.
</event>
<event>
 7    1  0.2935819E-010  0.4778727E+02  0.7816164E-02  0.1312668E+00
        -11   -1    0    0    0    0  0.00000000000E+00  0.00000000000E+00  0.45593999997E+02  0.45594000000E+02  0.51100000000E-03 0.  1.
         11   -1    0    0    0    0 -0.00000000000E+00 -0.00000000000E+00 -0.45593999997E+02  0.45594000000E+02  0.51100000000E-03 0. -1.
    9900012    2    1    2    0    0 -0.21819345005E+02  0.26562920783E+00 -0.37516250050E+02  0.47787269671E+02  0.19999993736E+02 0.  0.
        -12    1    1    2    0    0  0.21819345005E+02 -0.26562920783E+00  0.37516250050E+02  0.43400730329E+02  0.00000000000E+00 0.  1.
         11    1    3    3    0    0 -0.15923629496E+02 -0.18190677652E+01 -0.94832276412E+01  0.18622636511E+02  0.51100000000E-03 0. -1.
        -11    1    3    3    0    0 -0.77172607246E+00 -0.12056230688E+01 -0.10652037198E+02  0.10747789765E+02  0.51100000000E-03 0.  1.
         12    1    3    3    0    0 -0.51239894372E+01  0.32903200419E+01 -0.17380985211E+02  0.18416843395E+02  0.00000000000E+00 0. -1.
</event>
<event>
 7    1  0.2935819E-010  0.4778728E+02  0.7816164E-02  0.1312668E+00
        -11   -1    0    0    0    0  0.00000000000E+00  0.00000000000E+00  0.45593999997E+02  0.45594000000E+02  0.51100000000E-03 0. -1.
         11   -1    0    0    0    0 -0.00000000000E+00 -0.00000000000E+00 -0.45593999997E+02  0.45594000000E+02  0.51100000000E-03 0.  1.
    9900012    2    1    2    0    0 -0.39297058883E+02  0.15794469717E+02  0.94814899586E+01  0.47787276938E+02  0.20000026871E+02 0.  0.
        -12    1    1    2    0    0  0.39297058883E+02 -0.15794469717E+02 -0.94814899586E+01  0.43400723062E+02  0.00000000000E+00 0.  1.
         11    1    3    3    0    0 -0.27944380022E+02  0.90950039104E+01  0.14042005129E+02  0.32569700325E+02  0.51100000000E-03 0. -1.
        -11    1    3    3    0    0 -0.38031505590E+01  0.25031706894E+01 -0.47478918448E+01  0.65781680509E+01  0.51100000000E-03 0.  1.
         12    1    3    3    0    0 -0.75495283014E+01  0.41962951174E+01  0.18737667453E+00  0.86394085622E+01  0.00000000000E+00 0. -1.
</event>
<event>
 7    1  0.2935819E-010  0.4778725E+02  0.7816164E-02  0.1312668E+00
        -11   -1    0    0    0    0  0.00000000000E+00  0.00000000000E+00  0.45593999997E+02  0.45594000000E+02  0.51100000000E-03 0. -1.
         11   -1    0    0    0    0 -0.00000000000E+00 -0.00000000000E+00 -0.45593999997E+02  0.45594000000E+02  0.51100000000E-03 0.  1.
    9900012    2    1    2    0    0  0.38667482965E+01  0.24191928566E+02  0.35824901036E+02  0.47787254794E+02  0.19999925910E+02 0.  0.
        -12    1    1    2    0    0 -0.38667482965E+01 -0.24191928566E+02 -0.35824901036E+02  0.43400745206E+02  0.00000000000E+00 0.  1.
         11    1    3    3    0    0  0.80851756406E+01  0.60046151469E+01  0.89532998913E+01  0.13475423830E+02  0.51100000000E-03 0. -1.
        -11    1    3    3    0    0 -0.47778932544E+01  0.27217031796E+01  0.44800557754E+01  0.70927309381E+01  0.51100000000E-03 0.  1.
         12    1    3    3    0    0  0.55946591022E+00  0.15465610239E+02  0.22391545370E+02  0.27219100026E+02  0.00000000000E+00 0. -1.
</event>
<event>
 7    1  0.2935819E-010  0.4778727E+02  0.7816164E-02  0.1312668E+00
        -11   -1    0    0    0    0  0.00000000000E+00  0.00000000000E+00  0.45593999997E+02  0.45594000000E+02  0.51100000000E-03 0.  1.
         11   -1    0    0    0    0 -0.00000000000E+00 -0.00000000000E+00 -0.45593999997E+02  0.45594000000E+02  0.51100000000E-03 0. -1.
    9900012    2    1    2    0    0  0.24241276141E+02  0.26561753622E+02 -0.24299320494E+02  0.47787271885E+02  0.20000003834E+02 0.  0.
        -12    1    1    2    0    0 -0.24241276141E+02 -0.26561753622E+02  0.24299320494E+02  0.43400728115E+02  0.00000000000E+00 0.  1.
         11    1    3    3    0    0  0.14076704883E+02  0.16183175821E+02 -0.11797662575E+02  0.24479249223E+02  0.51100000000E-03 0. -1.
        -11    1    3    3    0    0  0.52145966591E+01  0.24227470947E+01 -0.12694509127E+02  0.13936006746E+02  0.51100000000E-03 0.  1.
        -12    1    3    3    0    0  0.49499745987E+01  0.79558307059E+01  0.19285120738E+00  0.93720159164E+01  0.00000000000E+00 0.  1.
</event>
<event>
 7    1  0.2935819E-010  0.4778726E+02  0.7816164E-02  0.1312668E+00
        -11   -1    0    0    0    0  0.00000000000E+00  0.00000000000E+00  0.45593999997E+02  0.45594000000E+02  0.51100000000E-03 0.  1.
         11   -1    0    0    0    0 -0.00000000000E+00 -0.00000000000E+00 -0.45593999997E+02  0.45594000000E+02  0.51100000000E-03 0. -1.
    9900012    2    1    2    0    0 -0.29477143638E+02 -0.29525370476E+02  0.11957213100E+02  0.47787257565E+02  0.19999938542E+02 0.  0.
        -12    1    1    2    0    0  0.29477143638E+02  0.29525370476E+02 -0.11957213100E+02  0.43400742435E+02  0.00000000000E+00 0.  1.
         11    1    3    3    0    0 -0.17474011735E+01 -0.13695446602E+01 -0.18523389965E+01  0.28914051007E+01  0.51100000000E-03 0. -1.
        -11    1    3    3    0    0 -0.50453148666E+01 -0.16387873764E+02  0.61691010763E+01  0.18222936562E+02  0.51100000000E-03 0.  1.
        -12    1    3    3    0    0 -0.22684427598E+02 -0.11767952052E+02  0.76404510198E+01  0.26672915902E+02  0.00000000000E+00 0.  1.
</event>
<event>
 7    1  0.2935819E-010  0.4778727E+02  0.7816164E-02  0.1312668E+00
        -11   -1    0    0    0    0  0.00000000000E+00  0.00000000000E+00  0.45593999997E+02  0.45594000000E+02  0.51100000000E-03 0.  1.
         11   -1    0    0    0    0 -0.00000000000E+00 -0.00000000000E+00 -0.45593999997E+02  0.45594000000E+02  0.51100000000E-03 0. -1.
    9900012    2    1    2    0    0  0.24238576523E+02 -0.31885454738E+02  0.16716244160E+02  0.47787266889E+02  0.19999981054E+02 0.  0.
        -12    1    1    2    0    0 -0.24238576523E+02  0.31885454738E+02 -0.16716244160E+02  0.43400733111E+02  0.00000000000E+00 0.  1.
         11    1    3    3    0    0  0.19463242542E+02 -0.23436294719E+02  0.83188797013E+01  0.31579763776E+02  0.51100000000E-03 0. -1.
        -11    1    3    3    0    0 -0.49849159726E+00 -0.68549592317E+01  0.81931135334E+01  0.10694207291E+02  0.51100000000E-03 0.  1.
         12    1    3    3    0    0  0.52738255786E+01 -0.15942007875E+01  0.20425092526E+00  0.55132958224E+01  0.00000000000E+00 0. -1.
</event>
<event>
 7    1  0.2935819E-010  0.4778727E+02  0.7816164E-02  0.1312668E+00
        -11   -1    0    0    0    0  0.00000000000E+00  0.00000000000E+00  0.45593999997E+02  0.45594000000E+02  0.51100000000E-03 0.  1.
         11   -1    0    0    0    0 -0.00000000000E+00 -0.00000000000E+00 -0.45593999997E+02  0.45594000000E+02  0.51100000000E-03 0. -1.
    9900012    2    1    2    0    0 -0.67479209538E+01  0.42824918739E+02 -0.20286701290E+01  0.47787267233E+02  0.19999982624E+02 0.  0.
        -12    1    1    2    0    0  0.67479209538E+01 -0.42824918739E+02  0.20286701290E+01  0.43400732767E+02  0.00000000000E+00 0.  1.
         11    1    3    3    0    0 -0.36975689011E+01  0.49140339985E+01 -0.21729575361E+01  0.65223838151E+01  0.51100000000E-03 0. -1.
        -11    1    3    3    0    0 -0.48651608780E+00  0.70696458387E+01  0.65629770213E+01  0.96586364375E+01  0.51100000000E-03 0.  1.
        -12    1    3    3    0    0 -0.25638359648E+01  0.30841238902E+02 -0.64186896142E+01  0.31606246981E+02  0.00000000000E+00 0.  1.
</event>
<event>
 7    1  0.2935819E-010  0.4778726E+02  0.7816164E-02  0.1312668E+00
        -11   -1    0    0    0    0  0.00000000000E+00  0.00000000000E+00  0.45593999997E+02  0.45594000000E+02  0.51100000000E-03 0.  1.
         11   -1    0    0    0    0 -0.00000000000E+00 -0.00000000000E+00 -0.45593999997E+02  0.45594000000E+02  0.51100000000E-03 0. -1.
    9900012    2    1    2    0    0 -0.37529068798E+01  0.14104571985E+02 -0.40872981031E+02  0.47787264530E+02  0.19999970300E+02 0.  0.
        -12    1    1    2    0    0  0.37529068798E+01 -0.14104571985E+02  0.40872981031E+02  0.43400735470E+02  0.00000000000E+00 0.  1.
         11    1    3    3    0    0 -0.28718216804E+01  0.17316787086E+02 -0.34342588002E+02  0.38568534140E+02  0.51100000000E-03 0. -1.
        -11    1    3    3    0    0  0.22589385199E+01 -0.23087047177E+01 -0.29986585962E+01  0.44073659194E+01  0.51100000000E-03 0.  1.
        -12    1    3    3    0    0 -0.31400237193E+01 -0.90351038364E+00 -0.35317344327E+01  0.48113644711E+01  0.00000000000E+00 0.  1.
</event>
<event>
 7    1  0.2935819E-010  0.4778727E+02  0.7816164E-02  0.1312668E+00
        -11   -1    0    0    0    0  0.00000000000E+00  0.00000000000E+00  0.45593999997E+02  0.45594000000E+02  0.51100000000E-03 0.  1.
         11   -1    0    0    0    0 -0.00000000000E+00 -0.00000000000E+00 -0.45593999997E+02  0.45594000000E+02  0.51100000000E-03 0. -1.
    9900012    2    1    2    0    0 -0.12151793524E+02  0.36920973917E+02 -0.19308004589E+02  0.47787269107E+02  0.19999991165E+02 0.  0.
        -12    1    1    2    0    0  0.12151793524E+02 -0.36920973917E+02  0.19308004589E+02  0.43400730893E+02  0.00000000000E+00 0.  1.
         11    1    3    3    0    0  0.20271774307E+01  0.12024300914E+02 -0.32781835075E+01  0.12626945323E+02  0.51100000000E-03 0. -1.
        -11    1    3    3    0    0 -0.16558664715E+02  0.21312263063E+02 -0.13677976686E+02  0.30257048443E+02  0.51100000000E-03 0.  1.
        -12    1    3    3    0    0  0.23796937595E+01  0.35844099399E+01 -0.23518443957E+01  0.49032753408E+01  0.00000000000E+00 0.  1.
</event>
<event>
 7    1  0.2935819E-010  0.4778727E+02  0.7816164E-02  0.1312668E+00
        -11   -1    0    0    0    0  0.00000000000E+00  0.00000000000E+00  0.45593999997E+02  0.45594000000E+02  0.51100000000E-03 0.  1.
         11   -1    0    0    0    0 -0.00000000000E+00 -0.00000000000E+00 -0.45593999997E+02  0.45594000000E+02  0.51100000000E-03 0. -1.
    9900012    2    1    2    0    0  0.23510966417E+02  0.10810453927E+00 -0.36480762071E+02  0.47787271553E+02  0.20000002321E+02 0.  0.
        -12    1    1    2    0    0 -0.23510966417E+02 -0.10810453927E+00  0.36480762071E+02  0.43400728447E+02  0.00000000000E+00 0.  1.
         11    1    3    3    0    0  0.85782729145E+01  0.76850386895E+01 -0.82548819377E+01  0.14170026885E+02  0.51100000000E-03 0.  1.
        -11    1    3    3    0    0  0.51302585923E+01 -0.58712555590E+01 -0.16425053788E+02  0.18181682740E+02  0.51100000000E-03 0. -1.
         12    1    3    3    0    0  0.98024349099E+01 -0.17056785912E+01 -0.11800826345E+02  0.15435561929E+02  0.00000000000E+00 0. -1.
</event>
<event>
 7    1  0.2935819E-010  0.4778727E+02  0.7816164E-02  0.1312668E+00
        -11   -1    0    0    0    0  0.00000000000E+00  0.00000000000E+00  0.45593999997E+02  0.45594000000E+02  0.51100000000E-03 0. -1.
         11   -1    0    0    0    0 -0.00000000000E+00 -0.00000000000E+00 -0.45593999997E+02  0.45594000000E+02  0.51100000000E-03 0.  1.
    9900012    2    1    2    0    0 -0.31999987397E+02  0.69582178447E+01  0.28481696970E+02  0.47787273609E+02  0.20000011691E+02 0.  0.
        -12    1    1    2    0    0  0.31999987397E+02 -0.69582178447E+01 -0.28481696970E+02  0.43400726391E+02  0.00000000000E+00 0.  1.
         11    1    3    3    0    0 -0.38257046883E+01  0.59946625680E+01  0.13277392356E+02  0.15061910360E+02  0.51100000000E-03 0. -1.
        -11    1    3    3    0    0 -0.13705811748E+02 -0.20422819218E+01  0.48497408107E+01  0.14681286636E+02  0.51100000000E-03 0.  1.
        -12    1    3    3    0    0 -0.14468470961E+02  0.30058371985E+01  0.10354563804E+02  0.18044076612E+02  0.00000000000E+00 0.  1.
</event>
<event>
 7    1  0.2935819E-010  0.4778727E+02  0.7816164E-02  0.1312668E+00
        -11   -1    0    0    0    0  0.00000000000E+00  0.00000000000E+00  0.45593999997E+02  0.45594000000E+02  0.51100000000E-03 0. -1.
         11   -1    0    0    0    0 -0.00000000000E+00 -0.00000000000E+00 -0.45593999997E+02  0.45594000000E+02  0.51100000000E-03 0.  1.
    9900012    2    1    2    0    0 -0.48671340752E+00  0.12797036356E+02  0.41468328574E+02  0.47787270695E+02  0.19999998409E+02 0.  0.
        -12    1    1    2    0    0  0.48671340752E+00 -0.12797036356E+02 -0.41468328574E+02  0.43400729305E+02  0.00000000000E+00 0.  1.
         11    1    3    3    0    0  0.13993028271E+01 -0.17046433512E+01  0.19187528650E+02  0.19313858064E+02  0.51100000000E-03 0.  1.
        -11    1    3    3    0    0 -0.16186612779E+01  0.18660984190E+01  0.11796541263E+02  0.12052417752E+02  0.51100000000E-03 0. -1.
         12    1    3    3    0    0 -0.26735495675E+00  0.12635581288E+02  0.10484258661E+02  0.16420994879E+02  0.00000000000E+00 0. -1.
</event>
<event>
 7    1  0.2935819E-010  0.4778727E+02  0.7816164E-02  0.1312668E+00
        -11   -1    0    0    0    0  0.00000000000E+00  0.00000000000E+00  0.45593999997E+02  0.45594000000E+02  0.51100000000E-03 0. -1.
         11   -1    0    0    0    0 -0.00000000000E+00 -0.00000000000E+00 -0.45593999997E+02  0.45594000000E+02  0.51100000000E-03 0.  1.
    9900012    2    1    2    0    0  0.90304132985E+01 -0.32373021698E+02  0.27460197440E+02  0.47787270264E+02  0.19999996440E+02 0.  0.
        -12    1    1    2    0    0 -0.90304132985E+01  0.32373021698E+02 -0.27460197440E+02  0.43400729736E+02  0.00000000000E+00 0.  1.
         11    1    3    3    0    0  0.60310567214E+00 -0.52635603305E+01  0.48357877604E+01  0.71731197766E+01  0.51100000000E-03 0.  1.
        -11    1    3    3    0    0 -0.46059246690E+00 -0.21276613967E+02  0.20929784898E+02  0.29848992336E+02  0.51100000000E-03 0. -1.
        -12    1    3    3    0    0  0.88879000933E+01 -0.58328474007E+01  0.16946247813E+01  0.10765158151E+02  0.00000000000E+00 0.  1.
</event>
<event>
 7    1  0.2935819E-010  0.4778727E+02  0.7816164E-02  0.1312668E+00
        -11   -1    0    0    0    0  0.00000000000E+00  0.00000000000E+00  0.45593999997E+02  0.45594000000E+02  0.51100000000E-03 0.  1.
         11   -1    0    0    0    0 -0.00000000000E+00 -0.00000000000E+00 -0.45593999997E+02  0.45594000000E+02  0.51100000000E-03 0. -1.
    9900012    2    1    2    0    0 -0.10983111048E+02 -0.11205978636E+00 -0.41987880163E+02  0.47787269980E+02  0.19999995145E+02 0.  0.
        -12    1    1    2    0    0  0.10983111048E+02  0.11205978636E+00  0.41987880163E+02  0.43400730020E+02  0.00000000000E+00 0.  1.
         11    1    3    3    0    0 -0.67311921337E+01 -0.46815581164E+01 -0.16567332372E+02  0.18485195052E+02  0.51100000000E-03 0. -1.
        -11    1    3    3    0    0  0.22921597960E+01  0.62484909163E+01 -0.18363519545E+02  0.19532446994E+02  0.51100000000E-03 0.  1.
        -12    1    3    3    0    0 -0.65440787106E+01 -0.16789925863E+01 -0.70570282469E+01  0.97696279332E+01  0.00000000000E+00 0.  1.
</event>
<event>
 7    1  0.2935819E-010  0.4778727E+02  0.7816164E-02  0.1312668E+00
        -11   -1    0    0    0    0  0.00000000000E+00  0.00000000000E+00  0.45593999997E+02  0.45594000000E+02  0.51100000000E-03 0.  1.
         11   -1    0    0    0    0 -0.00000000000E+00 -0.00000000000E+00 -0.45593999997E+02  0.45594000000E+02  0.51100000000E-03 0. -1.
    9900012    2    1    2    0    0 -0.20214004199E+02  0.21962629294E+02 -0.31506508845E+02  0.47787272461E+02  0.20000006460E+02 0.  0.
        -12    1    1    2    0    0  0.20214004199E+02 -0.21962629294E+02  0.31506508845E+02  0.43400727539E+02  0.00000000000E+00 0.  1.
         11    1    3    3    0    0 -0.59763131552E+01  0.17734886854E+02 -0.17938721808E+02  0.25923739526E+02  0.51100000000E-03 0. -1.
        -11    1    3    3    0    0 -0.48830776320E+01 -0.13412458014E+01 -0.87085230718E+00  0.51382654138E+01  0.51100000000E-03 0.  1.
         12    1    3    3    0    0 -0.93546134114E+01  0.55689882415E+01 -0.12696934731E+02  0.16725267521E+02  0.00000000000E+00 0. -1.
</event>
<event>
 7    1  0.2935819E-010  0.4778727E+02  0.7816164E-02  0.1312668E+00
        -11   -1    0    0    0    0  0.00000000000E+00  0.00000000000E+00  0.45593999997E+02  0.45594000000E+02  0.51100000000E-03 0. -1.
         11   -1    0    0    0    0 -0.00000000000E+00 -0.00000000000E+00 -0.45593999997E+02  0.45594000000E+02  0.51100000000E-03 0.  1.
    9900012    2    1    2    0    0 -0.32952874838E+02  0.27503021118E+02  0.64276849502E+01  0.47787271152E+02  0.20000000491E+02 0.  0.
        -12    1    1    2    0    0  0.32952874838E+02 -0.27503021118E+02 -0.64276849502E+01  0.43400728848E+02  0.00000000000E+00 0.  1.
         11    1    3    3    0    0 -0.48353679691E+01  0.54483123929E+00  0.50082512968E+00  0.48916715494E+01  0.51100000000E-03 0. -1.
        -11    1    3    3    0    0 -0.14763864348E+01  0.16566867499E+01  0.57399061051E+01  0.61539296590E+01  0.51100000000E-03 0.  1.
        -12    1    3    3    0    0 -0.26641120434E+02  0.25301503129E+02  0.18695371545E+00  0.36741669944E+02  0.00000000000E+00 0.  1.
</event>
<event>
 7    1  0.2935819E-010  0.4778727E+02  0.7816164E-02  0.1312668E+00
        -11   -1    0    0    0    0  0.00000000000E+00  0.00000000000E+00  0.45593999997E+02  0.45594000000E+02  0.51100000000E-03 0.  1.
         11   -1    0    0    0    0 -0.00000000000E+00 -0.00000000000E+00 -0.45593999997E+02  0.45594000000E+02  0.51100000000E-03 0. -1.
    9900012    2    1    2    0    0 -0.25086776653E+02  0.19776422186E+02 -0.29379755897E+02  0.47787270814E+02  0.19999998949E+02 0.  0.
        -12    1    1    2    0    0  0.25086776653E+02 -0.19776422186E+02  0.29379755897E+02  0.43400729186E+02  0.00000000000E+00 0.  1.
         11    1    3    3    0    0 -0.12803566812E+02  0.16917546130E+02 -0.18021829838E+02  0.27837403635E+02  0.51100000000E-03 0. -1.
        -11    1    3    3    0    0 -0.93279241105E+00  0.42332241189E+01 -0.57899396673E+01  0.72328203168E+01  0.51100000000E-03 0.  1.
         12    1    3    3    0    0 -0.11350417430E+02 -0.13743480626E+01 -0.55679863916E+01  0.12717046862E+02  0.00000000000E+00 0. -1.
</event>
<event>
 7    1  0.2935819E-010  0.4778727E+02  0.7816164E-02  0.1312668E+00
        -11   -1    0    0    0    0  0.00000000000E+00  0.00000000000E+00  0.45593999997E+02  0.45594000000E+02  0.51100000000E-03 0. -1.
         11   -1    0    0    0    0 -0.00000000000E+00 -0.00000000000E+00 -0.45593999997E+02  0.45594000000E+02  0.51100000000E-03 0.  1.
    9900012    2    1    2    0    0 -0.18344268245E+02  0.28077472418E+02  0.27545722480E+02  0.47787268880E+02  0.19999990132E+02 0.  0.
        -12    1    1    2    0    0  0.18344268245E+02 -0.28077472418E+02 -0.27545722480E+02  0.43400731120E+02  0.00000000000E+00 0.  1.
         11    1    3    3    0    0 -0.47511444643E+01  0.64200220338E+01  0.43926144341E+01  0.91151038646E+01  0.51100000000E-03 0. -1.
        -11    1    3    3    0    0 -0.16619788614E+02  0.15654457918E+02  0.12375956508E+02  0.25970054409E+02  0.51100000000E-03 0.  1.
        -12    1    3    3    0    0  0.30266648340E+01  0.60029924659E+01  0.10777151539E+02  0.12702110606E+02  0.00000000000E+00 0.  1.
</event>
<event>
 7    1  0.2935819E-010  0.4778727E+02  0.7816164E-02  0.1312668E+00
        -11   -1    0    0    0    0  0.00000000000E+00  0.00000000000E+00  0.45593999997E+02  0.45594000000E+02  0.51100000000E-03 0. -1.
         11   -1    0    0    0    0 -0.00000000000E+00 -0.00000000000E+00 -0.45593999997E+02  0.45594000000E+02  0.51100000000E-03 0.  1.
    9900012    2    1    2    0    0 -0.40190111361E+02  0.16378070876E+02 -0.37069661031E+00  0.47787266448E+02  0.19999979045E+02 0.  0.
        -12    1    1    2    0    0  0.40190111361E+02 -0.16378070876E+02  0.37069661031E+00  0.43400733552E+02  0.00000000000E+00 0.  1.
         11    1    3    3    0    0 -0.14970652467E+02  0.10285114440E+02 -0.70729517120E+01  0.19491810088E+02  0.51100000000E-03 0. -1.
        -11    1    3    3    0    0 -0.12582340678E+02  0.19742715073E+01 -0.12652133180E+01  0.12798976910E+02  0.51100000000E-03 0.  1.
         12    1    3    3    0    0 -0.12637118216E+02  0.41186849281E+01  0.79674684198E+01  0.15496479451E+02  0.00000000000E+00 0. -1.
</event>
<event>
 7    1  0.2935819E-010  0.4778727E+02  0.7816164E-02  0.1312668E+00
        -11   -1    0    0    0    0  0.00000000000E+00  0.00000000000E+00  0.45593999997E+02  0.45594000000E+02  0.51100000000E-03 0. -1.
         11   -1    0    0    0    0 -0.00000000000E+00 -0.00000000000E+00 -0.45593999997E+02  0.45594000000E+02  0.51100000000E-03 0.  1.
    9900012    2    1    2    0    0 -0.21118707467E+02  0.31574952789E+02  0.20991564903E+02  0.47787271368E+02  0.20000001477E+02 0.  0.
        -12    1    1    2    0    0  0.21118707467E+02 -0.31574952789E+02 -0.20991564903E+02  0.43400728632E+02  0.00000000000E+00 0.  1.
         11    1    3    3    0    0 -0.95052505949E+00  0.19169408769E+01 -0.30244892914E+01  0.37048206366E+01  0.51100000000E-03 0.  1.
        -11    1    3    3    0    0 -0.10366435356E+02  0.80252509906E+01  0.10162935942E+02  0.16587733500E+02  0.51100000000E-03 0. -1.
         12    1    3    3    0    0 -0.98017470513E+01  0.21632760921E+02  0.13853118253E+02  0.27494717232E+02  0.00000000000E+00 0. -1.
</event>
<event>
 7    1  0.2935819E-010  0.4778727E+02  0.7816164E-02  0.1312668E+00
        -11   -1    0    0    0    0  0.00000000000E+00  0.00000000000E+00  0.45593999997E+02  0.45594000000E+02  0.51100000000E-03 0. -1.
         11   -1    0    0    0    0 -0.00000000000E+00 -0.00000000000E+00 -0.45593999997E+02  0.45594000000E+02  0.51100000000E-03 0.  1.
    9900012    2    1    2    0    0  0.12080342975E+02 -0.52224487073E+01  0.41357159087E+02  0.47787271151E+02  0.20000000484E+02 0.  0.
        -12    1    1    2    0    0 -0.12080342975E+02  0.52224487073E+01 -0.41357159087E+02  0.43400728849E+02  0.00000000000E+00 0.  1.
         11    1    3    3    0    0  0.77407728526E+01  0.20775436729E+01  0.30296598181E+02  0.31338787687E+02  0.51100000000E-03 0. -1.
        -11    1    3    3    0    0 -0.15482152225E+01 -0.57325415824E+01  0.67202379812E+01  0.89677534619E+01  0.51100000000E-03 0.  1.
         12    1    3    3    0    0  0.58877853446E+01 -0.15674507977E+01  0.43403229252E+01  0.74807300019E+01  0.00000000000E+00 0. -1.
</event>
<event>
 7    1  0.2935819E-010  0.4778727E+02  0.7816164E-02  0.1312668E+00
        -11   -1    0    0    0    0  0.00000000000E+00  0.00000000000E+00  0.45593999997E+02  0.45594000000E+02  0.51100000000E-03 0. -1.
         11   -1    0    0    0    0 -0.00000000000E+00 -0.00000000000E+00 -0.45593999997E+02  0.45594000000E+02  0.51100000000E-03 0.  1.
    9900012    2    1    2    0    0 -0.18210559259E+02  0.22211011308E+02  0.32537209428E+02  0.47787268563E+02  0.19999988687E+02 0.  0.
        -12    1    1    2    0    0  0.18210559259E+02 -0.22211011308E+02 -0.32537209428E+02  0.43400731437E+02  0.00000000000E+00 0.  1.
         11    1    3    3    0    0 -0.20025324413E+02  0.16391674077E+02  0.18664456847E+02  0.31907092418E+02  0.51100000000E-03 0. -1.
        -11    1    3    3    0    0  0.19806495938E+01  0.47252429038E+01  0.58290713499E+01  0.77607323351E+01  0.51100000000E-03 0.  1.
         12    1    3    3    0    0 -0.16588444058E+00  0.10940943270E+01  0.80436812310E+01  0.81194438104E+01  0.00000000000E+00 0. -1.
</event>
<event>
 7    1  0.2935819E-010  0.4778727E+02  0.7816164E-02  0.1312668E+00
        -11   -1    0    0    0    0  0.00000000000E+00  0.00000000000E+00  0.45593999997E+02  0.45594000000E+02  0.51100000000E-03 0.  1.
         11   -1    0    0    0    0 -0.00000000000E+00 -0.00000000000E+00 -0.45593999997E+02  0.45594000000E+02  0.51100000000E-03 0. -1.
    9900012    2    1    2    0    0 -0.39227189014E+02  0.18112750069E+02 -0.40962391541E+01  0.47787271340E+02  0.20000001349E+02 0.  0.
        -12    1    1    2    0    0  0.39227189014E+02 -0.18112750069E+02  0.40962391541E+01  0.43400728660E+02  0.00000000000E+00 0.  1.
         11    1    3    3    0    0 -0.30033245639E+02  0.12380216364E+02 -0.34780218402E+01  0.32670510204E+02  0.51100000000E-03 0. -1.
        -11    1    3    3    0    0  0.10247674984E+01  0.31288716061E+01 -0.28306770364E+01  0.43419717524E+01  0.51100000000E-03 0.  1.
         12    1    3    3    0    0 -0.10218710874E+02  0.26036620992E+01  0.22124597225E+01  0.10774789384E+02  0.00000000000E+00 0. -1.
</event>
<event>
 7    1  0.2935819E-010  0.4778727E+02  0.7816164E-02  0.1312668E+00
        -11   -1    0    0    0    0  0.00000000000E+00  0.00000000000E+00  0.45593999997E+02  0.45594000000E+02  0.51100000000E-03 0.  1.
         11   -1    0    0    0    0 -0.00000000000E+00 -0.00000000000E+00 -0.45593999997E+02  0.45594000000E+02  0.51100000000E-03 0. -1.
    9900012    2    1    2    0    0  0.35349101399E+02  0.24577276324E+02 -0.54792138489E+01  0.47787271140E+02  0.20000000434E+02 0.  0.
        -12    1    1    2    0    0 -0.35349101399E+02 -0.24577276324E+02  0.54792138489E+01  0.43400728860E+02  0.00000000000E+00 0.  1.
         11    1    3    3    0    0  0.11304750995E+02  0.73109077390E+01 -0.14780992548E+01  0.13543690217E+02  0.51100000000E-03 0. -1.
        -11    1    3    3    0    0  0.25238675060E+02  0.11125268611E+02 -0.45843153726E+01  0.27960298070E+02  0.51100000000E-03 0.  1.
        -12    1    3    3    0    0 -0.11943246555E+01  0.61410999736E+01  0.58320077851E+00  0.62832828535E+01  0.00000000000E+00 0.  1.
</event>
<event>
 7    1  0.2935819E-010  0.4778727E+02  0.7816164E-02  0.1312668E+00
        -11   -1    0    0    0    0  0.00000000000E+00  0.00000000000E+00  0.45593999997E+02  0.45594000000E+02  0.51100000000E-03 0.  1.
         11   -1    0    0    0    0 -0.00000000000E+00 -0.00000000000E+00 -0.45593999997E+02  0.45594000000E+02  0.51100000000E-03 0. -1.
    9900012    2    1    2    0    0 -0.35892778267E+02  0.24323136108E+02 -0.19279585179E+01  0.47787268371E+02  0.19999987812E+02 0.  0.
        -12    1    1    2    0    0  0.35892778267E+02 -0.24323136108E+02  0.19279585179E+01  0.43400731629E+02  0.00000000000E+00 0.  1.
         11    1    3    3    0    0 -0.14650736076E+02  0.13660740915E+02 -0.16092677291E+01  0.20096010868E+02  0.51100000000E-03 0. -1.
        -11    1    3    3    0    0 -0.14537867608E+02 -0.43035627246E+00 -0.17588558394E+01  0.14650200518E+02  0.51100000000E-03 0.  1.
        -12    1    3    3    0    0 -0.67041745833E+01  0.11092751465E+02  0.14401650505E+01  0.13041056985E+02  0.00000000000E+00 0.  1.
</event>
<event>
 7    1  0.2935819E-010  0.4778726E+02  0.7816164E-02  0.1312668E+00
        -11   -1    0    0    0    0  0.00000000000E+00  0.00000000000E+00  0.45593999997E+02  0.45594000000E+02  0.51100000000E-03 0. -1.
         11   -1    0    0    0    0 -0.00000000000E+00 -0.00000000000E+00 -0.45593999997E+02  0.45594000000E+02  0.51100000000E-03 0.  1.
    9900012    2    1    2    0    0 -0.45179083311E+00  0.14199820437E+02  0.41009570825E+02  0.47787263663E+02  0.19999966343E+02 0.  0.
        -12    1    1    2    0    0  0.45179083311E+00 -0.14199820437E+02 -0.41009570825E+02  0.43400736337E+02  0.00000000000E+00 0.  1.
         11    1    3    3    0    0  0.56615624717E+01 -0.22126745631E+01  0.15213352602E+02  0.16382774978E+02  0.51100000000E-03 0. -1.
        -11    1    3    3    0    0 -0.37104225904E+01  0.54341383768E+01  0.80219933598E+01  0.10375426421E+02  0.51100000000E-03 0.  1.
         12    1    3    3    0    0 -0.24029307145E+01  0.10978356624E+02  0.17774224863E+02  0.21029062263E+02  0.00000000000E+00 0. -1.
</event>
<event>
 7    1  0.2935819E-010  0.4778727E+02  0.7816164E-02  0.1312668E+00
        -11   -1    0    0    0    0  0.00000000000E+00  0.00000000000E+00  0.45593999997E+02  0.45594000000E+02  0.51100000000E-03 0.  1.
         11   -1    0    0    0    0 -0.00000000000E+00 -0.00000000000E+00 -0.45593999997E+02  0.45594000000E+02  0.51100000000E-03 0. -1.
    9900012    2    1    2    0    0 -0.35418400097E+02  0.14256034699E+02  0.20637966925E+02  0.47787271094E+02  0.20000000227E+02 0.  0.
        -12    1    1    2    0    0  0.35418400097E+02 -0.14256034699E+02 -0.20637966925E+02  0.43400728906E+02  0.00000000000E+00 0.  1.
         11    1    3    3    0    0 -0.92541376262E+01  0.19140377166E+01  0.15146221217E+02  0.17852468205E+02  0.51100000000E-03 0.  1.
        -11    1    3    3    0    0 -0.14431665072E+02  0.97214465320E+01  0.35047141381E+01  0.17750000025E+02  0.51100000000E-03 0. -1.
        -12    1    3    3    0    0 -0.11732597399E+02  0.26205504504E+01  0.19870315690E+01  0.12184802865E+02  0.00000000000E+00 0.  1.
</event>
<event>
 7    1  0.2935819E-010  0.4778727E+02  0.7816164E-02  0.1312668E+00
        -11   -1    0    0    0    0  0.00000000000E+00  0.00000000000E+00  0.45593999997E+02  0.45594000000E+02  0.51100000000E-03 0.  1.
         11   -1    0    0    0    0 -0.00000000000E+00 -0.00000000000E+00 -0.45593999997E+02  0.45594000000E+02  0.51100000000E-03 0. -1.
    9900012    2    1    2    0    0 -0.11642800733E+02 -0.31100365948E+02 -0.27943438357E+02  0.47787270533E+02  0.19999997670E+02 0.  0.
        -12    1    1    2    0    0  0.11642800733E+02  0.31100365948E+02  0.27943438357E+02  0.43400729467E+02  0.00000000000E+00 0.  1.
         11    1    3    3    0    0 -0.74652180229E+01 -0.31698224295E+02 -0.19186871852E+02  0.37797393499E+02  0.51100000000E-03 0. -1.
        -11    1    3    3    0    0 -0.56542091284E+00  0.99349972912E+00 -0.26131428688E+01  0.28522374435E+01  0.51100000000E-03 0.  1.
         12    1    3    3    0    0 -0.36121617977E+01 -0.39564138211E+00 -0.61434236359E+01  0.71376395906E+01  0.00000000000E+00 0. -1.
</event>
<event>
 7    1  0.2935819E-010  0.4778731E+02  0.7816164E-02  0.1312668E+00
        -11   -1    0    0    0    0  0.00000000000E+00  0.00000000000E+00  0.45593999997E+02  0.45594000000E+02  0.51100000000E-03 0.  1.
         11   -1    0    0    0    0 -0.00000000000E+00 -0.00000000000E+00 -0.45593999997E+02  0.45594000000E+02  0.51100000000E-03 0. -1.
    9900012    2    1    2    0    0  0.23228962657E+02  0.21997582402E+02 -0.29328163548E+02  0.47787314351E+02  0.20000197452E+02 0.  0.
        -12    1    1    2    0    0 -0.23228962657E+02 -0.21997582402E+02  0.29328163548E+02  0.43400685649E+02  0.00000000000E+00 0.  1.
         11    1    3    3    0    0  0.82071173623E+01  0.70129789951E+01 -0.13833401969E+02  0.17547126833E+02  0.51100000000E-03 0. -1.
        -11    1    3    3    0    0  0.27233080608E+01  0.59927686219E+01  0.21533112608E+01  0.69257802591E+01  0.51100000000E-03 0.  1.
        -12    1    3    3    0    0  0.12298537234E+02  0.89918347851E+01 -0.17648072840E+02  0.23314407260E+02  0.00000000000E+00 0.  1.
</event>
<event>
 7    1  0.2935819E-010  0.4778728E+02  0.7816164E-02  0.1312668E+00
        -11   -1    0    0    0    0  0.00000000000E+00  0.00000000000E+00  0.45593999997E+02  0.45594000000E+02  0.51100000000E-03 0. -1.
         11   -1    0    0    0    0 -0.00000000000E+00 -0.00000000000E+00 -0.45593999997E+02  0.45594000000E+02  0.51100000000E-03 0.  1.
    9900012    2    1    2    0    0 -0.35153583168E+02 -0.12859243862E+02  0.21965610432E+02  0.47787278763E+02  0.20000035191E+02 0.  0.
        -12    1    1    2    0    0  0.35153583168E+02  0.12859243862E+02 -0.21965610432E+02  0.43400721237E+02  0.00000000000E+00 0.  1.
         11    1    3    3    0    0 -0.31841672808E+02 -0.17055307647E+02  0.18170007622E+02  0.40434203633E+02  0.51100000000E-03 0. -1.
        -11    1    3    3    0    0  0.46302854544E+00  0.10066164047E+01 -0.22172430589E-01  0.11082255627E+01  0.51100000000E-03 0.  1.
         12    1    3    3    0    0 -0.37749389051E+01  0.31894473804E+01  0.38177752411E+01  0.62448495675E+01  0.00000000000E+00 0. -1.
</event>
<event>
 7    1  0.2935819E-010  0.4778724E+02  0.7816164E-02  0.1312668E+00
        -11   -1    0    0    0    0  0.00000000000E+00  0.00000000000E+00  0.45593999997E+02  0.45594000000E+02  0.51100000000E-03 0. -1.
         11   -1    0    0    0    0 -0.00000000000E+00 -0.00000000000E+00 -0.45593999997E+02  0.45594000000E+02  0.51100000000E-03 0.  1.
    9900012    2    1    2    0    0 -0.33305879473E+02 -0.98406582229E+01  0.26028933920E+02  0.47787244676E+02  0.19999879774E+02 0.  0.
        -12    1    1    2    0    0  0.33305879473E+02  0.98406582229E+01 -0.26028933920E+02  0.43400755324E+02  0.00000000000E+00 0.  1.
         11    1    3    3    0    0 -0.12431678285E+02 -0.10377426902E+02  0.16594815582E+02  0.23186753083E+02  0.51100000000E-03 0. -1.
        -11    1    3    3    0    0 -0.18497442403E+02  0.19344951364E+01  0.10817656679E+02  0.21515560489E+02  0.51100000000E-03 0.  1.
         12    1    3    3    0    0 -0.23767587853E+01 -0.13977264576E+01 -0.13835383408E+01  0.30849311036E+01  0.00000000000E+00 0. -1.
</event>
<event>
 7    1  0.2935819E-010  0.4778727E+02  0.7816164E-02  0.1312668E+00
        -11   -1    0    0    0    0  0.00000000000E+00  0.00000000000E+00  0.45593999997E+02  0.45594000000E+02  0.51100000000E-03 0. -1.
         11   -1    0    0    0    0 -0.00000000000E+00 -0.00000000000E+00 -0.45593999997E+02  0.45594000000E+02  0.51100000000E-03 0.  1.
    9900012    2    1    2    0    0 -0.35365253228E+02 -0.24917285555E+02  0.34714787511E+01  0.47787269361E+02  0.19999992325E+02 0.  0.
        -12    1    1    2    0    0  0.35365253228E+02  0.24917285555E+02 -0.34714787511E+01  0.43400730639E+02  0.00000000000E+00 0.  1.
         11    1    3    3    0    0 -0.14335561141E+02 -0.15395878878E+01 -0.11799907520E+01  0.14466202768E+02  0.51100000000E-03 0. -1.
        -11    1    3    3    0    0 -0.15778958510E+02 -0.22443306954E+02  0.53202713371E+01  0.27946070315E+02  0.51100000000E-03 0.  1.
        -12    1    3    3    0    0 -0.52507335766E+01 -0.93439071334E+00 -0.66880183406E+00  0.53749962782E+01  0.00000000000E+00 0.  1.
</event>
<event>
 7    1  0.2935819E-010  0.4778727E+02  0.7816164E-02  0.1312668E+00
        -11   -1    0    0    0    0  0.00000000000E+00  0.00000000000E+00  0.45593999997E+02  0.45594000000E+02  0.51100000000E-03 0.  1.
         11   -1    0    0    0    0 -0.00000000000E+00 -0.00000000000E+00 -0.45593999997E+02  0.45594000000E+02  0.51100000000E-03 0. -1.
    9900012    2    1    2    0    0  0.42972012576E+02  0.27082564146E+01  0.54492833163E+01  0.47787271823E+02  0.20000003548E+02 0.  0.
        -12    1    1    2    0    0 -0.42972012576E+02 -0.27082564146E+01 -0.54492833163E+01  0.43400728177E+02  0.00000000000E+00 0.  1.
         11    1    3    3    0    0  0.13825377830E+02 -0.17359735684E+01 -0.39753022097E+01  0.14489917332E+02  0.51100000000E-03 0. -1.
        -11    1    3    3    0    0  0.15399619366E+02  0.74646136916E+01  0.87147051710E+01  0.19204552082E+02  0.51100000000E-03 0.  1.
        -12    1    3    3    0    0  0.13747015380E+02 -0.30203837086E+01  0.70988035497E+00  0.14092802409E+02  0.00000000000E+00 0.  1.
</event>
<event>
 7    1  0.2935819E-010  0.4778727E+02  0.7816164E-02  0.1312668E+00
        -11   -1    0    0    0    0  0.00000000000E+00  0.00000000000E+00  0.45593999997E+02  0.45594000000E+02  0.51100000000E-03 0.  1.
         11   -1    0    0    0    0 -0.00000000000E+00 -0.00000000000E+00 -0.45593999997E+02  0.45594000000E+02  0.51100000000E-03 0. -1.
    9900012    2    1    2    0    0  0.10220066204E+02 -0.22357980952E+02 -0.35767220294E+02  0.47787272898E+02  0.20000008450E+02 0.  0.
        -12    1    1    2    0    0 -0.10220066204E+02  0.22357980952E+02  0.35767220294E+02  0.43400727102E+02  0.00000000000E+00 0.  1.
         11    1    3    3    0    0  0.87282816279E+01 -0.56129902176E+01 -0.18083372264E+02  0.20849386371E+02  0.51100000000E-03 0. -1.
        -11    1    3    3    0    0  0.23179028258E+01 -0.13645201398E+02 -0.64775397220E+01  0.15281450056E+02  0.51100000000E-03 0.  1.
        -12    1    3    3    0    0 -0.82611824942E+00 -0.30997893357E+01 -0.11206308308E+02  0.11656436470E+02  0.00000000000E+00 0.  1.
</event>
<event>
 7    1  0.2935819E-010  0.4778727E+02  0.7816164E-02  0.1312668E+00
        -11   -1    0    0    0    0  0.00000000000E+00  0.00000000000E+00  0.45593999997E+02  0.45594000000E+02  0.51100000000E-03 0.  1.
         11   -1    0    0    0    0 -0.00000000000E+00 -0.00000000000E+00 -0.45593999997E+02  0.45594000000E+02  0.51100000000E-03 0. -1.
    9900012    2    1    2    0    0  0.15685155819E+02 -0.28704370571E+02 -0.28524700932E+02  0.47787267676E+02  0.19999984644E+02 0.  0.
        -12    1    1    2    0    0 -0.15685155819E+02  0.28704370571E+02  0.28524700932E+02  0.43400732324E+02  0.00000000000E+00 0.  1.
         11    1    3    3    0    0  0.10152928134E+02 -0.16288712569E+02 -0.21903485692E+02  0.29123303257E+02  0.51100000000E-03 0. -1.
        -11    1    3    3    0    0  0.78156816370E+01 -0.81739214032E+01 -0.77579411985E+01  0.13714354613E+02  0.51100000000E-03 0.  1.
         12    1    3    3    0    0 -0.22834539521E+01 -0.42417365994E+01  0.11367259591E+01  0.49496098064E+01  0.00000000000E+00 0. -1.
</event>
<event>
 7    1  0.2935819E-010  0.4778727E+02  0.7816164E-02  0.1312668E+00
        -11   -1    0    0    0    0  0.00000000000E+00  0.00000000000E+00  0.45593999997E+02  0.45594000000E+02  0.51100000000E-03 0. -1.
         11   -1    0    0    0    0 -0.00000000000E+00 -0.00000000000E+00 -0.45593999997E+02  0.45594000000E+02  0.51100000000E-03 0.  1.
    9900012    2    1    2    0    0 -0.35956165010E+02  0.38354184760E+01  0.24001389896E+02  0.47787274729E+02  0.20000016800E+02 0.  0.
        -12    1    1    2    0    0  0.35956165010E+02 -0.38354184760E+01 -0.24001389896E+02  0.43400725271E+02  0.00000000000E+00 0.  1.
         11    1    3    3    0    0 -0.19795381711E+02 -0.27270356487E+01  0.20258178876E+02  0.28455011371E+02  0.51100000000E-03 0. -1.
        -11    1    3    3    0    0 -0.15614004549E+02  0.68801184573E+01  0.51224619523E+01  0.17814959578E+02  0.51100000000E-03 0.  1.
         12    1    3    3    0    0 -0.54677874956E+00 -0.31766433259E+00 -0.13792509315E+01  0.15173037802E+01  0.00000000000E+00 0. -1.
</event>
<event>
 7    1  0.2935819E-010  0.4778727E+02  0.7816164E-02  0.1312668E+00
        -11   -1    0    0    0    0  0.00000000000E+00  0.00000000000E+00  0.45593999997E+02  0.45594000000E+02  0.51100000000E-03 0.  1.
         11   -1    0    0    0    0 -0.00000000000E+00 -0.00000000000E+00 -0.45593999997E+02  0.45594000000E+02  0.51100000000E-03 0. -1.
    9900012    2    1    2    0    0 -0.20122737207E+02  0.17490505832E+02 -0.34245889664E+02  0.47787270676E+02  0.19999998320E+02 0.  0.
        -12    1    1    2    0    0  0.20122737207E+02 -0.17490505832E+02  0.34245889664E+02  0.43400729324E+02  0.00000000000E+00 0.  1.
         11    1    3    3    0    0 -0.17279394179E+01  0.57247643846E+01 -0.13838056145E+02  0.15074830016E+02  0.51100000000E-03 0. -1.
        -11    1    3    3    0    0 -0.15628071689E+02  0.89243479398E+01 -0.80155189752E+01  0.19700993771E+02  0.51100000000E-03 0.  1.
        -12    1    3    3    0    0 -0.27667261005E+01  0.28413935075E+01 -0.12392314544E+02  0.13011446889E+02  0.00000000000E+00 0.  1.
</event>
<event>
 7    1  0.2935819E-010  0.4778728E+02  0.7816164E-02  0.1312668E+00
        -11   -1    0    0    0    0  0.00000000000E+00  0.00000000000E+00  0.45593999997E+02  0.45594000000E+02  0.51100000000E-03 0. -1.
         11   -1    0    0    0    0 -0.00000000000E+00 -0.00000000000E+00 -0.45593999997E+02  0.45594000000E+02  0.51100000000E-03 0.  1.
    9900012    2    1    2    0    0  0.65855731998E+01  0.20025344845E+02  0.37937299178E+02  0.47787275588E+02  0.20000020718E+02 0.  0.
        -12    1    1    2    0    0 -0.65855731998E+01 -0.20025344845E+02 -0.37937299178E+02  0.43400724412E+02  0.00000000000E+00 0.  1.
         11    1    3    3    0    0  0.13064714656E+01  0.36371427418E+01  0.18809670281E+02  0.19202587622E+02  0.51100000000E-03 0. -1.
        -11    1    3    3    0    0 -0.27160944103E+01  0.10173259905E+02  0.64078507697E+01  0.12326107970E+02  0.51100000000E-03 0.  1.
         12    1    3    3    0    0  0.79951961446E+01  0.62149421986E+01  0.12719778127E+02  0.16258579997E+02  0.00000000000E+00 0. -1.
</event>
<event>
 7    1  0.2935819E-010  0.4778727E+02  0.7816164E-02  0.1312668E+00
        -11   -1    0    0    0    0  0.00000000000E+00  0.00000000000E+00  0.45593999997E+02  0.45594000000E+02  0.51100000000E-03 0.  1.
         11   -1    0    0    0    0 -0.00000000000E+00 -0.00000000000E+00 -0.45593999997E+02  0.45594000000E+02  0.51100000000E-03 0. -1.
    9900012    2    1    2    0    0  0.33898039381E+01 -0.21530306210E+02 -0.37531032272E+02  0.47787271439E+02  0.20000001799E+02 0.  0.
        -12    1    1    2    0    0 -0.33898039381E+01  0.21530306210E+02  0.37531032272E+02  0.43400728561E+02  0.00000000000E+00 0.  1.
         11    1    3    3    0    0  0.75555128577E+01 -0.18685987068E+02 -0.19133594172E+02  0.27791119327E+02  0.51100000000E-03 0. -1.
        -11    1    3    3    0    0 -0.86285430742E+00  0.17557713274E+01 -0.70165694782E+01  0.72841950834E+01  0.51100000000E-03 0.  1.
         12    1    3    3    0    0 -0.33028546122E+01 -0.46000904699E+01 -0.11380868621E+02  0.12711957029E+02  0.00000000000E+00 0. -1.
</event>
<event>
 7    1  0.2935819E-010  0.4778727E+02  0.7816164E-02  0.1312668E+00
        -11   -1    0    0    0    0  0.00000000000E+00  0.00000000000E+00  0.45593999997E+02  0.45594000000E+02  0.51100000000E-03 0.  1.
         11   -1    0    0    0    0 -0.00000000000E+00 -0.00000000000E+00 -0.45593999997E+02  0.45594000000E+02  0.51100000000E-03 0. -1.
    9900012    2    1    2    0    0 -0.35674338156E+02  0.20468209992E+02 -0.13857031703E+02  0.47787270158E+02  0.19999995960E+02 0.  0.
        -12    1    1    2    0    0  0.35674338156E+02 -0.20468209992E+02  0.13857031703E+02  0.43400729842E+02  0.00000000000E+00 0.  1.
         11    1    3    3    0    0 -0.29925593337E+02  0.12931820349E+02 -0.12798923754E+02  0.35022643585E+02  0.51100000000E-03 0. -1.
        -11    1    3    3    0    0  0.18888687661E+01  0.88764246163E+00  0.11751335311E+01  0.23951353683E+01  0.51100000000E-03 0.  1.
        -12    1    3    3    0    0 -0.76376135853E+01  0.66487471809E+01 -0.22332414799E+01  0.10369491206E+02  0.00000000000E+00 0.  1.
</event>
<event>
 7    1  0.2935819E-010  0.4778727E+02  0.7816164E-02  0.1312668E+00
        -11   -1    0    0    0    0  0.00000000000E+00  0.00000000000E+00  0.45593999997E+02  0.45594000000E+02  0.51100000000E-03 0.  1.
         11   -1    0    0    0    0 -0.00000000000E+00 -0.00000000000E+00 -0.45593999997E+02  0.45594000000E+02  0.51100000000E-03 0. -1.
    9900012    2    1    2    0    0 -0.30769493065E+00 -0.69845248509E+01 -0.42833923357E+02  0.47787271276E+02  0.20000001058E+02 0.  0.
        -12    1    1    2    0    0  0.30769493065E+00  0.69845248509E+01  0.42833923357E+02  0.43400728724E+02  0.00000000000E+00 0.  1.
         11    1    3    3    0    0 -0.52955940009E+01  0.23620006727E+01 -0.19916428452E+02  0.20743347983E+02  0.51100000000E-03 0. -1.
        -11    1    3    3    0    0  0.14413447811E+01 -0.48227620175E+01 -0.21115118699E+01  0.54584788077E+01  0.51100000000E-03 0.  1.
         12    1    3    3    0    0  0.35465542891E+01 -0.45237635060E+01 -0.20805983035E+02  0.21585444486E+02  0.00000000000E+00 0. -1.
</event>
<event>
 7    1  0.2935819E-010  0.4778727E+02  0.7816164E-02  0.1312668E+00
        -11   -1    0    0    0    0  0.00000000000E+00  0.00000000000E+00  0.45593999997E+02  0.45594000000E+02  0.51100000000E-03 0. -1.
         11   -1    0    0    0    0 -0.00000000000E+00 -0.00000000000E+00 -0.45593999997E+02  0.45594000000E+02  0.51100000000E-03 0.  1.
    9900012    2    1    2    0    0  0.12389365370E+02 -0.27929062891E+02  0.30823601371E+02  0.47787270401E+02  0.19999997067E+02 0.  0.
        -12    1    1    2    0    0 -0.12389365370E+02  0.27929062891E+02 -0.30823601371E+02  0.43400729599E+02  0.00000000000E+00 0.  1.
         11    1    3    3    0    0  0.13110827098E+02 -0.90854313583E+01  0.11962411023E+02  0.19938358205E+02  0.51100000000E-03 0. -1.
        -11    1    3    3    0    0  0.12622351414E+01 -0.22247529551E+01  0.66672544333E+01  0.71410815149E+01  0.51100000000E-03 0.  1.
         12    1    3    3    0    0 -0.19836968692E+01 -0.16618878578E+02  0.12193935915E+02  0.20707830682E+02  0.00000000000E+00 0. -1.
</event>
<event>
 7    1  0.2935819E-010  0.4778727E+02  0.7816164E-02  0.1312668E+00
        -11   -1    0    0    0    0  0.00000000000E+00  0.00000000000E+00  0.45593999997E+02  0.45594000000E+02  0.51100000000E-03 0.  1.
         11   -1    0    0    0    0 -0.00000000000E+00 -0.00000000000E+00 -0.45593999997E+02  0.45594000000E+02  0.51100000000E-03 0. -1.
    9900012    2    1    2    0    0 -0.41823235611E+02  0.72619705335E+01 -0.90390348973E+01  0.47787269535E+02  0.19999993120E+02 0.  0.
        -12    1    1    2    0    0  0.41823235611E+02 -0.72619705335E+01  0.90390348973E+01  0.43400730465E+02  0.00000000000E+00 0.  1.
         11    1    3    3    0    0 -0.25470748842E+02  0.43429493513E-01  0.26669312809E+01  0.25610026462E+02  0.51100000000E-03 0. -1.
        -11    1    3    3    0    0 -0.58548104506E+01  0.57782357767E+01 -0.55432752364E+01  0.99194110063E+01  0.51100000000E-03 0.  1.
        -12    1    3    3    0    0 -0.10497676318E+02  0.14403052632E+01 -0.61626909419E+01  0.12257832067E+02  0.00000000000E+00 0.  1.
</event>
<event>
 7    1  0.2935819E-010  0.4778727E+02  0.7816164E-02  0.1312668E+00
        -11   -1    0    0    0    0  0.00000000000E+00  0.00000000000E+00  0.45593999997E+02  0.45594000000E+02  0.51100000000E-03 0.  1.
         11   -1    0    0    0    0 -0.00000000000E+00 -0.00000000000E+00 -0.45593999997E+02  0.45594000000E+02  0.51100000000E-03 0. -1.
    9900012    2    1    2    0    0  0.41397630164E+02  0.12424751470E+02 -0.39351420539E+01  0.47787267572E+02  0.19999984170E+02 0.  0.
        -12    1    1    2    0    0 -0.41397630164E+02 -0.12424751470E+02  0.39351420539E+01  0.43400732428E+02  0.00000000000E+00 0.  1.
         11    1    3    3    0    0  0.33349813678E+02  0.55136219437E+01  0.10590991542E+00  0.33802682090E+02  0.51100000000E-03 0. -1.
        -11    1    3    3    0    0  0.37037050464E+01  0.57949809049E+01 -0.59652645200E+01  0.91040439264E+01  0.51100000000E-03 0.  1.
        -12    1    3    3    0    0  0.43441114396E+01  0.11161486211E+01  0.19242125507E+01  0.48805415565E+01  0.00000000000E+00 0.  1.
</event>
<event>
 7    1  0.2935819E-010  0.4778727E+02  0.7816164E-02  0.1312668E+00
        -11   -1    0    0    0    0  0.00000000000E+00  0.00000000000E+00  0.45593999997E+02  0.45594000000E+02  0.51100000000E-03 0. -1.
         11   -1    0    0    0    0 -0.00000000000E+00 -0.00000000000E+00 -0.45593999997E+02  0.45594000000E+02  0.51100000000E-03 0.  1.
    9900012    2    1    2    0    0 -0.42686655647E+02 -0.43230332176E+01  0.65409641676E+01  0.47787269605E+02  0.19999993439E+02 0.  0.
        -12    1    1    2    0    0  0.42686655647E+02  0.43230332176E+01 -0.65409641676E+01  0.43400730395E+02  0.00000000000E+00 0.  1.
         11    1    3    3    0    0 -0.97495591682E+01 -0.73270707348E+01  0.30754749842E+01  0.12577695185E+02  0.51100000000E-03 0. -1.
        -11    1    3    3    0    0 -0.21449539679E+02  0.41507432506E+01 -0.28791733741E+01  0.22036357720E+02  0.51100000000E-03 0.  1.
        -12    1    3    3    0    0 -0.11487556800E+02 -0.11467057334E+01  0.63446625575E+01  0.13173216701E+02  0.00000000000E+00 0.  1.
</event>
<event>
 7    1  0.2935819E-010  0.4778727E+02  0.7816164E-02  0.1312668E+00
        -11   -1    0    0    0    0  0.00000000000E+00  0.00000000000E+00  0.45593999997E+02  0.45594000000E+02  0.51100000000E-03 0. -1.
         11   -1    0    0    0    0 -0.00000000000E+00 -0.00000000000E+00 -0.45593999997E+02  0.45594000000E+02  0.51100000000E-03 0.  1.
    9900012    2    1    2    0    0 -0.29943111283E+02  0.26367137241E+02  0.17082371083E+02  0.47787271418E+02  0.20000001705E+02 0.  0.
        -12    1    1    2    0    0  0.29943111283E+02 -0.26367137241E+02 -0.17082371083E+02  0.43400728582E+02  0.00000000000E+00 0.  1.
         11    1    3    3    0    0 -0.17303414262E+02  0.18113245377E+02  0.46135796082E+01  0.25471217487E+02  0.51100000000E-03 0. -1.
        -11    1    3    3    0    0 -0.18419020980E+01  0.30662301709E+01 -0.15308018051E+01  0.38907229697E+01  0.51100000000E-03 0.  1.
         12    1    3    3    0    0 -0.10797794923E+02  0.51876616929E+01  0.13999593280E+02  0.18425330961E+02  0.00000000000E+00 0. -1.
</event>
<event>
 7    1  0.2935819E-010  0.4778727E+02  0.7816164E-02  0.1312668E+00
        -11   -1    0    0    0    0  0.00000000000E+00  0.00000000000E+00  0.45593999997E+02  0.45594000000E+02  0.51100000000E-03 0.  1.
         11   -1    0    0    0    0 -0.00000000000E+00 -0.00000000000E+00 -0.45593999997E+02  0.45594000000E+02  0.51100000000E-03 0. -1.
    9900012    2    1    2    0    0  0.25839596224E+02 -0.27880946888E+02 -0.20942568544E+02  0.47787272936E+02  0.20000008626E+02 0.  0.
        -12    1    1    2    0    0 -0.25839596224E+02  0.27880946888E+02  0.20942568544E+02  0.43400727064E+02  0.00000000000E+00 0.  1.
         11    1    3    3    0    0  0.10333250087E+01 -0.66771131673E+00 -0.11294217165E+01  0.16700876177E+01  0.51100000000E-03 0. -1.
        -11    1    3    3    0    0  0.15741081889E+01  0.11745694576E+01 -0.69858048960E+01  0.72566452515E+01  0.51100000000E-03 0.  1.
        -12    1    3    3    0    0  0.23232163027E+02 -0.28387805029E+02 -0.12827341932E+02  0.38860540067E+02  0.00000000000E+00 0.  1.
</event>
<event>
 7    1  0.2935819E-010  0.4778726E+02  0.7816164E-02  0.1312668E+00
        -11   -1    0    0    0    0  0.00000000000E+00  0.00000000000E+00  0.45593999997E+02  0.45594000000E+02  0.51100000000E-03 0. -1.
         11   -1    0    0    0    0 -0.00000000000E+00 -0.00000000000E+00 -0.45593999997E+02  0.45594000000E+02  0.51100000000E-03 0.  1.
    9900012    2    1    2    0    0 -0.24235403753E+02 -0.23971893145E+02  0.26862936344E+02  0.47787264925E+02  0.19999972099E+02 0.  0.
        -12    1    1    2    0    0  0.24235403753E+02  0.23971893145E+02 -0.26862936344E+02  0.43400735075E+02  0.00000000000E+00 0.  1.
         11    1    3    3    0    0 -0.13418220981E+02 -0.12111237221E+02  0.11570720676E+02  0.21461880126E+02  0.51100000000E-03 0. -1.
        -11    1    3    3    0    0  0.22013005986E+01 -0.25007405630E+01 -0.98813362504E+00  0.34750303611E+01  0.51100000000E-03 0.  1.
        -12    1    3    3    0    0 -0.13018483370E+02 -0.93599153615E+01  0.16280349293E+02  0.22850354438E+02  0.00000000000E+00 0.  1.
</event>
<event>
 7    1  0.2935819E-010  0.4778727E+02  0.7816164E-02  0.1312668E+00
        -11   -1    0    0    0    0  0.00000000000E+00  0.00000000000E+00  0.45593999997E+02  0.45594000000E+02  0.51100000000E-03 0.  1.
         11   -1    0    0    0    0 -0.00000000000E+00 -0.00000000000E+00 -0.45593999997E+02  0.45594000000E+02  0.51100000000E-03 0. -1.
    9900012    2    1    2    0    0 -0.38491681980E+02 -0.58899285618E+01 -0.19165658199E+02  0.47787270809E+02  0.19999998926E+02 0.  0.
        -12    1    1    2    0    0  0.38491681980E+02  0.58899285618E+01  0.19165658199E+02  0.43400729191E+02  0.00000000000E+00 0.  1.
         11    1    3    3    0    0 -0.34956384358E+02  0.14555501082E+01 -0.12661923833E+02  0.37207415241E+02  0.51100000000E-03 0.  1.
        -11    1    3    3    0    0 -0.33853700945E+01 -0.58830792342E+01 -0.58898956117E+01  0.89867804319E+01  0.51100000000E-03 0. -1.
        -12    1    3    3    0    0 -0.14992752784E+00 -0.14623994359E+01 -0.61383875405E+00  0.15930751362E+01  0.00000000000E+00 0.  1.
</event>
<event>
 7    1  0.2935819E-010  0.4778727E+02  0.7816164E-02  0.1312668E+00
        -11   -1    0    0    0    0  0.00000000000E+00  0.00000000000E+00  0.45593999997E+02  0.45594000000E+02  0.51100000000E-03 0.  1.
         11   -1    0    0    0    0 -0.00000000000E+00 -0.00000000000E+00 -0.45593999997E+02  0.45594000000E+02  0.51100000000E-03 0. -1.
    9900012    2    1    2    0    0 -0.23215641291E+02  0.15181588190E+02 -0.33379290911E+02  0.47787266340E+02  0.19999978553E+02 0.  0.
        -12    1    1    2    0    0  0.23215641291E+02 -0.15181588190E+02  0.33379290911E+02  0.43400733660E+02  0.00000000000E+00 0.  1.
         11    1    3    3    0    0 -0.37654842584E+01 -0.31017411970E+01  0.37403744125E-01  0.48786339743E+01  0.51100000000E-03 0. -1.
        -11    1    3    3    0    0 -0.92387658737E+00  0.10507018714E+01 -0.74469701314E+00  0.15849593918E+01  0.51100000000E-03 0.  1.
         12    1    3    3    0    0 -0.18526280445E+02  0.17232627515E+02 -0.32671997642E+02  0.41323672974E+02  0.00000000000E+00 0. -1.
</event>
<event>
 7    1  0.2935819E-010  0.4778727E+02  0.7816164E-02  0.1312668E+00
        -11   -1    0    0    0    0  0.00000000000E+00  0.00000000000E+00  0.45593999997E+02  0.45594000000E+02  0.51100000000E-03 0.  1.
         11   -1    0    0    0    0 -0.00000000000E+00 -0.00000000000E+00 -0.45593999997E+02  0.45594000000E+02  0.51100000000E-03 0. -1.
    9900012    2    1    2    0    0 -0.20234776669E+02 -0.35430885382E+02  0.14792892166E+02  0.47787268619E+02  0.19999988940E+02 0.  0.
        -12    1    1    2    0    0  0.20234776669E+02  0.35430885382E+02 -0.14792892166E+02  0.43400731381E+02  0.00000000000E+00 0.  1.
         11    1    3    3    0    0 -0.18745585215E+01 -0.13700087947E+02  0.46058606188E+01  0.14574646881E+02  0.51100000000E-03 0. -1.
        -11    1    3    3    0    0 -0.20633897957E+02 -0.20158214367E+02  0.93657410458E+01  0.30328673841E+02  0.51100000000E-03 0.  1.
        -12    1    3    3    0    0  0.22736798096E+01 -0.15725830686E+01  0.82129050150E+00  0.28839478969E+01  0.00000000000E+00 0.  1.
</event>
<event>
 7    1  0.2935819E-010  0.4778727E+02  0.7816164E-02  0.1312668E+00
        -11   -1    0    0    0    0  0.00000000000E+00  0.00000000000E+00  0.45593999997E+02  0.45594000000E+02  0.51100000000E-03 0.  1.
         11   -1    0    0    0    0 -0.00000000000E+00 -0.00000000000E+00 -0.45593999997E+02  0.45594000000E+02  0.51100000000E-03 0. -1.
    9900012    2    1    2    0    0 -0.98375763853E+01 -0.30886479257E+02 -0.28859506270E+02  0.47787267147E+02  0.19999982230E+02 0.  0.
        -12    1    1    2    0    0  0.98375763853E+01  0.30886479257E+02  0.28859506270E+02  0.43400732853E+02  0.00000000000E+00 0.  1.
         11    1    3    3    0    0 -0.58656229442E+01 -0.27208245629E+02 -0.31035190396E+02  0.41687854417E+02  0.51100000000E-03 0. -1.
        -11    1    3    3    0    0 -0.12754796014E+01 -0.21811304567E+01  0.15122347300E+01  0.29446616822E+01  0.51100000000E-03 0.  1.
         12    1    3    3    0    0 -0.26964738397E+01 -0.14971031708E+01  0.66344939569E+00  0.31547510477E+01  0.00000000000E+00 0. -1.
</event>
<event>
 7    1  0.2935819E-010  0.4778727E+02  0.7816164E-02  0.1312668E+00
        -11   -1    0    0    0    0  0.00000000000E+00  0.00000000000E+00  0.45593999997E+02  0.45594000000E+02  0.51100000000E-03 0.  1.
         11   -1    0    0    0    0 -0.00000000000E+00 -0.00000000000E+00 -0.45593999997E+02  0.45594000000E+02  0.51100000000E-03 0. -1.
    9900012    2    1    2    0    0  0.18670645020E+01  0.34928438323E+01 -0.43219638885E+02  0.47787273355E+02  0.20000010537E+02 0.  0.
        -12    1    1    2    0    0 -0.18670645020E+01 -0.34928438323E+01  0.43219638885E+02  0.43400726645E+02  0.00000000000E+00 0.  1.
         11    1    3    3    0    0  0.22917896468E+01  0.42854991357E+01 -0.14678842523E+02  0.15462413159E+02  0.51100000000E-03 0. -1.
        -11    1    3    3    0    0  0.47074675516E+01 -0.59456284571E+01 -0.17857213559E+02  0.19400794438E+02  0.51100000000E-03 0.  1.
        -12    1    3    3    0    0 -0.51321926964E+01  0.51529731537E+01 -0.10683582804E+02  0.12924065758E+02  0.00000000000E+00 0.  1.
</event>
<event>
 7    1  0.2935819E-010  0.4778727E+02  0.7816164E-02  0.1312668E+00
        -11   -1    0    0    0    0  0.00000000000E+00  0.00000000000E+00  0.45593999997E+02  0.45594000000E+02  0.51100000000E-03 0. -1.
         11   -1    0    0    0    0 -0.00000000000E+00 -0.00000000000E+00 -0.45593999997E+02  0.45594000000E+02  0.51100000000E-03 0.  1.
    9900012    2    1    2    0    0  0.24444235572E+02  0.17726005380E+02  0.31175170296E+02  0.47787272329E+02  0.20000005856E+02 0.  0.
        -12    1    1    2    0    0 -0.24444235572E+02 -0.17726005380E+02 -0.31175170296E+02  0.43400727671E+02  0.00000000000E+00 0.  1.
         11    1    3    3    0    0  0.40290491855E+01  0.88056855140E+01  0.13186394410E+02  0.16360144636E+02  0.51100000000E-03 0. -1.
        -11    1    3    3    0    0  0.15208473816E+02 -0.25884051003E+00  0.10291877067E+02  0.18365386139E+02  0.51100000000E-03 0.  1.
        -12    1    3    3    0    0  0.52067125706E+01  0.91791603757E+01  0.76968988194E+01  0.13061741554E+02  0.00000000000E+00 0.  1.
</event>
<event>
 7    1  0.2935819E-010  0.4778727E+02  0.7816164E-02  0.1312668E+00
        -11   -1    0    0    0    0  0.00000000000E+00  0.00000000000E+00  0.45593999997E+02  0.45594000000E+02  0.51100000000E-03 0. -1.
         11   -1    0    0    0    0 -0.00000000000E+00 -0.00000000000E+00 -0.45593999997E+02  0.45594000000E+02  0.51100000000E-03 0.  1.
    9900012    2    1    2    0    0 -0.25594540815E+02  0.33229984395E+02  0.11149476142E+02  0.47787271888E+02  0.20000003847E+02 0.  0.
        -12    1    1    2    0    0  0.25594540815E+02 -0.33229984395E+02 -0.11149476142E+02  0.43400728112E+02  0.00000000000E+00 0.  1.
         11    1    3    3    0    0 -0.15493778215E+02  0.24633072451E+02  0.14695391983E+02  0.32600612994E+02  0.51100000000E-03 0. -1.
        -11    1    3    3    0    0 -0.29605493510E+01  0.52716466073E+01 -0.40769460328E+01  0.72922287147E+01  0.51100000000E-03 0.  1.
        -12    1    3    3    0    0 -0.71402132493E+01  0.33252653358E+01  0.53103019131E+00  0.78944301798E+01  0.00000000000E+00 0.  1.
</event>
<event>
 7    1  0.2935819E-010  0.4778727E+02  0.7816164E-02  0.1312668E+00
        -11   -1    0    0    0    0  0.00000000000E+00  0.00000000000E+00  0.45593999997E+02  0.45594000000E+02  0.51100000000E-03 0.  1.
         11   -1    0    0    0    0 -0.00000000000E+00 -0.00000000000E+00 -0.45593999997E+02  0.45594000000E+02  0.51100000000E-03 0. -1.
    9900012    2    1    2    0    0 -0.15927089889E+02 -0.24142321753E+01 -0.40300402265E+02  0.47787272678E+02  0.20000007449E+02 0.  0.
        -12    1    1    2    0    0  0.15927089889E+02  0.24142321753E+01  0.40300402265E+02  0.43400727322E+02  0.00000000000E+00 0.  1.
         11    1    3    3    0    0  0.10820884606E+01  0.20988489968E+01 -0.14447500907E+02  0.14639206443E+02  0.51100000000E-03 0. -1.
        -11    1    3    3    0    0 -0.48202523361E+01 -0.62075009201E+01 -0.64283104540E+01  0.10153377557E+02  0.51100000000E-03 0.  1.
        -12    1    3    3    0    0 -0.12188926013E+02  0.16944197481E+01 -0.19424590904E+02  0.22994688678E+02  0.00000000000E+00 0.  1.
</event>
<event>
 7    1  0.2935819E-010  0.4778727E+02  0.7816164E-02  0.1312668E+00
        -11   -1    0    0    0    0  0.00000000000E+00  0.00000000000E+00  0.45593999997E+02  0.45594000000E+02  0.51100000000E-03 0.  1.
         11   -1    0    0    0    0 -0.00000000000E+00 -0.00000000000E+00 -0.45593999997E+02  0.45594000000E+02  0.51100000000E-03 0. -1.
    9900012    2    1    2    0    0  0.31731875559E+02 -0.28178554346E+02 -0.90928813456E+01  0.47787270252E+02  0.19999996387E+02 0.  0.
        -12    1    1    2    0    0 -0.31731875559E+02  0.28178554346E+02  0.90928813456E+01  0.43400729748E+02  0.00000000000E+00 0.  1.
         11    1    3    3    0    0  0.10485664520E+02 -0.19673875944E+01 -0.63196656294E+01  0.12399917270E+02  0.51100000000E-03 0. -1.
        -11    1    3    3    0    0  0.14381086964E+02 -0.22833407607E+02 -0.49446435800E+01  0.27434096770E+02  0.51100000000E-03 0.  1.
        -12    1    3    3    0    0  0.68651240746E+01 -0.33777591447E+01  0.21714278638E+01  0.79532562116E+01  0.00000000000E+00 0.  1.
</event>
<event>
 7    1  0.2935819E-010  0.4778727E+02  0.7816164E-02  0.1312668E+00
        -11   -1    0    0    0    0  0.00000000000E+00  0.00000000000E+00  0.45593999997E+02  0.45594000000E+02  0.51100000000E-03 0. -1.
         11   -1    0    0    0    0 -0.00000000000E+00 -0.00000000000E+00 -0.45593999997E+02  0.45594000000E+02  0.51100000000E-03 0.  1.
    9900012    2    1    2    0    0  0.37863528610E+02  0.61521638530E+01  0.20300916632E+02  0.47787272645E+02  0.20000007297E+02 0.  0.
        -12    1    1    2    0    0 -0.37863528610E+02 -0.61521638530E+01 -0.20300916632E+02  0.43400727355E+02  0.00000000000E+00 0.  1.
         11    1    3    3    0    0  0.29542577506E+02 -0.29019352661E+01  0.12094152151E+02  0.32053917553E+02  0.51100000000E-03 0. -1.
        -11    1    3    3    0    0  0.55291941938E+01  0.82626806210E+01  0.42156736412E+01  0.10798878830E+02  0.51100000000E-03 0.  1.
         12    1    3    3    0    0  0.27917569101E+01  0.79141849817E+00  0.39910908403E+01  0.49344762619E+01  0.00000000000E+00 0. -1.
</event>
<event>
 7    1  0.2935819E-010  0.4778727E+02  0.7816164E-02  0.1312668E+00
        -11   -1    0    0    0    0  0.00000000000E+00  0.00000000000E+00  0.45593999997E+02  0.45594000000E+02  0.51100000000E-03 0.  1.
         11   -1    0    0    0    0 -0.00000000000E+00 -0.00000000000E+00 -0.45593999997E+02  0.45594000000E+02  0.51100000000E-03 0. -1.
    9900012    2    1    2    0    0  0.37621368510E+02  0.14231265423E+01 -0.21592373983E+02  0.47787271067E+02  0.20000000102E+02 0.  0.
        -12    1    1    2    0    0 -0.37621368510E+02 -0.14231265423E+01  0.21592373983E+02  0.43400728933E+02  0.00000000000E+00 0.  1.
         11    1    3    3    0    0  0.15625359987E+02 -0.43492524999E+01 -0.12866459386E+02  0.20702986485E+02  0.51100000000E-03 0. -1.
        -11    1    3    3    0    0  0.22314058196E+02  0.40232605955E+01 -0.10115396467E+02  0.24827908992E+02  0.51100000000E-03 0.  1.
         12    1    3    3    0    0 -0.31804967229E+00  0.17491184467E+01  0.13894818698E+01  0.22563755896E+01  0.00000000000E+00 0. -1.
</event>
<event>
 7    1  0.2935819E-010  0.4778728E+02  0.7816164E-02  0.1312668E+00
        -11   -1    0    0    0    0  0.00000000000E+00  0.00000000000E+00  0.45593999997E+02  0.45594000000E+02  0.51100000000E-03 0. -1.
         11   -1    0    0    0    0 -0.00000000000E+00 -0.00000000000E+00 -0.45593999997E+02  0.45594000000E+02  0.51100000000E-03 0.  1.
    9900012    2    1    2    0    0 -0.58574410326E+01 -0.42973438927E+02  0.16114468287E+01  0.47787276163E+02  0.20000023338E+02 0.  0.
        -12    1    1    2    0    0  0.58574410326E+01  0.42973438927E+02 -0.16114468287E+01  0.43400723837E+02  0.00000000000E+00 0.  1.
         11    1    3    3    0    0  0.29901540325E+01 -0.12277198224E+02  0.68836740202E+01  0.14389426175E+02  0.51100000000E-03 0. -1.
        -11    1    3    3    0    0 -0.15686728477E+00 -0.15673130997E+01  0.15868172228E+01  0.22358593107E+01  0.51100000000E-03 0.  1.
         12    1    3    3    0    0 -0.86907277803E+01 -0.29128927604E+02 -0.68590444143E+01  0.31161990677E+02  0.00000000000E+00 0. -1.
</event>
<event>
 7    1  0.2935819E-010  0.4778727E+02  0.7816164E-02  0.1312668E+00
        -11   -1    0    0    0    0  0.00000000000E+00  0.00000000000E+00  0.45593999997E+02  0.45594000000E+02  0.51100000000E-03 0. -1.
         11   -1    0    0    0    0 -0.00000000000E+00 -0.00000000000E+00 -0.45593999997E+02  0.45594000000E+02  0.51100000000E-03 0.  1.
    9900012    2    1    2    0    0 -0.41564566071E+02 -0.16743822677E+01 -0.12377675018E+02  0.47787267892E+02  0.19999985625E+02 0.  0.
        -12    1    1    2    0    0  0.41564566071E+02  0.16743822677E+01  0.12377675018E+02  0.43400732108E+02  0.00000000000E+00 0.  1.
         11    1    3    3    0    0 -0.23890892428E+02  0.54762469562E+01 -0.64679806738E+01  0.25349532461E+02  0.51100000000E-03 0. -1.
        -11    1    3    3    0    0 -0.18339033508E+02 -0.80991432642E+01 -0.65789302029E+01  0.21099729726E+02  0.51100000000E-03 0.  1.
         12    1    3    3    0    0  0.66535986419E+00  0.94851404021E+00  0.66923585847E+00  0.13380057054E+01  0.00000000000E+00 0. -1.
</event>
<event>
 7    1  0.2935819E-010  0.4778727E+02  0.7816164E-02  0.1312668E+00
        -11   -1    0    0    0    0  0.00000000000E+00  0.00000000000E+00  0.45593999997E+02  0.45594000000E+02  0.51100000000E-03 0. -1.
         11   -1    0    0    0    0 -0.00000000000E+00 -0.00000000000E+00 -0.45593999997E+02  0.45594000000E+02  0.51100000000E-03 0.  1.
    9900012    2    1    2    0    0 -0.41574914636E+02  0.96102901741E+01 -0.79241412994E+01  0.47787271670E+02  0.20000002853E+02 0.  0.
        -12    1    1    2    0    0  0.41574914636E+02 -0.96102901741E+01  0.79241412994E+01  0.43400728330E+02  0.00000000000E+00 0.  1.
         11    1    3    3    0    0 -0.16771292158E+02 -0.35976041692E+00  0.28404379066E+01  0.17013928293E+02  0.51100000000E-03 0. -1.
        -11    1    3    3    0    0 -0.58164486755E+01  0.47386758378E+01 -0.78597147780E+01  0.10865598950E+02  0.51100000000E-03 0.  1.
        -12    1    3    3    0    0 -0.18987173802E+02  0.52313747532E+01 -0.29048644280E+01  0.19907744427E+02  0.00000000000E+00 0.  1.
</event>
<event>
 7    1  0.2935819E-010  0.4778727E+02  0.7816164E-02  0.1312668E+00
        -11   -1    0    0    0    0  0.00000000000E+00  0.00000000000E+00  0.45593999997E+02  0.45594000000E+02  0.51100000000E-03 0.  1.
         11   -1    0    0    0    0 -0.00000000000E+00 -0.00000000000E+00 -0.45593999997E+02  0.45594000000E+02  0.51100000000E-03 0. -1.
    9900012    2    1    2    0    0 -0.23619729330E+02  0.59107082566E+01 -0.35927641526E+02  0.47787268308E+02  0.19999987526E+02 0.  0.
        -12    1    1    2    0    0  0.23619729330E+02 -0.59107082566E+01  0.35927641526E+02  0.43400731692E+02  0.00000000000E+00 0.  1.
         11    1    3    3    0    0 -0.24017471183E+01 -0.38081550694E+01 -0.12716767963E+02  0.13490241730E+02  0.51100000000E-03 0. -1.
        -11    1    3    3    0    0 -0.16175670553E+01 -0.15558900031E+01 -0.41717740135E+01  0.47371949043E+01  0.51100000000E-03 0.  1.
         12    1    3    3    0    0 -0.19600415156E+02  0.11274753329E+02 -0.19039099550E+02  0.29559831674E+02  0.00000000000E+00 0. -1.
</event>
<event>
 7    1  0.2935819E-010  0.4778727E+02  0.7816164E-02  0.1312668E+00
        -11   -1    0    0    0    0  0.00000000000E+00  0.00000000000E+00  0.45593999997E+02  0.45594000000E+02  0.51100000000E-03 0.  1.
         11   -1    0    0    0    0 -0.00000000000E+00 -0.00000000000E+00 -0.45593999997E+02  0.45594000000E+02  0.51100000000E-03 0. -1.
    9900012    2    1    2    0    0  0.19755301109E+02  0.71578479212E+01 -0.37975212633E+02  0.47787268632E+02  0.19999989000E+02 0.  0.
        -12    1    1    2    0    0 -0.19755301109E+02 -0.71578479212E+01  0.37975212633E+02  0.43400731368E+02  0.00000000000E+00 0.  1.
         11    1    3    3    0    0 -0.14995593326E+01 -0.14772893414E+01 -0.80482717902E+01  0.83189988015E+01  0.51100000000E-03 0.  1.
        -11    1    3    3    0    0  0.20312523034E+02  0.77765898598E+01 -0.20281931464E+02  0.29739379382E+02  0.51100000000E-03 0. -1.
         12    1    3    3    0    0  0.94233740694E+00  0.85854740281E+00 -0.96450093790E+01  0.97288904482E+01  0.00000000000E+00 0. -1.
</event>
<event>
 7    1  0.2935819E-010  0.4778728E+02  0.7816164E-02  0.1312668E+00
        -11   -1    0    0    0    0  0.00000000000E+00  0.00000000000E+00  0.45593999997E+02  0.45594000000E+02  0.51100000000E-03 0. -1.
         11   -1    0    0    0    0 -0.00000000000E+00 -0.00000000000E+00 -0.45593999997E+02  0.45594000000E+02  0.51100000000E-03 0.  1.
    9900012    2    1    2    0    0 -0.18262277282E+01  0.18804246947E+02  0.39072855668E+02  0.47787275801E+02  0.20000021689E+02 0.  0.
        -12    1    1    2    0    0  0.18262277282E+01 -0.18804246947E+02 -0.39072855668E+02  0.43400724199E+02  0.00000000000E+00 0.  1.
         11    1    3    3    0    0  0.65835075911E+00  0.29928142360E+00  0.98011234881E+01  0.98277676500E+01  0.51100000000E-03 0. -1.
        -11    1    3    3    0    0  0.30229697388E+01  0.41907813434E+01  0.29689717257E+00  0.51758228816E+01  0.51100000000E-03 0.  1.
        -12    1    3    3    0    0 -0.55075482261E+01  0.14314184180E+02  0.28974835007E+02  0.32783685270E+02  0.00000000000E+00 0.  1.
</event>
<event>
 7    1  0.2935819E-010  0.4778727E+02  0.7816164E-02  0.1312668E+00
        -11   -1    0    0    0    0  0.00000000000E+00  0.00000000000E+00  0.45593999997E+02  0.45594000000E+02  0.51100000000E-03 0.  1.
         11   -1    0    0    0    0 -0.00000000000E+00 -0.00000000000E+00 -0.45593999997E+02  0.45594000000E+02  0.51100000000E-03 0. -1.
    9900012    2    1    2    0    0  0.40526000141E+02 -0.15518063478E+02  0.67574325831E+00  0.47787267166E+02  0.19999982318E+02 0.  0.
        -12    1    1    2    0    0 -0.40526000141E+02  0.15518063478E+02 -0.67574325831E+00  0.43400732834E+02  0.00000000000E+00 0.  1.
         11    1    3    3    0    0  0.29463074751E+02 -0.16462876567E+02  0.17583185132E+01  0.33796312860E+02  0.51100000000E-03 0. -1.
        -11    1    3    3    0    0  0.26830377560E+00 -0.20391367004E+01 -0.18485192584E+01  0.27653370697E+01  0.51100000000E-03 0.  1.
         12    1    3    3    0    0  0.10794621614E+02  0.29839497888E+01  0.76594400354E+00  0.11225617237E+02  0.00000000000E+00 0. -1.
</event>
<event>
 7    1  0.2935819E-010  0.4778727E+02  0.7816164E-02  0.1312668E+00
        -11   -1    0    0    0    0  0.00000000000E+00  0.00000000000E+00  0.45593999997E+02  0.45594000000E+02  0.51100000000E-03 0.  1.
         11   -1    0    0    0    0 -0.00000000000E+00 -0.00000000000E+00 -0.45593999997E+02  0.45594000000E+02  0.51100000000E-03 0. -1.
    9900012    2    1    2    0    0  0.28090377436E+02  0.92838652263E+01 -0.31754746751E+02  0.47787269601E+02  0.19999993417E+02 0.  0.
        -12    1    1    2    0    0 -0.28090377436E+02 -0.92838652263E+01  0.31754746751E+02  0.43400730399E+02  0.00000000000E+00 0.  1.
         11    1    3    3    0    0  0.13329537716E+02  0.12250262453E+02 -0.23468148254E+02  0.29639492044E+02  0.51100000000E-03 0. -1.
        -11    1    3    3    0    0  0.96808690074E+01 -0.24025656208E+01 -0.83924457860E+01  0.13035516593E+02  0.51100000000E-03 0.  1.
         12    1    3    3    0    0  0.50799707123E+01 -0.56383160569E+00  0.10584728961E+00  0.51122609642E+01  0.00000000000E+00 0. -1.
</event>
<event>
 7    1  0.2935819E-010  0.4778727E+02  0.7816164E-02  0.1312668E+00
        -11   -1    0    0    0    0  0.00000000000E+00  0.00000000000E+00  0.45593999997E+02  0.45594000000E+02  0.51100000000E-03 0. -1.
         11   -1    0    0    0    0 -0.00000000000E+00 -0.00000000000E+00 -0.45593999997E+02  0.45594000000E+02  0.51100000000E-03 0.  1.
    9900012    2    1    2    0    0 -0.23856800641E+01 -0.11002296735E+02  0.41915165961E+02  0.47787272582E+02  0.20000007012E+02 0.  0.
        -12    1    1    2    0    0  0.23856800641E+01  0.11002296735E+02 -0.41915165961E+02  0.43400727418E+02  0.00000000000E+00 0.  1.
         11    1    3    3    0    0  0.38988006210E+01 -0.32604264737E+01  0.26552824642E+02  0.27034857570E+02  0.51100000000E-03 0. -1.
        -11    1    3    3    0    0 -0.80828148276E+01 -0.86020017085E+01  0.11925356033E+02  0.16779167015E+02  0.51100000000E-03 0.  1.
        -12    1    3    3    0    0  0.17983341425E+01  0.86013144725E+00  0.34369852860E+01  0.39732479976E+01  0.00000000000E+00 0.  1.
</event>
<event>
 7    1  0.2935819E-010  0.4778727E+02  0.7816164E-02  0.1312668E+00
        -11   -1    0    0    0    0  0.00000000000E+00  0.00000000000E+00  0.45593999997E+02  0.45594000000E+02  0.51100000000E-03 0.  1.
         11   -1    0    0    0    0 -0.00000000000E+00 -0.00000000000E+00 -0.45593999997E+02  0.45594000000E+02  0.51100000000E-03 0. -1.
    9900012    2    1    2    0    0 -0.25165415395E+02  0.10622243483E+02 -0.33726743015E+02  0.47787269786E+02  0.19999994264E+02 0.  0.
        -12    1    1    2    0    0  0.25165415395E+02 -0.10622243483E+02  0.33726743015E+02  0.43400730214E+02  0.00000000000E+00 0.  1.
         11    1    3    3    0    0 -0.12390609411E+02  0.68835557136E+01 -0.79994489511E+01  0.16275801812E+02  0.51100000000E-03 0. -1.
        -11    1    3    3    0    0 -0.14734138215E+02  0.28457872678E+01 -0.25142375544E+02  0.29280238769E+02  0.51100000000E-03 0.  1.
        -12    1    3    3    0    0  0.19593322300E+01  0.89290050168E+00 -0.58491852009E+00  0.22312292057E+01  0.00000000000E+00 0.  1.
</event>
<event>
 7    1  0.2935819E-010  0.4778727E+02  0.7816164E-02  0.1312668E+00
        -11   -1    0    0    0    0  0.00000000000E+00  0.00000000000E+00  0.45593999997E+02  0.45594000000E+02  0.51100000000E-03 0. -1.
         11   -1    0    0    0    0 -0.00000000000E+00 -0.00000000000E+00 -0.45593999997E+02  0.45594000000E+02  0.51100000000E-03 0.  1.
    9900012    2    1    2    0    0  0.58077966445E+00  0.32120309925E+02  0.29181700878E+02  0.47787270964E+02  0.19999999634E+02 0.  0.
        -12    1    1    2    0    0 -0.58077966445E+00 -0.32120309925E+02 -0.29181700878E+02  0.43400729036E+02  0.00000000000E+00 0.  1.
         11    1    3    3    0    0 -0.25022011426E+01  0.16436871387E+01 -0.66545716187E+00  0.30668471536E+01  0.51100000000E-03 0. -1.
        -11    1    3    3    0    0  0.12108246623E+01 -0.11108755685E+01  0.17919764272E+01  0.24313207663E+01  0.51100000000E-03 0.  1.
         12    1    3    3    0    0  0.18721561448E+01  0.31587498355E+02  0.28055181613E+02  0.42289103044E+02  0.00000000000E+00 0. -1.
</event>
<event>
 7    1  0.2935819E-010  0.4778727E+02  0.7816164E-02  0.1312668E+00
        -11   -1    0    0    0    0  0.00000000000E+00  0.00000000000E+00  0.45593999997E+02  0.45594000000E+02  0.51100000000E-03 0.  1.
         11   -1    0    0    0    0 -0.00000000000E+00 -0.00000000000E+00 -0.45593999997E+02  0.45594000000E+02  0.51100000000E-03 0. -1.
    9900012    2    1    2    0    0  0.31371413491E+02 -0.22105686691E+02 -0.20268111926E+02  0.47787270403E+02  0.19999997076E+02 0.  0.
        -12    1    1    2    0    0 -0.31371413491E+02  0.22105686691E+02  0.20268111926E+02  0.43400729597E+02  0.00000000000E+00 0.  1.
         11    1    3    3    0    0  0.23805869258E+02 -0.21792986189E+02 -0.15627817817E+02  0.35859201722E+02  0.51100000000E-03 0. -1.
        -11    1    3    3    0    0  0.24443114711E+01 -0.10861939761E+01 -0.60034601565E+01  0.65723671560E+01  0.51100000000E-03 0.  1.
         12    1    3    3    0    0  0.51212327616E+01  0.77349347356E+00  0.13631660479E+01  0.53557015251E+01  0.00000000000E+00 0. -1.
</event>
<event>
 7    1  0.2935819E-010  0.4778727E+02  0.7816164E-02  0.1312668E+00
        -11   -1    0    0    0    0  0.00000000000E+00  0.00000000000E+00  0.45593999997E+02  0.45594000000E+02  0.51100000000E-03 0. -1.
         11   -1    0    0    0    0 -0.00000000000E+00 -0.00000000000E+00 -0.45593999997E+02  0.45594000000E+02  0.51100000000E-03 0.  1.
    9900012    2    1    2    0    0  0.17558347248E+02 -0.14510431078E+02  0.36942864057E+02  0.47787269904E+02  0.19999994799E+02 0.  0.
        -12    1    1    2    0    0 -0.17558347248E+02  0.14510431078E+02 -0.36942864057E+02  0.43400730096E+02  0.00000000000E+00 0.  1.
         11    1    3    3    0    0  0.12258239708E+02 -0.40186479652E+01  0.17705720786E+02  0.21906768840E+02  0.51100000000E-03 0. -1.
        -11    1    3    3    0    0 -0.32873499027E+01 -0.32547982931E+01  0.14558252476E+01  0.48497225409E+01  0.51100000000E-03 0.  1.
        -12    1    3    3    0    0  0.85874574421E+01 -0.72369848197E+01  0.17781318024E+02  0.21030778523E+02  0.00000000000E+00 0.  1.
</event>
<event>
 7    1  0.2935819E-010  0.4778728E+02  0.7816164E-02  0.1312668E+00
        -11   -1    0    0    0    0  0.00000000000E+00  0.00000000000E+00  0.45593999997E+02  0.45594000000E+02  0.51100000000E-03 0. -1.
         11   -1    0    0    0    0 -0.00000000000E+00 -0.00000000000E+00 -0.45593999997E+02  0.45594000000E+02  0.51100000000E-03 0.  1.
    9900012    2    1    2    0    0  0.33459225102E+01 -0.39373767081E+02  0.17948078757E+02  0.47787282694E+02  0.20000053114E+02 0.  0.
        -12    1    1    2    0    0 -0.33459225102E+01  0.39373767081E+02 -0.17948078757E+02  0.43400717306E+02  0.00000000000E+00 0.  1.
         11    1    3    3    0    0  0.60239923986E+01 -0.31264903915E+02  0.12288285607E+02  0.34128941745E+02  0.51100000000E-03 0. -1.
        -11    1    3    3    0    0 -0.58223444240E+00  0.19222560352E+01  0.18336988036E+01  0.27196537968E+01  0.51100000000E-03 0.  1.
        -12    1    3    3    0    0 -0.20958354460E+01 -0.10031119201E+02  0.38260943467E+01  0.10938687152E+02  0.00000000000E+00 0.  1.
</event>
<event>
 7    1  0.2935819E-010  0.4778727E+02  0.7816164E-02  0.1312668E+00
        -11   -1    0    0    0    0  0.00000000000E+00  0.00000000000E+00  0.45593999997E+02  0.45594000000E+02  0.51100000000E-03 0.  1.
         11   -1    0    0    0    0 -0.00000000000E+00 -0.00000000000E+00 -0.45593999997E+02  0.45594000000E+02  0.51100000000E-03 0. -1.
    9900012    2    1    2    0    0 -0.15995396299E+02 -0.50199647650E+00 -0.40342517477E+02  0.47787269366E+02  0.19999992347E+02 0.  0.
        -12    1    1    2    0    0  0.15995396299E+02  0.50199647650E+00  0.40342517477E+02  0.43400730634E+02  0.00000000000E+00 0.  1.
         11    1    3    3    0    0 -0.62273159649E+00 -0.41149388513E+01 -0.21561915189E+01  0.46871823645E+01  0.51100000000E-03 0.  1.
        -11    1    3    3    0    0 -0.16954821679E+02  0.33074144207E+01 -0.37612330655E+02  0.41389520242E+02  0.51100000000E-03 0. -1.
         12    1    3    3    0    0  0.15821569767E+01  0.30552795405E+00 -0.57399530280E+00  0.17105667591E+01  0.00000000000E+00 0. -1.
</event>
<event>
 7    1  0.2935819E-010  0.4778727E+02  0.7816164E-02  0.1312668E+00
        -11   -1    0    0    0    0  0.00000000000E+00  0.00000000000E+00  0.45593999997E+02  0.45594000000E+02  0.51100000000E-03 0. -1.
         11   -1    0    0    0    0 -0.00000000000E+00 -0.00000000000E+00 -0.45593999997E+02  0.45594000000E+02  0.51100000000E-03 0.  1.
    9900012    2    1    2    0    0 -0.42183426414E+02  0.16781585972E+00  0.10205561297E+02  0.47787272960E+02  0.20000008736E+02 0.  0.
        -12    1    1    2    0    0  0.42183426414E+02 -0.16781585972E+00 -0.10205561297E+02  0.43400727040E+02  0.00000000000E+00 0.  1.
         11    1    3    3    0    0 -0.31620060709E+02  0.27144442424E+01  0.61729113667E+01  0.32331119402E+02  0.51100000000E-03 0. -1.
        -11    1    3    3    0    0 -0.54389718768E+01 -0.35998355630E+01  0.68963448629E+01  0.94921443249E+01  0.51100000000E-03 0.  1.
        -12    1    3    3    0    0 -0.51243938277E+01  0.10532071803E+01 -0.28636949326E+01  0.59640092331E+01  0.00000000000E+00 0.  1.
</event>
<event>
 7    1  0.2935819E-010  0.4778727E+02  0.7816164E-02  0.1312668E+00
        -11   -1    0    0    0    0  0.00000000000E+00  0.00000000000E+00  0.45593999997E+02  0.45594000000E+02  0.51100000000E-03 0.  1.
         11   -1    0    0    0    0 -0.00000000000E+00 -0.00000000000E+00 -0.45593999997E+02  0.45594000000E+02  0.51100000000E-03 0. -1.
    9900012    2    1    2    0    0  0.96671562533E+01  0.42155952855E+02 -0.36117924334E+01  0.47787270563E+02  0.19999997803E+02 0.  0.
        -12    1    1    2    0    0 -0.96671562533E+01 -0.42155952855E+02  0.36117924334E+01  0.43400729437E+02  0.00000000000E+00 0.  1.
         11    1    3    3    0    0  0.57064302607E+01  0.13767622381E+02  0.86013535974E+00  0.14928181585E+02  0.51100000000E-03 0. -1.
        -11    1    3    3    0    0 -0.41730354737E+01  0.10974614939E+02 -0.66874362290E+01  0.13512150151E+02  0.51100000000E-03 0.  1.
        -12    1    3    3    0    0  0.81337614663E+01  0.17413715535E+02  0.22155084359E+01  0.19346938827E+02  0.00000000000E+00 0.  1.
</event>
<event>
 7    1  0.2935819E-010  0.4778727E+02  0.7816164E-02  0.1312668E+00
        -11   -1    0    0    0    0  0.00000000000E+00  0.00000000000E+00  0.45593999997E+02  0.45594000000E+02  0.51100000000E-03 0.  1.
         11   -1    0    0    0    0 -0.00000000000E+00 -0.00000000000E+00 -0.45593999997E+02  0.45594000000E+02  0.51100000000E-03 0. -1.
    9900012    2    1    2    0    0 -0.37735989958E+01 -0.11583615858E+02 -0.41655765943E+02  0.47787273716E+02  0.20000012179E+02 0.  0.
        -12    1    1    2    0    0  0.37735989958E+01  0.11583615858E+02  0.41655765943E+02  0.43400726284E+02  0.00000000000E+00 0.  1.
         11    1    3    3    0    0 -0.46963587326E+01 -0.12676156000E+02 -0.22594229528E+02  0.26329449757E+02  0.51100000000E-03 0. -1.
        -11    1    3    3    0    0  0.50482192908E+01 -0.93293428257E+00 -0.11739751758E+02  0.12813143876E+02  0.51100000000E-03 0.  1.
         12    1    3    3    0    0 -0.41254595540E+01  0.20254744245E+01 -0.73217846572E+01  0.86446800833E+01  0.00000000000E+00 0. -1.
</event>
<event>
 7    1  0.2935819E-010  0.4778727E+02  0.7816164E-02  0.1312668E+00
        -11   -1    0    0    0    0  0.00000000000E+00  0.00000000000E+00  0.45593999997E+02  0.45594000000E+02  0.51100000000E-03 0. -1.
         11   -1    0    0    0    0 -0.00000000000E+00 -0.00000000000E+00 -0.45593999997E+02  0.45594000000E+02  0.51100000000E-03 0.  1.
    9900012    2    1    2    0    0 -0.42178432084E+02 -0.82777405562E+01 -0.60068632396E+01  0.47787268120E+02  0.19999986665E+02 0.  0.
        -12    1    1    2    0    0  0.42178432084E+02  0.82777405562E+01  0.60068632396E+01  0.43400731880E+02  0.00000000000E+00 0.  1.
         11    1    3    3    0    0 -0.23683016658E+02  0.53869812783E+01 -0.40015200792E+01  0.24615381543E+02  0.51100000000E-03 0. -1.
        -11    1    3    3    0    0 -0.34367920066E+01 -0.22252313984E+01 -0.10990355188E+01  0.42392302846E+01  0.51100000000E-03 0.  1.
         12    1    3    3    0    0 -0.15058623420E+02 -0.11439490436E+02 -0.90630764162E+00  0.18932656292E+02  0.00000000000E+00 0. -1.
</event>
<event>
 7    1  0.2935819E-010  0.4778727E+02  0.7816164E-02  0.1312668E+00
        -11   -1    0    0    0    0  0.00000000000E+00  0.00000000000E+00  0.45593999997E+02  0.45594000000E+02  0.51100000000E-03 0.  1.
         11   -1    0    0    0    0 -0.00000000000E+00 -0.00000000000E+00 -0.45593999997E+02  0.45594000000E+02  0.51100000000E-03 0. -1.
    9900012    2    1    2    0    0 -0.29353333708E+01  0.35830317627E+02 -0.24314509761E+02  0.47787271571E+02  0.20000002401E+02 0.  0.
        -12    1    1    2    0    0  0.29353333708E+01 -0.35830317627E+02  0.24314509761E+02  0.43400728429E+02  0.00000000000E+00 0.  1.
         11    1    3    3    0    0 -0.94747735964E+01  0.18457443881E+02 -0.18744190943E+02  0.27960566226E+02  0.51100000000E-03 0. -1.
        -11    1    3    3    0    0  0.51161966061E+01  0.16618916257E+02 -0.53964024811E+01  0.18206729670E+02  0.51100000000E-03 0.  1.
        -12    1    3    3    0    0  0.14232436195E+01  0.75395748920E+00 -0.17391633704E+00  0.16199756752E+01  0.00000000000E+00 0.  1.
</event>
<event>
 7    1  0.2935819E-010  0.4778726E+02  0.7816164E-02  0.1312668E+00
        -11   -1    0    0    0    0  0.00000000000E+00  0.00000000000E+00  0.45593999997E+02  0.45594000000E+02  0.51100000000E-03 0.  1.
         11   -1    0    0    0    0 -0.00000000000E+00 -0.00000000000E+00 -0.45593999997E+02  0.45594000000E+02  0.51100000000E-03 0. -1.
    9900012    2    1    2    0    0  0.38489059835E+02 -0.20055321265E+02  0.19940683136E-01  0.47787262269E+02  0.19999959988E+02 0.  0.
        -12    1    1    2    0    0 -0.38489059835E+02  0.20055321265E+02 -0.19940683136E-01  0.43400737731E+02  0.00000000000E+00 0.  1.
         11    1    3    3    0    0  0.31202325353E+02 -0.12417178596E+02  0.14398616026E+00  0.33582616991E+02  0.51100000000E-03 0. -1.
        -11    1    3    3    0    0 -0.19951493357E+01 -0.34758085779E+01  0.33622480517E+00  0.40218047594E+01  0.51100000000E-03 0.  1.
        -12    1    3    3    0    0  0.92818838177E+01 -0.41623340912E+01 -0.46027028229E+00  0.10182840518E+02  0.00000000000E+00 0.  1.
</event>
<event>
 7    1  0.2935819E-010  0.4778727E+02  0.7816164E-02  0.1312668E+00
        -11   -1    0    0    0    0  0.00000000000E+00  0.00000000000E+00  0.45593999997E+02  0.45594000000E+02  0.51100000000E-03 0.  1.
         11   -1    0    0    0    0 -0.00000000000E+00 -0.00000000000E+00 -0.45593999997E+02  0.45594000000E+02  0.51100000000E-03 0. -1.
    9900012    2    1    2    0    0 -0.25646229311E+02 -0.24476575476E+02 -0.25035804344E+02  0.47787270466E+02  0.19999997362E+02 0.  0.
        -12    1    1    2    0    0  0.25646229311E+02  0.24476575476E+02  0.25035804344E+02  0.43400729534E+02  0.00000000000E+00 0.  1.
         11    1    3    3    0    0 -0.20953593938E+02 -0.17710714161E+02 -0.15515932384E+02  0.31519306037E+02  0.51100000000E-03 0. -1.
        -11    1    3    3    0    0  0.14894479514E+01  0.40111162398E+00  0.12097588063E+01  0.19603220055E+01  0.51100000000E-03 0.  1.
        -12    1    3    3    0    0 -0.61820833244E+01 -0.71669729385E+01 -0.10729630767E+02  0.14307642423E+02  0.00000000000E+00 0.  1.
</event>
<event>
 7    1  0.2935819E-010  0.4778726E+02  0.7816164E-02  0.1312668E+00
        -11   -1    0    0    0    0  0.00000000000E+00  0.00000000000E+00  0.45593999997E+02  0.45594000000E+02  0.51100000000E-03 0.  1.
         11   -1    0    0    0    0 -0.00000000000E+00 -0.00000000000E+00 -0.45593999997E+02  0.45594000000E+02  0.51100000000E-03 0. -1.
    9900012    2    1    2    0    0  0.16274532654E+01 -0.25847392122E+02 -0.34826544552E+02  0.47787257044E+02  0.19999936168E+02 0.  0.
        -12    1    1    2    0    0 -0.16274532654E+01  0.25847392122E+02  0.34826544552E+02  0.43400742956E+02  0.00000000000E+00 0.  1.
         11    1    3    3    0    0  0.40861837071E+01 -0.16804223166E+02 -0.12012824471E+02  0.21056751067E+02  0.51100000000E-03 0. -1.
        -11    1    3    3    0    0 -0.40198569109E+01  0.44948329473E+00 -0.45496686160E+01  0.60877557106E+01  0.51100000000E-03 0.  1.
        -12    1    3    3    0    0  0.15611264693E+01 -0.94926522509E+01 -0.18264051466E+02  0.20642750266E+02  0.00000000000E+00 0.  1.
</event>
<event>
 7    1  0.2935819E-010  0.4778727E+02  0.7816164E-02  0.1312668E+00
        -11   -1    0    0    0    0  0.00000000000E+00  0.00000000000E+00  0.45593999997E+02  0.45594000000E+02  0.51100000000E-03 0.  1.
         11   -1    0    0    0    0 -0.00000000000E+00 -0.00000000000E+00 -0.45593999997E+02  0.45594000000E+02  0.51100000000E-03 0. -1.
    9900012    2    1    2    0    0 -0.95831119932E+01 -0.14477759050E+02 -0.39776649399E+02  0.47787269821E+02  0.19999994423E+02 0.  0.
        -12    1    1    2    0    0  0.95831119932E+01  0.14477759050E+02  0.39776649399E+02  0.43400730179E+02  0.00000000000E+00 0.  1.
         11    1    3    3    0    0  0.39832539677E+01 -0.81921523292E+01 -0.15946632938E+02  0.18364987729E+02  0.51100000000E-03 0. -1.
        -11    1    3    3    0    0 -0.35459971584E+01 -0.62404262314E+01 -0.11156684511E+02  0.13266070441E+02  0.51100000000E-03 0.  1.
         12    1    3    3    0    0 -0.10020368803E+02 -0.45180489867E-01 -0.12673331950E+02  0.16156211651E+02  0.00000000000E+00 0. -1.
</event>
<event>
 7    1  0.2935819E-010  0.4778727E+02  0.7816164E-02  0.1312668E+00
        -11   -1    0    0    0    0  0.00000000000E+00  0.00000000000E+00  0.45593999997E+02  0.45594000000E+02  0.51100000000E-03 0.  1.
         11   -1    0    0    0    0 -0.00000000000E+00 -0.00000000000E+00 -0.45593999997E+02  0.45594000000E+02  0.51100000000E-03 0. -1.
    9900012    2    1    2    0    0 -0.12106711299E+02 -0.12695338398E+02 -0.39697345489E+02  0.47787270578E+02  0.19999997873E+02 0.  0.
        -12    1    1    2    0    0  0.12106711299E+02  0.12695338398E+02  0.39697345489E+02  0.43400729422E+02  0.00000000000E+00 0.  1.
         11    1    3    3    0    0 -0.21985926918E+01 -0.43934607591E+00 -0.17914039456E+01  0.28698367822E+01  0.51100000000E-03 0. -1.
        -11    1    3    3    0    0 -0.78448781283E+01  0.28312981467E+01 -0.18144696744E+02  0.19969686583E+02  0.51100000000E-03 0.  1.
        -12    1    3    3    0    0 -0.20632404784E+01 -0.15087290468E+02 -0.19761244800E+02  0.24947747213E+02  0.00000000000E+00 0.  1.
</event>
<event>
 7    1  0.2935819E-010  0.4778727E+02  0.7816164E-02  0.1312668E+00
        -11   -1    0    0    0    0  0.00000000000E+00  0.00000000000E+00  0.45593999997E+02  0.45594000000E+02  0.51100000000E-03 0.  1.
         11   -1    0    0    0    0 -0.00000000000E+00 -0.00000000000E+00 -0.45593999997E+02  0.45594000000E+02  0.51100000000E-03 0. -1.
    9900012    2    1    2    0    0 -0.14392851334E+02  0.34034760032E+02 -0.22761897678E+02  0.47787273672E+02  0.20000011979E+02 0.  0.
        -12    1    1    2    0    0  0.14392851334E+02 -0.34034760032E+02  0.22761897678E+02  0.43400726328E+02  0.00000000000E+00 0.  1.
         11    1    3    3    0    0 -0.12256653216E+02  0.12258960500E+02 -0.63736999284E+01  0.18469751261E+02  0.51100000000E-03 0. -1.
        -11    1    3    3    0    0 -0.26432198020E+01  0.11841744206E+00 -0.18163551738E+01  0.32093270309E+01  0.51100000000E-03 0.  1.
         12    1    3    3    0    0  0.50702168382E+00  0.21657382089E+02 -0.14571842575E+02  0.26108195380E+02  0.00000000000E+00 0. -1.
</event>
<event>
 7    1  0.2935819E-010  0.4778727E+02  0.7816164E-02  0.1312668E+00
        -11   -1    0    0    0    0  0.00000000000E+00  0.00000000000E+00  0.45593999997E+02  0.45594000000E+02  0.51100000000E-03 0.  1.
         11   -1    0    0    0    0 -0.00000000000E+00 -0.00000000000E+00 -0.45593999997E+02  0.45594000000E+02  0.51100000000E-03 0. -1.
    9900012    2    1    2    0    0  0.31094844324E+02  0.16803024959E+02 -0.25187139137E+02  0.47787274554E+02  0.20000016001E+02 0.  0.
        -12    1    1    2    0    0 -0.31094844324E+02 -0.16803024959E+02  0.25187139137E+02  0.43400725446E+02  0.00000000000E+00 0.  1.
         11    1    3    3    0    0  0.20144933199E+02  0.17549107898E+02 -0.18373624973E+02  0.32424984449E+02  0.51100000000E-03 0. -1.
        -11    1    3    3    0    0  0.10273585045E+02  0.11585265943E+01 -0.25568676414E+01  0.10650178682E+02  0.51100000000E-03 0.  1.
         12    1    3    3    0    0  0.67632607994E+00 -0.19046095338E+01 -0.42566465226E+01  0.47121114228E+01  0.00000000000E+00 0. -1.
</event>
<event>
 7    1  0.2935819E-010  0.4778727E+02  0.7816164E-02  0.1312668E+00
        -11   -1    0    0    0    0  0.00000000000E+00  0.00000000000E+00  0.45593999997E+02  0.45594000000E+02  0.51100000000E-03 0.  1.
         11   -1    0    0    0    0 -0.00000000000E+00 -0.00000000000E+00 -0.45593999997E+02  0.45594000000E+02  0.51100000000E-03 0. -1.
    9900012    2    1    2    0    0  0.24258617208E+02 -0.14404847356E+02 -0.32979436987E+02  0.47787269590E+02  0.19999993368E+02 0.  0.
        -12    1    1    2    0    0 -0.24258617208E+02  0.14404847356E+02  0.32979436987E+02  0.43400730410E+02  0.00000000000E+00 0.  1.
         11    1    3    3    0    0  0.73843064004E+01 -0.97610486087E+00  0.43312120443E+00  0.74611229687E+01  0.51100000000E-03 0. -1.
        -11    1    3    3    0    0  0.50356689209E+01 -0.33973182306E+01 -0.15380982845E+02  0.16537060385E+02  0.51100000000E-03 0.  1.
         12    1    3    3    0    0  0.11838641887E+02 -0.10031424264E+02 -0.18031575346E+02  0.23789086236E+02  0.00000000000E+00 0. -1.
</event>
<event>
 7    1  0.2935819E-010  0.4778727E+02  0.7816164E-02  0.1312668E+00
        -11   -1    0    0    0    0  0.00000000000E+00  0.00000000000E+00  0.45593999997E+02  0.45594000000E+02  0.51100000000E-03 0.  1.
         11   -1    0    0    0    0 -0.00000000000E+00 -0.00000000000E+00 -0.45593999997E+02  0.45594000000E+02  0.51100000000E-03 0. -1.
    9900012    2    1    2    0    0  0.33012479725E+02  0.23127251060E+02 -0.16091286423E+02  0.47787273532E+02  0.20000011343E+02 0.  0.
        -12    1    1    2    0    0 -0.33012479725E+02 -0.23127251060E+02  0.16091286423E+02  0.43400726468E+02  0.00000000000E+00 0.  1.
         11    1    3    3    0    0  0.12396048203E+02  0.86396452367E+01 -0.72666598862E+00  0.15127244448E+02  0.51100000000E-03 0. -1.
        -11    1    3    3    0    0  0.40560410121E+00  0.37816271591E+01  0.16582423394E+01  0.41490946693E+01  0.51100000000E-03 0.  1.
        -12    1    3    3    0    0  0.20210827421E+02  0.10705978664E+02 -0.17022862774E+02  0.28510934415E+02  0.00000000000E+00 0.  1.
</event>
<event>
 7    1  0.2935819E-010  0.4778727E+02  0.7816164E-02  0.1312668E+00
        -11   -1    0    0    0    0  0.00000000000E+00  0.00000000000E+00  0.45593999997E+02  0.45594000000E+02  0.51100000000E-03 0.  1.
         11   -1    0    0    0    0 -0.00000000000E+00 -0.00000000000E+00 -0.45593999997E+02  0.45594000000E+02  0.51100000000E-03 0. -1.
    9900012    2    1    2    0    0 -0.26077689829E+02 -0.47402441027E+01 -0.34367244703E+02  0.47787270404E+02  0.19999997079E+02 0.  0.
        -12    1    1    2    0    0  0.26077689829E+02  0.47402441027E+01  0.34367244703E+02  0.43400729596E+02  0.00000000000E+00 0.  1.
         11    1    3    3    0    0 -0.13671627943E+02  0.37307719789E+00 -0.23186922667E+02  0.26919992203E+02  0.51100000000E-03 0. -1.
        -11    1    3    3    0    0 -0.12531430230E+02 -0.78954401855E+01 -0.97916751884E+01  0.17755326597E+02  0.51100000000E-03 0.  1.
         12    1    3    3    0    0  0.12536834301E+00  0.27821188849E+01 -0.13886468477E+01  0.31119516029E+01  0.00000000000E+00 0. -1.
</event>
<event>
 7    1  0.2935819E-010  0.4778727E+02  0.7816164E-02  0.1312668E+00
        -11   -1    0    0    0    0  0.00000000000E+00  0.00000000000E+00  0.45593999997E+02  0.45594000000E+02  0.51100000000E-03 0.  1.
         11   -1    0    0    0    0 -0.00000000000E+00 -0.00000000000E+00 -0.45593999997E+02  0.45594000000E+02  0.51100000000E-03 0. -1.
    9900012    2    1    2    0    0 -0.43277800400E+02 -0.26542750916E+01 -0.19000364847E+01  0.47787270486E+02  0.19999997454E+02 0.  0.
        -12    1    1    2    0    0  0.43277800400E+02  0.26542750916E+01  0.19000364847E+01  0.43400729514E+02  0.00000000000E+00 0.  1.
         11    1    3    3    0    0 -0.31622059026E+02 -0.41855706338E+01 -0.57021881456E+01  0.32403527100E+02  0.51100000000E-03 0. -1.
        -11    1    3    3    0    0 -0.79536259759E+01  0.52906315863E+01  0.16920080302E+01  0.97012287975E+01  0.51100000000E-03 0.  1.
         12    1    3    3    0    0 -0.37021153977E+01 -0.37593360441E+01  0.21101436308E+01  0.56825145888E+01  0.00000000000E+00 0. -1.
</event>
<event>
 7    1  0.2935819E-010  0.4778727E+02  0.7816164E-02  0.1312668E+00
        -11   -1    0    0    0    0  0.00000000000E+00  0.00000000000E+00  0.45593999997E+02  0.45594000000E+02  0.51100000000E-03 0.  1.
         11   -1    0    0    0    0 -0.00000000000E+00 -0.00000000000E+00 -0.45593999997E+02  0.45594000000E+02  0.51100000000E-03 0. -1.
    9900012    2    1    2    0    0  0.15705367200E+01  0.28071473414E+02 -0.33062801407E+02  0.47787273714E+02  0.20000012172E+02 0.  0.
        -12    1    1    2    0    0 -0.15705367200E+01 -0.28071473414E+02  0.33062801407E+02  0.43400726286E+02  0.00000000000E+00 0.  1.
         11    1    3    3    0    0  0.75973404312E+01  0.14069138732E+02 -0.13218907955E+02  0.20746078523E+02  0.51100000000E-03 0.  1.
        -11    1    3    3    0    0 -0.32996080973E+01 -0.46983842074E+00 -0.58114976993E+01  0.66993781434E+01  0.51100000000E-03 0. -1.
        -12    1    3    3    0    0 -0.27271956139E+01  0.14472173103E+02 -0.14032395753E+02  0.20341817048E+02  0.00000000000E+00 0.  1.
</event>
<event>
 7    1  0.2935819E-010  0.4778727E+02  0.7816164E-02  0.1312668E+00
        -11   -1    0    0    0    0  0.00000000000E+00  0.00000000000E+00  0.45593999997E+02  0.45594000000E+02  0.51100000000E-03 0.  1.
         11   -1    0    0    0    0 -0.00000000000E+00 -0.00000000000E+00 -0.45593999997E+02  0.45594000000E+02  0.51100000000E-03 0. -1.
    9900012    2    1    2    0    0  0.97993551898E+01  0.38148347464E+02 -0.18229089880E+02  0.47787268506E+02  0.19999988425E+02 0.  0.
        -12    1    1    2    0    0 -0.97993551898E+01 -0.38148347464E+02  0.18229089880E+02  0.43400731494E+02  0.00000000000E+00 0.  1.
         11    1    3    3    0    0  0.82358095781E+01  0.14179633463E+02  0.15180383744E+01  0.16467999433E+02  0.51100000000E-03 0. -1.
        -11    1    3    3    0    0  0.52110846925E+00  0.27235928279E+00 -0.54336861825E+00  0.80061434665E+00  0.51100000000E-03 0.  1.
         12    1    3    3    0    0  0.10424371425E+01  0.23696354718E+02 -0.19203759636E+02  0.30518654726E+02  0.00000000000E+00 0. -1.
</event>
<event>
 7    1  0.2935819E-010  0.4778727E+02  0.7816164E-02  0.1312668E+00
        -11   -1    0    0    0    0  0.00000000000E+00  0.00000000000E+00  0.45593999997E+02  0.45594000000E+02  0.51100000000E-03 0. -1.
         11   -1    0    0    0    0 -0.00000000000E+00 -0.00000000000E+00 -0.45593999997E+02  0.45594000000E+02  0.51100000000E-03 0.  1.
    9900012    2    1    2    0    0  0.23553003378E+02 -0.31711913971E+02  0.17978706022E+02  0.47787270444E+02  0.19999997262E+02 0.  0.
        -12    1    1    2    0    0 -0.23553003378E+02  0.31711913971E+02 -0.17978706022E+02  0.43400729556E+02  0.00000000000E+00 0.  1.
         11    1    3    3    0    0  0.88522699618E+01 -0.20006747950E+02  0.11422159249E+01  0.21907471430E+02  0.51100000000E-03 0.  1.
        -11    1    3    3    0    0  0.11147666270E+02 -0.54086563484E+01  0.98893196769E+01  0.15853159644E+02  0.51100000000E-03 0. -1.
         12    1    3    3    0    0  0.35530671455E+01 -0.62965096727E+01  0.69471704200E+01  0.10026639369E+02  0.00000000000E+00 0. -1.
</event>
<event>
 7    1  0.2935819E-010  0.4778727E+02  0.7816164E-02  0.1312668E+00
        -11   -1    0    0    0    0  0.00000000000E+00  0.00000000000E+00  0.45593999997E+02  0.45594000000E+02  0.51100000000E-03 0.  1.
         11   -1    0    0    0    0 -0.00000000000E+00 -0.00000000000E+00 -0.45593999997E+02  0.45594000000E+02  0.51100000000E-03 0. -1.
    9900012    2    1    2    0    0 -0.35789724352E+02 -0.24041770174E+02 -0.49711055078E+01  0.47787274520E+02  0.20000015846E+02 0.  0.
        -12    1    1    2    0    0  0.35789724352E+02  0.24041770174E+02  0.49711055078E+01  0.43400725480E+02  0.00000000000E+00 0.  1.
         11    1    3    3    0    0 -0.18420872599E+02 -0.19414551500E+02 -0.35208217308E+01  0.26993509279E+02  0.51100000000E-03 0. -1.
        -11    1    3    3    0    0 -0.11593958283E+02  0.20229968251E+01 -0.21284360324E+01  0.11960042852E+02  0.51100000000E-03 0.  1.
        -12    1    3    3    0    0 -0.57748934691E+01 -0.66502154991E+01  0.67815225546E+00  0.88337223890E+01  0.00000000000E+00 0.  1.
</event>
<event>
 7    1  0.2935819E-010  0.4778727E+02  0.7816164E-02  0.1312668E+00
        -11   -1    0    0    0    0  0.00000000000E+00  0.00000000000E+00  0.45593999997E+02  0.45594000000E+02  0.51100000000E-03 0.  1.
         11   -1    0    0    0    0 -0.00000000000E+00 -0.00000000000E+00 -0.45593999997E+02  0.45594000000E+02  0.51100000000E-03 0. -1.
    9900012    2    1    2    0    0 -0.49855693847E+01  0.42622013625E+02 -0.64908635771E+01  0.47787271233E+02  0.20000000861E+02 0.  0.
        -12    1    1    2    0    0  0.49855693847E+01 -0.42622013625E+02  0.64908635771E+01  0.43400728767E+02  0.00000000000E+00 0.  1.
         11    1    3    3    0    0 -0.30928910619E+01  0.76967305696E+01 -0.11106904340E+01  0.83689467727E+01  0.51100000000E-03 0. -1.
        -11    1    3    3    0    0  0.20253738851E+00  0.31549827662E+02 -0.10212853704E+02  0.33162253058E+02  0.51100000000E-03 0.  1.
        -12    1    3    3    0    0 -0.20952157113E+01  0.33754553933E+01  0.48326805607E+01  0.62560714023E+01  0.00000000000E+00 0.  1.
</event>
<event>
 7    1  0.2935819E-010  0.4778727E+02  0.7816164E-02  0.1312668E+00
        -11   -1    0    0    0    0  0.00000000000E+00  0.00000000000E+00  0.45593999997E+02  0.45594000000E+02  0.51100000000E-03 0.  1.
         11   -1    0    0    0    0 -0.00000000000E+00 -0.00000000000E+00 -0.45593999997E+02  0.45594000000E+02  0.51100000000E-03 0. -1.
    9900012    2    1    2    0    0 -0.10850023297E+02 -0.78554259628E+01 -0.41281870308E+02  0.47787267993E+02  0.19999986087E+02 0.  0.
        -12    1    1    2    0    0  0.10850023297E+02  0.78554259628E+01  0.41281870308E+02  0.43400732007E+02  0.00000000000E+00 0.  1.
         11    1    3    3    0    0 -0.15134348707E+02 -0.24412265856E+01 -0.31562617538E+02  0.35088558308E+02  0.51100000000E-03 0. -1.
        -11    1    3    3    0    0  0.30477894485E+01 -0.28632460954E+01 -0.87583052506E+01  0.97054165211E+01  0.51100000000E-03 0.  1.
         12    1    3    3    0    0  0.12365359611E+01 -0.25509532817E+01 -0.96094751950E+00  0.29932931637E+01  0.00000000000E+00 0. -1.
</event>
<event>
 7    1  0.2935819E-010  0.4778727E+02  0.7816164E-02  0.1312668E+00
        -11   -1    0    0    0    0  0.00000000000E+00  0.00000000000E+00  0.45593999997E+02  0.45594000000E+02  0.51100000000E-03 0.  1.
         11   -1    0    0    0    0 -0.00000000000E+00 -0.00000000000E+00 -0.45593999997E+02  0.45594000000E+02  0.51100000000E-03 0. -1.
    9900012    2    1    2    0    0 -0.41938747443E+02 -0.98001796742E+01 -0.53592241408E+01  0.47787270258E+02  0.19999996413E+02 0.  0.
        -12    1    1    2    0    0  0.41938747443E+02  0.98001796742E+01  0.53592241408E+01  0.43400729742E+02  0.00000000000E+00 0.  1.
         11    1    3    3    0    0 -0.29203943657E+02  0.13138457732E-01  0.31041092935E+01  0.29368452334E+02  0.51100000000E-03 0. -1.
        -11    1    3    3    0    0 -0.25461565461E+01 -0.36111677189E+01 -0.19672282325E+01  0.48366757831E+01  0.51100000000E-03 0.  1.
         12    1    3    3    0    0 -0.10188647241E+02 -0.62021504130E+01 -0.64961052017E+01  0.13582142141E+02  0.00000000000E+00 0. -1.
</event>
